<?xml version="1.0" encoding="ISO-8859-1"?>
<modeling>
 <generator>
  <i name="program" type="string">vasp </i>
  <i name="version" type="string">5.4.1  </i>
  <i name="subversion" type="string">24Jun15 (build Mar 14 2019 10:18:33) complex                          parallel </i>
  <i name="platform" type="string">INTEL-19.0.2+OPENMPI-3.1.3 </i>
  <i name="date" type="string">2023 01 31 </i>
  <i name="time" type="string">00:25:11 </i>
 </generator>
 <incar>
  <i type="int" name="ISTART">     0</i>
  <i type="string" name="PREC">normal</i>
  <i type="string" name="ALGO"> Fast</i>
  <i type="int" name="NELM">   500</i>
  <i type="int" name="IBRION">     2</i>
  <i type="int" name="NFREE">     2</i>
  <i name="EDIFF">      0.00000100</i>
  <i name="EDIFFG">     -0.02000000</i>
  <i type="int" name="NSW">   500</i>
  <i type="int" name="ISIF">     0</i>
  <i type="int" name="ISYM">     2</i>
  <i name="ENCUT">    400.00000000</i>
  <i name="POTIM">      0.35000000</i>
  <i type="string" name="LREAL"> Auto</i>
  <i type="logical" name="LPLANE"> T  </i>
  <i type="int" name="ISMEAR">     0</i>
  <i name="SIGMA">      0.10000000</i>
  <i type="int" name="NWRITE">     1</i>
  <i type="logical" name="LWAVE"> F  </i>
  <i type="logical" name="LCHARG"> F  </i>
  <i type="logical" name="LVTOT"> F  </i>
  <i type="logical" name="LORBIT"> F  </i>
  <i type="logical" name="LAECHG"> F  </i>
  <v type="int" name="KPOINT_BSE">    -1     0     0     0</v>
  <i type="int" name="NELM">   500</i>
  <i type="string" name="GGA"> PE          ! optPBE-vdW XC-functional</i>
  <i type="int" name="VOSKOWN">     1</i>
  <i type="logical" name="LDIPOL"> T  </i>
  <i type="logical" name="LMONO"> F  </i>
  <i type="int" name="IDIPOL">     3</i>
  <v name="DIPOL">      0.00000000      0.00000000      0.50000000</v>
 </incar>
 <kpoints>
  <generation param="Monkhorst-Pack">
   <v type="int" name="divisions">       2        2        1 </v>
   <v name="usershift">      0.00000000       0.00000000       0.00000000 </v>
   <v name="genvec1">      0.50000000      -0.00000000       0.00000000 </v>
   <v name="genvec2">      0.00000000       0.50000000       0.00000000 </v>
   <v name="genvec3">      0.00000000       0.00000000       1.00000000 </v>
   <v name="shift">      0.50000000       0.50000000       0.00000000 </v>
  </generation>
  <varray name="kpointlist" >
   <v>       0.25000000       0.25000000       0.00000000 </v>
   <v>       0.00000000       0.25000000       0.00000000 </v>
   <v>      -0.25000000       0.00000000       0.00000000 </v>
   <v>      -0.25000000       0.25000000       0.00000000 </v>
   <v>       0.50000000      -0.25000000       0.00000000 </v>
   <v>      -0.25000000       0.50000000       0.00000000 </v>
  </varray>
  <varray name="weights" >
   <v>       0.16666667 </v>
   <v>       0.16666667 </v>
   <v>       0.16666667 </v>
   <v>       0.16666667 </v>
   <v>       0.16666667 </v>
   <v>       0.16666667 </v>
  </varray>
 </kpoints>
 <parameters>
  <separator name="general" >
   <i type="string" name="SYSTEM">unknown system</i>
   <i type="logical" name="LCOMPAT"> F  </i>
  </separator>
  <separator name="electronic" >
   <i type="string" name="PREC">normal</i>
   <i name="ENMAX">    400.00000000</i>
   <i name="ENAUG">    416.23000000</i>
   <i name="EDIFF">      0.00000100</i>
   <i type="int" name="IALGO">    68</i>
   <i type="int" name="IWAVPR">    11</i>
   <i type="int" name="NBANDS">   306</i>
   <i name="NELECT">    504.00000000</i>
   <i type="int" name="TURBO">     0</i>
   <i type="int" name="IRESTART">     0</i>
   <i type="int" name="NREBOOT">     0</i>
   <i type="int" name="NMIN">     0</i>
   <i name="EREF">      0.00000000</i>
   <separator name="electronic smearing" >
    <i type="int" name="ISMEAR">     0</i>
    <i name="SIGMA">      0.10000000</i>
    <i name="KSPACING">      0.50000000</i>
    <i type="logical" name="KGAMMA"> T  </i>
   </separator>
   <separator name="electronic projectors" >
    <i type="logical" name="LREAL"> T  </i>
    <v name="ROPT">     -0.00050000     -0.00050000</v>
    <i type="int" name="LMAXPAW">  -100</i>
    <i type="int" name="LMAXMIX">     2</i>
    <i type="logical" name="NLSPLINE"> F  </i>
   </separator>
   <separator name="electronic startup" >
    <i type="int" name="ISTART">     0</i>
    <i type="int" name="ICHARG">     2</i>
    <i type="int" name="INIWAV">     1</i>
   </separator>
   <separator name="electronic spin" >
    <i type="int" name="ISPIN">     1</i>
    <i type="logical" name="LNONCOLLINEAR"> F  </i>
    <v name="MAGMOM">      1.00000000      1.00000000      1.00000000      1.00000000      1.00000000      1.00000000      1.00000000      1.00000000      1.00000000      1.00000000      1.00000000      1.00000000      1.00000000      1.00000000      1.00000000      1.00000000      1.00000000      1.00000000      1.00000000      1.00000000
      1.00000000      1.00000000      1.00000000      1.00000000      1.00000000      1.00000000      1.00000000      1.00000000      1.00000000      1.00000000      1.00000000      1.00000000      1.00000000      1.00000000      1.00000000      1.00000000      1.00000000      1.00000000      1.00000000      1.00000000
      1.00000000      1.00000000      1.00000000      1.00000000      1.00000000      1.00000000      1.00000000      1.00000000</v>
    <i name="NUPDOWN">     -1.00000000</i>
    <i type="logical" name="LSORBIT"> F  </i>
    <v name="SAXIS">      0.00000000      0.00000000      1.00000000</v>
    <i type="logical" name="LSPIRAL"> F  </i>
    <v name="QSPIRAL">      0.00000000      0.00000000      0.00000000</v>
    <i type="logical" name="LZEROZ"> F  </i>
   </separator>
   <separator name="electronic exchange-correlation" >
    <i type="logical" name="LASPH"> F  </i>
    <i type="logical" name="LMETAGGA"> F  </i>
   </separator>
   <separator name="electronic convergence" >
    <i type="int" name="NELM">   500</i>
    <i type="int" name="NELMDL">    -5</i>
    <i type="int" name="NELMIN">     2</i>
    <i name="ENINI">    400.00000000</i>
    <separator name="electronic convergence detail" >
     <i type="logical" name="LDIAG"> T  </i>
     <i type="logical" name="LSUBROT"> F  </i>
     <i name="WEIMIN">      0.00100000</i>
     <i name="EBREAK">      0.00000000</i>
     <i name="DEPER">      0.30000000</i>
     <i type="int" name="NRMM">     4</i>
     <i name="TIME">      0.40000000</i>
    </separator>
   </separator>
   <separator name="electronic mixer" >
    <i name="AMIX">      0.40000000</i>
    <i name="BMIX">      1.00000000</i>
    <i name="AMIN">      0.10000000</i>
    <i name="AMIX_MAG">      1.60000000</i>
    <i name="BMIX_MAG">      1.00000000</i>
    <separator name="electronic mixer details" >
     <i type="int" name="IMIX">     4</i>
     <i type="logical" name="MIXFIRST"> F  </i>
     <i type="int" name="MAXMIX">   -45</i>
     <i name="WC">    100.00000000</i>
     <i type="int" name="INIMIX">     1</i>
     <i type="int" name="MIXPRE">     1</i>
     <i type="int" name="MREMOVE">     5</i>
    </separator>
   </separator>
   <separator name="electronic dipolcorrection" >
    <i type="logical" name="LDIPOL"> T  </i>
    <i type="logical" name="LMONO"> F  </i>
    <i type="int" name="IDIPOL">     3</i>
    <i name="EPSILON">      1.00000000</i>
    <v name="DIPOL">      0.00000000      0.00000000      0.50000000</v>
    <i name="EFIELD">      0.00000000</i>
   </separator>
  </separator>
  <separator name="grids" >
   <i type="int" name="NGX">    54</i>
   <i type="int" name="NGY">    54</i>
   <i type="int" name="NGZ">   120</i>
   <i type="int" name="NGXF">   108</i>
   <i type="int" name="NGYF">   108</i>
   <i type="int" name="NGZF">   240</i>
   <i type="logical" name="ADDGRID"> F  </i>
  </separator>
  <separator name="ionic" >
   <i type="int" name="NSW">   500</i>
   <i type="int" name="IBRION">     2</i>
   <i type="int" name="ISIF">     0</i>
   <i name="PSTRESS">      0.00000000</i>
   <i name="EDIFFG">     -0.02000000</i>
   <i type="int" name="NFREE">     2</i>
   <i name="POTIM">      0.35000000</i>
   <i name="SMASS">     -3.00000000</i>
   <i name="SCALEE">      1.00000000</i>
  </separator>
  <separator name="ionic md" >
   <i name="TEBEG">      0.00010000</i>
   <i name="TEEND">      0.00010000</i>
   <i type="int" name="NBLOCK">     1</i>
   <i type="int" name="KBLOCK">   500</i>
   <i type="int" name="NPACO">   256</i>
   <i name="APACO">     16.00000000</i>
  </separator>
  <separator name="symmetry" >
   <i type="int" name="ISYM">     2</i>
   <i name="SYMPREC">      0.00001000</i>
  </separator>
  <separator name="dos" >
   <i type="logical" name="LORBIT"> F  </i>
   <v name="RWIGS">     -1.00000000     -1.00000000</v>
   <i type="int" name="NEDOS">   301</i>
   <i name="EMIN">     10.00000000</i>
   <i name="EMAX">    -10.00000000</i>
   <i name="EFERMI">      0.00000000</i>
  </separator>
  <separator name="writing" >
   <i type="int" name="NWRITE">     1</i>
   <i type="logical" name="LWAVE"> F  </i>
   <i type="logical" name="LCHARG"> F  </i>
   <i type="logical" name="LPARD"> F  </i>
   <i type="logical" name="LVTOT"> F  </i>
   <i type="logical" name="LVHAR"> F  </i>
   <i type="logical" name="LELF"> F  </i>
   <i type="logical" name="LOPTICS"> F  </i>
   <v name="STM">      0.00000000      0.00000000      0.00000000      0.00000000      0.00000000      0.00000000      0.00000000</v>
  </separator>
  <separator name="performance" >
   <i type="int" name="NPAR">     6</i>
   <i type="int" name="NSIM">     4</i>
   <i type="int" name="NBLK">    -1</i>
   <i type="logical" name="LPLANE"> T  </i>
   <i type="logical" name="LSCALAPACK"> T  </i>
   <i type="logical" name="LSCAAWARE"> F  </i>
   <i type="logical" name="LSCALU"> F  </i>
   <i type="logical" name="LASYNC"> F  </i>
   <i type="logical" name="LORBITALREAL"> F  </i>
  </separator>
  <separator name="miscellaneous" >
   <i type="int" name="IDIOT">     3</i>
   <i type="logical" name="LMUSIC"> F  </i>
   <v name="POMASS">    196.96600000    106.42000000</v>
   <v name="DARWINR">      0.00000000      0.00000000</v>
   <v name="DARWINV">      1.00000000      1.00000000</v>
   <i type="logical" name="LCORR"> T  </i>
  </separator>
  <i type="logical" name="GGA_COMPAT"> T  </i>
  <i type="logical" name="LBERRY"> F  </i>
  <i type="int" name="ICORELEVEL">     0</i>
  <i type="logical" name="LDAU"> F  </i>
  <i type="int" name="I_CONSTRAINED_M">     0</i>
  <separator name="electronic exchange-correlation" >
   <i type="string" name="GGA">PE</i>
   <i type="int" name="VOSKOWN">     1</i>
   <i type="logical" name="LHFCALC"> F  </i>
   <i type="string" name="PRECFOCK"></i>
   <i type="logical" name="LSYMGRAD"> F  </i>
   <i type="logical" name="LHFONE"> F  </i>
   <i type="logical" name="LRHFCALC"> F  </i>
   <i type="logical" name="LTHOMAS"> F  </i>
   <i type="logical" name="LMODELHF"> F  </i>
   <i name="ENCUT4O">     -1.00000000</i>
   <i type="int" name="EXXOEP">     0</i>
   <i type="int" name="FOURORBIT">     0</i>
   <i name="AEXX">      0.00000000</i>
   <i name="HFALPHA">      0.00000000</i>
   <i name="MCALPHA">      0.00000000</i>
   <i name="ALDAX">      1.00000000</i>
   <i name="AGGAX">      1.00000000</i>
   <i name="ALDAC">      1.00000000</i>
   <i name="AGGAC">      1.00000000</i>
   <i type="int" name="NKREDX">     1</i>
   <i type="int" name="NKREDY">     1</i>
   <i type="int" name="NKREDZ">     1</i>
   <i type="logical" name="SHIFTRED"> F  </i>
   <i type="logical" name="ODDONLY"> F  </i>
   <i type="logical" name="EVENONLY"> F  </i>
   <i type="int" name="LMAXFOCK">     0</i>
   <i type="int" name="NMAXFOCKAE">     0</i>
   <i type="logical" name="LFOCKAEDFT"> F  </i>
   <i name="HFSCREEN">      0.00000000</i>
   <i name="HFSCREENC">      0.00000000</i>
   <i type="int" name="NBANDSGWLOW">     0</i>
  </separator>
  <separator name="vdW DFT" >
   <i type="logical" name="LUSE_VDW"> F  </i>
   <i name="Zab_VDW">     -0.84910000</i>
   <i name="PARAM1">      0.12340000</i>
   <i name="PARAM2">      1.00000000</i>
   <i name="PARAM3">      0.00000000</i>
  </separator>
  <separator name="model GW" >
   <i type="int" name="MODEL_GW">     0</i>
   <i name="MODEL_EPS0">     32.09595293</i>
   <i name="MODEL_ALPHA">      1.00000000</i>
  </separator>
  <separator name="linear response parameters" >
   <i type="logical" name="LEPSILON"> F  </i>
   <i type="logical" name="LRPA"> F  </i>
   <i type="logical" name="LNABLA"> F  </i>
   <i type="logical" name="LVEL"> F  </i>
   <i type="int" name="KINTER">     0</i>
   <i name="CSHIFT">      0.10000000</i>
   <i name="OMEGAMAX">     -1.00000000</i>
   <i name="DEG_THRESHOLD">      0.00200000</i>
  </separator>
  <separator name="orbital magnetization" >
   <i type="logical" name="NUCIND"> F  </i>
   <v name="MAGPOS">      0.00000000      0.00000000      0.00000000</v>
   <i type="logical" name="LNICSALL"> T  </i>
   <i type="logical" name="ORBITALMAG"> F  </i>
   <i type="logical" name="LMAGBLOCH"> F  </i>
   <i type="logical" name="LCHIMAG"> F  </i>
   <i type="logical" name="LGAUGE"> T  </i>
   <i type="int" name="MAGATOM">     0</i>
   <v name="MAGDIPOL">      0.00000000      0.00000000      0.00000000</v>
   <v name="AVECCONST">      0.00000000      0.00000000      0.00000000</v>
  </separator>
  <separator name="response functions" >
   <i type="logical" name="LADDER"> F  </i>
   <i type="logical" name="LFXC"> F  </i>
   <i type="logical" name="LHARTREE"> T  </i>
   <i type="int" name="IBSE">     0</i>
   <v type="int" name="KPOINT">    -1     0     0     0</v>
   <i type="logical" name="LTCTE"> F  </i>
   <i type="logical" name="LTETE"> F  </i>
   <i type="logical" name="LTRIPLET"> F  </i>
   <i type="logical" name="LFXCEPS"> F  </i>
   <i type="logical" name="LFXHEG"> F  </i>
   <i type="int" name="NATURALO">     0</i>
   <i type="logical" name="L2ORDER"> F  </i>
   <i type="logical" name="LUSEW"> F  </i>
   <i name="ENCUTGW">     -2.00000000</i>
   <i name="ENCUTGWSOFT">     -2.00000000</i>
   <i name="ENCUTLF">     -1.00000000</i>
   <i type="int" name="LMAXMP2">    -1</i>
   <i name="SCISSOR">      0.00000000</i>
   <i type="int" name="NOMEGA">     0</i>
   <i type="int" name="NOMEGAR">     0</i>
   <i type="int" name="NBANDSGW">    -1</i>
   <i type="int" name="NBANDSO">    -1</i>
   <i type="int" name="NBANDSV">    -1</i>
   <i type="int" name="NELM">   500</i>
   <i type="int" name="NELMHF">     1</i>
   <i type="int" name="DIM">     3</i>
   <i type="int" name="ANTIRES">     0</i>
   <i name="OMEGAMAX">    -30.00000000</i>
   <i name="OMEGAMIN">    -30.00000000</i>
   <i name="OMEGATL">   -200.00000000</i>
   <i type="int" name="OMEGAGRID">     0</i>
   <i name="CSHIFT">     -0.10000000</i>
   <i type="logical" name="SELFENERGY"> F  </i>
   <i type="logical" name="LSPECTRAL"> F  </i>
   <i type="logical" name="LSPECTRALGW"> F  </i>
   <i type="logical" name="LSINGLES"> F  </i>
   <i type="logical" name="LFERMIGW"> F  </i>
   <i type="logical" name="ODDONLYGW"> F  </i>
   <i type="logical" name="EVENONLYGW"> F  </i>
   <i type="int" name="NKREDLFX">     1</i>
   <i type="int" name="NKREDLFY">     1</i>
   <i type="int" name="NKREDLFZ">     1</i>
   <i type="int" name="MAXMEM">  1800</i>
   <i type="int" name="TELESCOPE">     0</i>
   <i type="int" name="TAUPAR">     1</i>
   <i type="int" name="OMEGAPAR">    -1</i>
   <i name="LAMBDA">      1.00000000</i>
  </separator>
  <separator name="External order field" >
   <i name="OFIELD_KAPPA">      0.00000000</i>
   <v name="OFIELD_K">      0.00000000      0.00000000      0.00000000</v>
   <i name="OFIELD_Q6_NEAR">      0.00000000</i>
   <i name="OFIELD_Q6_FAR">      0.00000000</i>
   <i name="OFIELD_A">      0.00000000</i>
  </separator>
 </parameters>
 <atominfo>
  <atoms>      48 </atoms>
  <types>       2 </types>
  <array name="atoms" >
   <dimension dim="1">ion</dimension>
   <field type="string">element</field>
   <field type="int">atomtype</field>
   <set>
    <rc><c>Au</c><c>   1</c></rc>
    <rc><c>Au</c><c>   1</c></rc>
    <rc><c>Au</c><c>   1</c></rc>
    <rc><c>Au</c><c>   1</c></rc>
    <rc><c>Au</c><c>   1</c></rc>
    <rc><c>Au</c><c>   1</c></rc>
    <rc><c>Au</c><c>   1</c></rc>
    <rc><c>Au</c><c>   1</c></rc>
    <rc><c>Au</c><c>   1</c></rc>
    <rc><c>Au</c><c>   1</c></rc>
    <rc><c>Au</c><c>   1</c></rc>
    <rc><c>Au</c><c>   1</c></rc>
    <rc><c>Au</c><c>   1</c></rc>
    <rc><c>Au</c><c>   1</c></rc>
    <rc><c>Au</c><c>   1</c></rc>
    <rc><c>Au</c><c>   1</c></rc>
    <rc><c>Au</c><c>   1</c></rc>
    <rc><c>Au</c><c>   1</c></rc>
    <rc><c>Au</c><c>   1</c></rc>
    <rc><c>Au</c><c>   1</c></rc>
    <rc><c>Au</c><c>   1</c></rc>
    <rc><c>Au</c><c>   1</c></rc>
    <rc><c>Au</c><c>   1</c></rc>
    <rc><c>Au</c><c>   1</c></rc>
    <rc><c>Pd</c><c>   2</c></rc>
    <rc><c>Pd</c><c>   2</c></rc>
    <rc><c>Pd</c><c>   2</c></rc>
    <rc><c>Pd</c><c>   2</c></rc>
    <rc><c>Pd</c><c>   2</c></rc>
    <rc><c>Pd</c><c>   2</c></rc>
    <rc><c>Pd</c><c>   2</c></rc>
    <rc><c>Pd</c><c>   2</c></rc>
    <rc><c>Pd</c><c>   2</c></rc>
    <rc><c>Pd</c><c>   2</c></rc>
    <rc><c>Pd</c><c>   2</c></rc>
    <rc><c>Pd</c><c>   2</c></rc>
    <rc><c>Pd</c><c>   2</c></rc>
    <rc><c>Pd</c><c>   2</c></rc>
    <rc><c>Pd</c><c>   2</c></rc>
    <rc><c>Pd</c><c>   2</c></rc>
    <rc><c>Pd</c><c>   2</c></rc>
    <rc><c>Pd</c><c>   2</c></rc>
    <rc><c>Pd</c><c>   2</c></rc>
    <rc><c>Pd</c><c>   2</c></rc>
    <rc><c>Pd</c><c>   2</c></rc>
    <rc><c>Pd</c><c>   2</c></rc>
    <rc><c>Pd</c><c>   2</c></rc>
    <rc><c>Pd</c><c>   2</c></rc>
   </set>
  </array>
  <array name="atomtypes" >
   <dimension dim="1">type</dimension>
   <field type="int">atomspertype</field>
   <field type="string">element</field>
   <field>mass</field>
   <field>valence</field>
   <field type="string">pseudopotential</field>
   <set>
    <rc><c>  24</c><c>Au</c><c>    196.96600000</c><c>     11.00000000</c><c>  PAW_PBE Au 04Oct2007                  </c></rc>
    <rc><c>  24</c><c>Pd</c><c>    106.42000000</c><c>     10.00000000</c><c>  PAW_PBE Pd 04Jan2005                  </c></rc>
   </set>
  </array>
 </atominfo>
 <structure name="initialpos" >
  <crystal>
   <varray name="basis" >
    <v>      11.00258152       0.00000000       0.00000000 </v>
    <v>       5.50129076       9.52851510       0.00000000 </v>
    <v>       0.00000000       0.00000000      24.49178509 </v>
   </varray>
   <i name="volume">   2567.67623402 </i>
   <varray name="rec_basis" >
    <v>       0.09088776      -0.05247407       0.00000000 </v>
    <v>       0.00000000       0.10494815       0.00000000 </v>
    <v>       0.00000000       0.00000000       0.04083002 </v>
   </varray>
  </crystal>
  <varray name="positions" >
   <v>       0.33333333       0.33333333       0.40830017 </v>
   <v>       0.00000000       0.25000000       0.59169983 </v>
   <v>       0.08333333       0.58333333       0.40830017 </v>
   <v>       0.66666667       0.66666667       0.50000000 </v>
   <v>       0.83333333       0.58333333       0.40830017 </v>
   <v>       0.00000000       0.50000000       0.59169983 </v>
   <v>       0.08333333       0.83333333       0.40830017 </v>
   <v>       0.91666667       0.91666667       0.50000000 </v>
   <v>       0.75000000       0.25000000       0.59169983 </v>
   <v>       0.41666667       0.66666667       0.50000000 </v>
   <v>       0.25000000       0.00000000       0.59169983 </v>
   <v>       0.58333333       0.58333333       0.40830017 </v>
   <v>       0.91666667       0.41666667       0.50000000 </v>
   <v>       0.25000000       0.25000000       0.59169983 </v>
   <v>       0.33333333       0.58333333       0.40830017 </v>
   <v>       0.66666667       0.16666667       0.50000000 </v>
   <v>       0.25000000       0.50000000       0.59169983 </v>
   <v>       0.58333333       0.08333333       0.40830017 </v>
   <v>       0.41666667       0.16666667       0.50000000 </v>
   <v>       0.58333333       0.83333333       0.40830017 </v>
   <v>       0.58333333       0.33333333       0.40830017 </v>
   <v>       0.50000000       0.50000000       0.59169983 </v>
   <v>       0.50000000       0.25000000       0.59169983 </v>
   <v>       0.75000000       0.00000000       0.59169983 </v>
   <v>       0.16666667       0.66666667       0.50000000 </v>
   <v>       0.16666667       0.41666667       0.50000000 </v>
   <v>       0.16666667       0.16666667       0.50000000 </v>
   <v>       0.33333333       0.08333333       0.40830017 </v>
   <v>       0.91666667       0.16666667       0.50000000 </v>
   <v>       0.91666667       0.66666667       0.50000000 </v>
   <v>       0.08333333       0.33333333       0.40830017 </v>
   <v>       0.00000000       0.00000000       0.59169983 </v>
   <v>       0.33333333       0.83333333       0.40830017 </v>
   <v>       0.00000000       0.75000000       0.59169983 </v>
   <v>       0.16666667       0.91666667       0.50000000 </v>
   <v>       0.83333333       0.33333333       0.40830017 </v>
   <v>       0.50000000       0.00000000       0.59169983 </v>
   <v>       0.25000000       0.75000000       0.59169983 </v>
   <v>       0.08333333       0.08333333       0.40830017 </v>
   <v>       0.83333333       0.08333333       0.40830017 </v>
   <v>       0.50000000       0.75000000       0.59169983 </v>
   <v>       0.41666667       0.91666667       0.50000000 </v>
   <v>       0.75000000       0.50000000       0.59169983 </v>
   <v>       0.83333333       0.83333333       0.40830017 </v>
   <v>       0.66666667       0.41666667       0.50000000 </v>
   <v>       0.41666667       0.41666667       0.50000000 </v>
   <v>       0.66666667       0.91666667       0.50000000 </v>
   <v>       0.75000000       0.75000000       0.59169983 </v>
  </varray>
  <varray name="selective"  type="logical" >
   <v type="logical" >  F  F  F </v>
   <v type="logical" >  T  T  T </v>
   <v type="logical" >  F  F  F </v>
   <v type="logical" >  T  T  T </v>
   <v type="logical" >  F  F  F </v>
   <v type="logical" >  T  T  T </v>
   <v type="logical" >  F  F  F </v>
   <v type="logical" >  T  T  T </v>
   <v type="logical" >  T  T  T </v>
   <v type="logical" >  T  T  T </v>
   <v type="logical" >  T  T  T </v>
   <v type="logical" >  F  F  F </v>
   <v type="logical" >  T  T  T </v>
   <v type="logical" >  T  T  T </v>
   <v type="logical" >  F  F  F </v>
   <v type="logical" >  T  T  T </v>
   <v type="logical" >  T  T  T </v>
   <v type="logical" >  F  F  F </v>
   <v type="logical" >  T  T  T </v>
   <v type="logical" >  F  F  F </v>
   <v type="logical" >  F  F  F </v>
   <v type="logical" >  T  T  T </v>
   <v type="logical" >  T  T  T </v>
   <v type="logical" >  T  T  T </v>
   <v type="logical" >  T  T  T </v>
   <v type="logical" >  T  T  T </v>
   <v type="logical" >  T  T  T </v>
   <v type="logical" >  F  F  F </v>
   <v type="logical" >  T  T  T </v>
   <v type="logical" >  T  T  T </v>
   <v type="logical" >  F  F  F </v>
   <v type="logical" >  T  T  T </v>
   <v type="logical" >  F  F  F </v>
   <v type="logical" >  T  T  T </v>
   <v type="logical" >  T  T  T </v>
   <v type="logical" >  F  F  F </v>
   <v type="logical" >  T  T  T </v>
   <v type="logical" >  T  T  T </v>
   <v type="logical" >  F  F  F </v>
   <v type="logical" >  F  F  F </v>
   <v type="logical" >  T  T  T </v>
   <v type="logical" >  T  T  T </v>
   <v type="logical" >  T  T  T </v>
   <v type="logical" >  F  F  F </v>
   <v type="logical" >  T  T  T </v>
   <v type="logical" >  T  T  T </v>
   <v type="logical" >  T  T  T </v>
   <v type="logical" >  T  T  T </v>
  </varray>
  <nose>
   <v>      -3.00000000       0.00000000       0.00010000       0.00010000 </v>
  </nose>
 </structure>
 <calculation>
  <scstep>
   <time name="dav">    9.61    9.63</time>
   <time name="total">    9.69    9.71</time>
   <dipole>
    <v name="dipole">      0.00000000       0.00000000       0.00000000 </v>
    <i name="Tr[quadrupol]"> -10360.54867614 </i>
    <i name="Echarged">      0.00000000 </i>
    <i name="Edipol_quadrupol">      0.00000000 </i>
    <i name="Eion">      0.00000000 </i>
   </dipole>
   <energy>
    <i name="alphaZ">    805.86936429 </i>
    <i name="ewald"> 199695.50584033 </i>
    <i name="hartreedc">-242107.99655099 </i>
    <i name="XCdc">   -327.75722461 </i>
    <i name="pawpsdc">  40340.05962942 </i>
    <i name="pawaedc"> -38292.62782345 </i>
    <i name="eentropy">     -0.13561246 </i>
    <i name="bandstr">   1427.22346902 </i>
    <i name="atom">  41659.78587232 </i>
    <i name="e_fr_energy">   3199.92696386 </i>
    <i name="e_wo_entrp">   3200.06257632 </i>
    <i name="e_0_energy">   3199.99477009 </i>
   </energy>
  </scstep>
  <scstep>
   <time name="dav">   10.99   11.00</time>
   <time name="total">   10.99   11.00</time>
   <dipole>
    <v name="dipole">      0.00000000       0.00000000       0.00000000 </v>
    <i name="Tr[quadrupol]"> -10360.54867614 </i>
    <i name="Echarged">      0.00000000 </i>
    <i name="Edipol_quadrupol">      0.00000000 </i>
    <i name="Eion">      0.00000000 </i>
   </dipole>
   <energy>
    <i name="e_fr_energy">     14.31998721 </i>
    <i name="e_wo_entrp">     14.43514390 </i>
    <i name="e_0_energy">     14.37756556 </i>
   </energy>
  </scstep>
  <scstep>
   <time name="dav">   10.74   10.75</time>
   <time name="total">   10.74   10.76</time>
   <dipole>
    <v name="dipole">      0.00000000       0.00000000       0.00000000 </v>
    <i name="Tr[quadrupol]"> -10360.54867614 </i>
    <i name="Echarged">      0.00000000 </i>
    <i name="Edipol_quadrupol">      0.00000000 </i>
    <i name="Eion">      0.00000000 </i>
   </dipole>
   <energy>
    <i name="e_fr_energy">   -201.79340582 </i>
    <i name="e_wo_entrp">   -201.61528872 </i>
    <i name="e_0_energy">   -201.70434727 </i>
   </energy>
  </scstep>
  <scstep>
   <time name="dav">   10.81   10.87</time>
   <time name="total">   10.81   10.88</time>
   <dipole>
    <v name="dipole">      0.00000000       0.00000000       0.00000000 </v>
    <i name="Tr[quadrupol]"> -10360.54867614 </i>
    <i name="Echarged">      0.00000000 </i>
    <i name="Edipol_quadrupol">      0.00000000 </i>
    <i name="Eion">      0.00000000 </i>
   </dipole>
   <energy>
    <i name="e_fr_energy">   -207.59232073 </i>
    <i name="e_wo_entrp">   -207.40680623 </i>
    <i name="e_0_energy">   -207.49956348 </i>
   </energy>
  </scstep>
  <scstep>
   <time name="dav">   11.31   11.32</time>
   <time name="total">   11.62   11.63</time>
   <dipole>
    <v name="dipole">      0.00000000       0.00000000       0.00000000 </v>
    <i name="Tr[quadrupol]"> -10360.54867614 </i>
    <i name="Echarged">      0.00000000 </i>
    <i name="Edipol_quadrupol">      0.00000000 </i>
    <i name="Eion">      0.00000000 </i>
   </dipole>
   <energy>
    <i name="e_fr_energy">   -207.78723085 </i>
    <i name="e_wo_entrp">   -207.60178340 </i>
    <i name="e_0_energy">   -207.69450713 </i>
   </energy>
  </scstep>
  <scstep>
   <time name="diag">    1.65    1.65</time>
   <time name="diis">    4.56    4.57</time>
   <time name="orth">    0.50    0.50</time>
   <time name="total">    7.18    7.21</time>
   <dipole>
    <v name="dipole">      0.00000000       0.00000000      -0.00189569 </v>
    <i name="Tr[quadrupol]"> -10363.33632287 </i>
    <i name="Echarged">      0.00000000 </i>
    <i name="Edipol_quadrupol">      0.00000000 </i>
    <i name="Eion">      0.00000000 </i>
   </dipole>
   <energy>
    <i name="e_fr_energy">   -201.44935634 </i>
    <i name="e_wo_entrp">   -201.18101083 </i>
    <i name="e_0_energy">   -201.31518359 </i>
   </energy>
  </scstep>
  <scstep>
   <time name="diag">    1.81    1.82</time>
   <time name="diis">    4.53    4.53</time>
   <time name="orth">    0.41    0.41</time>
   <time name="total">    7.13    7.14</time>
   <dipole>
    <v name="dipole">      0.00000000       0.00000000       0.20106977 </v>
    <i name="Tr[quadrupol]"> -10360.54164174 </i>
    <i name="Echarged">      0.00000000 </i>
    <i name="Edipol_quadrupol">      0.00000000 </i>
    <i name="Eion">      0.00000000 </i>
   </dipole>
   <energy>
    <i name="e_fr_energy">   -200.49745126 </i>
    <i name="e_wo_entrp">   -200.28818269 </i>
    <i name="e_0_energy">   -200.39281697 </i>
   </energy>
  </scstep>
  <scstep>
   <time name="diag">    1.66    1.66</time>
   <time name="diis">    4.49    4.52</time>
   <time name="orth">    0.40    0.42</time>
   <time name="total">    6.90    6.97</time>
   <dipole>
    <v name="dipole">      0.00000000       0.00000000      -0.76898237 </v>
    <i name="Tr[quadrupol]"> -10362.88408224 </i>
    <i name="Echarged">      0.00000000 </i>
    <i name="Edipol_quadrupol">      0.00000000 </i>
    <i name="Eion">      0.00000000 </i>
   </dipole>
   <energy>
    <i name="e_fr_energy">   -202.98084215 </i>
    <i name="e_wo_entrp">   -202.76222643 </i>
    <i name="e_0_energy">   -202.87153429 </i>
   </energy>
  </scstep>
  <scstep>
   <time name="diag">    1.67    1.67</time>
   <time name="diis">    4.36    4.36</time>
   <time name="orth">    0.41    0.41</time>
   <time name="total">    6.80    6.81</time>
   <dipole>
    <v name="dipole">      0.00000000       0.00000000       0.98157825 </v>
    <i name="Tr[quadrupol]"> -10363.70717703 </i>
    <i name="Echarged">      0.00000000 </i>
    <i name="Edipol_quadrupol">      0.00000000 </i>
    <i name="Eion">      0.00000000 </i>
   </dipole>
   <energy>
    <i name="e_fr_energy">   -200.90845452 </i>
    <i name="e_wo_entrp">   -200.68442223 </i>
    <i name="e_0_energy">   -200.79643838 </i>
   </energy>
  </scstep>
  <scstep>
   <time name="diag">    1.66    1.66</time>
   <time name="diis">    4.37    4.37</time>
   <time name="orth">    0.40    0.40</time>
   <time name="total">    6.79    6.80</time>
   <dipole>
    <v name="dipole">      0.00000000       0.00000000      -0.31044362 </v>
    <i name="Tr[quadrupol]"> -10363.83976987 </i>
    <i name="Echarged">      0.00000000 </i>
    <i name="Edipol_quadrupol">      0.00000000 </i>
    <i name="Eion">      0.00000000 </i>
   </dipole>
   <energy>
    <i name="e_fr_energy">   -193.22724605 </i>
    <i name="e_wo_entrp">   -193.00729515 </i>
    <i name="e_0_energy">   -193.11727060 </i>
   </energy>
  </scstep>
  <scstep>
   <time name="diag">    1.67    1.67</time>
   <time name="diis">    4.49    4.49</time>
   <time name="orth">    0.40    0.40</time>
   <time name="total">    6.91    6.92</time>
   <dipole>
    <v name="dipole">      0.00000000       0.00000000       0.06992782 </v>
    <i name="Tr[quadrupol]"> -10363.74839810 </i>
    <i name="Echarged">      0.00000000 </i>
    <i name="Edipol_quadrupol">      0.00000000 </i>
    <i name="Eion">      0.00000000 </i>
   </dipole>
   <energy>
    <i name="e_fr_energy">   -190.32652946 </i>
    <i name="e_wo_entrp">   -190.08754625 </i>
    <i name="e_0_energy">   -190.20703786 </i>
   </energy>
  </scstep>
  <scstep>
   <time name="diag">    1.64    1.64</time>
   <time name="diis">    4.51    4.51</time>
   <time name="orth">    0.40    0.40</time>
   <time name="total">    6.91    6.92</time>
   <dipole>
    <v name="dipole">      0.00000000       0.00000000      -0.08640431 </v>
    <i name="Tr[quadrupol]"> -10363.98231475 </i>
    <i name="Echarged">      0.00000000 </i>
    <i name="Edipol_quadrupol">      0.00000000 </i>
    <i name="Eion">      0.00000000 </i>
   </dipole>
   <energy>
    <i name="e_fr_energy">   -189.70609650 </i>
    <i name="e_wo_entrp">   -189.43778068 </i>
    <i name="e_0_energy">   -189.57193859 </i>
   </energy>
  </scstep>
  <scstep>
   <time name="diag">    1.65    1.65</time>
   <time name="diis">    4.62    4.63</time>
   <time name="orth">    0.40    0.40</time>
   <time name="total">    7.03    7.04</time>
   <dipole>
    <v name="dipole">      0.00000000       0.00000000      -0.00216126 </v>
    <i name="Tr[quadrupol]"> -10364.40276466 </i>
    <i name="Echarged">      0.00000000 </i>
    <i name="Edipol_quadrupol">      0.00000000 </i>
    <i name="Eion">      0.00000000 </i>
   </dipole>
   <energy>
    <i name="e_fr_energy">   -189.49700812 </i>
    <i name="e_wo_entrp">   -189.25342584 </i>
    <i name="e_0_energy">   -189.37521698 </i>
   </energy>
  </scstep>
  <scstep>
   <time name="diag">    1.64    1.65</time>
   <time name="diis">    4.40    4.47</time>
   <time name="orth">    0.40    0.40</time>
   <time name="total">    6.80    6.87</time>
   <dipole>
    <v name="dipole">      0.00000000       0.00000000       0.02778801 </v>
    <i name="Tr[quadrupol]"> -10364.49514293 </i>
    <i name="Echarged">      0.00000000 </i>
    <i name="Edipol_quadrupol">      0.00000000 </i>
    <i name="Eion">      0.00000000 </i>
   </dipole>
   <energy>
    <i name="e_fr_energy">   -189.41595922 </i>
    <i name="e_wo_entrp">   -189.14556451 </i>
    <i name="e_0_energy">   -189.28076186 </i>
   </energy>
  </scstep>
  <scstep>
   <time name="diag">    1.66    1.67</time>
   <time name="diis">    4.84    4.87</time>
   <time name="orth">    0.40    0.40</time>
   <time name="total">    7.26    7.30</time>
   <dipole>
    <v name="dipole">      0.00000000       0.00000000      -0.02378043 </v>
    <i name="Tr[quadrupol]"> -10364.71537205 </i>
    <i name="Echarged">      0.00000000 </i>
    <i name="Edipol_quadrupol">      0.00000000 </i>
    <i name="Eion">      0.00000000 </i>
   </dipole>
   <energy>
    <i name="e_fr_energy">   -189.40290005 </i>
    <i name="e_wo_entrp">   -189.13774277 </i>
    <i name="e_0_energy">   -189.27032141 </i>
   </energy>
  </scstep>
  <scstep>
   <time name="diag">    1.64    1.64</time>
   <time name="diis">    4.60    4.60</time>
   <time name="orth">    0.40    0.40</time>
   <time name="total">    7.00    7.01</time>
   <dipole>
    <v name="dipole">      0.00000000       0.00000000      -0.02108047 </v>
    <i name="Tr[quadrupol]"> -10364.94956559 </i>
    <i name="Echarged">      0.00000000 </i>
    <i name="Edipol_quadrupol">      0.00000000 </i>
    <i name="Eion">      0.00000000 </i>
   </dipole>
   <energy>
    <i name="e_fr_energy">   -189.35055292 </i>
    <i name="e_wo_entrp">   -189.08488064 </i>
    <i name="e_0_energy">   -189.21771678 </i>
   </energy>
  </scstep>
  <scstep>
   <time name="diag">    1.65    1.65</time>
   <time name="diis">    4.67    4.68</time>
   <time name="orth">    0.40    0.40</time>
   <time name="total">    7.08    7.09</time>
   <dipole>
    <v name="dipole">      0.00000000       0.00000000      -0.01304130 </v>
    <i name="Tr[quadrupol]"> -10365.14332917 </i>
    <i name="Echarged">      0.00000000 </i>
    <i name="Edipol_quadrupol">      0.00000000 </i>
    <i name="Eion">      0.00000000 </i>
   </dipole>
   <energy>
    <i name="e_fr_energy">   -189.31275703 </i>
    <i name="e_wo_entrp">   -189.04160936 </i>
    <i name="e_0_energy">   -189.17718320 </i>
   </energy>
  </scstep>
  <scstep>
   <time name="diag">    1.64    1.64</time>
   <time name="diis">    4.50    4.50</time>
   <time name="orth">    0.39    0.39</time>
   <time name="total">    6.88    6.89</time>
   <dipole>
    <v name="dipole">      0.00000000       0.00000000      -0.00350012 </v>
    <i name="Tr[quadrupol]"> -10365.27973446 </i>
    <i name="Echarged">      0.00000000 </i>
    <i name="Edipol_quadrupol">      0.00000000 </i>
    <i name="Eion">      0.00000000 </i>
   </dipole>
   <energy>
    <i name="e_fr_energy">   -189.30735049 </i>
    <i name="e_wo_entrp">   -189.03711726 </i>
    <i name="e_0_energy">   -189.17223387 </i>
   </energy>
  </scstep>
  <scstep>
   <time name="diag">    1.65    1.65</time>
   <time name="diis">    4.51    4.51</time>
   <time name="orth">    0.39    0.39</time>
   <time name="total">    6.91    6.92</time>
   <dipole>
    <v name="dipole">      0.00000000       0.00000000      -0.00043326 </v>
    <i name="Tr[quadrupol]"> -10365.35263529 </i>
    <i name="Echarged">      0.00000000 </i>
    <i name="Edipol_quadrupol">      0.00000000 </i>
    <i name="Eion">      0.00000000 </i>
   </dipole>
   <energy>
    <i name="e_fr_energy">   -189.30650635 </i>
    <i name="e_wo_entrp">   -189.03651963 </i>
    <i name="e_0_energy">   -189.17151299 </i>
   </energy>
  </scstep>
  <scstep>
   <time name="diag">    1.64    1.64</time>
   <time name="diis">    4.39    4.47</time>
   <time name="orth">    0.39    0.39</time>
   <time name="total">    6.78    6.86</time>
   <dipole>
    <v name="dipole">      0.00000000       0.00000000      -0.00252166 </v>
    <i name="Tr[quadrupol]"> -10365.40886364 </i>
    <i name="Echarged">      0.00000000 </i>
    <i name="Edipol_quadrupol">      0.00000000 </i>
    <i name="Eion">      0.00000000 </i>
   </dipole>
   <energy>
    <i name="e_fr_energy">   -189.30656961 </i>
    <i name="e_wo_entrp">   -189.03639516 </i>
    <i name="e_0_energy">   -189.17148239 </i>
   </energy>
  </scstep>
  <scstep>
   <time name="diag">    1.64    1.64</time>
   <time name="diis">    4.56    4.56</time>
   <time name="orth">    0.39    0.39</time>
   <time name="total">    6.95    6.96</time>
   <dipole>
    <v name="dipole">      0.00000000       0.00000000      -0.00381442 </v>
    <i name="Tr[quadrupol]"> -10365.52050425 </i>
    <i name="Echarged">      0.00000000 </i>
    <i name="Edipol_quadrupol">      0.00000000 </i>
    <i name="Eion">      0.00000000 </i>
   </dipole>
   <energy>
    <i name="e_fr_energy">   -189.30589024 </i>
    <i name="e_wo_entrp">   -189.03518664 </i>
    <i name="e_0_energy">   -189.17053844 </i>
   </energy>
  </scstep>
  <scstep>
   <time name="diag">    1.63    1.63</time>
   <time name="diis">    4.51    4.51</time>
   <time name="orth">    0.39    0.39</time>
   <time name="total">    6.89    6.90</time>
   <dipole>
    <v name="dipole">      0.00000000       0.00000000      -0.00456245 </v>
    <i name="Tr[quadrupol]"> -10365.59137566 </i>
    <i name="Echarged">      0.00000000 </i>
    <i name="Edipol_quadrupol">      0.00000000 </i>
    <i name="Eion">      0.00000000 </i>
   </dipole>
   <energy>
    <i name="e_fr_energy">   -189.30574213 </i>
    <i name="e_wo_entrp">   -189.03589018 </i>
    <i name="e_0_energy">   -189.17081615 </i>
   </energy>
  </scstep>
  <scstep>
   <time name="diag">    1.65    1.65</time>
   <time name="diis">    4.61    4.61</time>
   <time name="orth">    0.48    0.48</time>
   <time name="total">    7.21    7.23</time>
   <dipole>
    <v name="dipole">      0.00000000       0.00000000      -0.00323489 </v>
    <i name="Tr[quadrupol]"> -10365.66880611 </i>
    <i name="Echarged">      0.00000000 </i>
    <i name="Edipol_quadrupol">      0.00000000 </i>
    <i name="Eion">      0.00000000 </i>
   </dipole>
   <energy>
    <i name="e_fr_energy">   -189.30600642 </i>
    <i name="e_wo_entrp">   -189.03575480 </i>
    <i name="e_0_energy">   -189.17088061 </i>
   </energy>
  </scstep>
  <scstep>
   <time name="diag">    1.97    1.98</time>
   <time name="diis">    4.58    4.58</time>
   <time name="orth">    0.39    0.39</time>
   <time name="total">    7.32    7.35</time>
   <dipole>
    <v name="dipole">      0.00000000       0.00000000      -0.00326602 </v>
    <i name="Tr[quadrupol]"> -10365.69766744 </i>
    <i name="Echarged">      0.00000000 </i>
    <i name="Edipol_quadrupol">      0.00000000 </i>
    <i name="Eion">      0.00000000 </i>
   </dipole>
   <energy>
    <i name="e_fr_energy">   -189.30618992 </i>
    <i name="e_wo_entrp">   -189.03631339 </i>
    <i name="e_0_energy">   -189.17125166 </i>
   </energy>
  </scstep>
  <scstep>
   <time name="diag">    1.64    1.64</time>
   <time name="diis">    4.49    4.49</time>
   <time name="orth">    0.39    0.39</time>
   <time name="total">    6.89    6.89</time>
   <dipole>
    <v name="dipole">      0.00000000       0.00000000      -0.00290768 </v>
    <i name="Tr[quadrupol]"> -10365.74413861 </i>
    <i name="Echarged">      0.00000000 </i>
    <i name="Edipol_quadrupol">      0.00000000 </i>
    <i name="Eion">      0.00000000 </i>
   </dipole>
   <energy>
    <i name="e_fr_energy">   -189.30664449 </i>
    <i name="e_wo_entrp">   -189.03643668 </i>
    <i name="e_0_energy">   -189.17154058 </i>
   </energy>
  </scstep>
  <scstep>
   <time name="diag">    1.61    1.64</time>
   <time name="diis">    4.48    4.53</time>
   <time name="orth">    0.39    0.39</time>
   <time name="total">    6.85    6.92</time>
   <dipole>
    <v name="dipole">      0.00000000       0.00000000      -0.00354382 </v>
    <i name="Tr[quadrupol]"> -10365.79430717 </i>
    <i name="Echarged">      0.00000000 </i>
    <i name="Edipol_quadrupol">      0.00000000 </i>
    <i name="Eion">      0.00000000 </i>
   </dipole>
   <energy>
    <i name="e_fr_energy">   -189.30709374 </i>
    <i name="e_wo_entrp">   -189.03700785 </i>
    <i name="e_0_energy">   -189.17205080 </i>
   </energy>
  </scstep>
  <scstep>
   <time name="diag">    1.65    1.65</time>
   <time name="diis">    4.51    4.52</time>
   <time name="orth">    0.39    0.39</time>
   <time name="total">    6.91    6.92</time>
   <dipole>
    <v name="dipole">      0.00000000       0.00000000      -0.00377015 </v>
    <i name="Tr[quadrupol]"> -10365.85892217 </i>
    <i name="Echarged">      0.00000000 </i>
    <i name="Edipol_quadrupol">      0.00000000 </i>
    <i name="Eion">      0.00000000 </i>
   </dipole>
   <energy>
    <i name="e_fr_energy">   -189.30778676 </i>
    <i name="e_wo_entrp">   -189.03765596 </i>
    <i name="e_0_energy">   -189.17272136 </i>
   </energy>
  </scstep>
  <scstep>
   <time name="diag">    1.63    1.63</time>
   <time name="diis">    4.25    4.25</time>
   <time name="orth">    0.39    0.39</time>
   <time name="total">    6.63    6.64</time>
   <dipole>
    <v name="dipole">      0.00000000       0.00000000      -0.00369218 </v>
    <i name="Tr[quadrupol]"> -10365.89765727 </i>
    <i name="Echarged">      0.00000000 </i>
    <i name="Edipol_quadrupol">      0.00000000 </i>
    <i name="Eion">      0.00000000 </i>
   </dipole>
   <energy>
    <i name="e_fr_energy">   -189.30827735 </i>
    <i name="e_wo_entrp">   -189.03818904 </i>
    <i name="e_0_energy">   -189.17323319 </i>
   </energy>
  </scstep>
  <scstep>
   <time name="diag">    1.64    1.64</time>
   <time name="diis">    4.09    4.09</time>
   <time name="orth">    0.39    0.39</time>
   <time name="total">    6.48    6.48</time>
   <dipole>
    <v name="dipole">      0.00000000       0.00000000      -0.00361600 </v>
    <i name="Tr[quadrupol]"> -10365.91886387 </i>
    <i name="Echarged">      0.00000000 </i>
    <i name="Edipol_quadrupol">      0.00000000 </i>
    <i name="Eion">      0.00000000 </i>
   </dipole>
   <energy>
    <i name="e_fr_energy">   -189.30860302 </i>
    <i name="e_wo_entrp">   -189.03845957 </i>
    <i name="e_0_energy">   -189.17353130 </i>
   </energy>
  </scstep>
  <scstep>
   <time name="diag">    1.62    1.62</time>
   <time name="diis">    4.08    4.08</time>
   <time name="orth">    0.39    0.39</time>
   <time name="total">    6.45    6.46</time>
   <dipole>
    <v name="dipole">      0.00000000       0.00000000      -0.00375098 </v>
    <i name="Tr[quadrupol]"> -10365.96232257 </i>
    <i name="Echarged">      0.00000000 </i>
    <i name="Edipol_quadrupol">      0.00000000 </i>
    <i name="Eion">      0.00000000 </i>
   </dipole>
   <energy>
    <i name="e_fr_energy">   -189.30907703 </i>
    <i name="e_wo_entrp">   -189.03895199 </i>
    <i name="e_0_energy">   -189.17401451 </i>
   </energy>
  </scstep>
  <scstep>
   <time name="diag">    1.64    1.64</time>
   <time name="diis">    3.39    3.41</time>
   <time name="orth">    0.39    0.39</time>
   <time name="total">    5.78    5.80</time>
   <dipole>
    <v name="dipole">      0.00000000       0.00000000      -0.00377287 </v>
    <i name="Tr[quadrupol]"> -10365.97469553 </i>
    <i name="Echarged">      0.00000000 </i>
    <i name="Edipol_quadrupol">      0.00000000 </i>
    <i name="Eion">      0.00000000 </i>
   </dipole>
   <energy>
    <i name="e_fr_energy">   -189.30917334 </i>
    <i name="e_wo_entrp">   -189.03905100 </i>
    <i name="e_0_energy">   -189.17411217 </i>
   </energy>
  </scstep>
  <scstep>
   <time name="diag">    1.65    1.65</time>
   <time name="diis">    3.16    3.23</time>
   <time name="orth">    0.39    0.39</time>
   <time name="total">    5.55    5.63</time>
   <dipole>
    <v name="dipole">      0.00000000       0.00000000      -0.00374583 </v>
    <i name="Tr[quadrupol]"> -10365.98584413 </i>
    <i name="Echarged">      0.00000000 </i>
    <i name="Edipol_quadrupol">      0.00000000 </i>
    <i name="Eion">      0.00000000 </i>
   </dipole>
   <energy>
    <i name="e_fr_energy">   -189.30930493 </i>
    <i name="e_wo_entrp">   -189.03917599 </i>
    <i name="e_0_energy">   -189.17424046 </i>
   </energy>
  </scstep>
  <scstep>
   <time name="diag">    1.96    1.97</time>
   <time name="diis">    3.00    3.00</time>
   <time name="orth">    0.38    0.38</time>
   <time name="total">    5.72    5.75</time>
   <dipole>
    <v name="dipole">      0.00000000       0.00000000      -0.00373553 </v>
    <i name="Tr[quadrupol]"> -10365.99075145 </i>
    <i name="Echarged">      0.00000000 </i>
    <i name="Edipol_quadrupol">      0.00000000 </i>
    <i name="Eion">      0.00000000 </i>
   </dipole>
   <energy>
    <i name="e_fr_energy">   -189.30935117 </i>
    <i name="e_wo_entrp">   -189.03922610 </i>
    <i name="e_0_energy">   -189.17428864 </i>
   </energy>
  </scstep>
  <scstep>
   <time name="diag">    1.62    1.62</time>
   <time name="diis">    2.72    2.72</time>
   <time name="orth">    0.39    0.39</time>
   <time name="total">    5.09    5.10</time>
   <dipole>
    <v name="dipole">      0.00000000       0.00000000      -0.00375003 </v>
    <i name="Tr[quadrupol]"> -10365.99468942 </i>
    <i name="Echarged">      0.00000000 </i>
    <i name="Edipol_quadrupol">      0.00000000 </i>
    <i name="Eion">      0.00000000 </i>
   </dipole>
   <energy>
    <i name="e_fr_energy">   -189.30938462 </i>
    <i name="e_wo_entrp">   -189.03925096 </i>
    <i name="e_0_energy">   -189.17431779 </i>
   </energy>
  </scstep>
  <scstep>
   <time name="diag">    1.64    1.64</time>
   <time name="diis">    2.61    2.61</time>
   <time name="orth">    0.39    0.39</time>
   <time name="total">    5.02    5.03</time>
   <dipole>
    <v name="dipole">      0.00000000       0.00000000      -0.00375582 </v>
    <i name="Tr[quadrupol]"> -10365.99700807 </i>
    <i name="Echarged">      0.00000000 </i>
    <i name="Edipol_quadrupol">      0.00000000 </i>
    <i name="Eion">      0.00000000 </i>
   </dipole>
   <energy>
    <i name="e_fr_energy">   -189.30940359 </i>
    <i name="e_wo_entrp">   -189.03927341 </i>
    <i name="e_0_energy">   -189.17433850 </i>
   </energy>
  </scstep>
  <scstep>
   <time name="diag">    1.63    1.63</time>
   <time name="diis">    2.69    2.69</time>
   <time name="orth">    0.38    0.39</time>
   <time name="total">    5.07    5.07</time>
   <dipole>
    <v name="dipole">      0.00000000       0.00000000      -0.00376264 </v>
    <i name="Tr[quadrupol]"> -10366.00044708 </i>
    <i name="Echarged">      0.00000000 </i>
    <i name="Edipol_quadrupol">      0.00000000 </i>
    <i name="Eion">      0.00000000 </i>
   </dipole>
   <energy>
    <i name="e_fr_energy">   -189.30942251 </i>
    <i name="e_wo_entrp">   -189.03929399 </i>
    <i name="e_0_energy">   -189.17435825 </i>
   </energy>
  </scstep>
  <scstep>
   <time name="diag">    1.64    1.64</time>
   <time name="diis">    2.26    2.26</time>
   <time name="orth">    0.38    0.38</time>
   <time name="total">    4.65    4.65</time>
   <dipole>
    <v name="dipole">      0.00000000       0.00000000      -0.00377564 </v>
    <i name="Tr[quadrupol]"> -10366.00237173 </i>
    <i name="Echarged">      0.00000000 </i>
    <i name="Edipol_quadrupol">      0.00000000 </i>
    <i name="Eion">      0.00000000 </i>
   </dipole>
   <energy>
    <i name="e_fr_energy">   -189.30942866 </i>
    <i name="e_wo_entrp">   -189.03929753 </i>
    <i name="e_0_energy">   -189.17436309 </i>
   </energy>
  </scstep>
  <scstep>
   <time name="diag">    1.62    1.63</time>
   <time name="diis">    2.25    2.25</time>
   <time name="orth">    0.39    0.39</time>
   <time name="total">    4.62    4.63</time>
   <dipole>
    <v name="dipole">      0.00000000       0.00000000      -0.00378259 </v>
    <i name="Tr[quadrupol]"> -10366.00411342 </i>
    <i name="Echarged">      0.00000000 </i>
    <i name="Edipol_quadrupol">      0.00000000 </i>
    <i name="Eion">      0.00000000 </i>
   </dipole>
   <energy>
    <i name="e_fr_energy">   -189.30943113 </i>
    <i name="e_wo_entrp">   -189.03930158 </i>
    <i name="e_0_energy">   -189.17436635 </i>
   </energy>
  </scstep>
  <scstep>
   <time name="diag">    1.64    1.64</time>
   <time name="diis">    2.12    2.12</time>
   <time name="orth">    0.38    0.38</time>
   <time name="total">    4.20    4.21</time>
   <dipole>
    <v name="dipole">      0.00000000       0.00000000      -0.00379009 </v>
    <i name="Tr[quadrupol]"> -10366.00554662 </i>
    <i name="Echarged">      0.00000000 </i>
    <i name="Edipol_quadrupol">      0.00000000 </i>
    <i name="Eion">      0.00000000 </i>
   </dipole>
   <energy>
    <i name="alphaZ">    805.86936378 </i>
    <i name="ewald"> 199695.50584033 </i>
    <i name="hartreedc">-241888.01050625 </i>
    <i name="XCdc">   -343.72527605 </i>
    <i name="pawpsdc">  49283.16980383 </i>
    <i name="pawaedc"> -47361.68967852 </i>
    <i name="eentropy">     -0.27013002 </i>
    <i name="bandstr">  -2039.94472125 </i>
    <i name="atom">  41659.78587232 </i>
    <i name="e_fr_energy">   -189.30943183 </i>
    <i name="e_wo_entrp">   -189.03930181 </i>
    <i name="e_0_energy">   -189.17436682 </i>
   </energy>
  </scstep>
  <structure>
   <crystal>
    <varray name="basis" >
     <v>      11.00258152       0.00000000       0.00000000 </v>
     <v>       5.50129076       9.52851510       0.00000000 </v>
     <v>       0.00000000       0.00000000      24.49178509 </v>
    </varray>
    <i name="volume">   2567.67623402 </i>
    <varray name="rec_basis" >
     <v>       0.09088776      -0.05247407       0.00000000 </v>
     <v>       0.00000000       0.10494815       0.00000000 </v>
     <v>       0.00000000       0.00000000       0.04083002 </v>
    </varray>
   </crystal>
   <varray name="positions" >
    <v>       0.33333333       0.33333333       0.40830017 </v>
    <v>       0.00000000       0.25000000       0.59169983 </v>
    <v>       0.08333333       0.58333333       0.40830017 </v>
    <v>       0.66666667       0.66666667       0.50000000 </v>
    <v>       0.83333333       0.58333333       0.40830017 </v>
    <v>       0.00000000       0.50000000       0.59169983 </v>
    <v>       0.08333333       0.83333333       0.40830017 </v>
    <v>       0.91666667       0.91666667       0.50000000 </v>
    <v>       0.75000000       0.25000000       0.59169983 </v>
    <v>       0.41666667       0.66666667       0.50000000 </v>
    <v>       0.25000000       0.00000000       0.59169983 </v>
    <v>       0.58333333       0.58333333       0.40830017 </v>
    <v>       0.91666667       0.41666667       0.50000000 </v>
    <v>       0.25000000       0.25000000       0.59169983 </v>
    <v>       0.33333333       0.58333333       0.40830017 </v>
    <v>       0.66666667       0.16666667       0.50000000 </v>
    <v>       0.25000000       0.50000000       0.59169983 </v>
    <v>       0.58333333       0.08333333       0.40830017 </v>
    <v>       0.41666667       0.16666667       0.50000000 </v>
    <v>       0.58333333       0.83333333       0.40830017 </v>
    <v>       0.58333333       0.33333333       0.40830017 </v>
    <v>       0.50000000       0.50000000       0.59169983 </v>
    <v>       0.50000000       0.25000000       0.59169983 </v>
    <v>       0.75000000       0.00000000       0.59169983 </v>
    <v>       0.16666667       0.66666667       0.50000000 </v>
    <v>       0.16666667       0.41666667       0.50000000 </v>
    <v>       0.16666667       0.16666667       0.50000000 </v>
    <v>       0.33333333       0.08333333       0.40830017 </v>
    <v>       0.91666667       0.16666667       0.50000000 </v>
    <v>       0.91666667       0.66666667       0.50000000 </v>
    <v>       0.08333333       0.33333333       0.40830017 </v>
    <v>       0.00000000       0.00000000       0.59169983 </v>
    <v>       0.33333333       0.83333333       0.40830017 </v>
    <v>       0.00000000       0.75000000       0.59169983 </v>
    <v>       0.16666667       0.91666667       0.50000000 </v>
    <v>       0.83333333       0.33333333       0.40830017 </v>
    <v>       0.50000000       0.00000000       0.59169983 </v>
    <v>       0.25000000       0.75000000       0.59169983 </v>
    <v>       0.08333333       0.08333333       0.40830017 </v>
    <v>       0.83333333       0.08333333       0.40830017 </v>
    <v>       0.50000000       0.75000000       0.59169983 </v>
    <v>       0.41666667       0.91666667       0.50000000 </v>
    <v>       0.75000000       0.50000000       0.59169983 </v>
    <v>       0.83333333       0.83333333       0.40830017 </v>
    <v>       0.66666667       0.41666667       0.50000000 </v>
    <v>       0.41666667       0.41666667       0.50000000 </v>
    <v>       0.66666667       0.91666667       0.50000000 </v>
    <v>       0.75000000       0.75000000       0.59169983 </v>
   </varray>
  </structure>
  <varray name="forces" >
   <v>      -0.41012103      -0.05909537      -1.34234944 </v>
   <v>      -0.26015609      -0.17228588       1.33767759 </v>
   <v>      -0.23113636       0.00252226      -1.14158770 </v>
   <v>       0.16828703       0.27748794       0.81241492 </v>
   <v>       0.28955254      -0.15104104      -1.56912595 </v>
   <v>      -0.07228796       0.53502539       1.33271251 </v>
   <v>       0.11282937       0.34911480      -1.33132152 </v>
   <v>       0.16019211      -0.27674911       0.00432906 </v>
   <v>       0.37385404       0.10856040       1.39312352 </v>
   <v>      -0.24722843       0.42281296       0.32879432 </v>
   <v>      -0.01754159      -0.38583504       1.11041824 </v>
   <v>       0.00565330      -0.14803313      -1.60507508 </v>
   <v>      -0.05483889      -0.36673219      -0.29515059 </v>
   <v>      -0.01000097      -0.17097470       1.38259238 </v>
   <v>      -0.03866348       0.15986837      -1.35823237 </v>
   <v>       0.40050336       0.09516463      -0.30586647 </v>
   <v>      -0.02606936       0.43954353       1.12439847 </v>
   <v>       0.09258291      -0.37134797      -1.58349811 </v>
   <v>      -0.53291863      -0.33900491      -0.01920006 </v>
   <v>      -0.10656883       0.35364782      -1.39772817 </v>
   <v>       0.40230862      -0.07315904      -1.39618137 </v>
   <v>       0.21885144       0.28312058       1.33046232 </v>
   <v>      -0.10189788      -0.05828299       1.61611463 </v>
   <v>      -0.13090243      -0.52763910       1.57497457 </v>
   <v>      -0.11940069       0.02021761       0.36698972 </v>
   <v>      -0.03887276       0.11957624      -0.22037229 </v>
   <v>      -0.15405242      -0.23026721      -0.57341455 </v>
   <v>      -0.41768478      -0.08357441      -0.62604003 </v>
   <v>       0.21669455      -0.09614554      -0.37748852 </v>
   <v>       0.17181306       0.27094732       0.20691790 </v>
   <v>      -0.08526318      -0.29351652      -0.65291907 </v>
   <v>       0.11803188      -0.24199580       0.67248532 </v>
   <v>      -0.05385813       0.41156294      -0.68207004 </v>
   <v>       0.07953342       0.05764765       0.64130967 </v>
   <v>       0.15320157       0.20941717       0.01297404 </v>
   <v>       0.08456100      -0.41027125      -0.68908297 </v>
   <v>      -0.00609990      -0.32190454       0.76450308 </v>
   <v>      -0.10151336       0.19261826       0.65214589 </v>
   <v>       0.10750179       0.10158471      -0.45285102 </v>
   <v>       0.24306973       0.05533360      -0.82783013 </v>
   <v>       0.18295890       0.12803360       0.75109664 </v>
   <v>      -0.13047769       0.16270660       0.06037918 </v>
   <v>      -0.07553807       0.22106702       0.85352293 </v>
   <v>       0.01431389       0.10414785      -0.78370656 </v>
   <v>       0.17409652      -0.21175588       0.00826263 </v>
   <v>      -0.09097852       0.19029709       0.03462550 </v>
   <v>      -0.11906453      -0.35294357       0.19864520 </v>
   <v>      -0.13725509       0.07052886       0.65922177 </v>
  </varray>
  <energy>
   <i name="e_fr_energy">   -189.30943183 </i>
   <i name="e_wo_entrp">   -189.17436682 </i>
   <i name="e_0_energy">     -0.27013002 </i>
  </energy>
  <time name="totalsc">  275.55  276.45</time>
 </calculation>
 <calculation>
  <scstep>
   <time name="dav">    9.50    9.51</time>
   <time name="total">    9.86    9.87</time>
   <dipole>
    <v name="dipole">      0.00000000       0.00000000      -0.00379400 </v>
    <i name="Tr[quadrupol]"> -10343.69264362 </i>
    <i name="Echarged">      0.00000000 </i>
    <i name="Edipol_quadrupol">      0.00000000 </i>
    <i name="Eion">      0.00000000 </i>
   </dipole>
   <energy>
    <i name="alphaZ">    805.87105340 </i>
    <i name="ewald"> 198392.24184879 </i>
    <i name="hartreedc">-240592.55456983 </i>
    <i name="XCdc">   -344.79413739 </i>
    <i name="pawpsdc">  49283.16791994 </i>
    <i name="pawaedc"> -47361.68781868 </i>
    <i name="eentropy">     -0.27163162 </i>
    <i name="bandstr">  -2031.61094515 </i>
    <i name="atom">  41659.78587232 </i>
    <i name="e_fr_energy">   -189.85240822 </i>
    <i name="e_wo_entrp">   -189.58077661 </i>
    <i name="e_0_energy">   -189.71659242 </i>
   </energy>
  </scstep>
  <scstep>
   <time name="diag">    1.62    1.63</time>
   <time name="diis">    4.49    4.50</time>
   <time name="orth">    0.38    0.38</time>
   <time name="total">    6.86    6.87</time>
   <dipole>
    <v name="dipole">      0.00000000       0.00000000       0.03862454 </v>
    <i name="Tr[quadrupol]"> -10343.56389720 </i>
    <i name="Echarged">      0.00000000 </i>
    <i name="Edipol_quadrupol">      0.00000000 </i>
    <i name="Eion">      0.00000000 </i>
   </dipole>
   <energy>
    <i name="e_fr_energy">   -190.05788733 </i>
    <i name="e_wo_entrp">   -189.79107074 </i>
    <i name="e_0_energy">   -189.92447904 </i>
   </energy>
  </scstep>
  <scstep>
   <time name="diag">    1.63    1.63</time>
   <time name="diis">    4.52    4.53</time>
   <time name="orth">    0.47    0.48</time>
   <time name="total">    7.12    7.13</time>
   <dipole>
    <v name="dipole">      0.00000000       0.00000000      -0.08258044 </v>
    <i name="Tr[quadrupol]"> -10343.73730816 </i>
    <i name="Echarged">      0.00000000 </i>
    <i name="Edipol_quadrupol">      0.00000000 </i>
    <i name="Eion">      0.00000000 </i>
   </dipole>
   <energy>
    <i name="e_fr_energy">   -190.16438122 </i>
    <i name="e_wo_entrp">   -189.89029466 </i>
    <i name="e_0_energy">   -190.02733794 </i>
   </energy>
  </scstep>
  <scstep>
   <time name="diag">    1.46    2.06</time>
   <time name="diis">    4.45    4.46</time>
   <time name="orth">    0.39    0.39</time>
   <time name="total">    6.65    7.28</time>
   <dipole>
    <v name="dipole">      0.00000000       0.00000000       0.00983043 </v>
    <i name="Tr[quadrupol]"> -10343.80325432 </i>
    <i name="Echarged">      0.00000000 </i>
    <i name="Edipol_quadrupol">      0.00000000 </i>
    <i name="Eion">      0.00000000 </i>
   </dipole>
   <energy>
    <i name="e_fr_energy">   -190.06068784 </i>
    <i name="e_wo_entrp">   -189.79530400 </i>
    <i name="e_0_energy">   -189.92799592 </i>
   </energy>
  </scstep>
  <scstep>
   <time name="diag">    1.63    1.63</time>
   <time name="diis">    4.49    4.49</time>
   <time name="orth">    0.40    0.40</time>
   <time name="total">    6.88    6.89</time>
   <dipole>
    <v name="dipole">      0.00000000       0.00000000      -0.01648391 </v>
    <i name="Tr[quadrupol]"> -10343.72277752 </i>
    <i name="Echarged">      0.00000000 </i>
    <i name="Edipol_quadrupol">      0.00000000 </i>
    <i name="Eion">      0.00000000 </i>
   </dipole>
   <energy>
    <i name="e_fr_energy">   -190.03646076 </i>
    <i name="e_wo_entrp">   -189.76286427 </i>
    <i name="e_0_energy">   -189.89966252 </i>
   </energy>
  </scstep>
  <scstep>
   <time name="diag">    1.61    1.66</time>
   <time name="diis">    4.47    4.49</time>
   <time name="orth">    0.40    0.40</time>
   <time name="total">    6.84    6.91</time>
   <dipole>
    <v name="dipole">      0.00000000       0.00000000       0.01443540 </v>
    <i name="Tr[quadrupol]"> -10343.72337613 </i>
    <i name="Echarged">      0.00000000 </i>
    <i name="Edipol_quadrupol">      0.00000000 </i>
    <i name="Eion">      0.00000000 </i>
   </dipole>
   <energy>
    <i name="e_fr_energy">   -190.03831385 </i>
    <i name="e_wo_entrp">   -189.76758721 </i>
    <i name="e_0_energy">   -189.90295053 </i>
   </energy>
  </scstep>
  <scstep>
   <time name="diag">    1.64    1.65</time>
   <time name="diis">    4.53    4.54</time>
   <time name="orth">    0.40    0.40</time>
   <time name="total">    6.93    6.94</time>
   <dipole>
    <v name="dipole">      0.00000000       0.00000000       0.01230189 </v>
    <i name="Tr[quadrupol]"> -10343.73102049 </i>
    <i name="Echarged">      0.00000000 </i>
    <i name="Edipol_quadrupol">      0.00000000 </i>
    <i name="Eion">      0.00000000 </i>
   </dipole>
   <energy>
    <i name="e_fr_energy">   -190.03122499 </i>
    <i name="e_wo_entrp">   -189.76108488 </i>
    <i name="e_0_energy">   -189.89615493 </i>
   </energy>
  </scstep>
  <scstep>
   <time name="diag">    1.63    1.63</time>
   <time name="diis">    4.51    4.52</time>
   <time name="orth">    0.40    0.40</time>
   <time name="total">    6.90    6.91</time>
   <dipole>
    <v name="dipole">      0.00000000       0.00000000       0.00297194 </v>
    <i name="Tr[quadrupol]"> -10343.71712199 </i>
    <i name="Echarged">      0.00000000 </i>
    <i name="Edipol_quadrupol">      0.00000000 </i>
    <i name="Eion">      0.00000000 </i>
   </dipole>
   <energy>
    <i name="e_fr_energy">   -190.03014312 </i>
    <i name="e_wo_entrp">   -189.75762503 </i>
    <i name="e_0_energy">   -189.89388407 </i>
   </energy>
  </scstep>
  <scstep>
   <time name="diag">    1.63    1.63</time>
   <time name="diis">    4.47    4.47</time>
   <time name="orth">    0.40    0.40</time>
   <time name="total">    6.85    6.86</time>
   <dipole>
    <v name="dipole">      0.00000000       0.00000000       0.00156170 </v>
    <i name="Tr[quadrupol]"> -10343.71456551 </i>
    <i name="Echarged">      0.00000000 </i>
    <i name="Edipol_quadrupol">      0.00000000 </i>
    <i name="Eion">      0.00000000 </i>
   </dipole>
   <energy>
    <i name="e_fr_energy">   -190.02976861 </i>
    <i name="e_wo_entrp">   -189.75851080 </i>
    <i name="e_0_energy">   -189.89413971 </i>
   </energy>
  </scstep>
  <scstep>
   <time name="diag">    1.63    1.64</time>
   <time name="diis">    4.48    4.48</time>
   <time name="orth">    0.40    0.40</time>
   <time name="total">    6.87    6.88</time>
   <dipole>
    <v name="dipole">      0.00000000       0.00000000       0.00289919 </v>
    <i name="Tr[quadrupol]"> -10343.71183945 </i>
    <i name="Echarged">      0.00000000 </i>
    <i name="Edipol_quadrupol">      0.00000000 </i>
    <i name="Eion">      0.00000000 </i>
   </dipole>
   <energy>
    <i name="e_fr_energy">   -190.02959677 </i>
    <i name="e_wo_entrp">   -189.75771349 </i>
    <i name="e_0_energy">   -189.89365513 </i>
   </energy>
  </scstep>
  <scstep>
   <time name="diag">    1.64    1.64</time>
   <time name="diis">    4.51    4.51</time>
   <time name="orth">    0.39    0.40</time>
   <time name="total">    6.90    6.95</time>
   <dipole>
    <v name="dipole">      0.00000000       0.00000000       0.00292550 </v>
    <i name="Tr[quadrupol]"> -10343.71130703 </i>
    <i name="Echarged">      0.00000000 </i>
    <i name="Edipol_quadrupol">      0.00000000 </i>
    <i name="Eion">      0.00000000 </i>
   </dipole>
   <energy>
    <i name="e_fr_energy">   -190.02954982 </i>
    <i name="e_wo_entrp">   -189.75792304 </i>
    <i name="e_0_energy">   -189.89373643 </i>
   </energy>
  </scstep>
  <scstep>
   <time name="diag">    1.61    1.63</time>
   <time name="diis">    4.19    4.85</time>
   <time name="orth">    0.40    0.40</time>
   <time name="total">    6.56    7.25</time>
   <dipole>
    <v name="dipole">      0.00000000       0.00000000       0.00338183 </v>
    <i name="Tr[quadrupol]"> -10343.71309019 </i>
    <i name="Echarged">      0.00000000 </i>
    <i name="Edipol_quadrupol">      0.00000000 </i>
    <i name="Eion">      0.00000000 </i>
   </dipole>
   <energy>
    <i name="e_fr_energy">   -190.02954678 </i>
    <i name="e_wo_entrp">   -189.75782228 </i>
    <i name="e_0_energy">   -189.89368453 </i>
   </energy>
  </scstep>
  <scstep>
   <time name="diag">    1.64    1.64</time>
   <time name="diis">    4.21    4.21</time>
   <time name="orth">    0.40    0.40</time>
   <time name="total">    6.60    6.61</time>
   <dipole>
    <v name="dipole">      0.00000000       0.00000000       0.00278441 </v>
    <i name="Tr[quadrupol]"> -10343.71441174 </i>
    <i name="Echarged">      0.00000000 </i>
    <i name="Edipol_quadrupol">      0.00000000 </i>
    <i name="Eion">      0.00000000 </i>
   </dipole>
   <energy>
    <i name="e_fr_energy">   -190.02954203 </i>
    <i name="e_wo_entrp">   -189.75790465 </i>
    <i name="e_0_energy">   -189.89372334 </i>
   </energy>
  </scstep>
  <scstep>
   <time name="diag">    1.64    1.64</time>
   <time name="diis">    3.48    3.48</time>
   <time name="orth">    0.40    0.40</time>
   <time name="total">    5.57    5.58</time>
   <dipole>
    <v name="dipole">      0.00000000       0.00000000       0.00295553 </v>
    <i name="Tr[quadrupol]"> -10343.71601020 </i>
    <i name="Echarged">      0.00000000 </i>
    <i name="Edipol_quadrupol">      0.00000000 </i>
    <i name="Eion">      0.00000000 </i>
   </dipole>
   <energy>
    <i name="alphaZ">    805.86804776 </i>
    <i name="ewald"> 198392.24184879 </i>
    <i name="hartreedc">-240593.73312574 </i>
    <i name="XCdc">   -344.76632112 </i>
    <i name="pawpsdc">  49064.98126773 </i>
    <i name="pawaedc"> -47142.02538518 </i>
    <i name="eentropy">     -0.27163525 </i>
    <i name="bandstr">  -2032.11011037 </i>
    <i name="atom">  41659.78587232 </i>
    <i name="e_fr_energy">   -190.02954105 </i>
    <i name="e_wo_entrp">   -189.75790580 </i>
    <i name="e_0_energy">   -189.89372342 </i>
   </energy>
  </scstep>
  <structure>
   <crystal>
    <varray name="basis" >
     <v>      11.00258152       0.00000000       0.00000000 </v>
     <v>       5.50129076       9.52851510       0.00000000 </v>
     <v>       0.00000000       0.00000000      24.49178509 </v>
    </varray>
    <i name="volume">   2567.67623402 </i>
    <varray name="rec_basis" >
     <v>       0.09088776      -0.05247407       0.00000000 </v>
     <v>       0.00000000       0.10494815       0.00000000 </v>
     <v>       0.00000000       0.00000000       0.04083002 </v>
    </varray>
   </crystal>
   <varray name="positions" >
    <v>       0.33333333       0.33333333       0.40830017 </v>
    <v>      -0.00049319       0.24938940       0.59354425 </v>
    <v>       0.08333333       0.58333333       0.40830017 </v>
    <v>       0.66669146       0.66765011       0.50112018 </v>
    <v>       0.83333333       0.58333333       0.40830017 </v>
    <v>      -0.00116996       0.50189617       0.59353741 </v>
    <v>       0.08333333       0.83333333       0.40830017 </v>
    <v>       0.91764875       0.91568584       0.50000597 </v>
    <v>       0.75095508       0.25038475       0.59362070 </v>
    <v>       0.41515861       0.66816515       0.50045335 </v>
    <v>       0.25062988      -0.00136743       0.59323090 </v>
    <v>       0.58333333       0.58333333       0.40830017 </v>
    <v>       0.91714822       0.41536694       0.49959304 </v>
    <v>       0.25027228       0.24939405       0.59360618 </v>
    <v>       0.33333333       0.58333333       0.40830017 </v>
    <v>       0.66772728       0.16700394       0.49957826 </v>
    <v>       0.24914110       0.50155778       0.59325018 </v>
    <v>       0.58333333       0.08333333       0.40830017 </v>
    <v>       0.41563173       0.16546520       0.49997353 </v>
    <v>       0.58333333       0.83333333       0.40830017 </v>
    <v>       0.58333333       0.33333333       0.40830017 </v>
    <v>       0.50017001       0.50100340       0.59353430 </v>
    <v>       0.49979053       0.24979344       0.59392817 </v>
    <v>       0.75053322      -0.00187000       0.59387144 </v>
    <v>       0.16626437       0.66673832       0.50050601 </v>
    <v>       0.16633546       0.41709045       0.49969615 </v>
    <v>       0.16660188       0.16585058       0.49920936 </v>
    <v>       0.33333333       0.08333333       0.40830017 </v>
    <v>       0.91750213       0.16632592       0.49947951 </v>
    <v>       0.91671388       0.66762693       0.50028530 </v>
    <v>       0.08333333       0.33333333       0.40830017 </v>
    <v>       0.00079110      -0.00085765       0.59262707 </v>
    <v>       0.33333333       0.83333333       0.40830017 </v>
    <v>       0.00014196       0.75020431       0.59258408 </v>
    <v>       0.16676579       0.91740886       0.50001789 </v>
    <v>       0.83333333       0.33333333       0.40830017 </v>
    <v>       0.50055171      -0.00114086       0.59275395 </v>
    <v>       0.24934710       0.75068266       0.59259903 </v>
    <v>       0.08333333       0.08333333       0.40830017 </v>
    <v>       0.83333333       0.08333333       0.40830017 </v>
    <v>       0.50033467       0.75045376       0.59273546 </v>
    <v>       0.41597787       0.91724331       0.50008325 </v>
    <v>       0.74937641       0.50078348       0.59287669 </v>
    <v>       0.83333333       0.83333333       0.40830017 </v>
    <v>       0.66757626       0.41591619       0.50001139 </v>
    <v>       0.41605021       0.41734110       0.50004774 </v>
    <v>       0.66692666       0.91541581       0.50027390 </v>
    <v>       0.74945375       0.75024996       0.59260878 </v>
   </varray>
  </structure>
  <varray name="forces" >
   <v>      -0.38501848      -0.07664759      -1.31511683 </v>
   <v>      -0.05494909      -0.08108272       0.94664998 </v>
   <v>      -0.22548996       0.03554256      -1.12389367 </v>
   <v>       0.05167801       0.06870719       0.59022336 </v>
   <v>       0.24823736      -0.10018019      -1.45469887 </v>
   <v>      -0.09230869       0.24493151       0.93354731 </v>
   <v>       0.13435081       0.32278644      -1.31004913 </v>
   <v>       0.04129951      -0.06024919       0.25002805 </v>
   <v>       0.13212316      -0.02151473       1.00176820 </v>
   <v>      -0.09894685       0.19760528       0.40143827 </v>
   <v>      -0.00074008      -0.19421778       0.86012126 </v>
   <v>       0.03226136      -0.09640617      -1.42107297 </v>
   <v>       0.04917199      -0.19932670       0.18797256 </v>
   <v>      -0.09028865      -0.06387493       0.96613497 </v>
   <v>      -0.02953068       0.18392540      -1.29410079 </v>
   <v>       0.15443685      -0.01409616       0.32942562 </v>
   <v>      -0.01101946       0.20708250       0.86411785 </v>
   <v>       0.08216331      -0.38674596      -1.51016528 </v>
   <v>      -0.21453974      -0.13250833       0.34770723 </v>
   <v>      -0.11754260       0.30015002      -1.32406454 </v>
   <v>       0.38358741      -0.02986121      -1.40302466 </v>
   <v>       0.12299608       0.15956478       0.97037071 </v>
   <v>       0.00708216      -0.06680087       1.07072078 </v>
   <v>      -0.03856743      -0.23038958       1.10859740 </v>
   <v>      -0.06165161      -0.01748749       0.37862768 </v>
   <v>      -0.07252602       0.05065805       0.20635402 </v>
   <v>      -0.12997156      -0.12594921      -0.06206513 </v>
   <v>      -0.40271763      -0.10197386      -0.71080338 </v>
   <v>       0.14049470      -0.09401304      -0.00986678 </v>
   <v>       0.08229709       0.06672014       0.28831878 </v>
   <v>      -0.06765236      -0.28034930      -0.71961129 </v>
   <v>       0.02527686      -0.14778397       0.51412543 </v>
   <v>      -0.04664537       0.39221196      -0.67756960 </v>
   <v>       0.05189046       0.08684000       0.58428248 </v>
   <v>       0.10271205       0.18698239       0.14221083 </v>
   <v>       0.06336286      -0.39718087      -0.75637207 </v>
   <v>      -0.00341923      -0.17507824       0.61780927 </v>
   <v>      -0.05979135       0.13329974       0.58303869 </v>
   <v>       0.09735646       0.07785962      -0.54797059 </v>
   <v>       0.24876611       0.02035576      -0.87161268 </v>
   <v>       0.09206269       0.09742417       0.67768039 </v>
   <v>      -0.12721217       0.09201373       0.18528338 </v>
   <v>       0.00379404       0.11388623       0.67353855 </v>
   <v>       0.00479709       0.10874333      -0.76924580 </v>
   <v>       0.07747863      -0.05793493       0.26683039 </v>
   <v>      -0.04631927       0.04543024       0.38055572 </v>
   <v>       0.01977120      -0.08925099       0.29961030 </v>
   <v>      -0.07259999       0.04818295       0.65421458 </v>
  </varray>
  <energy>
   <i name="e_fr_energy">   -190.02954105 </i>
   <i name="e_wo_entrp">   -189.89372342 </i>
   <i name="e_0_energy">     -0.27163525 </i>
  </energy>
  <time name="totalsc">  100.45  101.99</time>
 </calculation>
 <calculation>
  <scstep>
   <time name="dav">    9.55    9.56</time>
   <time name="total">    9.92    9.93</time>
   <dipole>
    <v name="dipole">      0.00000000       0.00000000       0.00293565 </v>
    <i name="Tr[quadrupol]"> -10277.46246557 </i>
    <i name="Echarged">      0.00000000 </i>
    <i name="Edipol_quadrupol">      0.00000000 </i>
    <i name="Eion">      0.00000000 </i>
   </dipole>
   <energy>
    <i name="alphaZ">    805.86413454 </i>
    <i name="ewald"> 194527.22015328 </i>
    <i name="hartreedc">-236748.78685537 </i>
    <i name="XCdc">   -347.40510599 </i>
    <i name="pawpsdc">  49064.78075421 </i>
    <i name="pawaedc"> -47141.82474281 </i>
    <i name="eentropy">     -0.27970942 </i>
    <i name="bandstr">  -2008.52695619 </i>
    <i name="atom">  41659.78587232 </i>
    <i name="e_fr_energy">   -189.17245543 </i>
    <i name="e_wo_entrp">   -188.89274601 </i>
    <i name="e_0_energy">   -189.03260072 </i>
   </energy>
  </scstep>
  <scstep>
   <time name="diag">    1.65    1.65</time>
   <time name="diis">    4.43    4.44</time>
   <time name="orth">    0.40    0.40</time>
   <time name="total">    6.84    6.84</time>
   <dipole>
    <v name="dipole">      0.00000000       0.00000000       0.10006929 </v>
    <i name="Tr[quadrupol]"> -10277.00461182 </i>
    <i name="Echarged">      0.00000000 </i>
    <i name="Edipol_quadrupol">      0.00000000 </i>
    <i name="Eion">      0.00000000 </i>
   </dipole>
   <energy>
    <i name="e_fr_energy">   -191.00614215 </i>
    <i name="e_wo_entrp">   -190.74884150 </i>
    <i name="e_0_energy">   -190.87749182 </i>
   </energy>
  </scstep>
  <scstep>
   <time name="diag">    1.60    1.66</time>
   <time name="diis">    4.53    4.54</time>
   <time name="orth">    0.40    0.40</time>
   <time name="total">    6.89    6.96</time>
   <dipole>
    <v name="dipole">      0.00000000       0.00000000      -0.16170035 </v>
    <i name="Tr[quadrupol]"> -10277.57975734 </i>
    <i name="Echarged">      0.00000000 </i>
    <i name="Edipol_quadrupol">      0.00000000 </i>
    <i name="Eion">      0.00000000 </i>
   </dipole>
   <energy>
    <i name="e_fr_energy">   -191.57079626 </i>
    <i name="e_wo_entrp">   -191.29143692 </i>
    <i name="e_0_energy">   -191.43111659 </i>
   </energy>
  </scstep>
  <scstep>
   <time name="diag">    1.64    1.64</time>
   <time name="diis">    4.52    4.53</time>
   <time name="orth">    0.40    0.40</time>
   <time name="total">    6.92    6.93</time>
   <dipole>
    <v name="dipole">      0.00000000       0.00000000       0.05273843 </v>
    <i name="Tr[quadrupol]"> -10277.60802223 </i>
    <i name="Echarged">      0.00000000 </i>
    <i name="Edipol_quadrupol">      0.00000000 </i>
    <i name="Eion">      0.00000000 </i>
   </dipole>
   <energy>
    <i name="e_fr_energy">   -190.97415579 </i>
    <i name="e_wo_entrp">   -190.71474949 </i>
    <i name="e_0_energy">   -190.84445264 </i>
   </energy>
  </scstep>
  <scstep>
   <time name="diag">    1.65    1.65</time>
   <time name="diis">    4.44    4.45</time>
   <time name="orth">    0.40    0.40</time>
   <time name="total">    6.85    6.86</time>
   <dipole>
    <v name="dipole">      0.00000000       0.00000000      -0.01246931 </v>
    <i name="Tr[quadrupol]"> -10277.46699079 </i>
    <i name="Echarged">      0.00000000 </i>
    <i name="Edipol_quadrupol">      0.00000000 </i>
    <i name="Eion">      0.00000000 </i>
   </dipole>
   <energy>
    <i name="e_fr_energy">   -190.83332277 </i>
    <i name="e_wo_entrp">   -190.55147843 </i>
    <i name="e_0_energy">   -190.69240060 </i>
   </energy>
  </scstep>
  <scstep>
   <time name="diag">    1.65    1.65</time>
   <time name="diis">    4.16    4.97</time>
   <time name="orth">    0.40    0.40</time>
   <time name="total">    6.57    7.38</time>
   <dipole>
    <v name="dipole">      0.00000000       0.00000000       0.06900713 </v>
    <i name="Tr[quadrupol]"> -10277.55485056 </i>
    <i name="Echarged">      0.00000000 </i>
    <i name="Edipol_quadrupol">      0.00000000 </i>
    <i name="Eion">      0.00000000 </i>
   </dipole>
   <energy>
    <i name="e_fr_energy">   -190.88694303 </i>
    <i name="e_wo_entrp">   -190.61698620 </i>
    <i name="e_0_energy">   -190.75196461 </i>
   </energy>
  </scstep>
  <scstep>
   <time name="diag">    1.65    1.65</time>
   <time name="diis">    4.42    4.43</time>
   <time name="orth">    0.40    0.40</time>
   <time name="total">    6.83    6.84</time>
   <dipole>
    <v name="dipole">      0.00000000       0.00000000       0.03360204 </v>
    <i name="Tr[quadrupol]"> -10277.53281841 </i>
    <i name="Echarged">      0.00000000 </i>
    <i name="Edipol_quadrupol">      0.00000000 </i>
    <i name="Eion">      0.00000000 </i>
   </dipole>
   <energy>
    <i name="e_fr_energy">   -190.80579559 </i>
    <i name="e_wo_entrp">   -190.53044193 </i>
    <i name="e_0_energy">   -190.66811876 </i>
   </energy>
  </scstep>
  <scstep>
   <time name="diag">    1.66    1.66</time>
   <time name="diis">    4.40    4.47</time>
   <time name="orth">    0.40    0.40</time>
   <time name="total">    6.82    6.90</time>
   <dipole>
    <v name="dipole">      0.00000000       0.00000000       0.03448154 </v>
    <i name="Tr[quadrupol]"> -10277.46840599 </i>
    <i name="Echarged">      0.00000000 </i>
    <i name="Edipol_quadrupol">      0.00000000 </i>
    <i name="Eion">      0.00000000 </i>
   </dipole>
   <energy>
    <i name="e_fr_energy">   -190.79761664 </i>
    <i name="e_wo_entrp">   -190.51823394 </i>
    <i name="e_0_energy">   -190.65792529 </i>
   </energy>
  </scstep>
  <scstep>
   <time name="diag">    1.65    1.65</time>
   <time name="diis">    4.51    4.51</time>
   <time name="orth">    0.40    0.40</time>
   <time name="total">    6.92    6.93</time>
   <dipole>
    <v name="dipole">      0.00000000       0.00000000       0.02167085 </v>
    <i name="Tr[quadrupol]"> -10277.46935984 </i>
    <i name="Echarged">      0.00000000 </i>
    <i name="Edipol_quadrupol">      0.00000000 </i>
    <i name="Eion">      0.00000000 </i>
   </dipole>
   <energy>
[...]
       <r>    -9.2008     0.0000     0.0000 </r>
       <r>    -9.1474     0.0000     0.0000 </r>
       <r>    -9.0939     0.0000     0.0000 </r>
       <r>    -9.0405     0.0000     0.0000 </r>
       <r>    -8.9870     0.0001     0.0000 </r>
       <r>    -8.9336     0.0027     0.0001 </r>
       <r>    -8.8802     0.0367     0.0021 </r>
       <r>    -8.8267     0.2896     0.0176 </r>
       <r>    -8.7733     1.3221     0.0882 </r>
       <r>    -8.7199     3.5045     0.2755 </r>
       <r>    -8.6664     5.4470     0.5666 </r>
       <r>    -8.6130     5.2682     0.8481 </r>
       <r>    -8.5595     4.2970     1.0777 </r>
       <r>    -8.5061     4.8460     1.3367 </r>
       <r>    -8.4527     5.5824     1.6350 </r>
       <r>    -8.3992     4.2706     1.8632 </r>
       <r>    -8.3458     1.9527     1.9676 </r>
       <r>    -8.2923     0.5647     1.9978 </r>
       <r>    -8.2389     0.3873     2.0185 </r>
       <r>    -8.1855     1.3455     2.0904 </r>
       <r>    -8.1320     3.7074     2.2885 </r>
       <r>    -8.0786     6.7382     2.6485 </r>
       <r>    -8.0252     8.6622     3.1114 </r>
       <r>    -7.9717     9.1598     3.6009 </r>
       <r>    -7.9183     9.4532     4.1061 </r>
       <r>    -7.8648     9.8901     4.6346 </r>
       <r>    -7.8114     9.7916     5.1578 </r>
       <r>    -7.7580     8.6912     5.6223 </r>
       <r>    -7.7045     7.0435     5.9987 </r>
       <r>    -7.6511     6.0643     6.3228 </r>
       <r>    -7.5976     6.4631     6.6681 </r>
       <r>    -7.5442     7.0910     7.0471 </r>
       <r>    -7.4908     6.7231     7.4063 </r>
       <r>    -7.4373     6.2237     7.7389 </r>
       <r>    -7.3839     7.3373     8.1310 </r>
       <r>    -7.3305    11.3203     8.7360 </r>
       <r>    -7.2770    16.3283     9.6085 </r>
       <r>    -7.2236    17.8899    10.5645 </r>
       <r>    -7.1701    15.3858    11.3867 </r>
       <r>    -7.1167    13.3158    12.0983 </r>
       <r>    -7.0633    15.1570    12.9083 </r>
       <r>    -7.0098    19.7484    13.9636 </r>
       <r>    -6.9564    24.8565    15.2919 </r>
       <r>    -6.9029    30.2526    16.9085 </r>
       <r>    -6.8495    35.5901    18.8104 </r>
       <r>    -6.7961    39.8921    20.9422 </r>
       <r>    -6.7426    42.5885    23.2180 </r>
       <r>    -6.6892    44.1012    25.5747 </r>
       <r>    -6.6358    46.7639    28.0737 </r>
       <r>    -6.5823    51.8790    30.8461 </r>
       <r>    -6.5289    56.9595    33.8899 </r>
       <r>    -6.4754    59.0026    37.0429 </r>
       <r>    -6.4220    58.1890    40.1524 </r>
       <r>    -6.3686    56.7129    43.1831 </r>
       <r>    -6.3151    57.1858    46.2390 </r>
       <r>    -6.2617    61.2469    49.5119 </r>
       <r>    -6.2082    67.4615    53.1170 </r>
       <r>    -6.1548    73.1783    57.0275 </r>
       <r>    -6.1014    76.6230    61.1221 </r>
       <r>    -6.0479    76.9824    65.2359 </r>
       <r>    -5.9945    75.3073    69.2602 </r>
       <r>    -5.9411    73.4779    73.1868 </r>
       <r>    -5.8876    71.9508    77.0317 </r>
       <r>    -5.8342    70.1545    80.7807 </r>
       <r>    -5.7807    68.7413    84.4541 </r>
       <r>    -5.7273    68.5756    88.1187 </r>
       <r>    -5.6739    69.9965    91.8592 </r>
       <r>    -5.6204    73.3215    95.7774 </r>
       <r>    -5.5670    77.2786    99.9070 </r>
       <r>    -5.5135    79.7854   104.1706 </r>
       <r>    -5.4601    80.4257   108.4685 </r>
       <r>    -5.4067    79.7795   112.7318 </r>
       <r>    -5.3532    77.1239   116.8531 </r>
       <r>    -5.2998    72.9276   120.7503 </r>
       <r>    -5.2464    71.0481   124.5470 </r>
       <r>    -5.1929    73.2290   128.4602 </r>
       <r>    -5.1395    76.2252   132.5336 </r>
       <r>    -5.0860    78.1999   136.7125 </r>
       <r>    -5.0326    81.2772   141.0558 </r>
       <r>    -4.9792    85.2186   145.6097 </r>
       <r>    -4.9257    86.9605   150.2568 </r>
       <r>    -4.8723    86.3034   154.8687 </r>
       <r>    -4.8188    85.9196   159.4601 </r>
       <r>    -4.7654    87.5433   164.1383 </r>
       <r>    -4.7120    89.6542   168.9293 </r>
       <r>    -4.6585    89.5270   173.7134 </r>
       <r>    -4.6051    87.3156   178.3794 </r>
       <r>    -4.5517    85.8686   182.9681 </r>
       <r>    -4.4982    87.0508   187.6200 </r>
       <r>    -4.4448    89.1196   192.3824 </r>
       <r>    -4.3913    89.5910   197.1700 </r>
       <r>    -4.3379    89.6716   201.9619 </r>
       <r>    -4.2845    92.0155   206.8791 </r>
       <r>    -4.2310    95.2526   211.9692 </r>
       <r>    -4.1776    95.3119   217.0626 </r>
       <r>    -4.1241    92.7618   222.0196 </r>
       <r>    -4.0707    91.9848   226.9351 </r>
       <r>    -4.0173    93.4906   231.9311 </r>
       <r>    -3.9638    94.4852   236.9803 </r>
       <r>    -3.9104    94.0875   242.0081 </r>
       <r>    -3.8570    94.4096   247.0532 </r>
       <r>    -3.8035    97.0064   252.2371 </r>
       <r>    -3.7501    99.9758   257.5797 </r>
       <r>    -3.6966   101.1618   262.9856 </r>
       <r>    -3.6432   100.3433   268.3478 </r>
       <r>    -3.5898    97.9190   273.5804 </r>
       <r>    -3.5363    95.4740   278.6824 </r>
       <r>    -3.4829    95.5069   283.7861 </r>
       <r>    -3.4294    98.1149   289.0293 </r>
       <r>    -3.3760   100.0514   294.3759 </r>
       <r>    -3.3226    98.4599   299.6374 </r>
       <r>    -3.2691    94.2705   304.6751 </r>
       <r>    -3.2157    90.5135   309.5120 </r>
       <r>    -3.1623    89.2256   314.2800 </r>
       <r>    -3.1088    89.4832   319.0619 </r>
       <r>    -3.0554    88.2970   323.7803 </r>
       <r>    -3.0019    86.2316   328.3884 </r>
       <r>    -2.9485    86.4011   333.0056 </r>
       <r>    -2.8951    88.6728   337.7441 </r>
       <r>    -2.8416    90.5296   342.5819 </r>
       <r>    -2.7882    90.1275   347.3981 </r>
       <r>    -2.7347    87.8165   352.0909 </r>
       <r>    -2.6813    85.6432   356.6676 </r>
       <r>    -2.6279    84.8266   361.2006 </r>
       <r>    -2.5744    85.8334   365.7874 </r>
       <r>    -2.5210    88.9022   370.5382 </r>
       <r>    -2.4676    93.0242   375.5092 </r>
       <r>    -2.4141    96.2698   380.6537 </r>
       <r>    -2.3607    97.3117   385.8539 </r>
       <r>    -2.3072    96.5501   391.0134 </r>
       <r>    -2.2538    95.2282   396.1023 </r>
       <r>    -2.2004    93.7671   401.1130 </r>
       <r>    -2.1469    91.8260   406.0201 </r>
       <r>    -2.0935    89.3242   410.7934 </r>
       <r>    -2.0400    87.5587   415.4724 </r>
       <r>    -1.9866    89.6345   420.2623 </r>
       <r>    -1.9332    95.1894   425.3491 </r>
       <r>    -1.8797    99.4061   430.6612 </r>
       <r>    -1.8263   100.9766   436.0573 </r>
       <r>    -1.7729   101.2042   441.4655 </r>
       <r>    -1.7194    99.1105   446.7618 </r>
       <r>    -1.6660    95.4830   451.8642 </r>
       <r>    -1.6125    94.0472   456.8900 </r>
       <r>    -1.5591    95.2132   461.9780 </r>
       <r>    -1.5057    96.1154   467.1143 </r>
       <r>    -1.4522    96.3534   472.2632 </r>
       <r>    -1.3988    97.5459   477.4759 </r>
       <r>    -1.3453    99.6031   482.7986 </r>
       <r>    -1.2919    98.8981   488.0835 </r>
       <r>    -1.2385    91.7724   492.9877 </r>
       <r>    -1.1850    80.1700   497.2719 </r>
       <r>    -1.1316    68.4464   500.9295 </r>
       <r>    -1.0782    57.3957   503.9967 </r>
       <r>    -1.0247    45.8180   506.4451 </r>
       <r>    -0.9713    33.3033   508.2248 </r>
       <r>    -0.9178    20.8374   509.3383 </r>
       <r>    -0.8644    11.7827   509.9680 </r>
       <r>    -0.8110     8.5709   510.4260 </r>
       <r>    -0.7575     9.1498   510.9149 </r>
       <r>    -0.7041     9.6473   511.4305 </r>
       <r>    -0.6506     8.9866   511.9107 </r>
       <r>    -0.5972     9.2952   512.4074 </r>
       <r>    -0.5438    11.9040   513.0436 </r>
       <r>    -0.4903    15.9909   513.8981 </r>
       <r>    -0.4369    20.4236   514.9895 </r>
       <r>    -0.3835    22.5240   516.1931 </r>
       <r>    -0.3300    19.6436   517.2429 </r>
       <r>    -0.2766    15.1919   518.0547 </r>
       <r>    -0.2231    15.7265   518.8951 </r>
       <r>    -0.1697    19.8118   519.9538 </r>
       <r>    -0.1163    20.3350   521.0405 </r>
       <r>    -0.0628    17.4871   521.9750 </r>
       <r>    -0.0094    16.6611   522.8653 </r>
       <r>     0.0441    18.3951   523.8483 </r>
       <r>     0.0975    19.5301   524.8920 </r>
       <r>     0.1509    18.7125   525.8919 </r>
       <r>     0.2044    16.6322   526.7807 </r>
       <r>     0.2578    15.0809   527.5866 </r>
       <r>     0.3112    15.6620   528.4236 </r>
       <r>     0.3647    16.7466   529.3185 </r>
       <r>     0.4181    16.2244   530.1855 </r>
       <r>     0.4716    15.0624   530.9904 </r>
       <r>     0.5250    15.0011   531.7921 </r>
       <r>     0.5784    17.3147   532.7173 </r>
       <r>     0.6319    21.7715   533.8808 </r>
       <r>     0.6853    25.0417   535.2190 </r>
       <r>     0.7388    24.1608   536.5101 </r>
       <r>     0.7922    20.0364   537.5808 </r>
       <r>     0.8456    14.8327   538.3734 </r>
       <r>     0.8991    10.3235   538.9251 </r>
       <r>     0.9525     8.5168   539.3802 </r>
       <r>     1.0059     9.2488   539.8745 </r>
       <r>     1.0594    10.6124   540.4416 </r>
       <r>     1.1128    11.5769   541.0602 </r>
       <r>     1.1663    11.3372   541.6661 </r>
       <r>     1.2197     9.8145   542.1905 </r>
       <r>     1.2731     8.6663   542.6536 </r>
       <r>     1.3266     9.2447   543.1477 </r>
       <r>     1.3800    10.9019   543.7302 </r>
       <r>     1.4335    11.9899   544.3710 </r>
       <r>     1.4869    12.1019   545.0177 </r>
       <r>     1.5403    12.4517   545.6831 </r>
       <r>     1.5938    13.6413   546.4120 </r>
       <r>     1.6472    14.6667   547.1958 </r>
       <r>     1.7006    15.0814   548.0017 </r>
       <r>     1.7541    16.5121   548.8841 </r>
       <r>     1.8075    19.0765   549.9035 </r>
       <r>     1.8610    18.6598   550.9007 </r>
       <r>     1.9144    13.2537   551.6089 </r>
       <r>     1.9678     7.5277   552.0112 </r>
       <r>     2.0213     5.9445   552.3289 </r>
       <r>     2.0747     7.2685   552.7173 </r>
       <r>     2.1282     9.1754   553.2076 </r>
       <r>     2.1816    12.0346   553.8507 </r>
       <r>     2.2350    15.5599   554.6822 </r>
       <r>     2.2885    18.6762   555.6802 </r>
       <r>     2.3419    21.9457   556.8530 </r>
       <r>     2.3953    25.0520   558.1917 </r>
       <r>     2.4488    25.8145   559.5712 </r>
       <r>     2.5022    23.8803   560.8473 </r>
       <r>     2.5557    22.1476   562.0309 </r>
       <r>     2.6091    22.8691   563.2530 </r>
       <r>     2.6625    25.1182   564.5952 </r>
       <r>     2.7160    26.4026   566.0062 </r>
       <r>     2.7694    24.1894   567.2988 </r>
       <r>     2.8229    18.6186   568.2938 </r>
       <r>     2.8763    12.8873   568.9824 </r>
       <r>     2.9297     9.1267   569.4701 </r>
       <r>     2.9832     6.8441   569.8359 </r>
       <r>     3.0366     5.5707   570.1336 </r>
       <r>     3.0900     5.7128   570.4389 </r>
       <r>     3.1435     7.1851   570.8228 </r>
       <r>     3.1969     9.8173   571.3474 </r>
       <r>     3.2504    13.0307   572.0438 </r>
       <r>     3.3038    14.3598   572.8111 </r>
       <r>     3.3572    11.8225   573.4429 </r>
       <r>     3.4107     7.0270   573.8184 </r>
       <r>     3.4641     3.6907   574.0157 </r>
       <r>     3.5176     4.4901   574.2556 </r>
       <r>     3.5710     9.5151   574.7641 </r>
       <r>     3.6244    15.4028   575.5872 </r>
       <r>     3.6779    18.0617   576.5524 </r>
       <r>     3.7313    18.2865   577.5296 </r>
       <r>     3.7847    19.1866   578.5549 </r>
       <r>     3.8382    19.3423   579.5885 </r>
       <r>     3.8916    16.0542   580.4464 </r>
       <r>     3.9451    12.1142   581.0938 </r>
       <r>     3.9985    11.9570   581.7327 </r>
       <r>     4.0519    13.9828   582.4799 </r>
       <r>     4.1054    14.0941   583.2331 </r>
       <r>     4.1588    12.5334   583.9029 </r>
       <r>     4.2123    11.5956   584.5225 </r>
       <r>     4.2657    11.2751   585.1250 </r>
       <r>     4.3191    10.3724   585.6793 </r>
       <r>     4.3726     9.6673   586.1959 </r>
       <r>     4.4260    10.8512   586.7758 </r>
       <r>     4.4794    13.6979   587.5078 </r>
       <r>     4.5329    17.5470   588.4455 </r>
       <r>     4.5863    22.5140   589.6486 </r>
       <r>     4.6398    26.7274   591.0769 </r>
       <r>     4.6932    26.5587   592.4961 </r>
       <r>     4.7466    22.8974   593.7197 </r>
       <r>     4.8001    21.3246   594.8593 </r>
       <r>     4.8535    23.8674   596.1347 </r>
       <r>     4.9070    26.9967   597.5774 </r>
       <r>     4.9604    29.0649   599.1306 </r>
       <r>     5.0138    32.6171   600.8736 </r>
       <r>     5.0673    37.1322   602.8579 </r>
       <r>     5.1207    37.5881   604.8665 </r>
       <r>     5.1741    33.8750   606.6767 </r>
       <r>     5.2276    30.9789   608.3322 </r>
       <r>     5.2810    28.2960   609.8443 </r>
       <r>     5.3345    21.6425   611.0008 </r>
       <r>     5.3879    12.2716   611.6566 </r>
       <r>     5.4413     4.8737   611.9171 </r>
       <r>     5.4948     1.3014   611.9866 </r>
       <r>     5.5482     0.2248   611.9986 </r>
       <r>     5.6017     0.0243   611.9999 </r>
       <r>     5.6551     0.0016   612.0000 </r>
       <r>     5.7085     0.0001   612.0000 </r>
       <r>     5.7620     0.0000   612.0000 </r>
       <r>     5.8154     0.0000   612.0000 </r>
       <r>     5.8688     0.0000   612.0000 </r>
       <r>     5.9223     0.0000   612.0000 </r>
       <r>     5.9757     0.0000   612.0000 </r>
       <r>     6.0292     0.0000   612.0000 </r>
       <r>     6.0826     0.0000   612.0000 </r>
       <r>     6.1360     0.0000   612.0000 </r>
       <r>     6.1895     0.0000   612.0000 </r>
       <r>     6.2429     0.0000   612.0000 </r>
       <r>     6.2964     0.0000   612.0000 </r>
       <r>     6.3498     0.0000   612.0000 </r>
      </set>
     </set>
    </array>
   </total>
  </dos>
 </calculation>
 <structure name="finalpos" >
  <crystal>
   <varray name="basis" >
    <v>      11.00258152       0.00000000       0.00000000 </v>
    <v>       5.50129076       9.52851510       0.00000000 </v>
    <v>       0.00000000       0.00000000      24.49178509 </v>
   </varray>
   <i name="volume">   2567.67623402 </i>
   <varray name="rec_basis" >
    <v>       0.09088776      -0.05247407       0.00000000 </v>
    <v>       0.00000000       0.10494815       0.00000000 </v>
    <v>       0.00000000       0.00000000       0.04083002 </v>
   </varray>
  </crystal>
  <varray name="positions" >
   <v>       0.33333333       0.33333333       0.40830017 </v>
   <v>      -0.00059719       0.24895810       0.60918606 </v>
   <v>       0.08333333       0.58333333       0.40830017 </v>
   <v>       0.66686760       0.66799607       0.51026463 </v>
   <v>       0.83333333       0.58333333       0.40830017 </v>
   <v>      -0.00376308       0.50500056       0.60965332 </v>
   <v>       0.08333333       0.83333333       0.40830017 </v>
   <v>       0.91731793       0.91526522       0.50695130 </v>
   <v>       0.75197841       0.24972582       0.61128612 </v>
   <v>       0.41406026       0.66832030       0.50891605 </v>
   <v>       0.25134664      -0.00277087       0.60742526 </v>
   <v>       0.58333333       0.58333333       0.40830017 </v>
   <v>       0.91879863       0.41322263       0.50697870 </v>
   <v>       0.24935182       0.24962765       0.61042231 </v>
   <v>       0.33333333       0.58333333       0.40830017 </v>
   <v>       0.66786844       0.16709088       0.50950421 </v>
   <v>       0.24805161       0.50358017       0.60904118 </v>
   <v>       0.58333333       0.08333333       0.40830017 </v>
   <v>       0.41426963       0.16556333       0.50910448 </v>
   <v>       0.58333333       0.83333333       0.40830017 </v>
   <v>       0.58333333       0.33333333       0.40830017 </v>
   <v>       0.50032466       0.50341471       0.61043436 </v>
   <v>       0.50031201       0.24928933       0.61341636 </v>
   <v>       0.75157177      -0.00373394       0.61324568 </v>
   <v>       0.16631906       0.66508984       0.50870647 </v>
   <v>       0.16596581       0.41694592       0.50824452 </v>
   <v>       0.16630383       0.16457502       0.50558306 </v>
   <v>       0.33333333       0.08333333       0.40830017 </v>
   <v>       0.91785908       0.16605162       0.50565345 </v>
   <v>       0.91737848       0.66628547       0.50821230 </v>
   <v>       0.08333333       0.33333333       0.40830017 </v>
   <v>       0.00069413      -0.00171211       0.60308900 </v>
   <v>       0.33333333       0.83333333       0.40830017 </v>
   <v>      -0.00080846       0.75234425       0.60437974 </v>
   <v>       0.16660879       0.91941007       0.50627960 </v>
   <v>       0.83333333       0.33333333       0.40830017 </v>
   <v>       0.50090243      -0.00145561       0.60553038 </v>
   <v>       0.24804765       0.75231420       0.60437122 </v>
   <v>       0.08333333       0.08333333       0.40830017 </v>
   <v>       0.83333333       0.08333333       0.40830017 </v>
   <v>       0.50060656       0.75190740       0.60564889 </v>
   <v>       0.41491607       0.91772763       0.50705237 </v>
   <v>       0.74955846       0.50156028       0.60595618 </v>
   <v>       0.83333333       0.83333333       0.40830017 </v>
   <v>       0.66777466       0.41487278       0.50895825 </v>
   <v>       0.41604236       0.41633324       0.51045131 </v>
   <v>       0.66734604       0.91588109       0.50878072 </v>
   <v>       0.74808774       0.75177060       0.60576646 </v>
  </varray>
  <varray name="selective"  type="logical" >
   <v type="logical" >  F  F  F </v>
   <v type="logical" >  T  T  T </v>
   <v type="logical" >  F  F  F </v>
   <v type="logical" >  T  T  T </v>
   <v type="logical" >  F  F  F </v>
   <v type="logical" >  T  T  T </v>
   <v type="logical" >  F  F  F </v>
   <v type="logical" >  T  T  T </v>
   <v type="logical" >  T  T  T </v>
   <v type="logical" >  T  T  T </v>
   <v type="logical" >  T  T  T </v>
   <v type="logical" >  F  F  F </v>
   <v type="logical" >  T  T  T </v>
   <v type="logical" >  T  T  T </v>
   <v type="logical" >  F  F  F </v>
   <v type="logical" >  T  T  T </v>
   <v type="logical" >  T  T  T </v>
   <v type="logical" >  F  F  F </v>
   <v type="logical" >  T  T  T </v>
   <v type="logical" >  F  F  F </v>
   <v type="logical" >  F  F  F </v>
   <v type="logical" >  T  T  T </v>
   <v type="logical" >  T  T  T </v>
   <v type="logical" >  T  T  T </v>
   <v type="logical" >  T  T  T </v>
   <v type="logical" >  T  T  T </v>
   <v type="logical" >  T  T  T </v>
   <v type="logical" >  F  F  F </v>
   <v type="logical" >  T  T  T </v>
   <v type="logical" >  T  T  T </v>
   <v type="logical" >  F  F  F </v>
   <v type="logical" >  T  T  T </v>
   <v type="logical" >  F  F  F </v>
   <v type="logical" >  T  T  T </v>
   <v type="logical" >  T  T  T </v>
   <v type="logical" >  F  F  F </v>
   <v type="logical" >  T  T  T </v>
   <v type="logical" >  T  T  T </v>
   <v type="logical" >  F  F  F </v>
   <v type="logical" >  F  F  F </v>
   <v type="logical" >  T  T  T </v>
   <v type="logical" >  T  T  T </v>
   <v type="logical" >  T  T  T </v>
   <v type="logical" >  F  F  F </v>
   <v type="logical" >  T  T  T </v>
   <v type="logical" >  T  T  T </v>
   <v type="logical" >  T  T  T </v>
   <v type="logical" >  T  T  T </v>
  </varray>
  <nose>
   <v>      -3.00000000       0.00000000       0.00010000       0.00010000 </v>
  </nose>
 </structure>
</modeling>
