unknown system                          
           1
    11.002582    0.000000    0.000000
     5.501291    9.528515    0.000000
     0.000000    0.000000   24.491785
   Au   Pd
  24  24
Direct configuration=     1
   0.33333333  0.33333333  0.40830017
   0.00000000  0.25000000  0.59169983
   0.08333333  0.58333333  0.40830017
   0.66666667  0.66666667  0.50000000
   0.83333333  0.58333333  0.40830017
   0.00000000  0.50000000  0.59169983
   0.08333333  0.83333333  0.40830017
   0.91666667  0.91666667  0.50000000
   0.75000000  0.25000000  0.59169983
   0.41666667  0.66666667  0.50000000
   0.25000000  0.00000000  0.59169983
   0.58333333  0.58333333  0.40830017
   0.91666667  0.41666667  0.50000000
   0.25000000  0.25000000  0.59169983
   0.33333333  0.58333333  0.40830017
   0.66666667  0.16666667  0.50000000
   0.25000000  0.50000000  0.59169983
   0.58333333  0.08333333  0.40830017
   0.41666667  0.16666667  0.50000000
   0.58333333  0.83333333  0.40830017
   0.58333333  0.33333333  0.40830017
   0.50000000  0.50000000  0.59169983
   0.50000000  0.25000000  0.59169983
   0.75000000  0.00000000  0.59169983
   0.16666667  0.66666667  0.50000000
   0.16666667  0.41666667  0.50000000
   0.16666667  0.16666667  0.50000000
   0.33333333  0.08333333  0.40830017
   0.91666667  0.16666667  0.50000000
   0.91666667  0.66666667  0.50000000
   0.08333333  0.33333333  0.40830017
   0.00000000  0.00000000  0.59169983
   0.33333333  0.83333333  0.40830017
   0.00000000  0.75000000  0.59169983
   0.16666667  0.91666667  0.50000000
   0.83333333  0.33333333  0.40830017
   0.50000000  0.00000000  0.59169983
   0.25000000  0.75000000  0.59169983
   0.08333333  0.08333333  0.40830017
   0.83333333  0.08333333  0.40830017
   0.50000000  0.75000000  0.59169983
   0.41666667  0.91666667  0.50000000
   0.75000000  0.50000000  0.59169983
   0.83333333  0.83333333  0.40830017
   0.66666667  0.41666667  0.50000000
   0.41666667  0.41666667  0.50000000
   0.66666667  0.91666667  0.50000000
   0.75000000  0.75000000  0.59169983
Direct configuration=     2
   0.33333333  0.33333333  0.40830017
  -0.00049319  0.24938940  0.59354425
   0.08333333  0.58333333  0.40830017
   0.66669146  0.66765011  0.50112018
   0.83333333  0.58333333  0.40830017
  -0.00116996  0.50189617  0.59353741
   0.08333333  0.83333333  0.40830017
   0.91764875  0.91568584  0.50000597
   0.75095508  0.25038475  0.59362070
   0.41515861  0.66816515  0.50045335
   0.25062988 -0.00136743  0.59323090
   0.58333333  0.58333333  0.40830017
   0.91714822  0.41536694  0.49959304
   0.25027228  0.24939405  0.59360618
   0.33333333  0.58333333  0.40830017
   0.66772728  0.16700394  0.49957826
   0.24914110  0.50155778  0.59325018
   0.58333333  0.08333333  0.40830017
   0.41563173  0.16546520  0.49997353
   0.58333333  0.83333333  0.40830017
   0.58333333  0.33333333  0.40830017
   0.50017001  0.50100340  0.59353430
   0.49979053  0.24979344  0.59392817
   0.75053322 -0.00187000  0.59387144
   0.16626437  0.66673832  0.50050601
   0.16633546  0.41709045  0.49969615
   0.16660188  0.16585058  0.49920936
   0.33333333  0.08333333  0.40830017
   0.91750213  0.16632592  0.49947951
   0.91671388  0.66762693  0.50028530
   0.08333333  0.33333333  0.40830017
   0.00079110 -0.00085765  0.59262707
   0.33333333  0.83333333  0.40830017
   0.00014196  0.75020431  0.59258408
   0.16676579  0.91740886  0.50001789
   0.83333333  0.33333333  0.40830017
   0.50055171 -0.00114086  0.59275395
   0.24934710  0.75068266  0.59259903
   0.08333333  0.08333333  0.40830017
   0.83333333  0.08333333  0.40830017
   0.50033467  0.75045376  0.59273546
   0.41597787  0.91724331  0.50008325
   0.74937641  0.50078348  0.59287669
   0.83333333  0.83333333  0.40830017
   0.66757626  0.41591619  0.50001139
   0.41605021  0.41734110  0.50004774
   0.66692666  0.91541581  0.50027390
   0.74945375  0.75024996  0.59260878
Direct configuration=     3
   0.33333333  0.33333333  0.40830017
  -0.00197276  0.24755762  0.59907752
   0.08333333  0.58333333  0.40830017
   0.66676586  0.67060043  0.50448071
   0.83333333  0.58333333  0.40830017
  -0.00467983  0.50758470  0.59905013
   0.08333333  0.83333333  0.40830017
   0.92059500  0.91274338  0.50002388
   0.75382034  0.25153899  0.59938332
   0.41063446  0.67266061  0.50181340
   0.25251950 -0.00546973  0.59782412
   0.58333333  0.58333333  0.40830017
   0.91859287  0.41146775  0.49837216
   0.25108911  0.24757621  0.59932524
   0.33333333  0.58333333  0.40830017
   0.67090913  0.16801575  0.49831306
   0.24656439  0.50623112  0.59790122
   0.58333333  0.08333333  0.40830017
   0.41252691  0.16186082  0.49989411
   0.58333333  0.83333333  0.40830017
   0.58333333  0.33333333  0.40830017
   0.50068005  0.50401361  0.59903772
   0.49916211  0.24917376  0.60061318
   0.75213290 -0.00747999  0.60038628
   0.16505747  0.66695328  0.50202406
   0.16534185  0.41836182  0.49878458
   0.16640753  0.16340232  0.49683745
   0.33333333  0.08333333  0.40830017
   0.92000854  0.16530368  0.49791804
   0.91685551  0.67050771  0.50114121
   0.08333333  0.33333333  0.40830017
   0.00316439 -0.00343061  0.59540879
   0.33333333  0.83333333  0.40830017
   0.00056782  0.75081723  0.59523684
   0.16706315  0.91963543  0.50007156
   0.83333333  0.33333333  0.40830017
   0.50220682 -0.00456343  0.59591629
   0.24738840  0.75273062  0.59529661
   0.08333333  0.08333333  0.40830017
   0.83333333  0.08333333  0.40830017
   0.50133867  0.75181505  0.59584235
   0.41391149  0.91897325  0.50033301
   0.74750565  0.50313392  0.59640726
   0.83333333  0.83333333  0.40830017
   0.67030502  0.41366474  0.50004557
   0.41420086  0.41936438  0.50019097
   0.66770663  0.91166322  0.50109559
   0.74781499  0.75099984  0.59533563
Direct configuration=     4
   0.33333333  0.33333333  0.40830017
  -0.00077310  0.24766411  0.60115479
   0.08333333  0.58333333  0.40830017
   0.66687213  0.66920147  0.50559496
   0.83333333  0.58333333  0.40830017
  -0.00520664  0.50736161  0.60110915
   0.08333333  0.83333333  0.40830017
   0.91958476  0.91413192  0.50139613
   0.75320828  0.25067615  0.60158810
   0.41108268  0.67246104  0.50320119
   0.25267813 -0.00546463  0.59986135
   0.58333333  0.58333333  0.40830017
   0.91943691  0.41154019  0.50012066
   0.25004209  0.24778366  0.60141256
   0.33333333  0.58333333  0.40830017
   0.67088776  0.16705232  0.50063019
   0.24688870  0.50591496  0.59991331
   0.58333333  0.08333333  0.40830017
   0.41284163  0.16251707  0.50182063
   0.58333333  0.83333333  0.40830017
   0.58333333  0.33333333  0.40830017
   0.50054421  0.50439015  0.60120711
   0.50005867  0.24879835  0.60287116
   0.75227227 -0.00712821  0.60288077
   0.16544699  0.66640063  0.50313035
   0.16474745  0.41828619  0.50041276
   0.16575145  0.16329092  0.49785757
   0.33333333  0.08333333  0.40830017
   0.92091506  0.16430492  0.49887143
   0.91732637  0.66925541  0.50222803
   0.08333333  0.33333333  0.40830017
   0.00279828 -0.00379216  0.59651489
   0.33333333  0.83333333  0.40830017
   0.00020749  0.75179948  0.59678142
   0.16660964  0.92076190  0.50094425
   0.83333333  0.33333333  0.40830017
   0.50216882 -0.00453211  0.59735414
   0.24719528  0.75306862  0.59680660
   0.08333333  0.08333333  0.40830017
   0.83333333  0.08333333  0.40830017
   0.50104891  0.75213741  0.59765183
   0.41327326  0.91871407  0.50128406
   0.74806856  0.50319655  0.59797025
   0.83333333  0.83333333  0.40830017
   0.66980859  0.41460161  0.50153196
   0.41450585  0.41874013  0.50208655
   0.66790183  0.91334395  0.50221576
   0.74779374  0.75110398  0.59731267
Direct configuration=     5
   0.33333333  0.33333333  0.40830017
   0.00229109  0.24793612  0.60646055
   0.08333333  0.58333333  0.40830017
   0.66714358  0.66562824  0.50844099
   0.83333333  0.58333333  0.40830017
  -0.00655220  0.50679178  0.60636831
   0.08333333  0.83333333  0.40830017
   0.91700441  0.91767854  0.50490115
   0.75164498  0.24847229  0.60721957
   0.41222752  0.67195130  0.50674588
   0.25308328 -0.00545160  0.60506488
   0.58333333  0.58333333  0.40830017
   0.92159278  0.41172521  0.50458670
   0.24736778  0.24831354  0.60674401
   0.33333333  0.58333333  0.40830017
   0.67083316  0.16459152  0.50654863
   0.24771705  0.50510743  0.60505261
   0.58333333  0.08333333  0.40830017
   0.41364550  0.16419326  0.50674135
   0.58333333  0.83333333  0.40830017
   0.58333333  0.33333333  0.40830017
   0.50019725  0.50535189  0.60674815
   0.50234864  0.24783947  0.60863849
   0.75262826 -0.00622971  0.60925219
   0.16644190  0.66498905  0.50595606
   0.16322925  0.41809301  0.50457147
   0.16407570  0.16300638  0.50046316
   0.33333333  0.08333333  0.40830017
   0.92323051  0.16175388  0.50130659
   0.91852906  0.66605677  0.50500399
   0.08333333  0.33333333  0.40830017
   0.00186316 -0.00471560  0.59934009
   0.33333333  0.83333333  0.40830017
  -0.00071288  0.75430835  0.60072659
   0.16545127  0.92363912  0.50317330
   0.83333333  0.33333333  0.40830017
   0.50207175 -0.00445213  0.60102669
   0.24670199  0.75393193  0.60066344
   0.08333333  0.08333333  0.40830017
   0.83333333  0.08333333  0.40830017
   0.50030879  0.75296080  0.60227361
   0.41164309  0.91805207  0.50371322
   0.74950635  0.50335653  0.60196244
   0.83333333  0.83333333  0.40830017
   0.66854059  0.41699456  0.50532850
   0.41528485  0.41714565  0.50692824
   0.66840043  0.91763689  0.50507692
   0.74773945  0.75136996  0.60236244
Direct configuration=     6
   0.33333333  0.33333333  0.40830017
   0.00297634  0.24799695  0.60764709
   0.08333333  0.58333333  0.40830017
   0.66720428  0.66482915  0.50907746
   0.83333333  0.58333333  0.40830017
  -0.00685311  0.50666435  0.60754442
   0.08333333  0.83333333  0.40830017
   0.91642737  0.91847167  0.50568499
   0.75129537  0.24797944  0.60847895
   0.41248355  0.67183730  0.50753858
   0.25317388 -0.00544869  0.60622855
   0.58333333  0.58333333  0.40830017
   0.92207490  0.41176658  0.50558544
   0.24676972  0.24843203  0.60793628
   0.33333333  0.58333333  0.40830017
   0.67082095  0.16404121  0.50787218
   0.24790230  0.50492684  0.60620192
   0.58333333  0.08333333  0.40830017
   0.41382527  0.16456810  0.50784178
   0.58333333  0.83333333  0.40830017
   0.58333333  0.33333333  0.40830017
   0.50011966  0.50556697  0.60798730
   0.50286075  0.24762504  0.60992824
   0.75270787 -0.00602878  0.61067704
   0.16666440  0.66467338  0.50658797
   0.16288973  0.41804981  0.50550148
   0.16370095  0.16294275  0.50104585
   0.33333333  0.08333333  0.40830017
   0.92374832  0.16118339  0.50185116
   0.91879802  0.66534146  0.50562478
   0.08333333  0.33333333  0.40830017
   0.00165404 -0.00492212  0.59997189
   0.33333333  0.83333333  0.40830017
  -0.00091871  0.75486941  0.60160885
   0.16519223  0.92428256  0.50367178
   0.83333333  0.33333333  0.40830017
   0.50205004 -0.00443424  0.60184798
   0.24659168  0.75412500  0.60152595
   0.08333333  0.08333333  0.40830017
   0.83333333  0.08333333  0.40830017
   0.50014327  0.75314493  0.60330718
   0.41127853  0.91790402  0.50425646
   0.74982789  0.50339231  0.60285522
   0.83333333  0.83333333  0.40830017
   0.66825703  0.41752970  0.50617753
   0.41545906  0.41678908  0.50801099
   0.66851193  0.91859693  0.50571677
   0.74772731  0.75142944  0.60349173
Direct configuration=     7
   0.33333333  0.33333333  0.40830017
   0.00011924  0.24761685  0.60873243
   0.08333333  0.58333333  0.40830017
   0.66728562  0.66780576  0.50949588
   0.83333333  0.58333333  0.40830017
  -0.00456642  0.50629584  0.60885744
   0.08333333  0.83333333  0.40830017
   0.91803476  0.91516721  0.50633916
   0.75303587  0.24869070  0.60964720
   0.41267472  0.66975232  0.50841779
   0.25204144 -0.00394341  0.60736270
   0.58333333  0.58333333  0.40830017
   0.92017078  0.41198806  0.50700309
   0.24893031  0.24940065  0.60907239
   0.33333333  0.58333333  0.40830017
   0.66848540  0.16802082  0.50940875
   0.24800619  0.50325924  0.60745880
   0.58333333  0.08333333  0.40830017
   0.41289343  0.16618694  0.50910782
   0.58333333  0.83333333  0.40830017
   0.58333333  0.33333333  0.40830017
   0.50043971  0.50450305  0.60927454
   0.50068293  0.24843603  0.61137294
   0.75179564 -0.00508669  0.61244115
   0.16640244  0.66550520  0.50752096
   0.16550962  0.41640810  0.50728531
   0.16607571  0.16435432  0.50303554
   0.33333333  0.08333333  0.40830017
   0.91902202  0.16564567  0.50366772
   0.91729537  0.66650941  0.50691580
   0.08333333  0.33333333  0.40830017
   0.00089951 -0.00178145  0.60122586
   0.33333333  0.83333333  0.40830017
  -0.00069364  0.75261773  0.60272395
   0.16622947  0.92046853  0.50496246
   0.83333333  0.33333333  0.40830017
   0.50133721 -0.00265558  0.60298845
   0.24739643  0.75304826  0.60268864
   0.08333333  0.08333333  0.40830017
   0.83333333  0.08333333  0.40830017
   0.50043662  0.75236164  0.60467225
   0.41373951  0.91807991  0.50549957
   0.75012292  0.50099515  0.60436763
   0.83333333  0.83333333  0.40830017
   0.66848831  0.41479446  0.50767348
   0.41662888  0.41577535  0.50958112
   0.66817339  0.91617378  0.50700894
   0.74788923  0.75203512  0.60455658
Direct configuration=     8
   0.33333333  0.33333333  0.40830017
  -0.00034526  0.24755505  0.60890888
   0.08333333  0.58333333  0.40830017
   0.66729884  0.66828970  0.50956391
   0.83333333  0.58333333  0.40830017
  -0.00419465  0.50623592  0.60907091
   0.08333333  0.83333333  0.40830017
   0.91829609  0.91462997  0.50644552
   0.75331884  0.24880633  0.60983713
   0.41270581  0.66941334  0.50856073
   0.25185732 -0.00369868  0.60754709
   0.58333333  0.58333333  0.40830017
   0.91986121  0.41202407  0.50723357
   0.24928158  0.24955813  0.60925710
   0.33333333  0.58333333  0.40830017
   0.66810569  0.16866783  0.50965856
   0.24802309  0.50298813  0.60766314
   0.58333333  0.08333333  0.40830017
   0.41274193  0.16645013  0.50931366
   0.58333333  0.83333333  0.40830017
   0.58333333  0.33333333  0.40830017
   0.50049174  0.50433008  0.60948382
   0.50032886  0.24856789  0.61160782
   0.75164733 -0.00493352  0.61272796
   0.16635985  0.66564044  0.50767265
   0.16593557  0.41614119  0.50757533
   0.16646180  0.16458381  0.50335903
   0.33333333  0.08333333  0.40830017
   0.91825362  0.16637115  0.50396306
   0.91705107  0.66669930  0.50712569
   0.08333333  0.33333333  0.40830017
   0.00077684 -0.00127084  0.60142973
   0.33333333  0.83333333  0.40830017
  -0.00065704  0.75225165  0.60290525
   0.16639811  0.91984845  0.50517230
   0.83333333  0.33333333  0.40830017
   0.50122131 -0.00236640  0.60317387
   0.24752727  0.75287320  0.60287767
   0.08333333  0.08333333  0.40830017
   0.83333333  0.08333333  0.40830017
   0.50048431  0.75223430  0.60489418
   0.41413962  0.91810851  0.50570168
   0.75017089  0.50060541  0.60461351
   0.83333333  0.83333333  0.40830017
   0.66852591  0.41434976  0.50791669
   0.41681907  0.41561054  0.50983639
   0.66811834  0.91577983  0.50721902
   0.74791556  0.75213360  0.60472971
Direct configuration=     9
   0.33333333  0.33333333  0.40830017
  -0.00006518  0.24800085  0.60906638
   0.08333333  0.58333333  0.40830017
   0.66674269  0.66855417  0.50977456
   0.83333333  0.58333333  0.40830017
  -0.00361672  0.50527603  0.60930423
   0.08333333  0.83333333  0.40830017
   0.91747104  0.91507481  0.50653006
   0.75244747  0.24936573  0.61025096
   0.41421847  0.66807367  0.50862981
   0.25139967 -0.00275451  0.60749414
   0.58333333  0.58333333  0.40830017
   0.91901739  0.41297268  0.50738515
   0.24894093  0.24957741  0.60966599
   0.33333333  0.58333333  0.40830017
   0.66806504  0.16753493  0.50971058
   0.24821834  0.50323919  0.60799099
   0.58333333  0.08333333  0.40830017
   0.41396566  0.16600213  0.50904919
   0.58333333  0.83333333  0.40830017
   0.58333333  0.33333333  0.40830017
   0.50059646  0.50330376  0.60976976
   0.50039585  0.24907746  0.61219146
   0.75147353 -0.00410328  0.61301657
   0.16646311  0.66493024  0.50792308
   0.16612734  0.41677987  0.50797321
   0.16679729  0.16443455  0.50433372
   0.33333333  0.08333333  0.40830017
   0.91743718  0.16678168  0.50468634
   0.91724881  0.66629860  0.50757281
   0.08333333  0.33333333  0.40830017
   0.00066804 -0.00108479  0.60186773
   0.33333333  0.83333333  0.40830017
  -0.00047348  0.75182813  0.60334381
   0.16665115  0.91934486  0.50572216
   0.83333333  0.33333333  0.40830017
   0.50092400 -0.00189023  0.60373435
   0.24770205  0.75229152  0.60338222
   0.08333333  0.08333333  0.40830017
   0.83333333  0.08333333  0.40830017
   0.50085672  0.75172202  0.60512433
   0.41487431  0.91803152  0.50627254
   0.75003856  0.50071964  0.60508209
   0.83333333  0.83333333  0.40830017
   0.66791959  0.41506127  0.50832702
   0.41641029  0.41632432  0.51011786
   0.66756483  0.91617321  0.50770905
   0.74803615  0.75176639  0.60495757
Direct configuration=    10
   0.33333333  0.33333333  0.40830017
   0.00007193  0.24821908  0.60914347
   0.08333333  0.58333333  0.40830017
   0.66647044  0.66868363  0.50987769
   0.83333333  0.58333333  0.40830017
  -0.00333382  0.50480615  0.60941844
   0.08333333  0.83333333  0.40830017
   0.91706716  0.91529257  0.50657145
   0.75202092  0.24963956  0.61045353
   0.41495896  0.66741787  0.50866363
   0.25117563 -0.00229232  0.60746822
   0.58333333  0.58333333  0.40830017
   0.91860432  0.41343704  0.50745934
   0.24877417  0.24958685  0.60986615
   0.33333333  0.58333333  0.40830017
   0.66804514  0.16698035  0.50973604
   0.24831392  0.50336209  0.60815148
   0.58333333  0.08333333  0.40830017
   0.41456470  0.16578283  0.50891973
   0.58333333  0.83333333  0.40830017
   0.58333333  0.33333333  0.40830017
   0.50064772  0.50280136  0.60990974
   0.50042864  0.24932690  0.61247717
   0.75138846 -0.00369685  0.61315786
   0.16651366  0.66458258  0.50804567
   0.16622121  0.41709252  0.50816798
   0.16696152  0.16436148  0.50481085
   0.33333333  0.08333333  0.40830017
   0.91703752  0.16698265  0.50504040
   0.91734560  0.66610245  0.50779168
   0.08333333  0.33333333  0.40830017
   0.00061479 -0.00099371  0.60208214
   0.33333333  0.83333333  0.40830017
  -0.00038362  0.75162081  0.60355849
   0.16677502  0.91909835  0.50599133
   0.83333333  0.33333333  0.40830017
   0.50077846 -0.00165713  0.60400871
   0.24778761  0.75200678  0.60362921
   0.08333333  0.08333333  0.40830017
   0.83333333  0.08333333  0.40830017
   0.50103902  0.75147125  0.60523700
   0.41523396  0.91799383  0.50655199
   0.74997379  0.50077556  0.60531146
   0.83333333  0.83333333  0.40830017
   0.66762278  0.41540957  0.50852788
   0.41621017  0.41667373  0.51025565
   0.66729387  0.91636578  0.50794894
   0.74809519  0.75158664  0.60506911
Direct configuration=    11
   0.33333333  0.33333333  0.40830017
  -0.00034440  0.24874791  0.60917933
   0.08333333  0.58333333  0.40830017
   0.66663496  0.66847468  0.50999343
   0.83333333  0.58333333  0.40830017
  -0.00351658  0.50463624  0.60954325
   0.08333333  0.83333333  0.40830017
   0.91716361  0.91529884  0.50668433
   0.75199988  0.24973481  0.61072435
   0.41475334  0.66794099  0.50871452
   0.25148870 -0.00289719  0.60732258
   0.58333333  0.58333333  0.40830017
   0.91878889  0.41349649  0.50726904
   0.24917280  0.24960892  0.61008834
   0.33333333  0.58333333  0.40830017
   0.66797560  0.16682793  0.50954722
   0.24828421  0.50347029  0.60845573
   0.58333333  0.08333333  0.40830017
   0.41462655  0.16594654  0.50869990
   0.58333333  0.83333333  0.40830017
   0.58333333  0.33333333  0.40830017
   0.50054303  0.50293434  0.61012367
   0.50020411  0.24928488  0.61286017
   0.75169643 -0.00388014  0.61322068
   0.16640547  0.66482100  0.50817784
   0.16611775  0.41705404  0.50820132
   0.16653031  0.16438923  0.50528811
   0.33333333  0.08333333  0.40830017
   0.91744935  0.16665242  0.50535234
   0.91728802  0.66612352  0.50798727
   0.08333333  0.33333333  0.40830017
   0.00057929 -0.00145842  0.60233956
   0.33333333  0.83333333  0.40830017
  -0.00071526  0.75212447  0.60379956
   0.16699160  0.91903315  0.50623558
   0.83333333  0.33333333  0.40830017
   0.50081468 -0.00150226  0.60448376
   0.24806033  0.75214954  0.60385411
   0.08333333  0.08333333  0.40830017
   0.83333333  0.08333333  0.40830017
   0.50071811  0.75147187  0.60534149
   0.41491259  0.91776880  0.50683551
   0.74980931  0.50124684  0.60559564
   0.83333333  0.83333333  0.40830017
   0.66753198  0.41535359  0.50864770
   0.41616364  0.41657234  0.51022025
   0.66744114  0.91613450  0.50822686
   0.74825976  0.75152153  0.60520765
Direct configuration=    12
   0.33333333  0.33333333  0.40830017
  -0.00056216  0.24902450  0.60919809
   0.08333333  0.58333333  0.40830017
   0.66672101  0.66836539  0.51005396
   0.83333333  0.58333333  0.40830017
  -0.00361217  0.50454737  0.60960852
   0.08333333  0.83333333  0.40830017
   0.91721405  0.91530211  0.50674337
   0.75198887  0.24978462  0.61086599
   0.41464581  0.66821460  0.50874113
   0.25165244 -0.00321355  0.60724640
   0.58333333  0.58333333  0.40830017
   0.91888542  0.41352758  0.50716951
   0.24938129  0.24962046  0.61020455
   0.33333333  0.58333333  0.40830017
   0.66793923  0.16674821  0.50944846
   0.24826867  0.50352688  0.60861487
   0.58333333  0.08333333  0.40830017
   0.41465890  0.16603216  0.50858492
   0.58333333  0.83333333  0.40830017
   0.58333333  0.33333333  0.40830017
   0.50048828  0.50300389  0.61023557
   0.50008667  0.24926291  0.61306049
   0.75185750 -0.00397601  0.61325353
   0.16634889  0.66494570  0.50824696
   0.16606364  0.41703391  0.50821875
   0.16630478  0.16440374  0.50553773
   0.33333333  0.08333333  0.40830017
   0.91766474  0.16647971  0.50551549
   0.91725790  0.66613454  0.50808956
   0.08333333  0.33333333  0.40830017
   0.00056073 -0.00170147  0.60247420
   0.33333333  0.83333333  0.40830017
  -0.00088872  0.75238789  0.60392565
   0.16710488  0.91899906  0.50636332
   0.83333333  0.33333333  0.40830017
   0.50083362 -0.00142125  0.60473222
   0.24820296  0.75222421  0.60397173
   0.08333333  0.08333333  0.40830017
   0.83333333  0.08333333  0.40830017
   0.50055026  0.75147219  0.60539614
   0.41474451  0.91765110  0.50698379
   0.74972329  0.50149333  0.60574427
   0.83333333  0.83333333  0.40830017
   0.66748449  0.41532431  0.50871036
   0.41613930  0.41651932  0.51020174
   0.66751816  0.91601353  0.50837223
   0.74834583  0.75148748  0.60528010
Direct configuration=    13
   0.33333333  0.33333333  0.40830017
  -0.00052659  0.24884501  0.60920950
   0.08333333  0.58333333  0.40830017
   0.66693796  0.66811639  0.51012827
   0.83333333  0.58333333  0.40830017
  -0.00360258  0.50484680  0.60967895
   0.08333333  0.83333333  0.40830017
   0.91753653  0.91517019  0.50679151
   0.75195805  0.24974010  0.61103285
   0.41419279  0.66835678  0.50876993
   0.25150493 -0.00305329  0.60724339
   0.58333333  0.58333333  0.40830017
   0.91893840  0.41329104  0.50698335
   0.24956257  0.24941603  0.61030048
   0.33333333  0.58333333  0.40830017
   0.66807135  0.16705304  0.50938209
   0.24788257  0.50388841  0.60883068
   0.58333333  0.08333333  0.40830017
   0.41419062  0.16575109  0.50862159
   0.58333333  0.83333333  0.40830017
   0.58333333  0.33333333  0.40830017
   0.50046459  0.50319669  0.61037779
   0.50030924  0.24902751  0.61329356
   0.75162824 -0.00386774  0.61327668
   0.16629404  0.66519064  0.50841395
   0.16601804  0.41686266  0.50820534
   0.16625456  0.16449432  0.50572380
   0.33333333  0.08333333  0.40830017
   0.91790009  0.16623300  0.50564202
   0.91734106  0.66628940  0.50816215
   0.08333333  0.33333333  0.40830017
   0.00067453 -0.00177460  0.60272313
   0.33333333  0.83333333  0.40830017
  -0.00075222  0.75227276  0.60410557
   0.16682447  0.91918663  0.50638127
   0.83333333  0.33333333  0.40830017
   0.50101021 -0.00146251  0.60507053
   0.24817932  0.75212899  0.60414517
   0.08333333  0.08333333  0.40830017
   0.83333333  0.08333333  0.40830017
   0.50064405  0.75153894  0.60551863
   0.41463057  0.91797645  0.50705749
   0.74939880  0.50181730  0.60590026
   0.83333333  0.83333333  0.40830017
   0.66770246  0.41497917  0.50879479
   0.41612081  0.41656167  0.51020384
   0.66750974  0.91577395  0.50857392
   0.74820326  0.75167291  0.60544151
Direct configuration=    14
   0.33333333  0.33333333  0.40830017
  -0.00052457  0.24883481  0.60921015
   0.08333333  0.58333333  0.40830017
   0.66695028  0.66810224  0.51013250
   0.83333333  0.58333333  0.40830017
  -0.00360203  0.50486381  0.60968295
   0.08333333  0.83333333  0.40830017
   0.91755485  0.91516269  0.50679425
   0.75195630  0.24973757  0.61104233
   0.41416706  0.66836486  0.50877156
   0.25149655 -0.00304419  0.60724322
   0.58333333  0.58333333  0.40830017
   0.91894141  0.41327760  0.50697277
   0.24957287  0.24940442  0.61030593
   0.33333333  0.58333333  0.40830017
   0.66807885  0.16707036  0.50937832
   0.24786064  0.50390895  0.60884294
   0.58333333  0.08333333  0.40830017
   0.41416402  0.16573512  0.50862367
   0.58333333  0.83333333  0.40830017
   0.58333333  0.33333333  0.40830017
   0.50046324  0.50320765  0.61038586
   0.50032188  0.24901414  0.61330680
   0.75161521 -0.00386159  0.61327800
   0.16629093  0.66520455  0.50842343
   0.16601545  0.41685293  0.50820458
   0.16625171  0.16449946  0.50573437
   0.33333333  0.08333333  0.40830017
   0.91791346  0.16621898  0.50564920
   0.91734578  0.66629820  0.50816628
   0.08333333  0.33333333  0.40830017
   0.00068099 -0.00177876  0.60273728
   0.33333333  0.83333333  0.40830017
  -0.00074447  0.75226622  0.60411579
   0.16680854  0.91919729  0.50638229
   0.83333333  0.33333333  0.40830017
   0.50102024 -0.00146485  0.60508975
   0.24817798  0.75212358  0.60415502
   0.08333333  0.08333333  0.40830017
   0.83333333  0.08333333  0.40830017
   0.50064938  0.75154273  0.60552559
   0.41462410  0.91799493  0.50706167
   0.74938037  0.50183570  0.60590912
   0.83333333  0.83333333  0.40830017
   0.66771485  0.41495956  0.50879959
   0.41611976  0.41656408  0.51020396
   0.66750926  0.91576035  0.50858538
   0.74819517  0.75168344  0.60545068
Direct configuration=    15
   0.33333333  0.33333333  0.40830017
  -0.00052069  0.24884402  0.60920188
   0.08333333  0.58333333  0.40830017
   0.66686283  0.66797839  0.51017590
   0.83333333  0.58333333  0.40830017
  -0.00366602  0.50494450  0.60967921
   0.08333333  0.83333333  0.40830017
   0.91741882  0.91525528  0.50684055
   0.75194814  0.24971482  0.61113204
   0.41415993  0.66831139  0.50881195
   0.25141535 -0.00287690  0.60731689
   0.58333333  0.58333333  0.40830017
   0.91885517  0.41320917  0.50695839
   0.24949457  0.24945188  0.61034252
   0.33333333  0.58333333  0.40830017
   0.66802867  0.16702802  0.50942151
   0.24795415  0.50377480  0.60891470
   0.58333333  0.08333333  0.40830017
   0.41420932  0.16558671  0.50880968
   0.58333333  0.83333333  0.40830017
   0.58333333  0.33333333  0.40830017
   0.50037950  0.50322142  0.61041407
   0.50034995  0.24914749  0.61334817
   0.75157477 -0.00379946  0.61326126
   0.16631552  0.66512305  0.50853441
   0.16599490  0.41691543  0.50821656
   0.16624607  0.16454765  0.50569419
   0.33333333  0.08333333  0.40830017
   0.91795793  0.16611144  0.50565399
   0.91746991  0.66628674  0.50817882
   0.08333333  0.33333333  0.40830017
   0.00068410 -0.00173068  0.60289007
   0.33333333  0.83333333  0.40830017
  -0.00074804  0.75226238  0.60422391
   0.16664596  0.91936251  0.50632014
   0.83333333  0.33333333  0.40830017
   0.50102585 -0.00154061  0.60525091
   0.24810394  0.75215938  0.60425386
   0.08333333  0.08333333  0.40830017
   0.83333333  0.08333333  0.40830017
   0.50067113  0.75174084  0.60557386
   0.41476941  0.91795072  0.50704950
   0.74947334  0.50171612  0.60593187
   0.83333333  0.83333333  0.40830017
   0.66779962  0.41496611  0.50886007
   0.41604724  0.41649288  0.51029566
   0.66740735  0.91590686  0.50866255
   0.74811013  0.75176863  0.60558267
Direct configuration=    16
   0.33333333  0.33333333  0.40830017
  -0.00051651  0.24885397  0.60919295
   0.08333333  0.58333333  0.40830017
   0.66676841  0.66784466  0.51022277
   0.83333333  0.58333333  0.40830017
  -0.00373511  0.50503162  0.60967517
   0.08333333  0.83333333  0.40830017
   0.91727195  0.91535524  0.50689055
   0.75193933  0.24969025  0.61122890
   0.41415224  0.66825367  0.50885557
   0.25132769 -0.00269629  0.60739643
   0.58333333  0.58333333  0.40830017
   0.91876205  0.41313528  0.50694286
   0.24941003  0.24950312  0.61038202
   0.33333333  0.58333333  0.40830017
   0.66797449  0.16698231  0.50946813
   0.24805512  0.50362996  0.60899218
   0.58333333  0.08333333  0.40830017
   0.41425823  0.16542647  0.50901052
   0.58333333  0.83333333  0.40830017
   0.58333333  0.33333333  0.40830017
   0.50028909  0.50323630  0.61044453
   0.50038027  0.24929147  0.61339285
   0.75153110 -0.00373238  0.61324319
   0.16634207  0.66503505  0.50865423
   0.16597271  0.41698290  0.50822949
   0.16623997  0.16459967  0.50565081
   0.33333333  0.08333333  0.40830017
   0.91800594  0.16599533  0.50565916
   0.91760394  0.66627436  0.50819235
   0.08333333  0.33333333  0.40830017
   0.00068745 -0.00167877  0.60305503
   0.33333333  0.83333333  0.40830017
  -0.00075190  0.75225823  0.60434064
   0.16647042  0.91954090  0.50625303
   0.83333333  0.33333333  0.40830017
   0.50103190 -0.00162241  0.60542492
   0.24802399  0.75219802  0.60436057
   0.08333333  0.08333333  0.40830017
   0.83333333  0.08333333  0.40830017
   0.50069460  0.75195473  0.60562598
   0.41492630  0.91790298  0.50703635
   0.74957372  0.50158701  0.60595643
   0.83333333  0.83333333  0.40830017
   0.66789115  0.41497318  0.50892538
   0.41596893  0.41641601  0.51039466
   0.66729733  0.91606504  0.50874587
   0.74801832  0.75186060  0.60572518
Direct configuration=    17
   0.33333333  0.33333333  0.40830017
  -0.00051834  0.24884962  0.60919685
   0.08333333  0.58333333  0.40830017
   0.66680967  0.66790310  0.51020229