  48  48   0   0
  0.5349325E+02  0.1100258E-08  0.1100258E-08  0.2449179E-08  0.3500000E-15
  1.000000000000000E-004
  CAR 
 unknown system                          
      6.39029858     -9.85938436  301     -1.07186446      1.00000000
     -9.859  0.0000E+00  0.0000E+00
     -9.805  0.0000E+00  0.0000E+00
     -9.751  0.0000E+00  0.0000E+00
     -9.697  0.0000E+00  0.0000E+00
     -9.643  0.0000E+00  0.0000E+00
     -9.589  0.0000E+00  0.0000E+00
     -9.534  0.0000E+00  0.0000E+00
     -9.480  0.0000E+00  0.0000E+00
     -9.426  0.1503E-16  0.8142E-18
     -9.372  0.5971E-14  0.3243E-15
     -9.318  0.1307E-11  0.7112E-13
     -9.264  0.1609E-09  0.8786E-11
     -9.209  0.1116E-07  0.6132E-09
     -9.155  0.4369E-06  0.2428E-07
     -9.101  0.9682E-05  0.5487E-06
     -9.047  0.1217E-03  0.7142E-05
     -8.993  0.8705E-03  0.5429E-04
     -8.939  0.3550E-02  0.2466E-03
     -8.884  0.8288E-02  0.6955E-03
     -8.830  0.1126E-01  0.1305E-02
     -8.776  0.9852E-02  0.1839E-02
     -8.722  0.8583E-02  0.2304E-02
     -8.668  0.1046E-01  0.2871E-02
     -8.614  0.1081E-01  0.3456E-02
     -8.559  0.6890E-02  0.3829E-02
     -8.505  0.2619E-02  0.3971E-02
     -8.451  0.1077E-02  0.4029E-02
     -8.397  0.2419E-02  0.4160E-02
     -8.343  0.6148E-02  0.4493E-02
     -8.289  0.9884E-02  0.5029E-02
     -8.234  0.1079E-01  0.5613E-02
     -8.180  0.1015E-01  0.6163E-02
     -8.126  0.1073E-01  0.6744E-02
     -8.072  0.1152E-01  0.7368E-02
     -8.018  0.1116E-01  0.7972E-02
     -7.964  0.1159E-01  0.8600E-02
     -7.909  0.1258E-01  0.9281E-02
     -7.855  0.1151E-01  0.9905E-02
     -7.801  0.9955E-02  0.1044E-01
     -7.747  0.1009E-01  0.1099E-01
     -7.693  0.1058E-01  0.1156E-01
     -7.639  0.1122E-01  0.1217E-01
     -7.584  0.1443E-01  0.1295E-01
     -7.530  0.1931E-01  0.1400E-01
     -7.476  0.2138E-01  0.1516E-01
     -7.422  0.2036E-01  0.1626E-01
     -7.368  0.2116E-01  0.1740E-01
     -7.314  0.2605E-01  0.1882E-01
     -7.259  0.3264E-01  0.2058E-01
     -7.205  0.3947E-01  0.2272E-01
     -7.151  0.4787E-01  0.2531E-01
     -7.097  0.5583E-01  0.2834E-01
     -7.043  0.6179E-01  0.3168E-01
     -6.989  0.6881E-01  0.3541E-01
     -6.934  0.7469E-01  0.3946E-01
     -6.880  0.7380E-01  0.4346E-01
     -6.826  0.6820E-01  0.4715E-01
     -6.772  0.6692E-01  0.5077E-01
     -6.718  0.7417E-01  0.5479E-01
     -6.664  0.8362E-01  0.5932E-01
     -6.609  0.8913E-01  0.6415E-01
     -6.555  0.9158E-01  0.6911E-01
     -6.501  0.9480E-01  0.7424E-01
     -6.447  0.1011E+00  0.7972E-01
     -6.393  0.1104E+00  0.8570E-01
     -6.339  0.1223E+00  0.9232E-01
     -6.284  0.1332E+00  0.9954E-01
     -6.230  0.1407E+00  0.1072E+00
     -6.176  0.1469E+00  0.1151E+00
     -6.122  0.1490E+00  0.1232E+00
     -6.068  0.1463E+00  0.1311E+00
     -6.014  0.1445E+00  0.1389E+00
     -5.959  0.1439E+00  0.1467E+00
     -5.905  0.1418E+00  0.1544E+00
     -5.851  0.1405E+00  0.1620E+00
     -5.797  0.1414E+00  0.1697E+00
     -5.743  0.1408E+00  0.1773E+00
     -5.689  0.1379E+00  0.1848E+00
     -5.634  0.1373E+00  0.1922E+00
     -5.580  0.1381E+00  0.1997E+00
     -5.526  0.1370E+00  0.2071E+00
     -5.472  0.1367E+00  0.2145E+00
     -5.418  0.1400E+00  0.2221E+00
     -5.364  0.1449E+00  0.2300E+00
     -5.309  0.1516E+00  0.2382E+00
     -5.255  0.1616E+00  0.2469E+00
     -5.201  0.1697E+00  0.2561E+00
     -5.147  0.1698E+00  0.2653E+00
     -5.093  0.1650E+00  0.2742E+00
     -5.039  0.1620E+00  0.2830E+00
     -4.984  0.1619E+00  0.2918E+00
     -4.930  0.1630E+00  0.3006E+00
     -4.876  0.1647E+00  0.3095E+00
     -4.822  0.1657E+00  0.3185E+00
     -4.768  0.1647E+00  0.3274E+00
     -4.714  0.1619E+00  0.3362E+00
     -4.659  0.1589E+00  0.3448E+00
     -4.605  0.1585E+00  0.3534E+00
     -4.551  0.1633E+00  0.3622E+00
     -4.497  0.1712E+00  0.3715E+00
     -4.443  0.1766E+00  0.3811E+00
     -4.389  0.1777E+00  0.3907E+00
     -4.334  0.1765E+00  0.4003E+00
     -4.280  0.1753E+00  0.4098E+00
     -4.226  0.1754E+00  0.4193E+00
     -4.172  0.1762E+00  0.4288E+00
     -4.118  0.1772E+00  0.4384E+00
     -4.064  0.1801E+00  0.4482E+00
     -4.009  0.1847E+00  0.4582E+00
     -3.955  0.1873E+00  0.4683E+00
     -3.901  0.1878E+00  0.4785E+00
     -3.847  0.1889E+00  0.4887E+00
     -3.793  0.1912E+00  0.4991E+00
     -3.739  0.1952E+00  0.5096E+00
     -3.685  0.2010E+00  0.5205E+00
     -3.630  0.2056E+00  0.5317E+00
     -3.576  0.2056E+00  0.5428E+00
     -3.522  0.2018E+00  0.5537E+00
     -3.468  0.1981E+00  0.5645E+00
     -3.414  0.1982E+00  0.5752E+00
     -3.360  0.2042E+00  0.5863E+00
     -3.305  0.2102E+00  0.5976E+00
     -3.251  0.2078E+00  0.6089E+00
     -3.197  0.1974E+00  0.6196E+00
     -3.143  0.1858E+00  0.6297E+00
     -3.089  0.1784E+00  0.6393E+00
     -3.035  0.1745E+00  0.6488E+00
     -2.980  0.1704E+00  0.6580E+00
     -2.926  0.1650E+00  0.6669E+00
     -2.872  0.1639E+00  0.6758E+00
     -2.818  0.1722E+00  0.6851E+00
     -2.764  0.1867E+00  0.6953E+00
     -2.710  0.1975E+00  0.7060E+00
     -2.655  0.1978E+00  0.7167E+00
     -2.601  0.1909E+00  0.7270E+00
     -2.547  0.1827E+00  0.7369E+00
     -2.493  0.1775E+00  0.7465E+00
     -2.439  0.1783E+00  0.7562E+00
     -2.385  0.1835E+00  0.7661E+00
     -2.330  0.1879E+00  0.7763E+00
     -2.276  0.1880E+00  0.7865E+00
     -2.222  0.1827E+00  0.7964E+00
     -2.168  0.1742E+00  0.8058E+00
     -2.114  0.1675E+00  0.8149E+00
     -2.060  0.1663E+00  0.8239E+00
     -2.005  0.1724E+00  0.8332E+00
     -1.951  0.1852E+00  0.8433E+00
     -1.897  0.2013E+00  0.8542E+00
     -1.843  0.2158E+00  0.8659E+00
     -1.789  0.2240E+00  0.8780E+00
     -1.735  0.2227E+00  0.8901E+00
     -1.680  0.2139E+00  0.9016E+00
     -1.626  0.2025E+00  0.9126E+00
     -1.572  0.1927E+00  0.9230E+00
     -1.518  0.1892E+00  0.9333E+00
     -1.464  0.1931E+00  0.9438E+00
     -1.410  0.1960E+00  0.9544E+00
     -1.355  0.1916E+00  0.9648E+00
     -1.301  0.1819E+00  0.9746E+00
     -1.247  0.1710E+00  0.9839E+00
     -1.193  0.1601E+00  0.9925E+00
     -1.139  0.1446E+00  0.1000E+01
     -1.085  0.1180E+00  0.1007E+01
     -1.030  0.8498E-01  0.1011E+01
     -0.976  0.5760E-01  0.1014E+01
     -0.922  0.3959E-01  0.1017E+01
     -0.868  0.2805E-01  0.1018E+01
     -0.814  0.2328E-01  0.1019E+01
     -0.760  0.2411E-01  0.1021E+01
     -0.705  0.2528E-01  0.1022E+01
     -0.651  0.2396E-01  0.1023E+01
     -0.597  0.2509E-01  0.1025E+01
     -0.543  0.3394E-01  0.1027E+01
     -0.489  0.4423E-01  0.1029E+01
     -0.435  0.4696E-01  0.1032E+01
     -0.380  0.4336E-01  0.1034E+01
     -0.326  0.3978E-01  0.1036E+01
     -0.272  0.4053E-01  0.1038E+01
     -0.218  0.4296E-01  0.1041E+01
     -0.164  0.4015E-01  0.1043E+01
     -0.110  0.3197E-01  0.1044E+01
     -0.055  0.2329E-01  0.1046E+01
     -0.001  0.1704E-01  0.1047E+01
      0.053  0.1345E-01  0.1047E+01
      0.107  0.1321E-01  0.1048E+01
      0.161  0.1874E-01  0.1049E+01
      0.215  0.2788E-01  0.1051E+01
      0.270  0.3367E-01  0.1052E+01
      0.324  0.3570E-01  0.1054E+01
      0.378  0.3904E-01  0.1056E+01
      0.432  0.4326E-01  0.1059E+01
      0.486  0.4646E-01  0.1061E+01
      0.540  0.5001E-01  0.1064E+01
      0.595  0.5274E-01  0.1067E+01
      0.649  0.5212E-01  0.1070E+01
      0.703  0.4750E-01  0.1072E+01
      0.757  0.4022E-01  0.1074E+01
      0.811  0.3357E-01  0.1076E+01
      0.865  0.2972E-01  0.1078E+01
      0.920  0.2642E-01  0.1079E+01
      0.974  0.2260E-01  0.1081E+01
      1.028  0.2084E-01  0.1082E+01
      1.082  0.2184E-01  0.1083E+01
      1.136  0.2265E-01  0.1084E+01
      1.190  0.2005E-01  0.1085E+01
      1.245  0.1528E-01  0.1086E+01
      1.299  0.1162E-01  0.1087E+01
      1.353  0.9437E-02  0.1087E+01
      1.407  0.8227E-02  0.1088E+01
      1.461  0.9563E-02  0.1088E+01
      1.515  0.1687E-01  0.1089E+01
      1.570  0.2971E-01  0.1091E+01
      1.624  0.3884E-01  0.1093E+01
      1.678  0.3802E-01  0.1095E+01
      1.732  0.3494E-01  0.1097E+01
      1.786  0.3791E-01  0.1099E+01
      1.840  0.4115E-01  0.1101E+01
      1.895  0.3497E-01  0.1103E+01
      1.949  0.2425E-01  0.1104E+01
      2.003  0.1957E-01  0.1105E+01
      2.057  0.2029E-01  0.1106E+01
      2.111  0.2306E-01  0.1108E+01
      2.165  0.3013E-01  0.1109E+01
      2.220  0.4080E-01  0.1111E+01
      2.274  0.4752E-01  0.1114E+01
      2.328  0.4667E-01  0.1117E+01
      2.382  0.4241E-01  0.1119E+01
      2.436  0.3777E-01  0.1121E+01
      2.490  0.3364E-01  0.1123E+01
      2.545  0.3396E-01  0.1125E+01
      2.599  0.4175E-01  0.1127E+01
      2.653  0.5057E-01  0.1130E+01
      2.707  0.5111E-01  0.1132E+01
      2.761  0.4361E-01  0.1135E+01
      2.815  0.3250E-01  0.1136E+01
      2.870  0.2051E-01  0.1138E+01
      2.924  0.1281E-01  0.1138E+01
      2.978  0.1169E-01  0.1139E+01
      3.032  0.1124E-01  0.1139E+01
      3.086  0.8454E-02  0.1140E+01
      3.140  0.8861E-02  0.1140E+01
      3.195  0.1587E-01  0.1141E+01
      3.249  0.2415E-01  0.1143E+01
      3.303  0.2689E-01  0.1144E+01
      3.357  0.2417E-01  0.1145E+01
      3.411  0.2014E-01  0.1146E+01
      3.465  0.1798E-01  0.1147E+01
      3.520  0.2114E-01  0.1149E+01
      3.574  0.3113E-01  0.1150E+01
      3.628  0.4100E-01  0.1152E+01
      3.682  0.4307E-01  0.1155E+01
      3.736  0.3958E-01  0.1157E+01
      3.790  0.3506E-01  0.1159E+01
      3.845  0.3031E-01  0.1160E+01
      3.899  0.2560E-01  0.1162E+01
      3.953  0.2283E-01  0.1163E+01
      4.007  0.2343E-01  0.1164E+01
      4.061  0.2498E-01  0.1166E+01
      4.115  0.2517E-01  0.1167E+01
      4.170  0.2531E-01  0.1168E+01
      4.224  0.2532E-01  0.1170E+01
      4.278  0.2200E-01  0.1171E+01
      4.332  0.1664E-01  0.1172E+01
      4.386  0.1625E-01  0.1173E+01
      4.440  0.2216E-01  0.1174E+01
      4.495  0.2875E-01  0.1176E+01
      4.549  0.3560E-01  0.1177E+01
      4.603  0.4640E-01  0.1180E+01
      4.657  0.5615E-01  0.1183E+01
      4.711  0.5575E-01  0.1186E+01
      4.765  0.4976E-01  0.1189E+01
      4.819  0.5015E-01  0.1191E+01
      4.874  0.5574E-01  0.1195E+01
      4.928  0.5817E-01  0.1198E+01
      4.982  0.5915E-01  0.1201E+01
      5.036  0.6544E-01  0.1204E+01
      5.090  0.7326E-01  0.1208E+01
      5.144  0.7334E-01  0.1212E+01
      5.199  0.6624E-01  0.1216E+01
      5.253  0.5590E-01  0.1219E+01
      5.307  0.4221E-01  0.1221E+01
      5.361  0.2719E-01  0.1223E+01
      5.415  0.1473E-01  0.1224E+01
      5.469  0.6421E-02  0.1224E+01
      5.524  0.2043E-02  0.1224E+01
      5.578  0.4283E-03  0.1224E+01
      5.632  0.5524E-04  0.1224E+01
      5.686  0.4221E-05  0.1224E+01
      5.740  0.1873E-06  0.1224E+01
      5.794  0.4772E-08  0.1224E+01
      5.849  0.6925E-10  0.1224E+01
      5.903  0.5695E-12  0.1224E+01
      5.957  0.2643E-14  0.1224E+01
      6.011  0.6832E-17  0.1224E+01
      6.065  0.0000E+00  0.1224E+01
      6.119  0.0000E+00  0.1224E+01
      6.174  0.0000E+00  0.1224E+01
      6.228  0.0000E+00  0.1224E+01
      6.282  0.0000E+00  0.1224E+01
      6.336  0.0000E+00  0.1224E+01
      6.390  0.0000E+00  0.1224E+01
