unknown system                          
           1
    11.002582    0.000000    0.000000
     5.501291    9.528515    0.000000
     0.000000    0.000000   24.491785
   Au   Pd
  24  24
Direct configuration=     1
   0.75000000  0.75000000  0.59169983
   0.16666667  0.16666667  0.50000000
   0.83333333  0.58333333  0.40830017
   0.91666667  0.41666667  0.50000000
   0.08333333  0.33333333  0.40830017
   0.08333333  0.83333333  0.40830017
   0.75000000  0.25000000  0.59169983
   0.83333333  0.83333333  0.40830017
   0.91666667  0.66666667  0.50000000
   0.33333333  0.33333333  0.40830017
   0.25000000  0.00000000  0.59169983
   0.58333333  0.58333333  0.40830017
   0.08333333  0.58333333  0.40830017
   0.33333333  0.58333333  0.40830017
   0.16666667  0.66666667  0.50000000
   0.16666667  0.91666667  0.50000000
   0.66666667  0.91666667  0.50000000
   0.50000000  0.75000000  0.59169983
   0.41666667  0.16666667  0.50000000
   0.50000000  0.00000000  0.59169983
   0.58333333  0.33333333  0.40830017
   0.41666667  0.41666667  0.50000000
   0.41666667  0.91666667  0.50000000
   0.25000000  0.25000000  0.59169983
   0.25000000  0.50000000  0.59169983
   0.16666667  0.41666667  0.50000000
   0.33333333  0.08333333  0.40830017
   0.00000000  0.75000000  0.59169983
   0.91666667  0.16666667  0.50000000
   0.00000000  0.50000000  0.59169983
   0.00000000  0.25000000  0.59169983
   0.00000000  0.00000000  0.59169983
   0.33333333  0.83333333  0.40830017
   0.91666667  0.91666667  0.50000000
   0.58333333  0.08333333  0.40830017
   0.66666667  0.66666667  0.50000000
   0.41666667  0.66666667  0.50000000
   0.08333333  0.08333333  0.40830017
   0.58333333  0.83333333  0.40830017
   0.75000000  0.00000000  0.59169983
   0.66666667  0.41666667  0.50000000
   0.66666667  0.16666667  0.50000000
   0.83333333  0.08333333  0.40830017
   0.83333333  0.33333333  0.40830017
   0.75000000  0.50000000  0.59169983
   0.50000000  0.50000000  0.59169983
   0.50000000  0.25000000  0.59169983
   0.25000000  0.75000000  0.59169983
Direct configuration=     2
   0.75123362  0.74903386  0.59391059
   0.16509928  0.16721459  0.49957234
   0.83333333  0.58333333  0.40830017
   0.91543926  0.41623033  0.50074086
   0.08333333  0.33333333  0.40830017
   0.08333333  0.83333333  0.40830017
   0.75010865  0.24979861  0.59312986
   0.83333333  0.83333333  0.40830017
   0.91736030  0.66634836  0.50094403
   0.33333333  0.33333333  0.40830017
   0.24831190 -0.00004184  0.59430766
   0.58333333  0.58333333  0.40830017
   0.08333333  0.58333333  0.40830017
   0.33333333  0.58333333  0.40830017
   0.16671155  0.66675001  0.50132131
   0.16562400  0.91675317  0.49998750
   0.66724650  0.91759839  0.49959674
   0.50034367  0.74774748  0.59364769
   0.41760495  0.16715782  0.49960569
   0.50088429  0.00078405  0.59435510
   0.58333333  0.33333333  0.40830017
   0.41755829  0.41666340  0.50118205
   0.41749201  0.91482410  0.49872883
   0.24895171  0.25209073  0.59391349
   0.24989858  0.50029741  0.59283171
   0.16647013  0.41711908  0.50057957
   0.33333333  0.08333333  0.40830017
   0.00025372  0.75040993  0.59282652
   0.91565737  0.16652263  0.49979201
   0.00020131  0.49983767  0.59287882
  -0.00071160  0.25034425  0.59285197
  -0.00034738 -0.00029952  0.59263718
   0.33333333  0.83333333  0.40830017
   0.91586604  0.91834377  0.50045926
   0.58333333  0.08333333  0.40830017
   0.66609590  0.66583677  0.49998456
   0.41750931  0.66623654  0.50032407
   0.08333333  0.08333333  0.40830017
   0.58333333  0.83333333  0.40830017
   0.75065334  0.00009482  0.59269391
   0.66700065  0.41669524  0.50025629
   0.66812261  0.16611620  0.50004344
   0.83333333  0.08333333  0.40830017
   0.83333333  0.33333333  0.40830017
   0.75007410  0.49978895  0.59262194
   0.49980241  0.50023561  0.59251736
   0.50039226  0.25031925  0.59284725
   0.24974088  0.74951582  0.59283695
Direct configuration=     3
   0.75493446  0.74613545  0.60054288
   0.16039714  0.16885836  0.49828934
   0.83333333  0.58333333  0.40830017
   0.91175702  0.41492133  0.50296346
   0.08333333  0.33333333  0.40830017
   0.08333333  0.83333333  0.40830017
   0.75043460  0.24919444  0.59741996
   0.83333333  0.83333333  0.40830017
   0.91944122  0.66539345  0.50377612
   0.33333333  0.33333333  0.40830017
   0.24324759 -0.00016735  0.60213115
   0.58333333  0.58333333  0.40830017
   0.08333333  0.58333333  0.40830017
   0.33333333  0.58333333  0.40830017
   0.16684621  0.66700006  0.50528525
   0.16249599  0.91701267  0.49995000
   0.66898598  0.92039356  0.49838695
   0.50137470  0.74098991  0.59949125
   0.42041982  0.16863127  0.49842274
   0.50353716  0.00313621  0.60232092
   0.58333333  0.33333333  0.40830017
   0.42023315  0.41665361  0.50472819
   0.41996806  0.90929641  0.49491533
   0.24580685  0.25836292  0.60055448
   0.24959433  0.50118963  0.59622736
   0.16588051  0.41847633  0.50231827
   0.33333333  0.08333333  0.40830017
   0.00101489  0.75163972  0.59620657
   0.91262947  0.16609053  0.49916806
   0.00080524  0.49935069  0.59641580
  -0.00284638  0.25137699  0.59630839
  -0.00138953 -0.00119806  0.59544924
   0.33333333  0.83333333  0.40830017
   0.91346414  0.92337507  0.50183703
   0.58333333  0.08333333  0.40830017
   0.66438360  0.66334709  0.49993824
   0.42003723  0.66494618  0.50129627
   0.08333333  0.08333333  0.40830017
   0.58333333  0.83333333  0.40830017
   0.75261336  0.00037930  0.59567615
   0.66800260  0.41678097  0.50102518
   0.67249043  0.16446481  0.50017374
   0.83333333  0.08333333  0.40830017
   0.83333333  0.33333333  0.40830017
   0.75029640  0.49915581  0.59538828
   0.49920966  0.50094242  0.59496995
   0.50156905  0.25127698  0.59628950
   0.24896350  0.74806330  0.59624831
Direct configuration=     4
   0.75429860  0.74660391  0.60320543
   0.16194798  0.16757024  0.50031618
   0.83333333  0.58333333  0.40830017
   0.91161141  0.41519787  0.50420911
   0.08333333  0.33333333  0.40830017
   0.08333333  0.83333333  0.40830017
   0.75047072  0.24933037  0.59945041
   0.83333333  0.83333333  0.40830017
   0.91787991  0.66613971  0.50546278
   0.33333333  0.33333333  0.40830017
   0.24370992 -0.00001166  0.60484318
   0.58333333  0.58333333  0.40830017
   0.08333333  0.58333333  0.40830017
   0.33333333  0.58333333  0.40830017
   0.16724409  0.66721786  0.50647222
   0.16331936  0.91735949  0.50152901
   0.66865017  0.91925883  0.50035378
   0.50096524  0.74238802  0.60189655
   0.41973377  0.16777887  0.50043604
   0.50295711  0.00297512  0.60502792
   0.58333333  0.33333333  0.40830017
   0.42091641  0.41646885  0.50594038
   0.41940601  0.91058797  0.49710089
   0.24627480  0.25735952  0.60303016
   0.24953382  0.50145553  0.59855571
   0.16645311  0.41727166  0.50369718
   0.33333333  0.08333333  0.40830017
   0.00056526  0.75245509  0.59843174
   0.91160396  0.16655325  0.49992214
   0.00060544  0.49942397  0.59841256
  -0.00263302  0.25087173  0.59789985
  -0.00159572 -0.00130496  0.59690700
   0.33333333  0.83333333  0.40830017
   0.91373232  0.92292443  0.50279487
   0.58333333  0.08333333  0.40830017
   0.66523380  0.66397647  0.50147219
   0.41948570  0.66497759  0.50249236
   0.08333333  0.08333333  0.40830017
   0.58333333  0.83333333  0.40830017
   0.75280730 -0.00011319  0.59717249
   0.66782572  0.41588256  0.50200867
   0.67273553  0.16580942  0.50118449
   0.83333333  0.08333333  0.40830017
   0.83333333  0.33333333  0.40830017
   0.75041860  0.49887152  0.59712047
   0.49951124  0.50027084  0.59674701
   0.50188180  0.25100588  0.59802049
   0.24902581  0.74840268  0.59819566
Direct configuration=     5
   0.75239103  0.74800929  0.61119308
   0.16660049  0.16370587  0.50639670
   0.83333333  0.58333333  0.40830017
   0.91117455  0.41602748  0.50794606
   0.08333333  0.33333333  0.40830017
   0.08333333  0.83333333  0.40830017
   0.75057907  0.24973816  0.60554176
   0.83333333  0.83333333  0.40830017
   0.91319597  0.66837849  0.51052275
   0.33333333  0.33333333  0.40830017
   0.24509691  0.00045540  0.61297928
   0.58333333  0.58333333  0.40830017
   0.08333333  0.58333333  0.40830017
   0.33333333  0.58333333  0.40830017
   0.16843772  0.66787127  0.51003315
   0.16578948  0.91839995  0.50626604
   0.66764272  0.91585465  0.50625425
   0.49973686  0.74658234  0.60911243
   0.41767563  0.16522169  0.50647594
   0.50121697  0.00249185  0.61314890
   0.58333333  0.33333333  0.40830017
   0.42296620  0.41591457  0.50957696
   0.41771984  0.91446266  0.50365759
   0.24767867  0.25434932  0.61045721
   0.24935226  0.50225323  0.60554078
   0.16817091  0.41365764  0.50783391
   0.33333333  0.08333333  0.40830017
  -0.00078361  0.75490121  0.60510725
   0.90852743  0.16794139  0.50218438
   0.00000604  0.49964382  0.60440284
  -0.00199294  0.24935593  0.60267422
  -0.00221427 -0.00162564  0.60128027
   0.33333333  0.83333333  0.40830017
   0.91453686  0.92157254  0.50566841
   0.58333333  0.08333333  0.40830017
   0.66778442  0.66586462  0.50607406
   0.41783110  0.66507183  0.50608064
   0.08333333  0.08333333  0.40830017
   0.58333333  0.83333333  0.40830017
   0.75338911 -0.00159065  0.60166149
   0.66729506  0.41318735  0.50495916
   0.67347082  0.16984324  0.50421672
   0.83333333  0.08333333  0.40830017
   0.83333333  0.33333333  0.40830017
   0.75078518  0.49801868  0.60231703
   0.50041598  0.49825608  0.60207819
   0.50282004  0.25019256  0.60321349
   0.24921273  0.74942082  0.60403772
Direct configuration=     6
   0.75214729  0.74818887  0.61221369
   0.16719496  0.16321210  0.50717363
   0.83333333  0.58333333  0.40830017
   0.91111873  0.41613348  0.50842354
   0.08333333  0.33333333  0.40830017
   0.08333333  0.83333333  0.40830017
   0.75059291  0.24979027  0.60632007
   0.83333333  0.83333333  0.40830017
   0.91259748  0.66866455  0.51116928
   0.33333333  0.33333333  0.40830017
   0.24527413  0.00051508  0.61401886
   0.58333333  0.58333333  0.40830017
   0.08333333  0.58333333  0.40830017
   0.33333333  0.58333333  0.40830017
   0.16859024  0.66795476  0.51048815
   0.16610509  0.91853289  0.50687131
   0.66751399  0.91541969  0.50700818
   0.49957991  0.74711827  0.61003443
   0.41741265  0.16489495  0.50724768
   0.50099462  0.00243010  0.61418655
   0.58333333  0.33333333  0.40830017
   0.42322811  0.41584375  0.51004162
   0.41750440  0.91495775  0.50449536
   0.24785805  0.25396470  0.61140619
   0.24932907  0.50235516  0.60643329
   0.16839040  0.41319587  0.50836248
   0.33333333  0.08333333  0.40830017
  -0.00095596  0.75521376  0.60596021
   0.90813433  0.16811876  0.50247343
  -0.00007055  0.49967191  0.60516824
  -0.00191116  0.24916225  0.60328425
  -0.00229331 -0.00166662  0.60183906
   0.33333333  0.83333333  0.40830017
   0.91463966  0.92139980  0.50603557
   0.58333333  0.08333333  0.40830017
   0.66811033  0.66610587  0.50666206
   0.41761969  0.66508387  0.50653912
   0.08333333  0.08333333  0.40830017
   0.58333333  0.83333333  0.40830017
   0.75346345 -0.00177943  0.60223507
   0.66722725  0.41284297  0.50533615
   0.67356478  0.17035865  0.50460415
   0.83333333  0.08333333  0.40830017
   0.83333333  0.33333333  0.40830017
   0.75083202  0.49790970  0.60298101
   0.50053158  0.49799864  0.60275938
   0.50293992  0.25008864  0.60387702
   0.24923661  0.74955091  0.60478418
Direct configuration=     7
   0.75115619  0.74863578  0.61395170
   0.16452280  0.16590598  0.50860000
   0.83333333  0.58333333  0.40830017
   0.91453264  0.41462072  0.50890271
   0.08333333  0.33333333  0.40830017
   0.08333333  0.83333333  0.40830017
   0.75112393  0.24908104  0.60753368
   0.83333333  0.83333333  0.40830017
   0.91695083  0.66693830  0.51238752
   0.33333333  0.33333333  0.40830017
   0.24599253  0.00043553  0.61561654
   0.58333333  0.58333333  0.40830017
   0.08333333  0.58333333  0.40830017
   0.33333333  0.58333333  0.40830017
   0.16637707  0.66655283  0.51132039
   0.16568546  0.91820638  0.50803141
   0.66592914  0.91871520  0.50834318
   0.49954687  0.74760529  0.61106701
   0.41959233  0.16539783  0.50873741
   0.50072324  0.00197373  0.61575819
   0.58333333  0.33333333  0.40830017
   0.41877379  0.41519431  0.51045419
   0.41903820  0.91258321  0.50626161
   0.24831079  0.25336373  0.61270424
   0.24903667  0.50195306  0.60757956
   0.16753656  0.41488242  0.50983694
   0.33333333  0.08333333  0.40830017
  -0.00033145  0.75326260  0.60731202
   0.91347866  0.16706829  0.50381513
   0.00033351  0.49966466  0.60649689
  -0.00085520  0.24854589  0.60429884
  -0.00131276 -0.00067548  0.60286254
   0.33333333  0.83333333  0.40830017
   0.91541370  0.91910186  0.50662523
   0.58333333  0.08333333  0.40830017
   0.66494023  0.66626168  0.50818586
   0.41938317  0.66647746  0.50782892
   0.08333333  0.08333333  0.40830017
   0.58333333  0.83333333  0.40830017
   0.75133372 -0.00097340  0.60324308
   0.66702016  0.41723521  0.50649369
   0.66999635  0.16657233  0.50599650
   0.83333333  0.08333333  0.40830017
   0.83333333  0.33333333  0.40830017
   0.74962058  0.49929578  0.60432630
   0.50053590  0.49969994  0.60442069
   0.50222988  0.24899081  0.60510369
   0.24988451  0.74997027  0.60623082
Direct configuration=     8
   0.75121999  0.74860701  0.61383981
   0.16469484  0.16573254  0.50850817
   0.83333333  0.58333333  0.40830017
   0.91431285  0.41471812  0.50887186
   0.08333333  0.33333333  0.40830017
   0.08333333  0.83333333  0.40830017
   0.75108975  0.24912670  0.60745555
   0.83333333  0.83333333  0.40830017
   0.91667056  0.66704943  0.51230908
   0.33333333  0.33333333  0.40830017
   0.24594628  0.00044065  0.61551368
   0.58333333  0.58333333  0.40830017
   0.08333333  0.58333333  0.40830017
   0.33333333  0.58333333  0.40830017
   0.16651955  0.66664309  0.51126681
   0.16571247  0.91822740  0.50795672
   0.66603117  0.91850303  0.50825723
   0.49954900  0.74757393  0.61100053
   0.41945200  0.16536546  0.50864150
   0.50074071  0.00200311  0.61565701
   0.58333333  0.33333333  0.40830017
   0.41906056  0.41523612  0.51042762
   0.41893945  0.91273608  0.50614790
   0.24828164  0.25340242  0.61262067
   0.24905549  0.50197895  0.60750577
   0.16759153  0.41477384  0.50974201
   0.33333333  0.08333333  0.40830017
  -0.00037166  0.75338821  0.60722499
   0.91313459  0.16713592  0.50372875
   0.00030750  0.49966513  0.60641135
  -0.00092319  0.24858558  0.60423352
  -0.00137589 -0.00073929  0.60279665
   0.33333333  0.83333333  0.40830017
   0.91536386  0.91924980  0.50658727
   0.58333333  0.08333333  0.40830017
   0.66514432  0.66625165  0.50808775
   0.41926964  0.66638774  0.50774588
   0.08333333  0.08333333  0.40830017
   0.58333333  0.83333333  0.40830017
   0.75147083 -0.00102529  0.60317819
   0.66703350  0.41695244  0.50641917
   0.67022609  0.16681610  0.50590686
   0.83333333  0.08333333  0.40830017
   0.83333333  0.33333333  0.40830017
   0.74969858  0.49920654  0.60423969
   0.50053562  0.49959041  0.60431373
   0.50227559  0.24906149  0.60502472
   0.24984280  0.74994327  0.60613769
Direct configuration=     9
   0.75143602  0.74848531  0.61404841
   0.16570878  0.16613481  0.50852273
   0.83333333  0.58333333  0.40830017
   0.91476674  0.41579001  0.50888103
   0.08333333  0.33333333  0.40830017
   0.08333333  0.83333333  0.40830017
   0.75087281  0.24902191  0.60727909
   0.83333333  0.83333333  0.40830017
   0.91641589  0.66675171  0.51250558
   0.33333333  0.33333333  0.40830017
   0.24627545  0.00032631  0.61577205
   0.58333333  0.58333333  0.40830017
   0.08333333  0.58333333  0.40830017
   0.33333333  0.58333333  0.40830017
   0.16691847  0.66642316  0.51152951
   0.16589202  0.91697439  0.50809002
   0.66712814  0.91767546  0.50828370
   0.49958217  0.74750997  0.61110421
   0.41842285  0.16573579  0.50871528
   0.50058169  0.00164144  0.61599415
   0.58333333  0.33333333  0.40830017
   0.41791461  0.41627961  0.51056162
   0.41842867  0.91338956  0.50634525
   0.24824652  0.25345413  0.61274921
   0.24936660  0.50156310  0.60759648
   0.16729432  0.41515664  0.51030395
   0.33333333  0.08333333  0.40830017
  -0.00006811  0.75251595  0.60756481
   0.91349406  0.16669324  0.50442724
   0.00022055  0.49951626  0.60682482
  -0.00076829  0.24909470  0.60471449
  -0.00097147 -0.00060247  0.60304036
   0.33333333  0.83333333  0.40830017
   0.91550494  0.91879515  0.50682017
   0.58333333  0.08333333  0.40830017
   0.66584492  0.66590961  0.50857017
   0.41881817  0.66609801  0.50830343
   0.08333333  0.08333333  0.40830017
   0.58333333  0.83333333  0.40830017
   0.75091611 -0.00077724  0.60359330
   0.66672742  0.41735144  0.50695017
   0.67010898  0.16622634  0.50643866
   0.83333333  0.08333333  0.40830017
   0.83333333  0.33333333  0.40830017
   0.74968683  0.49964558  0.60458102
   0.50019965  0.50011006  0.60463115
   0.50160011  0.24935312  0.60554438
   0.24986060  0.74985648  0.60636137
Direct configuration=    10
   0.75150933  0.74844401  0.61411920
   0.16605284  0.16627131  0.50852768
   0.83333333  0.58333333  0.40830017
   0.91492075  0.41615374  0.50888414
   0.08333333  0.33333333  0.40830017
   0.08333333  0.83333333  0.40830017
   0.75079919  0.24898634  0.60721921
   0.83333333  0.83333333  0.40830017
   0.91632948  0.66665069  0.51257226
   0.33333333  0.33333333  0.40830017
   0.24638715  0.00028752  0.61585972
   0.58333333  0.58333333  0.40830017
   0.08333333  0.58333333  0.40830017
   0.33333333  0.58333333  0.40830017
   0.16705383  0.66634853  0.51161865
   0.16595295  0.91654920  0.50813525
   0.66750038  0.91739464  0.50829269
   0.49959342  0.74748826  0.61113939
   0.41807363  0.16586145  0.50874031
   0.50052772  0.00151871  0.61610855
   0.58333333  0.33333333  0.40830017
   0.41752576  0.41663370  0.51060709
   0.41825534  0.91361130  0.50641221
   0.24823461  0.25347167  0.61279282
   0.24947217  0.50142199  0.60762727
   0.16719347  0.41528653  0.51049463
   0.33333333  0.08333333  0.40830017
   0.00003489  0.75221996  0.60768012
   0.91361604  0.16654302  0.50466425
   0.00019105  0.49946575  0.60696512
  -0.00071573  0.24926746  0.60487770
  -0.00083424 -0.00055604  0.60312307
   0.33333333  0.83333333  0.40830017
   0.91555281  0.91864087  0.50689920
   0.58333333  0.08333333  0.40830017
   0.66608266  0.66579354  0.50873387
   0.41866498  0.66599970  0.50849262
   0.08333333  0.08333333  0.40830017
   0.58333333  0.83333333  0.40830017
   0.75072788 -0.00069307  0.60373416
   0.66662356  0.41748683  0.50713036
   0.67006924  0.16602621  0.50661911
   0.83333333  0.08333333  0.40830017
   0.83333333  0.33333333  0.40830017
   0.74968285  0.49979456  0.60469685
   0.50008564  0.50028640  0.60473886
   0.50137090  0.24945208  0.60572072
   0.24986664  0.74982703  0.60643728
Direct configuration=    11
   0.75174079  0.74848396  0.61424978
   0.16594142  0.16584211  0.50842873
   0.83333333  0.58333333  0.40830017
   0.91482288  0.41597184  0.50892728
   0.08333333  0.33333333  0.40830017
   0.08333333  0.83333333  0.40830017
   0.75053113  0.24922899  0.60694591
   0.83333333  0.83333333  0.40830017
   0.91624215  0.66684189  0.51266383
   0.33333333  0.33333333  0.40830017
   0.24636173  0.00032423  0.61593805
   0.58333333  0.58333333  0.40830017
   0.08333333  0.58333333  0.40830017
   0.33333333  0.58333333  0.40830017
   0.16669828  0.66650053  0.51175723
   0.16606433  0.91668518  0.50808181
   0.66747720  0.91699920  0.50818086
   0.49965220  0.74747342  0.61118380
   0.41825582  0.16584857  0.50867555
   0.50053157  0.00135120  0.61628109
   0.58333333  0.33333333  0.40830017
   0.41820906  0.41638280  0.51073862
   0.41831083  0.91356552  0.50637392
   0.24821811  0.25340483  0.61289370
   0.24971163  0.50119549  0.60777190
   0.16700017  0.41569764  0.51082243
   0.33333333  0.08333333  0.40830017
   0.00016791  0.75199296  0.60788963
   0.91348113  0.16676814  0.50514736
   0.00007853  0.49940433  0.60733873
  -0.00082507  0.24976816  0.60514861
  -0.00071434 -0.00076200  0.60330582
   0.33333333  0.83333333  0.40830017
   0.91570298  0.91844669  0.50713695
   0.58333333  0.08333333  0.40830017
   0.66603777  0.66601303  0.50899692
   0.41869713  0.66591888  0.50880058
   0.08333333  0.08333333  0.40830017
   0.58333333  0.83333333  0.40830017
   0.75077567 -0.00086493  0.60409049
   0.66676185  0.41675920  0.50743310
   0.66983778  0.16657772  0.50689773
   0.83333333  0.08333333  0.40830017
   0.83333333  0.33333333  0.40830017
   0.74998017  0.49964336  0.60493754
   0.49988887  0.50025669  0.60500502
   0.50092261  0.24984569  0.60604724
   0.24961517  0.74980081  0.60667420
Direct configuration=    12
   0.75188905  0.74850955  0.61433343
   0.16587004  0.16556717  0.50836535
   0.83333333  0.58333333  0.40830017
   0.91476018  0.41585532  0.50895491
   0.08333333  0.33333333  0.40830017
   0.08333333  0.83333333  0.40830017
   0.75035941  0.24938443  0.60677084
   0.83333333  0.83333333  0.40830017
   0.91618621  0.66696437  0.51272248
   0.33333333  0.33333333  0.40830017
   0.24634545  0.00034775  0.61598822
   0.58333333  0.58333333  0.40830017
   0.08333333  0.58333333  0.40830017
   0.33333333  0.58333333  0.40830017
   0.16647052  0.66659790  0.51184600
   0.16613568  0.91677229  0.50804757
   0.66746235  0.91674589  0.50810923
   0.49968985  0.74746391  0.61121225
   0.41837252  0.16584033  0.50863406
   0.50053404  0.00124390  0.61639162
   0.58333333  0.33333333  0.40830017
   0.41864676  0.41622208  0.51082288
   0.41834637  0.91353620  0.50634939
   0.24820755  0.25336200  0.61295831
   0.24986502  0.50105039  0.60786455
   0.16687635  0.41596099  0.51103242
   0.33333333  0.08333333  0.40830017
   0.00025312  0.75184754  0.60802384
   0.91339471  0.16691234  0.50545683
   0.00000645  0.49936499  0.60757806
  -0.00089511  0.25008889  0.60532215
  -0.00063754 -0.00089394  0.60342288
   0.33333333  0.83333333  0.40830017
   0.91579917  0.91832231  0.50728924
   0.58333333  0.08333333  0.40830017
   0.66600901  0.66615362  0.50916542
   0.41871773  0.66586710  0.50899785
   0.08333333  0.08333333  0.40830017
   0.58333333  0.83333333  0.40830017
   0.75080629 -0.00097503  0.60431875
   0.66685043  0.41629310  0.50762703
   0.66968951  0.16693100  0.50707621
   0.83333333  0.08333333  0.40830017
   0.83333333  0.33333333  0.40830017
   0.75017063  0.49954651  0.60509173
   0.49976282  0.50023766  0.60517551
   0.50063545  0.25009783  0.60625641
   0.24945409  0.74978402  0.60682596
Direct configuration=    13
   0.75188511  0.74858224  0.61447741
   0.16551577  0.16573520  0.50831234
   0.83333333  0.58333333  0.40830017
   0.91454194  0.41564971  0.50906134
   0.08333333  0.33333333  0.40830017
   0.08333333  0.83333333  0.40830017
   0.75040002  0.24929954  0.60671985
   0.83333333  0.83333333  0.40830017
   0.91620209  0.66681537  0.51286270
   0.33333333  0.33333333  0.40830017
   0.24606942  0.00045321  0.61598857
   0.58333333  0.58333333  0.40830017
   0.08333333  0.58333333  0.40830017
   0.33333333  0.58333333  0.40830017
   0.16660593  0.66661564  0.51197075
   0.16603872  0.91690161  0.50800530
   0.66711386  0.91737048  0.50807346
   0.49972836  0.74736527  0.61127538
   0.41862402  0.16585445  0.50861900
   0.50064973  0.00135661  0.61646853
   0.58333333  0.33333333  0.40830017
   0.41874767  0.41612280  0.51094253
   0.41854606  0.91326648  0.50624367
   0.24823502  0.25314107  0.61302055
   0.24980283  0.50108918  0.60806438
   0.16704133  0.41571844  0.51125494
   0.33333333  0.08333333  0.40830017
   0.00031474  0.75179846  0.60825833
   0.91334755  0.16680933  0.50570024
   0.00001448  0.49940974  0.60786528
  -0.00097436  0.25018303  0.60552244
  -0.00074344 -0.00101559  0.60360784
   0.33333333  0.83333333  0.40830017
   0.91543712  0.91882696  0.50752293
   0.58333333  0.08333333  0.40830017
   0.66589640  0.66582710  0.50933166
   0.41891173  0.66578659  0.50916956
   0.08333333  0.08333333  0.40830017
   0.58333333  0.83333333  0.40830017
   0.75083960 -0.00106528  0.60454302
   0.66710877  0.41632976  0.50770170
   0.66995521  0.16647819  0.50720376
   0.83333333  0.08333333  0.40830017
   0.83333333  0.33333333  0.40830017
   0.75027375  0.49948724  0.60530624
   0.49962658  0.50026251  0.60556590
   0.50055634  0.24998484  0.60653356
   0.24929049  0.74986439  0.60703391
Direct configuration=    14
   0.75188381  0.74860625  0.61452495
   0.16539878  0.16579068  0.50829484
   0.83333333  0.58333333  0.40830017
   0.91446988  0.41558182  0.50909648
   0.08333333  0.33333333  0.40830017
   0.08333333  0.83333333  0.40830017
   0.75041343  0.24927151  0.60670301
   0.83333333  0.83333333  0.40830017
   0.91620733  0.66676616  0.51290900
   0.33333333  0.33333333  0.40830017
   0.24597827  0.00048804  0.61598869
   0.58333333  0.58333333  0.40830017
   0.08333333  0.58333333  0.40830017
   0.33333333  0.58333333  0.40830017
   0.16665064  0.66662150  0.51201195
   0.16600670  0.91694432  0.50799134
   0.66699879  0.91757673  0.50806165
   0.49974108  0.74733269  0.61129623
   0.41870707  0.16585912  0.50861403
   0.50068793  0.00139382  0.61649392
   0.58333333  0.33333333  0.40830017
   0.41878099  0.41609001  0.51098204
   0.41861200  0.91317741  0.50620876
   0.24824410  0.25306812  0.61304110
   0.24978229  0.50110199  0.60813036
   0.16709581  0.41563835  0.51132843
   0.33333333  0.08333333  0.40830017
   0.00033509  0.75178225  0.60833576
   0.91333198  0.16677532  0.50578062
   0.00001713  0.49942452  0.60796012
  -0.00100053  0.25021412  0.60558857
  -0.00077842 -0.00105576  0.60366892
   0.33333333  0.83333333  0.40830017
   0.91531756  0.91899360  0.50760010
   0.58333333  0.08333333  0.40830017
   0.66585922  0.66571927  0.50938655
   0.41897579  0.66576001  0.50922627
   0.08333333  0.08333333  0.40830017
   0.58333333  0.83333333  0.40830017
   0.75085060 -0.00109508  0.60461708
   0.66719408  0.41634187  0.50772635
   0.67004295  0.16632866  0.50724588
   0.83333333  0.08333333  0.40830017
   0.83333333  0.33333333  0.40830017
   0.75030780  0.49946766  0.60537708
   0.49958160  0.50027072  0.60569482
   0.50053021  0.24994753  0.60662508
   0.24923646  0.74989093  0.60710258
Direct configuration=    15
   0.75174203  0.74862798  0.61461079
   0.16554307  0.16595476  0.50831526
   0.83333333  0.58333333  0.40830017
   0.91455489  0.41567358  0.50923258
   0.08333333  0.33333333  0.40830017
   0.08333333  0.83333333  0.40830017
   0.75040117  0.24915779  0.60685327
   0.83333333  0.83333333  0.40830017
   0.91609829  0.66673354  0.51304374
   0.33333333  0.33333333  0.40830017
   0.24594062  0.00043365  0.61593536
   0.58333333  0.58333333  0.40830017
   0.08333333  0.58333333  0.40830017
   0.33333333  0.58333333  0.40830017
   0.16677618  0.66664016  0.51212912
   0.16596151  0.91680794  0.50803892
   0.66721856  0.91744027  0.50813311
   0.49961700  0.74748959  0.61137043
   0.41837260  0.16601465  0.50867226
   0.50065875  0.00139359  0.61650281
   0.58333333  0.33333333  0.40830017
   0.41878138  0.41613139  0.51116229
   0.41855372  0.91322135  0.50614013
   0.24821940  0.25296346  0.61306411
   0.24959859  0.50121380  0.60830291
   0.16719138  0.41534401  0.51142567
   0.33333333  0.08333333  0.40830017
   0.00031975  0.75180395  0.60848280
   0.91337366  0.16653867  0.50575051
   0.00009610  0.49944618  0.60809622
  -0.00102693  0.25002783  0.60569586
  -0.00087490 -0.00109660  0.60383814
   0.33333333  0.83333333  0.40830017
   0.91525917  0.91898080  0.50771391
   0.58333333  0.08333333  0.40830017
   0.66603354  0.66559305  0.50941667
   0.41896695  0.66560843  0.50929688
   0.08333333  0.08333333  0.40830017
   0.58333333  0.83333333  0.40830017
   0.75081609 -0.00105833  0.60471626
   0.66694635  0.41662173  0.50767828
   0.67012118  0.16627588  0.50721485
   0.83333333  0.08333333  0.40830017
   0.83333333  0.33333333  0.40830017
   0.75019412  0.49948902  0.60553559
   0.49959626  0.50017392  0.60593248
   0.50067087  0.24978455  0.60674615
   0.24926646  0.74999014  0.60719087
Direct configuration=    16
   0.75169920  0.74863455  0.61463672
   0.16558665  0.16600432  0.50832143
   0.83333333  0.58333333  0.40830017
   0.91458056  0.41570130  0.50927368
   0.08333333  0.33333333  0.40830017
   0.08333333  0.83333333  0.40830017
   0.75039747  0.24912344  0.60689866
   0.83333333  0.83333333  0.40830017
   0.91606536  0.66672368  0.51308444
   0.33333333  0.33333333  0.40830017
   0.24592925  0.00041723  0.61591925
   0.58333333  0.58333333  0.40830017
   0.08333333  0.58333333  0.40830017
   0.33333333  0.58333333  0.40830017
   0.16681410  0.66664580  0.51216451
   0.16594786  0.91676675  0.50805330
   0.66728494  0.91739906  0.50815469
   0.49957952  0.74753698  0.61139284
   0.41827157  0.16606163  0.50868985
   0.50064994  0.00139352  0.61650549
   0.58333333  0.33333333  0.40830017
   0.41878149  0.41614389  0.51121673
   0.41853611  0.91323462  0.50611940
   0.24821194  0.25293185  0.61307106
   0.24954311  0.50124757  0.60835502
   0.16722024  0.41525510  0.51145504
   0.33333333  0.08333333  0.40830017
   0.00031512  0.75181051  0.60852721
   0.91338625  0.16646719  0.50574141
   0.00011996  0.49945272  0.60813733
  -0.00103490  0.24997156  0.60572826
  -0.00090404 -0.00110893  0.60388925
   0.33333333  0.83333333  0.40830017
   0.91524154  0.91897693  0.50774828
   0.58333333  0.08333333  0.40830017
   0.66608619  0.66555492  0.50942577
   0.41896428  0.66556264  0.50931821
   0.08333333  0.08333333  0.40830017
   0.58333333  0.83333333  0.40830017
   0.75080566 -0.00104723  0.60474621
   0.66687152  0.41670626  0.50766376
   0.67014481  0.16625993  0.50720547
   0.83333333  0.08333333  0.40830017
   0.83333333  0.33333333  0.40830017
   0.75015979  0.49949547  0.60558347
   0.49960069  0.50014469  0.60600427
   0.50071336  0.24973532  0.60678272
   0.24927552  0.75002011  0.60721755
Direct configuration=    17
   0.75158270  0.74860609  0.61473544
   0.16558447  0.16584578  0.50836963
   0.83333333  0.58333333  0.40830017
   0.91465535  0.41560738  0.50944018