  48  48   0   0
  0.5349325E+02  0.1100258E-08  0.1100258E-08  0.2449179E-08  0.3500000E-15
  1.000000000000000E-004
  CAR 
 unknown system                          
      6.38048384     -9.77396396  301     -1.08621037      1.00000000
     -9.774  0.0000E+00  0.0000E+00
     -9.720  0.0000E+00  0.0000E+00
     -9.666  0.0000E+00  0.0000E+00
     -9.612  0.0000E+00  0.0000E+00
     -9.559  0.0000E+00  0.0000E+00
     -9.505  0.0000E+00  0.0000E+00
     -9.451  0.0000E+00  0.0000E+00
     -9.397  0.0000E+00  0.0000E+00
     -9.343  0.6873E-17  0.3701E-18
     -9.289  0.2786E-14  0.1504E-15
     -9.235  0.6236E-12  0.3373E-13
     -9.182  0.7939E-10  0.4309E-11
     -9.128  0.5760E-08  0.3145E-09
     -9.074  0.2387E-06  0.1317E-07
     -9.020  0.5661E-05  0.3180E-06
     -8.966  0.7708E-04  0.4469E-05
     -8.912  0.6040E-03  0.3699E-04
     -8.859  0.2732E-02  0.1841E-03
     -8.805  0.7168E-02  0.5701E-03
     -8.751  0.1114E-01  0.1170E-02
     -8.697  0.1130E-01  0.1778E-02
     -8.643  0.1033E-01  0.2335E-02
     -8.589  0.1114E-01  0.2935E-02
     -8.535  0.1042E-01  0.3496E-02
     -8.482  0.6383E-02  0.3840E-02
     -8.428  0.2379E-02  0.3968E-02
     -8.374  0.5709E-03  0.3998E-02
     -8.320  0.4072E-03  0.4020E-02
     -8.266  0.1598E-02  0.4106E-02
     -8.212  0.4562E-02  0.4352E-02
     -8.159  0.8260E-02  0.4797E-02
     -8.105  0.1033E-01  0.5353E-02
     -8.051  0.1086E-01  0.5938E-02
     -7.997  0.1210E-01  0.6590E-02
     -7.943  0.1365E-01  0.7325E-02
     -7.889  0.1407E-01  0.8083E-02
     -7.835  0.1518E-01  0.8900E-02
     -7.782  0.1745E-01  0.9840E-02
     -7.728  0.1748E-01  0.1078E-01
     -7.674  0.1412E-01  0.1154E-01
     -7.620  0.1162E-01  0.1217E-01
     -7.566  0.1414E-01  0.1293E-01
     -7.512  0.1930E-01  0.1397E-01
     -7.458  0.2182E-01  0.1514E-01
     -7.405  0.2100E-01  0.1627E-01
     -7.351  0.1996E-01  0.1735E-01
     -7.297  0.2120E-01  0.1849E-01
     -7.243  0.2451E-01  0.1981E-01
     -7.189  0.2793E-01  0.2131E-01
     -7.135  0.3259E-01  0.2307E-01
     -7.082  0.4200E-01  0.2533E-01
     -7.028  0.5324E-01  0.2820E-01
     -6.974  0.5990E-01  0.3142E-01
     -6.920  0.6208E-01  0.3476E-01
     -6.866  0.6692E-01  0.3837E-01
     -6.812  0.7827E-01  0.4258E-01
     -6.758  0.8970E-01  0.4741E-01
     -6.705  0.9241E-01  0.5239E-01
     -6.651  0.8634E-01  0.5704E-01
     -6.597  0.7961E-01  0.6133E-01
     -6.543  0.8122E-01  0.6570E-01
     -6.489  0.9375E-01  0.7075E-01
     -6.435  0.1108E+00  0.7672E-01
     -6.382  0.1244E+00  0.8341E-01
     -6.328  0.1322E+00  0.9053E-01
     -6.274  0.1346E+00  0.9778E-01
     -6.220  0.1316E+00  0.1049E+00
     -6.166  0.1285E+00  0.1118E+00
     -6.112  0.1331E+00  0.1189E+00
     -6.058  0.1445E+00  0.1267E+00
     -6.005  0.1557E+00  0.1351E+00
     -5.951  0.1632E+00  0.1439E+00
     -5.897  0.1650E+00  0.1528E+00
     -5.843  0.1614E+00  0.1615E+00
     -5.789  0.1565E+00  0.1699E+00
     -5.735  0.1523E+00  0.1781E+00
     -5.682  0.1472E+00  0.1860E+00
     -5.628  0.1432E+00  0.1937E+00
     -5.574  0.1456E+00  0.2016E+00
     -5.520  0.1514E+00  0.2097E+00
     -5.466  0.1512E+00  0.2179E+00
     -5.412  0.1445E+00  0.2257E+00
     -5.358  0.1400E+00  0.2332E+00
     -5.305  0.1433E+00  0.2409E+00
     -5.251  0.1509E+00  0.2490E+00
     -5.197  0.1583E+00  0.2576E+00
     -5.143  0.1643E+00  0.2664E+00
     -5.089  0.1680E+00  0.2755E+00
     -5.035  0.1695E+00  0.2846E+00
     -4.981  0.1708E+00  0.2938E+00
     -4.928  0.1728E+00  0.3031E+00
     -4.874  0.1733E+00  0.3124E+00
     -4.820  0.1721E+00  0.3217E+00
     -4.766  0.1714E+00  0.3309E+00
     -4.712  0.1713E+00  0.3401E+00
     -4.658  0.1727E+00  0.3494E+00
     -4.605  0.1762E+00  0.3589E+00
     -4.551  0.1779E+00  0.3685E+00
     -4.497  0.1774E+00  0.3780E+00
     -4.443  0.1775E+00  0.3876E+00
     -4.389  0.1776E+00  0.3972E+00
     -4.335  0.1769E+00  0.4067E+00
     -4.281  0.1741E+00  0.4161E+00
     -4.228  0.1694E+00  0.4252E+00
     -4.174  0.1693E+00  0.4343E+00
     -4.120  0.1768E+00  0.4438E+00
     -4.066  0.1845E+00  0.4538E+00
     -4.012  0.1859E+00  0.4638E+00
     -3.958  0.1841E+00  0.4737E+00
     -3.905  0.1836E+00  0.4836E+00
     -3.851  0.1854E+00  0.4936E+00
     -3.797  0.1866E+00  0.5036E+00
     -3.743  0.1854E+00  0.5136E+00
     -3.689  0.1860E+00  0.5236E+00
     -3.635  0.1921E+00  0.5340E+00
     -3.581  0.2001E+00  0.5447E+00
     -3.528  0.2033E+00  0.5557E+00
     -3.474  0.1997E+00  0.5664E+00
     -3.420  0.1933E+00  0.5768E+00
     -3.366  0.1895E+00  0.5870E+00
     -3.312  0.1898E+00  0.5973E+00
     -3.258  0.1907E+00  0.6075E+00
     -3.204  0.1905E+00  0.6178E+00
     -3.151  0.1909E+00  0.6281E+00
     -3.097  0.1899E+00  0.6383E+00
     -3.043  0.1854E+00  0.6483E+00
     -2.989  0.1804E+00  0.6580E+00
     -2.935  0.1780E+00  0.6676E+00
     -2.881  0.1791E+00  0.6772E+00
     -2.828  0.1831E+00  0.6871E+00
     -2.774  0.1868E+00  0.6971E+00
     -2.720  0.1873E+00  0.7072E+00
     -2.666  0.1855E+00  0.7172E+00
     -2.612  0.1834E+00  0.7271E+00
     -2.558  0.1796E+00  0.7368E+00
     -2.504  0.1749E+00  0.7462E+00
     -2.451  0.1748E+00  0.7556E+00
     -2.397  0.1808E+00  0.7653E+00
     -2.343  0.1864E+00  0.7754E+00
     -2.289  0.1859E+00  0.7854E+00
     -2.235  0.1818E+00  0.7952E+00
     -2.181  0.1806E+00  0.8049E+00
     -2.128  0.1853E+00  0.8149E+00
     -2.074  0.1913E+00  0.8252E+00
     -2.020  0.1932E+00  0.8356E+00
     -1.966  0.1924E+00  0.8459E+00
     -1.912  0.1932E+00  0.8563E+00
     -1.858  0.1967E+00  0.8669E+00
     -1.804  0.1986E+00  0.8776E+00
     -1.751  0.1968E+00  0.8882E+00
     -1.697  0.1949E+00  0.8987E+00
     -1.643  0.1972E+00  0.9093E+00
     -1.589  0.2027E+00  0.9202E+00
     -1.535  0.2077E+00  0.9314E+00
     -1.481  0.2096E+00  0.9427E+00
     -1.427  0.2081E+00  0.9539E+00
     -1.374  0.2025E+00  0.9648E+00
     -1.320  0.1915E+00  0.9751E+00
     -1.266  0.1746E+00  0.9845E+00
     -1.212  0.1548E+00  0.9929E+00
     -1.158  0.1344E+00  0.1000E+01
     -1.104  0.1131E+00  0.1006E+01
     -1.051  0.9137E-01  0.1011E+01
     -0.997  0.6959E-01  0.1015E+01
     -0.943  0.4831E-01  0.1017E+01
     -0.889  0.3184E-01  0.1019E+01
     -0.835  0.2299E-01  0.1020E+01
     -0.781  0.1928E-01  0.1021E+01
     -0.727  0.1769E-01  0.1022E+01
     -0.674  0.1728E-01  0.1023E+01
     -0.620  0.1855E-01  0.1024E+01
     -0.566  0.2361E-01  0.1026E+01
     -0.512  0.3245E-01  0.1027E+01
     -0.458  0.4114E-01  0.1030E+01
     -0.404  0.4453E-01  0.1032E+01
     -0.351  0.4072E-01  0.1034E+01
     -0.297  0.3549E-01  0.1036E+01
     -0.243  0.3698E-01  0.1038E+01
     -0.189  0.4185E-01  0.1040E+01
     -0.135  0.3979E-01  0.1042E+01
     -0.081  0.3174E-01  0.1044E+01
     -0.027  0.2536E-01  0.1046E+01
      0.026  0.2276E-01  0.1047E+01
      0.080  0.2389E-01  0.1048E+01
      0.134  0.2901E-01  0.1050E+01
      0.188  0.3524E-01  0.1052E+01
      0.242  0.3916E-01  0.1054E+01
      0.296  0.4119E-01  0.1056E+01
      0.349  0.4190E-01  0.1058E+01
      0.403  0.4020E-01  0.1060E+01
      0.457  0.3752E-01  0.1062E+01
      0.511  0.3594E-01  0.1064E+01
      0.565  0.3579E-01  0.1066E+01
      0.619  0.3795E-01  0.1068E+01
      0.673  0.4191E-01  0.1070E+01
      0.726  0.4331E-01  0.1073E+01
      0.780  0.3966E-01  0.1075E+01
      0.834  0.3336E-01  0.1077E+01
      0.888  0.2679E-01  0.1078E+01
      0.942  0.2152E-01  0.1079E+01
      0.996  0.2028E-01  0.1080E+01
      1.050  0.2198E-01  0.1082E+01
      1.103  0.2144E-01  0.1083E+01
      1.157  0.1810E-01  0.1084E+01
      1.211  0.1580E-01  0.1085E+01
      1.265  0.1501E-01  0.1085E+01
      1.319  0.1440E-01  0.1086E+01
      1.373  0.1514E-01  0.1087E+01
      1.426  0.1759E-01  0.1088E+01
      1.480  0.2259E-01  0.1089E+01
      1.534  0.3012E-01  0.1091E+01
      1.588  0.3398E-01  0.1093E+01
      1.642  0.3239E-01  0.1094E+01
      1.696  0.3309E-01  0.1096E+01
      1.750  0.3833E-01  0.1098E+01
      1.803  0.4087E-01  0.1100E+01
      1.857  0.3468E-01  0.1102E+01
      1.911  0.2219E-01  0.1103E+01
      1.965  0.1256E-01  0.1104E+01
      2.019  0.1129E-01  0.1105E+01
      2.073  0.1452E-01  0.1106E+01
      2.126  0.1882E-01  0.1107E+01
      2.180  0.2642E-01  0.1108E+01
      2.234  0.3710E-01  0.1110E+01
      2.288  0.4716E-01  0.1112E+01
      2.342  0.5206E-01  0.1115E+01
      2.396  0.4883E-01  0.1118E+01
      2.450  0.4241E-01  0.1120E+01
      2.503  0.4073E-01  0.1122E+01
      2.557  0.4409E-01  0.1125E+01
      2.611  0.4791E-01  0.1127E+01
      2.665  0.5147E-01  0.1130E+01
      2.719  0.5270E-01  0.1133E+01
      2.773  0.4491E-01  0.1135E+01
      2.827  0.2973E-01  0.1137E+01
      2.880  0.1719E-01  0.1138E+01
      2.934  0.1276E-01  0.1139E+01
      2.988  0.1252E-01  0.1139E+01
      3.042  0.1146E-01  0.1140E+01
      3.096  0.1283E-01  0.1141E+01
      3.150  0.1976E-01  0.1142E+01
      3.203  0.2556E-01  0.1143E+01
      3.257  0.2396E-01  0.1144E+01
      3.311  0.1888E-01  0.1145E+01
      3.365  0.1553E-01  0.1146E+01
      3.419  0.1425E-01  0.1147E+01
      3.473  0.1488E-01  0.1148E+01
      3.527  0.1868E-01  0.1149E+01
      3.580  0.2600E-01  0.1150E+01
      3.634  0.3448E-01  0.1152E+01
      3.688  0.4029E-01  0.1154E+01
      3.742  0.4107E-01  0.1156E+01
      3.796  0.3711E-01  0.1158E+01
      3.850  0.3030E-01  0.1160E+01
      3.903  0.2404E-01  0.1161E+01
      3.957  0.2261E-01  0.1163E+01
      4.011  0.2669E-01  0.1164E+01
      4.065  0.3001E-01  0.1166E+01
      4.119  0.2760E-01  0.1167E+01
      4.173  0.2387E-01  0.1168E+01
      4.227  0.2332E-01  0.1170E+01
      4.280  0.2251E-01  0.1171E+01
      4.334  0.1908E-01  0.1172E+01
      4.388  0.1828E-01  0.1173E+01
      4.442  0.2295E-01  0.1174E+01
      4.496  0.2944E-01  0.1176E+01
      4.550  0.3708E-01  0.1178E+01
      4.603  0.4754E-01  0.1180E+01
      4.657  0.5473E-01  0.1183E+01
      4.711  0.5173E-01  0.1186E+01
      4.765  0.4516E-01  0.1188E+01
      4.819  0.4525E-01  0.1191E+01
      4.873  0.5112E-01  0.1194E+01
      4.927  0.5687E-01  0.1197E+01
      4.980  0.6143E-01  0.1200E+01
      5.034  0.6639E-01  0.1203E+01
      5.088  0.6960E-01  0.1207E+01
      5.142  0.6804E-01  0.1211E+01
      5.196  0.6504E-01  0.1214E+01
      5.250  0.6219E-01  0.1218E+01
      5.304  0.5263E-01  0.1221E+01
      5.357  0.3532E-01  0.1222E+01
      5.411  0.1838E-01  0.1223E+01
      5.465  0.7302E-02  0.1224E+01
      5.519  0.2086E-02  0.1224E+01
      5.573  0.3970E-03  0.1224E+01
      5.627  0.4746E-04  0.1224E+01
      5.680  0.3430E-05  0.1224E+01
      5.734  0.1464E-06  0.1224E+01
      5.788  0.3631E-08  0.1224E+01
      5.842  0.5184E-10  0.1224E+01
      5.896  0.4230E-12  0.1224E+01
      5.950  0.1964E-14  0.1224E+01
      6.004  0.5498E-17  0.1224E+01
      6.057  0.0000E+00  0.1224E+01
      6.111  0.0000E+00  0.1224E+01
      6.165  0.0000E+00  0.1224E+01
      6.219  0.0000E+00  0.1224E+01
      6.273  0.0000E+00  0.1224E+01
      6.327  0.0000E+00  0.1224E+01
      6.380  0.0000E+00  0.1224E+01
