unknown system                          
           1
    11.002582    0.000000    0.000000
     5.501291    9.528515    0.000000
     0.000000    0.000000   24.491785
   Au   Pd
  24  24
Direct configuration=     1
   0.08333333  0.08333333  0.40830017
   0.91666667  0.91666667  0.50000000
   0.08333333  0.83333333  0.40830017
   0.25000000  0.00000000  0.59169983
   0.00000000  0.50000000  0.59169983
   0.91666667  0.16666667  0.50000000
   0.08333333  0.33333333  0.40830017
   0.75000000  0.75000000  0.59169983
   0.33333333  0.58333333  0.40830017
   0.33333333  0.83333333  0.40830017
   0.16666667  0.91666667  0.50000000
   0.66666667  0.91666667  0.50000000
   0.16666667  0.41666667  0.50000000
   0.58333333  0.33333333  0.40830017
   0.50000000  0.25000000  0.59169983
   0.58333333  0.58333333  0.40830017
   0.41666667  0.66666667  0.50000000
   0.50000000  0.75000000  0.59169983
   0.66666667  0.16666667  0.50000000
   0.75000000  0.00000000  0.59169983
   0.83333333  0.33333333  0.40830017
   0.75000000  0.50000000  0.59169983
   0.83333333  0.83333333  0.40830017
   0.58333333  0.08333333  0.40830017
   0.41666667  0.41666667  0.50000000
   0.50000000  0.00000000  0.59169983
   0.41666667  0.16666667  0.50000000
   0.00000000  0.75000000  0.59169983
   0.33333333  0.33333333  0.40830017
   0.16666667  0.16666667  0.50000000
   0.25000000  0.50000000  0.59169983
   0.16666667  0.66666667  0.50000000
   0.91666667  0.66666667  0.50000000
   0.33333333  0.08333333  0.40830017
   0.58333333  0.83333333  0.40830017
   0.66666667  0.66666667  0.50000000
   0.08333333  0.58333333  0.40830017
   0.91666667  0.41666667  0.50000000
   0.00000000  0.00000000  0.59169983
   0.83333333  0.58333333  0.40830017
   0.75000000  0.25000000  0.59169983
   0.66666667  0.41666667  0.50000000
   0.25000000  0.25000000  0.59169983
   0.00000000  0.25000000  0.59169983
   0.83333333  0.08333333  0.40830017
   0.41666667  0.91666667  0.50000000
   0.50000000  0.50000000  0.59169983
   0.25000000  0.75000000  0.59169983
Direct configuration=     2
   0.08333333  0.08333333  0.40830017
   0.91812380  0.91506749  0.50046502
   0.08333333  0.83333333  0.40830017
   0.24967000  0.00104347  0.59350353
   0.00117287  0.49946004  0.59348399
   0.91632699  0.16812599  0.50079646
   0.08333333  0.33333333  0.40830017
   0.75029405  0.75013848  0.59358703
   0.33333333  0.58333333  0.40830017
   0.33333333  0.83333333  0.40830017
   0.16704549  0.91642148  0.50082672
   0.66459189  0.91571996  0.49992153
   0.16763146  0.41665690  0.49999187
   0.58333333  0.33333333  0.40830017
   0.49878063  0.25098547  0.59356657
   0.58333333  0.58333333  0.40830017
   0.41720896  0.66535227  0.50083024
   0.49953571  0.75017562  0.59353358
   0.66581646  0.16865795  0.50007580
   0.75077684 -0.00008981  0.59419806
   0.83333333  0.33333333  0.40830017
   0.74998754  0.49862580  0.59324330
   0.83333333  0.83333333  0.40830017
   0.58333333  0.08333333  0.40830017
   0.41597558  0.41695223  0.50036250
   0.49907011  0.00077125  0.59277166
   0.41521875  0.16678023  0.49995214
   0.00105357  0.74978817  0.59275230
   0.33333333  0.33333333  0.40830017
   0.16766448  0.16693032  0.50028100
   0.25010640  0.50061518  0.59259903
   0.16644802  0.66555382  0.50054409
   0.91725795  0.66581514  0.49971190
   0.33333333  0.08333333  0.40830017
   0.58333333  0.83333333  0.40830017
   0.66759227  0.66633131  0.49953262
   0.08333333  0.58333333  0.40830017
   0.91602223  0.41727353  0.50003211
   0.00003109 -0.00006158  0.59305922
   0.83333333  0.58333333  0.40830017
   0.75038543  0.25043816  0.59286770
   0.66656100  0.41685963  0.50049363
   0.25012568  0.24978132  0.59257287
   0.00005622  0.24965355  0.59261953
   0.83333333  0.08333333  0.40830017
   0.41712131  0.91795835  0.49979540
   0.49944262  0.49974314  0.59261542
   0.24936375  0.74905828  0.59282603
Direct configuration=     3
   0.08333333  0.08333333  0.40830017
   0.92249519  0.91026998  0.50186007
   0.08333333  0.83333333  0.40830017
   0.24867999  0.00417387  0.59891464
   0.00469146  0.49784015  0.59883647
   0.91530797  0.17250398  0.50318584
   0.08333333  0.33333333  0.40830017
   0.75117620  0.75055394  0.59924864
   0.33333333  0.58333333  0.40830017
   0.33333333  0.83333333  0.40830017
   0.16818194  0.91568591  0.50330687
   0.65836754  0.91287985  0.49968610
   0.17052586  0.41662762  0.49996746
   0.58333333  0.33333333  0.40830017
   0.49512251  0.25394187  0.59916680
   0.58333333  0.58333333  0.40830017
   0.41883585  0.66140907  0.50332097
   0.49814284  0.75070248  0.59903484
   0.66326583  0.17463181  0.50030321
   0.75310734 -0.00035926  0.60169273
   0.83333333  0.33333333  0.40830017
   0.74995015  0.49450319  0.59787372
   0.83333333  0.83333333  0.40830017
   0.58333333  0.08333333  0.40830017
   0.41390231  0.41780891  0.50145001
   0.49628044  0.00308499  0.59598716
   0.41087501  0.16712092  0.49980856
   0.00421428  0.74915268  0.59590971
   0.33333333  0.33333333  0.40830017
   0.17065790  0.16772128  0.50112400
   0.25042560  0.50246070  0.59529663
   0.16579208  0.66221529  0.50217638
   0.91903178  0.66326058  0.49884758
   0.33333333  0.08333333  0.40830017
   0.58333333  0.83333333  0.40830017
   0.67036909  0.66532524  0.49813050
   0.08333333  0.58333333  0.40830017
   0.91408891  0.41909412  0.50012845
   0.00012435 -0.00024630  0.59713740
   0.83333333  0.58333333  0.40830017
   0.75154171  0.25175266  0.59637131
   0.66624401  0.41743854  0.50197450
   0.25050271  0.24912527  0.59519199
   0.00022489  0.24861418  0.59537861
   0.83333333  0.08333333  0.40830017
   0.41848525  0.92183341  0.49918161
   0.49777050  0.49897258  0.59536219
   0.24745498  0.74623312  0.59620464
Direct configuration=     4
   0.08333333  0.08333333  0.40830017
   0.91994927  0.91159125  0.50346294
   0.08333333  0.83333333  0.40830017
   0.24855008  0.00389006  0.60113206
   0.00500959  0.49759703  0.60077118
   0.91629640  0.17155888  0.50433710
   0.08333333  0.33333333  0.40830017
   0.75161406  0.75009680  0.60118340
   0.33333333  0.58333333  0.40830017
   0.33333333  0.83333333  0.40830017
   0.16958582  0.91571402  0.50495822
   0.66050539  0.91375529  0.50157790
   0.16951662  0.41663789  0.50109673
   0.58333333  0.33333333  0.40830017
   0.49541933  0.25335599  0.60128426
   0.58333333  0.58333333  0.40830017
   0.41895576  0.66254500  0.50474288
   0.49795968  0.75089288  0.60097380
   0.66328932  0.17255944  0.50223424
   0.75267895  0.00036978  0.60406062
   0.83333333  0.33333333  0.40830017
   0.74992663  0.49533078  0.59972853
   0.83333333  0.83333333  0.40830017
   0.58333333  0.08333333  0.40830017
   0.41407610  0.41691084  0.50244392
   0.49666785  0.00349387  0.59732185
   0.41181021  0.16788670  0.50074558
   0.00396421  0.74906185  0.59748323
   0.33333333  0.33333333  0.40830017
   0.17008726  0.16776913  0.50214153
   0.25028785  0.50233701  0.59682048
   0.16619743  0.66182110  0.50293726
   0.91881122  0.66254046  0.50003120
   0.33333333  0.08333333  0.40830017
   0.58333333  0.83333333  0.40830017
   0.67068043  0.66414053  0.49946361
   0.08333333  0.58333333  0.40830017
   0.91438419  0.42019642  0.50141628
   0.00033535 -0.00029946  0.59898190
   0.83333333  0.58333333  0.40830017
   0.75104820  0.25087965  0.59814249
   0.66594252  0.41872993  0.50308190
   0.25021749  0.24980753  0.59646716
   0.00067126  0.24884944  0.59681672
   0.83333333  0.08333333  0.40830017
   0.41628045  0.92106456  0.50032974
   0.49763699  0.49861900  0.59700317
   0.24737238  0.74632760  0.59795732
Direct configuration=     5
   0.08333333  0.08333333  0.40830017
   0.91231151  0.91555508  0.50827155
   0.08333333  0.83333333  0.40830017
   0.24816033  0.00303860  0.60778430
   0.00596399  0.49686770  0.60657532
   0.91926171  0.16872359  0.50779087
   0.08333333  0.33333333  0.40830017
   0.75292765  0.74872539  0.60698768
   0.33333333  0.58333333  0.40830017
   0.33333333  0.83333333  0.40830017
   0.17379744  0.91579835  0.50991228
   0.66691892  0.91638163  0.50725327
   0.16648892  0.41666870  0.50448454
   0.58333333  0.33333333  0.40830017
   0.49630980  0.25159836  0.60763666
   0.58333333  0.58333333  0.40830017
   0.41931547  0.66595281  0.50900862
   0.49741019  0.75146407  0.60679068
   0.66335978  0.16634235  0.50802730
   0.75139378  0.00255690  0.61116430
   0.83333333  0.33333333  0.40830017
   0.74985610  0.49781354  0.60529297
   0.83333333  0.83333333  0.40830017
   0.58333333  0.08333333  0.40830017
   0.41459748  0.41421662  0.50542566
   0.49783009  0.00472049  0.60132590
   0.41461582  0.17018403  0.50355662
   0.00321401  0.74878934  0.60220376
   0.33333333  0.33333333  0.40830017
   0.16837532  0.16791268  0.50519413
   0.24987458  0.50196593  0.60139202
   0.16741348  0.66063851  0.50521991
   0.91814956  0.66038011  0.50358204
   0.33333333  0.08333333  0.40830017
   0.58333333  0.83333333  0.40830017
   0.67161445  0.66058639  0.50346295
   0.08333333  0.58333333  0.40830017
   0.91527005  0.42350330  0.50527975
   0.00096834 -0.00045892  0.60451539
   0.83333333  0.58333333  0.40830017
   0.74956769  0.24826063  0.60345601
   0.66503803  0.42260409  0.50640409
   0.24936181  0.25185430  0.60029268
   0.00201039  0.24955520  0.60113103
   0.83333333  0.08333333  0.40830017
   0.40966605  0.91875801  0.50377415
   0.49723646  0.49755826  0.60192610
   0.24712457  0.74661101  0.60321535
Direct configuration=     6
   0.08333333  0.08333333  0.40830017
   0.91546628  0.91532003  0.51037783
   0.08333333  0.83333333  0.40830017
   0.24906592  0.00267948  0.61094117
   0.00473012  0.49779166  0.60925643
   0.91802731  0.16825013  0.50924701
   0.08333333  0.33333333  0.40830017
   0.75258865  0.74899961  0.60936943
   0.33333333  0.58333333  0.40830017
   0.33333333  0.83333333  0.40830017
   0.16860179  0.91575965  0.51191035
   0.66498061  0.91432154  0.50972890
   0.16603214  0.41616173  0.50622184
   0.58333333  0.33333333  0.40830017
   0.49638916  0.25148940  0.61051828
   0.58333333  0.58333333  0.40830017
   0.41890098  0.66544984  0.51074925
   0.49798569  0.75187752  0.60933159
   0.66414265  0.16808018  0.51053330
   0.75128374  0.00138358  0.61463769
   0.83333333  0.33333333  0.40830017
   0.74980478  0.49819938  0.60770265
   0.83333333  0.83333333  0.40830017
   0.58333333  0.08333333  0.40830017
   0.41639979  0.41419936  0.50718973
   0.49850975  0.00350906  0.60299175
   0.41551855  0.16832161  0.50528508
   0.00182765  0.74928406  0.60428753
   0.33333333  0.33333333  0.40830017
   0.16802748  0.16818670  0.50688712
   0.24989091  0.50131993  0.60351300
   0.16669270  0.66362613  0.50655691
   0.91691075  0.66319394  0.50590492
   0.33333333  0.08333333  0.40830017
   0.58333333  0.83333333  0.40830017
   0.66991240  0.66438981  0.50608320
   0.08333333  0.58333333  0.40830017
   0.91571607  0.42108780  0.50751405
   0.00102928 -0.00058239  0.60702641
   0.83333333  0.58333333  0.40830017
   0.74945688  0.24905268  0.60565465
   0.66625892  0.41897705  0.50829668
   0.24991646  0.25141878  0.60212789
   0.00122012  0.25036818  0.60334197
   0.83333333  0.08333333  0.40830017
   0.41453196  0.91848642  0.50604073
   0.49799144  0.49732290  0.60429992
   0.24752395  0.74707449  0.60590967
Direct configuration=     7
   0.08333333  0.08333333  0.40830017
   0.91646103  0.91524591  0.51104197
   0.08333333  0.83333333  0.40830017
   0.24935146  0.00256624  0.61193658
   0.00434106  0.49808300  0.61010183
   0.91763808  0.16810084  0.50970616
   0.08333333  0.33333333  0.40830017
   0.75248176  0.74908608  0.61012043
   0.33333333  0.58333333  0.40830017
   0.33333333  0.83333333  0.40830017
   0.16696353  0.91574745  0.51254037
   0.66436943  0.91367196  0.51050950
   0.16588810  0.41600188  0.50676964
   0.58333333  0.33333333  0.40830017
   0.49641419  0.25145504  0.61142689
   0.58333333  0.58333333  0.40830017
   0.41877028  0.66529124  0.51129809
   0.49816715  0.75200789  0.61013277
   0.66438951  0.16862814  0.51132347
   0.75124905  0.00101361  0.61573291
   0.83333333  0.33333333  0.40830017
   0.74978860  0.49832104  0.60846245
   0.83333333  0.83333333  0.40830017
   0.58333333  0.08333333  0.40830017
   0.41696808  0.41419392  0.50774596
   0.49872405  0.00312708  0.60351702
   0.41580319  0.16773436  0.50583008
   0.00139050  0.74944005  0.60494458
   0.33333333  0.33333333  0.40830017
   0.16791780  0.16827310  0.50742095
   0.24989605  0.50111624  0.60418178
   0.16646543  0.66456817  0.50697848
   0.91652014  0.66408118  0.50663735
   0.33333333  0.08333333  0.40830017
   0.58333333  0.83333333  0.40830017
   0.66937572  0.66558908  0.50690941
   0.08333333  0.58333333  0.40830017
   0.91585670  0.42032616  0.50821855
   0.00104849 -0.00062132  0.60781817
   0.83333333  0.58333333  0.40830017
   0.74942193  0.24930242  0.60634791
   0.66664388  0.41783339  0.50889345
   0.25009135  0.25128146  0.60270656
   0.00097094  0.25062452  0.60403911
   0.83333333  0.08333333  0.40830017
   0.41606626  0.91840079  0.50675541
   0.49822949  0.49724869  0.60504842
   0.24764989  0.74722064  0.60675923
Direct configuration=     8
   0.08333333  0.08333333  0.40830017
   0.91636351  0.91467646  0.51086761
   0.08333333  0.83333333  0.40830017
   0.24934738  0.00293901  0.61206932
   0.00380432  0.49851955  0.61043744
   0.91655420  0.16927909  0.50971567
   0.08333333  0.33333333  0.40830017
   0.75186905  0.74951465  0.61061968
   0.33333333  0.58333333  0.40830017
   0.33333333  0.83333333  0.40830017
   0.16780742  0.91603574  0.51242153
   0.66431536  0.91419098  0.50993112
   0.16696964  0.41726931  0.50681004
   0.58333333  0.33333333  0.40830017
   0.49635058  0.25171833  0.61176110
   0.58333333  0.58333333  0.40830017
   0.41855465  0.66479814  0.51128749
   0.49844744  0.75152425  0.61042094
   0.66474826  0.16854476  0.51111192
   0.75166907  0.00021656  0.61627760
   0.83333333  0.33333333  0.40830017
   0.74945844  0.49775856  0.60861747
   0.83333333  0.83333333  0.40830017
   0.58333333  0.08333333  0.40830017
   0.41638219  0.41536430  0.50815098
   0.49828296  0.00276852  0.60423226
   0.41556131  0.16694450  0.50606792
   0.00170453  0.74941892  0.60534503
   0.33333333  0.33333333  0.40830017
   0.16893773  0.16615979  0.50771432
   0.24981189  0.50141043  0.60423918
   0.16650831  0.66424188  0.50742743
   0.91679877  0.66514521  0.50702185
   0.33333333  0.08333333  0.40830017
   0.58333333  0.83333333  0.40830017
   0.66870813  0.66548016  0.50728917
   0.08333333  0.58333333  0.40830017
   0.91451928  0.41960702  0.50845267
   0.00046756 -0.00004206  0.60848320
   0.83333333  0.58333333  0.40830017
   0.75027756  0.25010327  0.60684061
   0.66727517  0.41710272  0.50914861
   0.25047385  0.25030866  0.60310758
   0.00049296  0.25011418  0.60452021
   0.83333333  0.08333333  0.40830017
   0.41590845  0.91888014  0.50709376
   0.49855898  0.49797152  0.60550504
   0.24815470  0.74700497  0.60731772
Direct configuration=     9
   0.08333333  0.08333333  0.40830017
   0.91635019  0.91459864  0.51084378
   0.08333333  0.83333333  0.40830017
   0.24934683  0.00298995  0.61208746
   0.00373097  0.49857921  0.61048331
   0.91640608  0.16944010  0.50971696
   0.08333333  0.33333333  0.40830017
   0.75178531  0.74957322  0.61068791
   0.33333333  0.58333333  0.40830017
   0.33333333  0.83333333  0.40830017
   0.16792275  0.91607513  0.51240529
   0.66430797  0.91426191  0.50985207
   0.16711744  0.41744251  0.50681556
   0.58333333  0.33333333  0.40830017
   0.49634188  0.25175431  0.61180677
   0.58333333  0.58333333  0.40830017
   0.41852518  0.66473075  0.51128605
   0.49848574  0.75145816  0.61046032
   0.66479729  0.16853337  0.51108300
   0.75172647  0.00010763  0.61635204
   0.83333333  0.33333333  0.40830017
   0.74941332  0.49768169  0.60863866
   0.83333333  0.83333333  0.40830017
   0.58333333  0.08333333  0.40830017
   0.41630212  0.41552424  0.50820633
   0.49822268  0.00271952  0.60433000
   0.41552826  0.16683656  0.50610042
   0.00174744  0.74941603  0.60539975
   0.33333333  0.33333333  0.40830017
   0.16907711  0.16587098  0.50775441
   0.24980039  0.50145064  0.60424703
   0.16651417  0.66419729  0.50748878
   0.91683685  0.66529062  0.50707439
   0.33333333  0.08333333  0.40830017
   0.58333333  0.83333333  0.40830017
   0.66861689  0.66546528  0.50734107
   0.08333333  0.58333333  0.40830017
   0.91433651  0.41950874  0.50848466
   0.00038817  0.00003710  0.60857408
   0.83333333  0.58333333  0.40830017
   0.75039449  0.25021272  0.60690794
   0.66736143  0.41700287  0.50918348
   0.25052612  0.25017572  0.60316239
   0.00042763  0.25004443  0.60458596
   0.83333333  0.08333333  0.40830017
   0.41588689  0.91894565  0.50714000
   0.49860401  0.49807030  0.60556744
   0.24822369  0.74697550  0.60739404
Direct configuration=    10
   0.08333333  0.08333333  0.40830017
   0.91660920  0.91479110  0.51068514
   0.08333333  0.83333333  0.40830017
   0.24910719  0.00288173  0.61199037
   0.00359916  0.49838075  0.61038943
   0.91659695  0.16892317  0.50969407
   0.08333333  0.33333333  0.40830017
   0.75139303  0.74976398  0.61085272
   0.33333333  0.58333333  0.40830017
   0.33333333  0.83333333  0.40830017
   0.16813987  0.91608165  0.51234676
   0.66417618  0.91462697  0.50936118
   0.16702821  0.41721857  0.50674518
   0.58333333  0.33333333  0.40830017
   0.49679161  0.25175248  0.61174617
   0.58333333  0.58333333  0.40830017
   0.41845748  0.66459253  0.51116909
   0.49841343  0.75123822  0.61051015
   0.66444153  0.16852389  0.51085447
   0.75170395  0.00023973  0.61645904
   0.83333333  0.33333333  0.40830017
   0.74944945  0.49772652  0.60866556
   0.83333333  0.83333333  0.40830017
   0.58333333  0.08333333  0.40830017
   0.41654549  0.41557837  0.50842018
   0.49840853  0.00248116  0.60477535
   0.41524901  0.16694116  0.50623663
   0.00204756  0.74956162  0.60560710
   0.33333333  0.33333333  0.40830017
   0.16923227  0.16581709  0.50787491
   0.24982013  0.50144718  0.60424965
   0.16651365  0.66467289  0.50776038
   0.91682532  0.66495377  0.50723364
   0.33333333  0.08333333  0.40830017
   0.58333333  0.83333333  0.40830017
   0.66843561  0.66532675  0.50742212
   0.08333333  0.58333333  0.40830017
   0.91451980  0.41971079  0.50848452
   0.00022894  0.00017452  0.60877906
   0.83333333  0.58333333  0.40830017
   0.75062308  0.25005355  0.60718304
   0.66677883  0.41727597  0.50922668
   0.25029452  0.25017389  0.60330011
   0.00044657  0.24975032  0.60481423
   0.83333333  0.08333333  0.40830017
   0.41594315  0.91861799  0.50725365
   0.49866445  0.49844737  0.60582591
   0.24830467  0.74727384  0.60757980
Direct configuration=    11
   0.08333333  0.08333333  0.40830017
   0.91674541  0.91489230  0.51060172
   0.08333333  0.83333333  0.40830017
   0.24898118  0.00282482  0.61193931
   0.00352984  0.49827639  0.61034006
   0.91669732  0.16865132  0.50968203
   0.08333333  0.33333333  0.40830017
   0.75118674  0.74986429  0.61093939
   0.33333333  0.58333333  0.40830017
   0.33333333  0.83333333  0.40830017
   0.16825405  0.91608508  0.51231598
   0.66410687  0.91481895  0.50910303
   0.16698129  0.41710080  0.50670817
   0.58333333  0.33333333  0.40830017
   0.49702811  0.25175152  0.61171430
   0.58333333  0.58333333  0.40830017
   0.41842188  0.66451984  0.51110759
   0.49837541  0.75112255  0.61053635
   0.66425444  0.16851891  0.51073429
   0.75169211  0.00030919  0.61651531
   0.83333333  0.33333333  0.40830017
   0.74946845  0.49775010  0.60867970
   0.83333333  0.83333333  0.40830017
   0.58333333  0.08333333  0.40830017
   0.41667348  0.41560684  0.50853264
   0.49850627  0.00235582  0.60500954
   0.41510216  0.16699616  0.50630826
   0.00220538  0.74963818  0.60571614
   0.33333333  0.33333333  0.40830017
   0.16931387  0.16578875  0.50793828
   0.24983051  0.50144536  0.60425102
   0.16651338  0.66492299  0.50790321
   0.91681926  0.66477664  0.50731738
   0.33333333  0.08333333  0.40830017
   0.58333333  0.83333333  0.40830017
   0.66834027  0.66525390  0.50746475
   0.08333333  0.58333333  0.40830017
   0.91461618  0.41981704  0.50848444
   0.00014521  0.00024678  0.60888686
   0.83333333  0.58333333  0.40830017
   0.75074329  0.24996986  0.60732770
   0.66647245  0.41741958  0.50924939
   0.25017273  0.25017292  0.60337254
   0.00045653  0.24959566  0.60493427
   0.83333333  0.08333333  0.40830017
   0.41597274  0.91844568  0.50731342
   0.49869623  0.49864567  0.60596184
   0.24834725  0.74743073  0.60767749
Direct configuration=    12
   0.08333333  0.08333333  0.40830017
   0.91676962  0.91482655  0.51061086
   0.08333333  0.83333333  0.40830017
   0.24904539  0.00264189  0.61184570
   0.00345556  0.49833007  0.61019672
   0.91658122  0.16886811  0.50977538
   0.08333333  0.33333333  0.40830017
   0.75120394  0.75012765  0.61093170
   0.33333333  0.58333333  0.40830017
   0.33333333  0.83333333  0.40830017
   0.16826142  0.91605142  0.51233305
   0.66406257  0.91459678  0.50900090
   0.16702833  0.41708020  0.50667324
   0.58333333  0.33333333  0.40830017
   0.49718561  0.25171389  0.61157259
   0.58333333  0.58333333  0.40830017
   0.41826060  0.66462416  0.51107927
   0.49820187  0.75120062  0.61055275
   0.66422575  0.16860098  0.51066085
   0.75169138  0.00029431  0.61646122
   0.83333333  0.33333333  0.40830017
   0.74968446  0.49768353  0.60867216
   0.83333333  0.83333333  0.40830017
   0.58333333  0.08333333  0.40830017
   0.41655403  0.41548944  0.50865877
   0.49870238  0.00227701  0.60519627
   0.41499924  0.16709070  0.50645428
   0.00206467  0.74981422  0.60581580
   0.33333333  0.33333333  0.40830017
   0.16907436  0.16610777  0.50800452
   0.24987039  0.50134884  0.60425496
   0.16638914  0.66494945  0.50803776
   0.91668172  0.66487068  0.50742983
   0.33333333  0.08333333  0.40830017
   0.58333333  0.83333333  0.40830017
   0.66839413  0.66537926  0.50748658
   0.08333333  0.58333333  0.40830017
   0.91470370  0.41961029  0.50847132
   0.00008115  0.00013546  0.60893157
   0.83333333  0.58333333  0.40830017
   0.75069475  0.24985488  0.60736410
   0.66664464  0.41715615  0.50932115
   0.25024505  0.25025358  0.60347145
   0.00038018  0.24951921  0.60500033
   0.83333333  0.08333333  0.40830017
   0.41630116  0.91818134  0.50742469
   0.49868562  0.49873830  0.60615809
   0.24828357  0.74763874  0.60776136
Direct configuration=    13
   0.08333333  0.08333333  0.40830017
   0.91677853  0.91480234  0.51061423
   0.08333333  0.83333333  0.40830017
   0.24906903  0.00257453  0.61181123
   0.00342821  0.49834983  0.61014394
   0.91653846  0.16894794  0.50980976
   0.08333333  0.33333333  0.40830017
   0.75121027  0.75022463  0.61092887
   0.33333333  0.58333333  0.40830017
   0.33333333  0.83333333  0.40830017
   0.16826414  0.91603902  0.51233934
   0.66404625  0.91451497  0.50896329
   0.16704565  0.41707261  0.50666038
   0.58333333  0.33333333  0.40830017
   0.49724361  0.25170003  0.61152040
   0.58333333  0.58333333  0.40830017
   0.41820122  0.66466257  0.51106884
   0.49813797  0.75122936  0.61055878
   0.66421518  0.16863121  0.51063381
   0.75169111  0.00028883  0.61644131
   0.83333333  0.33333333  0.40830017
   0.74976400  0.49765902  0.60866938
   0.83333333  0.83333333  0.40830017
   0.58333333  0.08333333  0.40830017
   0.41651004  0.41544622  0.50870522
   0.49877460  0.00224798  0.60526503
   0.41496134  0.16712552  0.50650804
   0.00201286  0.74987904  0.60585249
   0.33333333  0.33333333  0.40830017
   0.16898617  0.16622524  0.50802892
   0.24988508  0.50131330  0.60425641
   0.16634339  0.66495919  0.50808731
   0.91663108  0.66490531  0.50747124
   0.33333333  0.08333333  0.40830017
   0.58333333  0.83333333  0.40830017
   0.66841397  0.66542543  0.50749462
   0.08333333  0.58333333  0.40830017
   0.91473593  0.41953415  0.50846648
   0.00005756  0.00009447  0.60894804
   0.83333333  0.58333333  0.40830017
   0.75067688  0.24981254  0.60737750
   0.66670804  0.41705915  0.50934757
   0.25027168  0.25028328  0.60350788
   0.00035207  0.24949105  0.60502466
   0.83333333  0.08333333  0.40830017
   0.41642209  0.91808400  0.50746566
   0.49868171  0.49877241  0.60623036
   0.24826012  0.74771534  0.60779224
Direct configuration=    14
   0.08333333  0.08333333  0.40830017
   0.91661935  0.91485997  0.51065536
   0.08333333  0.83333333  0.40830017
   0.24913921  0.00265412  0.61170925
   0.00341625  0.49844429  0.61000545
   0.91655965  0.16894601  0.50990159
   0.08333333  0.33333333  0.40830017
   0.75121458  0.75028410  0.61090465
   0.33333333  0.58333333  0.40830017
   0.33333333  0.83333333  0.40830017
   0.16811675  0.91620677  0.51234751
   0.66401157  0.91459343  0.50898411
   0.16696703  0.41723093  0.50663233
   0.58333333  0.33333333  0.40830017
   0.49730646  0.25165579  0.61137742
   0.58333333  0.58333333  0.40830017
   0.41828880  0.66442808  0.51111172
   0.49829589  0.75115821  0.61057722
   0.66434677  0.16845293  0.51056743
   0.75165931  0.00034081  0.61634904
   0.83333333  0.33333333  0.40830017
   0.74978380  0.49772809  0.60863581
   0.83333333  0.83333333  0.40830017
   0.58333333  0.08333333  0.40830017
   0.41638859  0.41553189  0.50878240
   0.49886229  0.00225934  0.60538972
   0.41502903  0.16698226  0.50663482
   0.00195045  0.74990485  0.60595131
   0.33333333  0.33333333  0.40830017
   0.16893164  0.16627502  0.50806470
   0.24985131  0.50136516  0.60430357
   0.16622156  0.66486829  0.50817321
   0.91662047  0.66493292  0.50753709
   0.33333333  0.08333333  0.40830017
   0.58333333  0.83333333  0.40830017
   0.66853818  0.66519648  0.50750473
   0.08333333  0.58333333  0.40830017
   0.91468649  0.41950471  0.50843828
   0.00004075  0.00000976  0.60894953
   0.83333333  0.58333333  0.40830017
   0.75057549  0.24981642  0.60738820
   0.66662930  0.41717261  0.50944849
   0.25036707  0.25026219  0.60361499
   0.00038336  0.24939014  0.60509551
   0.83333333  0.08333333  0.40830017
   0.41640866  0.91811317  0.50755273
   0.49866543  0.49886316  0.60636015
   0.24815760  0.74770035  0.60786053
