<?xml version="1.0" encoding="ISO-8859-1"?>
<modeling>
 <generator>
  <i name="program" type="string">vasp </i>
  <i name="version" type="string">5.4.1  </i>
  <i name="subversion" type="string">24Jun15 (build Mar 14 2019 10:18:33) complex                          parallel </i>
  <i name="platform" type="string">INTEL-19.0.2+OPENMPI-3.1.3 </i>
  <i name="date" type="string">2023 01 22 </i>
  <i name="time" type="string">15:27:28 </i>
 </generator>
 <incar>
  <i type="int" name="ISTART">     0</i>
  <i type="string" name="PREC">normal</i>
  <i type="string" name="ALGO"> Fast</i>
  <i type="int" name="NELM">   500</i>
  <i type="int" name="IBRION">     2</i>
  <i type="int" name="NFREE">     2</i>
  <i name="EDIFF">      0.00000100</i>
  <i name="EDIFFG">     -0.02000000</i>
  <i type="int" name="NSW">   500</i>
  <i type="int" name="ISIF">     0</i>
  <i type="int" name="ISYM">     2</i>
  <i name="ENCUT">    400.00000000</i>
  <i name="POTIM">      0.35000000</i>
  <i type="string" name="LREAL"> Auto</i>
  <i type="logical" name="LPLANE"> T  </i>
  <i type="int" name="ISMEAR">     0</i>
  <i name="SIGMA">      0.10000000</i>
  <i type="int" name="NWRITE">     1</i>
  <i type="logical" name="LWAVE"> F  </i>
  <i type="logical" name="LCHARG"> F  </i>
  <i type="logical" name="LVTOT"> F  </i>
  <i type="logical" name="LORBIT"> F  </i>
  <i type="logical" name="LAECHG"> F  </i>
  <v type="int" name="KPOINT_BSE">    -1     0     0     0</v>
  <i type="int" name="NELM">   500</i>
  <i type="string" name="GGA"> PE          ! optPBE-vdW XC-functional</i>
  <i type="int" name="VOSKOWN">     1</i>
  <i type="logical" name="LDIPOL"> T  </i>
  <i type="logical" name="LMONO"> F  </i>
  <i type="int" name="IDIPOL">     3</i>
  <v name="DIPOL">      0.00000000      0.00000000      0.50000000</v>
 </incar>
 <kpoints>
  <generation param="Monkhorst-Pack">
   <v type="int" name="divisions">       2        2        1 </v>
   <v name="usershift">      0.00000000       0.00000000       0.00000000 </v>
   <v name="genvec1">      0.50000000       0.00000000       0.00000000 </v>
   <v name="genvec2">      0.00000000       0.50000000       0.00000000 </v>
   <v name="genvec3">      0.00000000       0.00000000       1.00000000 </v>
   <v name="shift">      0.50000000       0.50000000       0.00000000 </v>
  </generation>
  <varray name="kpointlist" >
   <v>       0.25000000       0.25000000       0.00000000 </v>
   <v>       0.00000000       0.25000000       0.00000000 </v>
   <v>      -0.25000000       0.00000000       0.00000000 </v>
   <v>      -0.25000000       0.25000000       0.00000000 </v>
   <v>       0.50000000      -0.25000000       0.00000000 </v>
   <v>      -0.25000000       0.50000000       0.00000000 </v>
  </varray>
  <varray name="weights" >
   <v>       0.16666667 </v>
   <v>       0.16666667 </v>
   <v>       0.16666667 </v>
   <v>       0.16666667 </v>
   <v>       0.16666667 </v>
   <v>       0.16666667 </v>
  </varray>
 </kpoints>
 <parameters>
  <separator name="general" >
   <i type="string" name="SYSTEM">unknown system</i>
   <i type="logical" name="LCOMPAT"> F  </i>
  </separator>
  <separator name="electronic" >
   <i type="string" name="PREC">normal</i>
   <i name="ENMAX">    400.00000000</i>
   <i name="ENAUG">    605.39200000</i>
   <i name="EDIFF">      0.00000100</i>
   <i type="int" name="IALGO">    68</i>
   <i type="int" name="IWAVPR">    11</i>
   <i type="int" name="NBANDS">   336</i>
   <i name="NELECT">    552.00000000</i>
   <i type="int" name="TURBO">     0</i>
   <i type="int" name="IRESTART">     0</i>
   <i type="int" name="NREBOOT">     0</i>
   <i type="int" name="NMIN">     0</i>
   <i name="EREF">      0.00000000</i>
   <separator name="electronic smearing" >
    <i type="int" name="ISMEAR">     0</i>
    <i name="SIGMA">      0.10000000</i>
    <i name="KSPACING">      0.50000000</i>
    <i type="logical" name="KGAMMA"> T  </i>
   </separator>
   <separator name="electronic projectors" >
    <i type="logical" name="LREAL"> T  </i>
    <v name="ROPT">     -0.00050000     -0.00050000     -0.00050000</v>
    <i type="int" name="LMAXPAW">  -100</i>
    <i type="int" name="LMAXMIX">     2</i>
    <i type="logical" name="NLSPLINE"> F  </i>
   </separator>
   <separator name="electronic startup" >
    <i type="int" name="ISTART">     0</i>
    <i type="int" name="ICHARG">     2</i>
    <i type="int" name="INIWAV">     1</i>
   </separator>
   <separator name="electronic spin" >
    <i type="int" name="ISPIN">     1</i>
    <i type="logical" name="LNONCOLLINEAR"> F  </i>
    <v name="MAGMOM">      1.00000000      1.00000000      1.00000000      1.00000000      1.00000000      1.00000000      1.00000000      1.00000000      1.00000000      1.00000000      1.00000000      1.00000000      1.00000000      1.00000000      1.00000000      1.00000000      1.00000000      1.00000000      1.00000000      1.00000000
      1.00000000      1.00000000      1.00000000      1.00000000      1.00000000      1.00000000      1.00000000      1.00000000      1.00000000      1.00000000      1.00000000      1.00000000      1.00000000      1.00000000      1.00000000      1.00000000      1.00000000      1.00000000      1.00000000      1.00000000
      1.00000000      1.00000000      1.00000000      1.00000000      1.00000000      1.00000000      1.00000000      1.00000000      1.00000000      1.00000000      1.00000000      1.00000000      1.00000000      1.00000000      1.00000000      1.00000000</v>
    <i name="NUPDOWN">     -1.00000000</i>
    <i type="logical" name="LSORBIT"> F  </i>
    <v name="SAXIS">      0.00000000      0.00000000      1.00000000</v>
    <i type="logical" name="LSPIRAL"> F  </i>
    <v name="QSPIRAL">      0.00000000      0.00000000      0.00000000</v>
    <i type="logical" name="LZEROZ"> F  </i>
   </separator>
   <separator name="electronic exchange-correlation" >
    <i type="logical" name="LASPH"> F  </i>
    <i type="logical" name="LMETAGGA"> F  </i>
   </separator>
   <separator name="electronic convergence" >
    <i type="int" name="NELM">   500</i>
    <i type="int" name="NELMDL">    -5</i>
    <i type="int" name="NELMIN">     2</i>
    <i name="ENINI">    400.00000000</i>
    <separator name="electronic convergence detail" >
     <i type="logical" name="LDIAG"> T  </i>
     <i type="logical" name="LSUBROT"> F  </i>
     <i name="WEIMIN">      0.00100000</i>
     <i name="EBREAK">      0.00000000</i>
     <i name="DEPER">      0.30000000</i>
     <i type="int" name="NRMM">     4</i>
     <i name="TIME">      0.40000000</i>
    </separator>
   </separator>
   <separator name="electronic mixer" >
    <i name="AMIX">      0.40000000</i>
    <i name="BMIX">      1.00000000</i>
    <i name="AMIN">      0.10000000</i>
    <i name="AMIX_MAG">      1.60000000</i>
    <i name="BMIX_MAG">      1.00000000</i>
    <separator name="electronic mixer details" >
     <i type="int" name="IMIX">     4</i>
     <i type="logical" name="MIXFIRST"> F  </i>
     <i type="int" name="MAXMIX">   -45</i>
     <i name="WC">    100.00000000</i>
     <i type="int" name="INIMIX">     1</i>
     <i type="int" name="MIXPRE">     1</i>
     <i type="int" name="MREMOVE">     5</i>
    </separator>
   </separator>
   <separator name="electronic dipolcorrection" >
    <i type="logical" name="LDIPOL"> T  </i>
    <i type="logical" name="LMONO"> F  </i>
    <i type="int" name="IDIPOL">     3</i>
    <i name="EPSILON">      1.00000000</i>
    <v name="DIPOL">      0.00000000      0.00000000      0.50000000</v>
    <i name="EFIELD">      0.00000000</i>
   </separator>
  </separator>
  <separator name="grids" >
   <i type="int" name="NGX">    54</i>
   <i type="int" name="NGY">    54</i>
   <i type="int" name="NGZ">   128</i>
   <i type="int" name="NGXF">   108</i>
   <i type="int" name="NGYF">   108</i>
   <i type="int" name="NGZF">   256</i>
   <i type="logical" name="ADDGRID"> F  </i>
  </separator>
  <separator name="ionic" >
   <i type="int" name="NSW">   500</i>
   <i type="int" name="IBRION">     2</i>
   <i type="int" name="ISIF">     0</i>
   <i name="PSTRESS">      0.00000000</i>
   <i name="EDIFFG">     -0.02000000</i>
   <i type="int" name="NFREE">     2</i>
   <i name="POTIM">      0.35000000</i>
   <i name="SMASS">     -3.00000000</i>
   <i name="SCALEE">      1.00000000</i>
  </separator>
  <separator name="ionic md" >
   <i name="TEBEG">      0.00010000</i>
   <i name="TEEND">      0.00010000</i>
   <i type="int" name="NBLOCK">     1</i>
   <i type="int" name="KBLOCK">   500</i>
   <i type="int" name="NPACO">   256</i>
   <i name="APACO">     16.00000000</i>
  </separator>
  <separator name="symmetry" >
   <i type="int" name="ISYM">     2</i>
   <i name="SYMPREC">      0.00001000</i>
  </separator>
  <separator name="dos" >
   <i type="logical" name="LORBIT"> F  </i>
   <v name="RWIGS">     -1.00000000     -1.00000000     -1.00000000</v>
   <i type="int" name="NEDOS">   301</i>
   <i name="EMIN">     10.00000000</i>
   <i name="EMAX">    -10.00000000</i>
   <i name="EFERMI">      0.00000000</i>
  </separator>
  <separator name="writing" >
   <i type="int" name="NWRITE">     1</i>
   <i type="logical" name="LWAVE"> F  </i>
   <i type="logical" name="LCHARG"> F  </i>
   <i type="logical" name="LPARD"> F  </i>
   <i type="logical" name="LVTOT"> F  </i>
   <i type="logical" name="LVHAR"> F  </i>
   <i type="logical" name="LELF"> F  </i>
   <i type="logical" name="LOPTICS"> F  </i>
   <v name="STM">      0.00000000      0.00000000      0.00000000      0.00000000      0.00000000      0.00000000      0.00000000</v>
  </separator>
  <separator name="performance" >
   <i type="int" name="NPAR">     6</i>
   <i type="int" name="NSIM">     4</i>
   <i type="int" name="NBLK">    -1</i>
   <i type="logical" name="LPLANE"> T  </i>
   <i type="logical" name="LSCALAPACK"> T  </i>
   <i type="logical" name="LSCAAWARE"> F  </i>
   <i type="logical" name="LSCALU"> F  </i>
   <i type="logical" name="LASYNC"> F  </i>
   <i type="logical" name="LORBITALREAL"> F  </i>
  </separator>
  <separator name="miscellaneous" >
   <i type="int" name="IDIOT">     3</i>
   <i type="logical" name="LMUSIC"> F  </i>
   <v name="POMASS">    196.96600000     16.00000000    106.42000000</v>
   <v name="DARWINR">      0.00000000      0.00000000      0.00000000</v>
   <v name="DARWINV">      1.00000000      1.00000000      1.00000000</v>
   <i type="logical" name="LCORR"> T  </i>
  </separator>
  <i type="logical" name="GGA_COMPAT"> T  </i>
  <i type="logical" name="LBERRY"> F  </i>
  <i type="int" name="ICORELEVEL">     0</i>
  <i type="logical" name="LDAU"> F  </i>
  <i type="int" name="I_CONSTRAINED_M">     0</i>
  <separator name="electronic exchange-correlation" >
   <i type="string" name="GGA">PE</i>
   <i type="int" name="VOSKOWN">     1</i>
   <i type="logical" name="LHFCALC"> F  </i>
   <i type="string" name="PRECFOCK"></i>
   <i type="logical" name="LSYMGRAD"> F  </i>
   <i type="logical" name="LHFONE"> F  </i>
   <i type="logical" name="LRHFCALC"> F  </i>
   <i type="logical" name="LTHOMAS"> F  </i>
   <i type="logical" name="LMODELHF"> F  </i>
   <i name="ENCUT4O">     -1.00000000</i>
   <i type="int" name="EXXOEP">     0</i>
   <i type="int" name="FOURORBIT">     0</i>
   <i name="AEXX">      0.00000000</i>
   <i name="HFALPHA">      0.00000000</i>
   <i name="MCALPHA">      0.00000000</i>
   <i name="ALDAX">      1.00000000</i>
   <i name="AGGAX">      1.00000000</i>
   <i name="ALDAC">      1.00000000</i>
   <i name="AGGAC">      1.00000000</i>
   <i type="int" name="NKREDX">     1</i>
   <i type="int" name="NKREDY">     1</i>
   <i type="int" name="NKREDZ">     1</i>
   <i type="logical" name="SHIFTRED"> F  </i>
   <i type="logical" name="ODDONLY"> F  </i>
   <i type="logical" name="EVENONLY"> F  </i>
   <i type="int" name="LMAXFOCK">     0</i>
   <i type="int" name="NMAXFOCKAE">     0</i>
   <i type="logical" name="LFOCKAEDFT"> F  </i>
   <i name="HFSCREEN">      0.00000000</i>
   <i name="HFSCREENC">      0.00000000</i>
   <i type="int" name="NBANDSGWLOW">     0</i>
  </separator>
  <separator name="vdW DFT" >
   <i type="logical" name="LUSE_VDW"> F  </i>
   <i name="Zab_VDW">     -0.84910000</i>
   <i name="PARAM1">      0.12340000</i>
   <i name="PARAM2">      1.00000000</i>
   <i name="PARAM3">      0.00000000</i>
  </separator>
  <separator name="model GW" >
   <i type="int" name="MODEL_GW">     0</i>
   <i name="MODEL_EPS0">     29.42037089</i>
   <i name="MODEL_ALPHA">      1.00000000</i>
  </separator>
  <separator name="linear response parameters" >
   <i type="logical" name="LEPSILON"> F  </i>
   <i type="logical" name="LRPA"> F  </i>
   <i type="logical" name="LNABLA"> F  </i>
   <i type="logical" name="LVEL"> F  </i>
   <i type="int" name="KINTER">     0</i>
   <i name="CSHIFT">      0.10000000</i>
   <i name="OMEGAMAX">     -1.00000000</i>
   <i name="DEG_THRESHOLD">      0.00200000</i>
  </separator>
  <separator name="orbital magnetization" >
   <i type="logical" name="NUCIND"> F  </i>
   <v name="MAGPOS">      0.00000000      0.00000000      0.00000000</v>
   <i type="logical" name="LNICSALL"> T  </i>
   <i type="logical" name="ORBITALMAG"> F  </i>
   <i type="logical" name="LMAGBLOCH"> F  </i>
   <i type="logical" name="LCHIMAG"> F  </i>
   <i type="logical" name="LGAUGE"> T  </i>
   <i type="int" name="MAGATOM">     0</i>
   <v name="MAGDIPOL">      0.00000000      0.00000000      0.00000000</v>
   <v name="AVECCONST">      0.00000000      0.00000000      0.00000000</v>
  </separator>
  <separator name="response functions" >
   <i type="logical" name="LADDER"> F  </i>
   <i type="logical" name="LFXC"> F  </i>
   <i type="logical" name="LHARTREE"> T  </i>
   <i type="int" name="IBSE">     0</i>
   <v type="int" name="KPOINT">    -1     0     0     0</v>
   <i type="logical" name="LTCTE"> F  </i>
   <i type="logical" name="LTETE"> F  </i>
   <i type="logical" name="LTRIPLET"> F  </i>
   <i type="logical" name="LFXCEPS"> F  </i>
   <i type="logical" name="LFXHEG"> F  </i>
   <i type="int" name="NATURALO">     0</i>
   <i type="logical" name="L2ORDER"> F  </i>
   <i type="logical" name="LUSEW"> F  </i>
   <i name="ENCUTGW">     -2.00000000</i>
   <i name="ENCUTGWSOFT">     -2.00000000</i>
   <i name="ENCUTLF">     -1.00000000</i>
   <i type="int" name="LMAXMP2">    -1</i>
   <i name="SCISSOR">      0.00000000</i>
   <i type="int" name="NOMEGA">     0</i>
   <i type="int" name="NOMEGAR">     0</i>
   <i type="int" name="NBANDSGW">    -1</i>
   <i type="int" name="NBANDSO">    -1</i>
   <i type="int" name="NBANDSV">    -1</i>
   <i type="int" name="NELM">   500</i>
   <i type="int" name="NELMHF">     1</i>
   <i type="int" name="DIM">     3</i>
   <i type="int" name="ANTIRES">     0</i>
   <i name="OMEGAMAX">    -30.00000000</i>
   <i name="OMEGAMIN">    -30.00000000</i>
   <i name="OMEGATL">   -200.00000000</i>
   <i type="int" name="OMEGAGRID">     0</i>
   <i name="CSHIFT">     -0.10000000</i>
   <i type="logical" name="SELFENERGY"> F  </i>
   <i type="logical" name="LSPECTRAL"> F  </i>
   <i type="logical" name="LSPECTRALGW"> F  </i>
   <i type="logical" name="LSINGLES"> F  </i>
   <i type="logical" name="LFERMIGW"> F  </i>
   <i type="logical" name="ODDONLYGW"> F  </i>
   <i type="logical" name="EVENONLYGW"> F  </i>
   <i type="int" name="NKREDLFX">     1</i>
   <i type="int" name="NKREDLFY">     1</i>
   <i type="int" name="NKREDLFZ">     1</i>
   <i type="int" name="MAXMEM">  1800</i>
   <i type="int" name="TELESCOPE">     0</i>
   <i type="int" name="TAUPAR">     1</i>
   <i type="int" name="OMEGAPAR">    -1</i>
   <i name="LAMBDA">      1.00000000</i>
  </separator>
  <separator name="External order field" >
   <i name="OFIELD_KAPPA">      0.00000000</i>
   <v name="OFIELD_K">      0.00000000      0.00000000      0.00000000</v>
   <i name="OFIELD_Q6_NEAR">      0.00000000</i>
   <i name="OFIELD_Q6_FAR">      0.00000000</i>
   <i name="OFIELD_A">      0.00000000</i>
  </separator>
 </parameters>
 <atominfo>
  <atoms>      56 </atoms>
  <types>       3 </types>
  <array name="atoms" >
   <dimension dim="1">ion</dimension>
   <field type="string">element</field>
   <field type="int">atomtype</field>
   <set>
    <rc><c>Au</c><c>   1</c></rc>
    <rc><c>Au</c><c>   1</c></rc>
    <rc><c>Au</c><c>   1</c></rc>
    <rc><c>Au</c><c>   1</c></rc>
    <rc><c>Au</c><c>   1</c></rc>
    <rc><c>Au</c><c>   1</c></rc>
    <rc><c>Au</c><c>   1</c></rc>
    <rc><c>Au</c><c>   1</c></rc>
    <rc><c>Au</c><c>   1</c></rc>
    <rc><c>Au</c><c>   1</c></rc>
    <rc><c>Au</c><c>   1</c></rc>
    <rc><c>Au</c><c>   1</c></rc>
    <rc><c>Au</c><c>   1</c></rc>
    <rc><c>Au</c><c>   1</c></rc>
    <rc><c>Au</c><c>   1</c></rc>
    <rc><c>Au</c><c>   1</c></rc>
    <rc><c>Au</c><c>   1</c></rc>
    <rc><c>Au</c><c>   1</c></rc>
    <rc><c>Au</c><c>   1</c></rc>
    <rc><c>Au</c><c>   1</c></rc>
    <rc><c>Au</c><c>   1</c></rc>
    <rc><c>Au</c><c>   1</c></rc>
    <rc><c>Au</c><c>   1</c></rc>
    <rc><c>Au</c><c>   1</c></rc>
    <rc><c>O </c><c>   2</c></rc>
    <rc><c>O </c><c>   2</c></rc>
    <rc><c>O </c><c>   2</c></rc>
    <rc><c>O </c><c>   2</c></rc>
    <rc><c>O </c><c>   2</c></rc>
    <rc><c>O </c><c>   2</c></rc>
    <rc><c>O </c><c>   2</c></rc>
    <rc><c>O </c><c>   2</c></rc>
    <rc><c>Pd</c><c>   3</c></rc>
    <rc><c>Pd</c><c>   3</c></rc>
    <rc><c>Pd</c><c>   3</c></rc>
    <rc><c>Pd</c><c>   3</c></rc>
    <rc><c>Pd</c><c>   3</c></rc>
    <rc><c>Pd</c><c>   3</c></rc>
    <rc><c>Pd</c><c>   3</c></rc>
    <rc><c>Pd</c><c>   3</c></rc>
    <rc><c>Pd</c><c>   3</c></rc>
    <rc><c>Pd</c><c>   3</c></rc>
    <rc><c>Pd</c><c>   3</c></rc>
    <rc><c>Pd</c><c>   3</c></rc>
    <rc><c>Pd</c><c>   3</c></rc>
    <rc><c>Pd</c><c>   3</c></rc>
    <rc><c>Pd</c><c>   3</c></rc>
    <rc><c>Pd</c><c>   3</c></rc>
    <rc><c>Pd</c><c>   3</c></rc>
    <rc><c>Pd</c><c>   3</c></rc>
    <rc><c>Pd</c><c>   3</c></rc>
    <rc><c>Pd</c><c>   3</c></rc>
    <rc><c>Pd</c><c>   3</c></rc>
    <rc><c>Pd</c><c>   3</c></rc>
    <rc><c>Pd</c><c>   3</c></rc>
    <rc><c>Pd</c><c>   3</c></rc>
   </set>
  </array>
  <array name="atomtypes" >
   <dimension dim="1">type</dimension>
   <field type="int">atomspertype</field>
   <field type="string">element</field>
   <field>mass</field>
   <field>valence</field>
   <field type="string">pseudopotential</field>
   <set>
    <rc><c>  24</c><c>Au</c><c>    196.96600000</c><c>     11.00000000</c><c>  PAW_PBE Au 04Oct2007                  </c></rc>
    <rc><c>   8</c><c>O </c><c>     16.00000000</c><c>      6.00000000</c><c>  PAW_PBE O 08Apr2002                   </c></rc>
    <rc><c>  24</c><c>Pd</c><c>    106.42000000</c><c>     10.00000000</c><c>  PAW_PBE Pd 04Jan2005                  </c></rc>
   </set>
  </array>
 </atominfo>
 <structure name="initialpos" >
  <crystal>
   <varray name="basis" >
    <v>      11.00258152       0.00000000       0.00000000 </v>
    <v>       5.50129076       9.52851510       0.00000000 </v>
    <v>       0.00000000       0.00000000      26.19178509 </v>
   </varray>
   <i name="volume">   2745.90128299 </i>
   <varray name="rec_basis" >
    <v>       0.09088776      -0.05247407       0.00000000 </v>
    <v>       0.00000000       0.10494815       0.00000000 </v>
    <v>       0.00000000       0.00000000       0.03817991 </v>
   </varray>
  </crystal>
  <varray name="positions" >
   <v>       0.08333333       0.08333333       0.38179910 </v>
   <v>       0.08333333       0.83333333       0.38179910 </v>
   <v>       0.66666667       0.91666667       0.46754708 </v>
   <v>       0.00000000       0.00000000       0.55329505 </v>
   <v>       0.83333333       0.83333333       0.38179910 </v>
   <v>       0.91666667       0.41666667       0.46754708 </v>
   <v>       0.00000000       0.25000000       0.55329505 </v>
   <v>       0.83333333       0.33333333       0.38179910 </v>
   <v>       0.91666667       0.66666667       0.46754708 </v>
   <v>       0.66666667       0.16666667       0.46754708 </v>
   <v>       0.83333333       0.08333333       0.38179910 </v>
   <v>       0.41666667       0.91666667       0.46754708 </v>
   <v>       0.33333333       0.83333333       0.38179910 </v>
   <v>       0.50000000       0.50000000       0.55329505 </v>
   <v>       0.33333333       0.08333333       0.38179910 </v>
   <v>       0.41666667       0.66666667       0.46754708 </v>
   <v>       0.58333333       0.58333333       0.38179910 </v>
   <v>       0.58333333       0.33333333       0.38179910 </v>
   <v>       0.16666667       0.41666667       0.46754708 </v>
   <v>       0.50000000       0.00000000       0.55329505 </v>
   <v>       0.33333333       0.58333333       0.38179910 </v>
   <v>       0.16666667       0.66666667       0.46754708 </v>
   <v>       0.58333333       0.08333333       0.38179910 </v>
   <v>       0.75000000       0.75000000       0.55329505 </v>
   <v>       0.83333333       0.83333333       0.61820090 </v>
   <v>       0.08333333       0.83333333       0.61820090 </v>
   <v>       0.08333333       0.58333333       0.61820090 </v>
   <v>       0.58333333       0.58333333       0.61820090 </v>
   <v>       0.83333333       0.58333333       0.61820090 </v>
   <v>       0.58333333       0.08333333       0.61820090 </v>
   <v>       0.58333333       0.33333333       0.61820090 </v>
   <v>       0.83333333       0.08333333       0.61820090 </v>
   <v>       0.50000000       0.25000000       0.55329505 </v>
   <v>       0.33333333       0.33333333       0.38179910 </v>
   <v>       0.41666667       0.41666667       0.46754708 </v>
   <v>       0.58333333       0.83333333       0.38179910 </v>
   <v>       0.25000000       0.25000000       0.55329505 </v>
   <v>       0.41666667       0.16666667       0.46754708 </v>
   <v>       0.25000000       0.50000000       0.55329505 </v>
   <v>       0.00000000       0.75000000       0.55329505 </v>
   <v>       0.50000000       0.75000000       0.55329505 </v>
   <v>       0.91666667       0.91666667       0.46754708 </v>
   <v>       0.16666667       0.91666667       0.46754708 </v>
   <v>       0.00000000       0.50000000       0.55329505 </v>
   <v>       0.75000000       0.00000000       0.55329505 </v>
   <v>       0.08333333       0.58333333       0.38179910 </v>
   <v>       0.66666667       0.41666667       0.46754708 </v>
   <v>       0.75000000       0.25000000       0.55329505 </v>
   <v>       0.83333333       0.58333333       0.38179910 </v>
   <v>       0.66666667       0.66666667       0.46754708 </v>
   <v>       0.75000000       0.50000000       0.55329505 </v>
   <v>       0.08333333       0.33333333       0.38179910 </v>
   <v>       0.91666667       0.16666667       0.46754708 </v>
   <v>       0.25000000       0.75000000       0.55329505 </v>
   <v>       0.25000000       0.00000000       0.55329505 </v>
   <v>       0.16666667       0.16666667       0.46754708 </v>
  </varray>
  <varray name="selective"  type="logical" >
   <v type="logical" >  F  F  F </v>
   <v type="logical" >  F  F  F </v>
   <v type="logical" >  T  T  T </v>
   <v type="logical" >  T  T  T </v>
   <v type="logical" >  F  F  F </v>
   <v type="logical" >  T  T  T </v>
   <v type="logical" >  T  T  T </v>
   <v type="logical" >  F  F  F </v>
   <v type="logical" >  T  T  T </v>
   <v type="logical" >  T  T  T </v>
   <v type="logical" >  F  F  F </v>
   <v type="logical" >  T  T  T </v>
   <v type="logical" >  F  F  F </v>
   <v type="logical" >  T  T  T </v>
   <v type="logical" >  F  F  F </v>
   <v type="logical" >  T  T  T </v>
   <v type="logical" >  F  F  F </v>
   <v type="logical" >  F  F  F </v>
   <v type="logical" >  T  T  T </v>
   <v type="logical" >  T  T  T </v>
   <v type="logical" >  F  F  F </v>
   <v type="logical" >  T  T  T </v>
   <v type="logical" >  F  F  F </v>
   <v type="logical" >  T  T  T </v>
   <v type="logical" >  T  T  T </v>
   <v type="logical" >  T  T  T </v>
   <v type="logical" >  T  T  T </v>
   <v type="logical" >  T  T  T </v>
   <v type="logical" >  T  T  T </v>
   <v type="logical" >  T  T  T </v>
   <v type="logical" >  T  T  T </v>
   <v type="logical" >  T  T  T </v>
   <v type="logical" >  T  T  T </v>
   <v type="logical" >  F  F  F </v>
   <v type="logical" >  T  T  T </v>
   <v type="logical" >  F  F  F </v>
   <v type="logical" >  T  T  T </v>
   <v type="logical" >  T  T  T </v>
   <v type="logical" >  T  T  T </v>
   <v type="logical" >  T  T  T </v>
   <v type="logical" >  T  T  T </v>
   <v type="logical" >  T  T  T </v>
   <v type="logical" >  T  T  T </v>
   <v type="logical" >  T  T  T </v>
   <v type="logical" >  T  T  T </v>
   <v type="logical" >  F  F  F </v>
   <v type="logical" >  T  T  T </v>
   <v type="logical" >  T  T  T </v>
   <v type="logical" >  F  F  F </v>
   <v type="logical" >  T  T  T </v>
   <v type="logical" >  T  T  T </v>
   <v type="logical" >  F  F  F </v>
   <v type="logical" >  T  T  T </v>
   <v type="logical" >  T  T  T </v>
   <v type="logical" >  T  T  T </v>
   <v type="logical" >  T  T  T </v>
  </varray>
  <nose>
   <v>      -3.00000000       0.00000000       0.00010000       0.00010000 </v>
  </nose>
 </structure>
 <calculation>
  <scstep>
   <time name="dav">    8.61    8.64</time>
   <time name="total">    8.67    8.70</time>
   <dipole>
    <v name="dipole">      0.00000000       0.00000000       0.00010369 </v>
    <i name="Tr[quadrupol]"> -11212.07725940 </i>
    <i name="Echarged">      0.00000000 </i>
    <i name="Edipol_quadrupol">      0.00000000 </i>
    <i name="Eion">      0.00000000 </i>
   </dipole>
   <energy>
    <i name="alphaZ">    862.57848527 </i>
    <i name="ewald"> 255198.11685328 </i>
    <i name="hartreedc">-300770.47982907 </i>
    <i name="XCdc">   -109.80189323 </i>
    <i name="pawpsdc">  43112.45544455 </i>
    <i name="pawaedc"> -41079.41300390 </i>
    <i name="eentropy">     -0.14776412 </i>
    <i name="bandstr">   1334.13378637 </i>
    <i name="atom">  45117.89144060 </i>
    <i name="e_fr_energy">   3665.33351976 </i>
    <i name="e_wo_entrp">   3665.48128388 </i>
    <i name="e_0_energy">   3665.40740182 </i>
   </energy>
  </scstep>
  <scstep>
   <time name="dav">   10.14   10.17</time>
   <time name="total">   10.14   10.18</time>
   <dipole>
    <v name="dipole">      0.00000000       0.00000000       0.00010369 </v>
    <i name="Tr[quadrupol]"> -11212.07725940 </i>
    <i name="Echarged">      0.00000000 </i>
    <i name="Edipol_quadrupol">      0.00000000 </i>
    <i name="Eion">      0.00000000 </i>
   </dipole>
   <energy>
    <i name="e_fr_energy">     55.84063426 </i>
    <i name="e_wo_entrp">     55.98891566 </i>
    <i name="e_0_energy">     55.91477496 </i>
   </energy>
  </scstep>
  <scstep>
   <time name="dav">    9.93   10.02</time>
   <time name="total">    9.93   10.03</time>
   <dipole>
    <v name="dipole">      0.00000000       0.00000000       0.00010369 </v>
    <i name="Tr[quadrupol]"> -11212.07725940 </i>
    <i name="Echarged">      0.00000000 </i>
    <i name="Edipol_quadrupol">      0.00000000 </i>
    <i name="Eion">      0.00000000 </i>
   </dipole>
   <energy>
    <i name="e_fr_energy">   -252.10343612 </i>
    <i name="e_wo_entrp">   -251.64783363 </i>
    <i name="e_0_energy">   -251.87563488 </i>
   </energy>
  </scstep>
  <scstep>
   <time name="dav">    9.68    9.70</time>
   <time name="total">    9.68    9.71</time>
   <dipole>
    <v name="dipole">      0.00000000       0.00000000       0.00010369 </v>
    <i name="Tr[quadrupol]"> -11212.07725940 </i>
    <i name="Echarged">      0.00000000 </i>
    <i name="Edipol_quadrupol">      0.00000000 </i>
    <i name="Eion">      0.00000000 </i>
   </dipole>
   <energy>
    <i name="e_fr_energy">   -263.55760080 </i>
    <i name="e_wo_entrp">   -263.07687188 </i>
    <i name="e_0_energy">   -263.31723634 </i>
   </energy>
  </scstep>
  <scstep>
   <time name="dav">   10.10   10.13</time>
   <time name="total">   10.36   10.39</time>
   <dipole>
    <v name="dipole">      0.00000000       0.00000000       0.00010369 </v>
    <i name="Tr[quadrupol]"> -11212.07725940 </i>
    <i name="Echarged">      0.00000000 </i>
    <i name="Edipol_quadrupol">      0.00000000 </i>
    <i name="Eion">      0.00000000 </i>
   </dipole>
   <energy>
    <i name="e_fr_energy">   -263.90842961 </i>
    <i name="e_wo_entrp">   -263.42765713 </i>
    <i name="e_0_energy">   -263.66804337 </i>
   </energy>
  </scstep>
  <scstep>
   <time name="diag">    1.58    1.58</time>
   <time name="diis">    4.14    4.15</time>
   <time name="orth">    0.44    0.44</time>
   <time name="total">    6.46    6.48</time>
   <dipole>
    <v name="dipole">      0.00000000       0.00000000       6.22648546 </v>
    <i name="Tr[quadrupol]"> -11209.49481055 </i>
    <i name="Echarged">      0.00000000 </i>
    <i name="Edipol_quadrupol">      0.00000000 </i>
    <i name="Eion">      0.00000000 </i>
   </dipole>
   <energy>
    <i name="e_fr_energy">   -477.80168321 </i>
    <i name="e_wo_entrp">   -477.54340007 </i>
    <i name="e_0_energy">   -477.67254164 </i>
   </energy>
  </scstep>
  <scstep>
   <time name="diag">    1.56    1.57</time>
   <time name="diis">    4.13    4.14</time>
   <time name="orth">    0.44    0.44</time>
   <time name="total">    6.44    6.46</time>
   <dipole>
    <v name="dipole">      0.00000000       0.00000000       0.47472373 </v>
    <i name="Tr[quadrupol]"> -11206.64122753 </i>
    <i name="Echarged">      0.00000000 </i>
    <i name="Edipol_quadrupol">      0.00000000 </i>
    <i name="Eion">      0.00000000 </i>
   </dipole>
   <energy>
    <i name="e_fr_energy">   -229.45551877 </i>
    <i name="e_wo_entrp">   -229.08845874 </i>
    <i name="e_0_energy">   -229.27198875 </i>
   </energy>
  </scstep>
  <scstep>
   <time name="diag">    1.57    1.57</time>
   <time name="diis">    4.17    4.18</time>
   <time name="orth">    0.43    0.46</time>
   <time name="total">    6.48    6.55</time>
   <dipole>
    <v name="dipole">      0.00000000       0.00000000       2.85683241 </v>
    <i name="Tr[quadrupol]"> -11207.63862564 </i>
    <i name="Echarged">      0.00000000 </i>
    <i name="Edipol_quadrupol">      0.00000000 </i>
    <i name="Eion">      0.00000000 </i>
   </dipole>
   <energy>
    <i name="e_fr_energy">   -277.01112085 </i>
    <i name="e_wo_entrp">   -276.79755139 </i>
    <i name="e_0_energy">   -276.90433612 </i>
   </energy>
  </scstep>
  <scstep>
   <time name="diag">    1.55    1.56</time>
   <time name="diis">    4.11    4.12</time>
   <time name="orth">    0.44    0.44</time>
   <time name="total">    6.40    6.43</time>
   <dipole>
    <v name="dipole">      0.00000000       0.00000000       2.22129457 </v>
    <i name="Tr[quadrupol]"> -11209.66668866 </i>
    <i name="Echarged">      0.00000000 </i>
    <i name="Edipol_quadrupol">      0.00000000 </i>
    <i name="Eion">      0.00000000 </i>
   </dipole>
   <energy>
    <i name="e_fr_energy">   -251.12634810 </i>
    <i name="e_wo_entrp">   -250.92471512 </i>
    <i name="e_0_energy">   -251.02553161 </i>
   </energy>
  </scstep>
  <scstep>
   <time name="diag">    1.57    1.57</time>
   <time name="diis">    4.08    4.10</time>
   <time name="orth">    0.43    0.44</time>
   <time name="total">    6.39    6.41</time>
   <dipole>
    <v name="dipole">      0.00000000       0.00000000       2.08057584 </v>
    <i name="Tr[quadrupol]"> -11211.10747748 </i>
    <i name="Echarged">      0.00000000 </i>
    <i name="Edipol_quadrupol">      0.00000000 </i>
    <i name="Eion">      0.00000000 </i>
   </dipole>
   <energy>
    <i name="e_fr_energy">   -237.77553835 </i>
    <i name="e_wo_entrp">   -237.57613758 </i>
    <i name="e_0_energy">   -237.67583797 </i>
   </energy>
  </scstep>
  <scstep>
   <time name="diag">    1.56    1.57</time>
   <time name="diis">    4.10    4.11</time>
   <time name="orth">    0.42    0.43</time>
   <time name="total">    6.40    6.42</time>
   <dipole>
    <v name="dipole">      0.00000000       0.00000000       1.93619472 </v>
    <i name="Tr[quadrupol]"> -11212.14579131 </i>
    <i name="Echarged">      0.00000000 </i>
    <i name="Edipol_quadrupol">      0.00000000 </i>
    <i name="Eion">      0.00000000 </i>
   </dipole>
   <energy>
    <i name="e_fr_energy">   -229.77299795 </i>
    <i name="e_wo_entrp">   -229.54520385 </i>
    <i name="e_0_energy">   -229.65910090 </i>
   </energy>
  </scstep>
  <scstep>
   <time name="diag">    1.56    1.56</time>
   <time name="diis">    4.12    4.14</time>
   <time name="orth">    0.42    0.42</time>
   <time name="total">    6.41    6.44</time>
   <dipole>
    <v name="dipole">      0.00000000       0.00000000       1.50809169 </v>
    <i name="Tr[quadrupol]"> -11211.45715884 </i>
    <i name="Echarged">      0.00000000 </i>
    <i name="Edipol_quadrupol">      0.00000000 </i>
    <i name="Eion">      0.00000000 </i>
   </dipole>
   <energy>
    <i name="e_fr_energy">   -223.48409078 </i>
    <i name="e_wo_entrp">   -223.24494521 </i>
    <i name="e_0_energy">   -223.36451800 </i>
   </energy>
  </scstep>
  <scstep>
   <time name="diag">    1.55    1.55</time>
   <time name="diis">    4.15    4.16</time>
   <time name="orth">    0.42    0.43</time>
   <time name="total">    6.43    6.44</time>
   <dipole>
    <v name="dipole">      0.00000000       0.00000000       1.43418561 </v>
    <i name="Tr[quadrupol]"> -11211.38656013 </i>
    <i name="Echarged">      0.00000000 </i>
    <i name="Edipol_quadrupol">      0.00000000 </i>
    <i name="Eion">      0.00000000 </i>
   </dipole>
   <energy>
    <i name="e_fr_energy">   -222.14967081 </i>
    <i name="e_wo_entrp">   -221.84950760 </i>
    <i name="e_0_energy">   -221.99958921 </i>
   </energy>
  </scstep>
  <scstep>
   <time name="diag">    1.56    1.56</time>
   <time name="diis">    4.19    4.20</time>
   <time name="orth">    0.42    0.43</time>
   <time name="total">    6.48    6.50</time>
   <dipole>
    <v name="dipole">      0.00000000       0.00000000       1.40338125 </v>
    <i name="Tr[quadrupol]"> -11211.18404400 </i>
    <i name="Echarged">      0.00000000 </i>
    <i name="Edipol_quadrupol">      0.00000000 </i>
    <i name="Eion">      0.00000000 </i>
   </dipole>
   <energy>
    <i name="e_fr_energy">   -221.82178273 </i>
    <i name="e_wo_entrp">   -221.54994912 </i>
    <i name="e_0_energy">   -221.68586593 </i>
   </energy>
  </scstep>
  <scstep>
   <time name="diag">    1.54    1.62</time>
   <time name="diis">    4.14    4.15</time>
   <time name="orth">    0.42    0.43</time>
   <time name="total">    6.41    6.50</time>
   <dipole>
    <v name="dipole">      0.00000000       0.00000000       1.42309005 </v>
    <i name="Tr[quadrupol]"> -11211.22330980 </i>
    <i name="Echarged">      0.00000000 </i>
    <i name="Edipol_quadrupol">      0.00000000 </i>
    <i name="Eion">      0.00000000 </i>
   </dipole>
   <energy>
    <i name="e_fr_energy">   -221.59768479 </i>
    <i name="e_wo_entrp">   -221.31125049 </i>
    <i name="e_0_energy">   -221.45446764 </i>
   </energy>
  </scstep>
  <scstep>
   <time name="diag">    1.56    1.57</time>
   <time name="diis">    4.19    4.20</time>
   <time name="orth">    0.42    0.43</time>
   <time name="total">    6.49    6.51</time>
   <dipole>
    <v name="dipole">      0.00000000       0.00000000       1.43788948 </v>
    <i name="Tr[quadrupol]"> -11211.26018041 </i>
    <i name="Echarged">      0.00000000 </i>
    <i name="Edipol_quadrupol">      0.00000000 </i>
    <i name="Eion">      0.00000000 </i>
   </dipole>
   <energy>
    <i name="e_fr_energy">   -221.39196590 </i>
    <i name="e_wo_entrp">   -221.10187516 </i>
    <i name="e_0_energy">   -221.24692053 </i>
   </energy>
  </scstep>
  <scstep>
   <time name="diag">    1.54    1.55</time>
   <time name="diis">    4.16    4.17</time>
   <time name="orth">    0.42    0.42</time>
   <time name="total">    6.43    6.45</time>
   <dipole>
    <v name="dipole">      0.00000000       0.00000000       1.42696430 </v>
    <i name="Tr[quadrupol]"> -11211.22535257 </i>
    <i name="Echarged">      0.00000000 </i>
    <i name="Edipol_quadrupol">      0.00000000 </i>
    <i name="Eion">      0.00000000 </i>
   </dipole>
   <energy>
    <i name="e_fr_energy">   -221.37886907 </i>
    <i name="e_wo_entrp">   -221.09533478 </i>
    <i name="e_0_energy">   -221.23710192 </i>
   </energy>
  </scstep>
  <scstep>
   <time name="diag">    1.56    1.57</time>
   <time name="diis">    4.19    4.20</time>
   <time name="orth">    0.42    0.43</time>
   <time name="total">    6.49    6.51</time>
   <dipole>
    <v name="dipole">      0.00000000       0.00000000       1.41201458 </v>
    <i name="Tr[quadrupol]"> -11211.21296307 </i>
    <i name="Echarged">      0.00000000 </i>
    <i name="Edipol_quadrupol">      0.00000000 </i>
    <i name="Eion">      0.00000000 </i>
   </dipole>
   <energy>
    <i name="e_fr_energy">   -221.26792819 </i>
    <i name="e_wo_entrp">   -220.95126095 </i>
    <i name="e_0_energy">   -221.10959457 </i>
   </energy>
  </scstep>
  <scstep>
   <time name="diag">    1.55    1.56</time>
   <time name="diis">    4.14    4.18</time>
   <time name="orth">    0.42    0.43</time>
   <time name="total">    6.43    6.48</time>
   <dipole>
    <v name="dipole">      0.00000000       0.00000000       1.38645555 </v>
    <i name="Tr[quadrupol]"> -11211.13231085 </i>
    <i name="Echarged">      0.00000000 </i>
    <i name="Edipol_quadrupol">      0.00000000 </i>
    <i name="Eion">      0.00000000 </i>
   </dipole>
   <energy>
    <i name="e_fr_energy">   -221.21734001 </i>
    <i name="e_wo_entrp">   -220.91230145 </i>
    <i name="e_0_energy">   -221.06482073 </i>
   </energy>
  </scstep>
  <scstep>
   <time name="diag">    1.57    1.58</time>
   <time name="diis">    4.18    4.19</time>
   <time name="orth">    0.42    0.43</time>
   <time name="total">    6.48    6.51</time>
   <dipole>
    <v name="dipole">      0.00000000       0.00000000       1.37932463 </v>
    <i name="Tr[quadrupol]"> -11211.15229854 </i>
    <i name="Echarged">      0.00000000 </i>
    <i name="Edipol_quadrupol">      0.00000000 </i>
    <i name="Eion">      0.00000000 </i>
   </dipole>
   <energy>
    <i name="e_fr_energy">   -221.17695777 </i>
    <i name="e_wo_entrp">   -220.86410664 </i>
    <i name="e_0_energy">   -221.02053220 </i>
   </energy>
  </scstep>
  <scstep>
   <time name="diag">    1.54    1.54</time>
   <time name="diis">    4.05    4.14</time>
   <time name="orth">    0.42    0.42</time>
   <time name="total">    6.32    6.42</time>
   <dipole>
    <v name="dipole">      0.00000000       0.00000000       1.37171036 </v>
    <i name="Tr[quadrupol]"> -11211.12813312 </i>
    <i name="Echarged">      0.00000000 </i>
    <i name="Edipol_quadrupol">      0.00000000 </i>
    <i name="Eion">      0.00000000 </i>
   </dipole>
   <energy>
    <i name="e_fr_energy">   -221.16110005 </i>
    <i name="e_wo_entrp">   -220.84535966 </i>
    <i name="e_0_energy">   -221.00322986 </i>
   </energy>
  </scstep>
  <scstep>
   <time name="diag">    1.56    1.56</time>
   <time name="diis">    4.14    4.15</time>
   <time name="orth">    0.43    0.43</time>
   <time name="total">    6.44    6.46</time>
   <dipole>
    <v name="dipole">      0.00000000       0.00000000       1.36240848 </v>
    <i name="Tr[quadrupol]"> -11211.07206741 </i>
    <i name="Echarged">      0.00000000 </i>
    <i name="Edipol_quadrupol">      0.00000000 </i>
    <i name="Eion">      0.00000000 </i>
   </dipole>
   <energy>
    <i name="e_fr_energy">   -221.15505377 </i>
    <i name="e_wo_entrp">   -220.83975114 </i>
    <i name="e_0_energy">   -220.99740246 </i>
   </energy>
  </scstep>
  <scstep>
   <time name="diag">    1.56    1.56</time>
   <time name="diis">    4.22    4.23</time>
   <time name="orth">    0.42    0.42</time>
   <time name="total">    6.51    6.54</time>
   <dipole>
    <v name="dipole">      0.00000000       0.00000000       1.35687252 </v>
    <i name="Tr[quadrupol]"> -11211.02178133 </i>
    <i name="Echarged">      0.00000000 </i>
    <i name="Edipol_quadrupol">      0.00000000 </i>
    <i name="Eion">      0.00000000 </i>
   </dipole>
   <energy>
    <i name="e_fr_energy">   -221.15299261 </i>
    <i name="e_wo_entrp">   -220.84016971 </i>
    <i name="e_0_energy">   -220.99658116 </i>
   </energy>
  </scstep>
  <scstep>
   <time name="diag">    1.56    1.57</time>
   <time name="diis">    4.18    4.19</time>
   <time name="orth">    0.42    0.43</time>
   <time name="total">    6.48    6.50</time>
   <dipole>
    <v name="dipole">      0.00000000       0.00000000       1.35771876 </v>
    <i name="Tr[quadrupol]"> -11210.99867705 </i>
    <i name="Echarged">      0.00000000 </i>
    <i name="Edipol_quadrupol">      0.00000000 </i>
    <i name="Eion">      0.00000000 </i>
   </dipole>
   <energy>
    <i name="e_fr_energy">   -221.15194821 </i>
    <i name="e_wo_entrp">   -220.83826814 </i>
    <i name="e_0_energy">   -220.99510817 </i>
   </energy>
  </scstep>
  <scstep>
   <time name="diag">    1.54    1.55</time>
   <time name="diis">    4.18    4.19</time>
   <time name="orth">    0.42    0.42</time>
   <time name="total">    6.46    6.48</time>
   <dipole>
    <v name="dipole">      0.00000000       0.00000000       1.35732295 </v>
    <i name="Tr[quadrupol]"> -11210.97509391 </i>
    <i name="Echarged">      0.00000000 </i>
    <i name="Edipol_quadrupol">      0.00000000 </i>
    <i name="Eion">      0.00000000 </i>
   </dipole>
   <energy>
    <i name="e_fr_energy">   -221.15168228 </i>
    <i name="e_wo_entrp">   -220.83601601 </i>
    <i name="e_0_energy">   -220.99384914 </i>
   </energy>
  </scstep>
  <scstep>
   <time name="diag">    1.56    1.57</time>
   <time name="diis">    4.21    4.22</time>
   <time name="orth">    0.42    0.42</time>
   <time name="total">    6.51    6.53</time>
   <dipole>
    <v name="dipole">      0.00000000       0.00000000       1.35231518 </v>
    <i name="Tr[quadrupol]"> -11210.91780522 </i>
    <i name="Echarged">      0.00000000 </i>
    <i name="Edipol_quadrupol">      0.00000000 </i>
    <i name="Eion">      0.00000000 </i>
   </dipole>
   <energy>
    <i name="e_fr_energy">   -221.15143685 </i>
    <i name="e_wo_entrp">   -220.83774300 </i>
    <i name="e_0_energy">   -220.99458993 </i>
   </energy>
  </scstep>
  <scstep>
   <time name="diag">    1.55    1.56</time>
   <time name="diis">    4.08    4.18</time>
   <time name="orth">    0.42    0.43</time>
   <time name="total">    6.37    6.48</time>
   <dipole>
    <v name="dipole">      0.00000000       0.00000000       1.34954553 </v>
    <i name="Tr[quadrupol]"> -11210.88780167 </i>
    <i name="Echarged">      0.00000000 </i>
    <i name="Edipol_quadrupol">      0.00000000 </i>
    <i name="Eion">      0.00000000 </i>
   </dipole>
   <energy>
    <i name="e_fr_energy">   -221.15170544 </i>
    <i name="e_wo_entrp">   -220.83635523 </i>
    <i name="e_0_energy">   -220.99403033 </i>
   </energy>
  </scstep>
  <scstep>
   <time name="diag">    1.56    1.57</time>
   <time name="diis">    4.23    4.24</time>
   <time name="orth">    0.42    0.42</time>
   <time name="total">    6.53    6.55</time>
   <dipole>
    <v name="dipole">      0.00000000       0.00000000       1.34478951 </v>
    <i name="Tr[quadrupol]"> -11210.83789671 </i>
    <i name="Echarged">      0.00000000 </i>
    <i name="Edipol_quadrupol">      0.00000000 </i>
    <i name="Eion">      0.00000000 </i>
   </dipole>
   <energy>
    <i name="e_fr_energy">   -221.15215669 </i>
    <i name="e_wo_entrp">   -220.83598392 </i>
    <i name="e_0_energy">   -220.99407030 </i>
   </energy>
  </scstep>
  <scstep>
   <time name="diag">    1.54    1.56</time>
   <time name="diis">    4.16    4.17</time>
   <time name="orth">    0.42    0.42</time>
   <time name="total">    6.43    6.47</time>
   <dipole>
    <v name="dipole">      0.00000000       0.00000000       1.34299268 </v>
    <i name="Tr[quadrupol]"> -11210.80341791 </i>
    <i name="Echarged">      0.00000000 </i>
    <i name="Edipol_quadrupol">      0.00000000 </i>
    <i name="Eion">      0.00000000 </i>
   </dipole>
   <energy>
    <i name="e_fr_energy">   -221.15234028 </i>
    <i name="e_wo_entrp">   -220.83638778 </i>
    <i name="e_0_energy">   -220.99436403 </i>
   </energy>
  </scstep>
  <scstep>
   <time name="diag">    1.56    1.56</time>
   <time name="diis">    4.23    4.24</time>
   <time name="orth">    0.42    0.43</time>
   <time name="total">    6.52    6.54</time>
   <dipole>
    <v name="dipole">      0.00000000       0.00000000       1.34126024 </v>
    <i name="Tr[quadrupol]"> -11210.76243597 </i>
    <i name="Echarged">      0.00000000 </i>
    <i name="Edipol_quadrupol">      0.00000000 </i>
    <i name="Eion">      0.00000000 </i>
   </dipole>
   <energy>
    <i name="e_fr_energy">   -221.15263125 </i>
    <i name="e_wo_entrp">   -220.83718460 </i>
    <i name="e_0_energy">   -220.99490792 </i>
   </energy>
  </scstep>
  <scstep>
   <time name="diag">    1.55    1.55</time>
   <time name="diis">    4.32    4.33</time>
   <time name="orth">    0.42    0.43</time>
   <time name="total">    6.61    6.63</time>
   <dipole>
    <v name="dipole">      0.00000000       0.00000000       1.33963706 </v>
    <i name="Tr[quadrupol]"> -11210.72867725 </i>
    <i name="Echarged">      0.00000000 </i>
    <i name="Edipol_quadrupol">      0.00000000 </i>
    <i name="Eion">      0.00000000 </i>
   </dipole>
   <energy>
    <i name="e_fr_energy">   -221.15285079 </i>
    <i name="e_wo_entrp">   -220.83746745 </i>
    <i name="e_0_energy">   -220.99515912 </i>
   </energy>
  </scstep>
  <scstep>
   <time name="diag">    1.56    1.57</time>
   <time name="diis">    4.05    4.06</time>
   <time name="orth">    0.42    0.42</time>
   <time name="total">    6.35    6.37</time>
   <dipole>
    <v name="dipole">      0.00000000       0.00000000       1.33778005 </v>
    <i name="Tr[quadrupol]"> -11210.69486591 </i>
    <i name="Echarged">      0.00000000 </i>
    <i name="Edipol_quadrupol">      0.00000000 </i>
    <i name="Eion">      0.00000000 </i>
   </dipole>
   <energy>
    <i name="e_fr_energy">   -221.15308741 </i>
    <i name="e_wo_entrp">   -220.83747847 </i>
    <i name="e_0_energy">   -220.99528294 </i>
   </energy>
  </scstep>
  <scstep>
   <time name="diag">    1.55    1.55</time>
   <time name="diis">    3.63    3.72</time>
   <time name="orth">    0.42    0.42</time>
   <time name="total">    5.90    6.00</time>
   <dipole>
    <v name="dipole">      0.00000000       0.00000000       1.33583845 </v>
    <i name="Tr[quadrupol]"> -11210.65995844 </i>
    <i name="Echarged">      0.00000000 </i>
    <i name="Edipol_quadrupol">      0.00000000 </i>
    <i name="Eion">      0.00000000 </i>
   </dipole>
   <energy>
    <i name="e_fr_energy">   -221.15329902 </i>
    <i name="e_wo_entrp">   -220.83764658 </i>
    <i name="e_0_energy">   -220.99547280 </i>
   </energy>
  </scstep>
  <scstep>
   <time name="diag">    1.57    1.57</time>
   <time name="diis">    3.94    3.96</time>
   <time name="orth">    0.42    0.43</time>
   <time name="total">    6.25    6.27</time>
   <dipole>
    <v name="dipole">      0.00000000       0.00000000       1.33281282 </v>
    <i name="Tr[quadrupol]"> -11210.60241041 </i>
    <i name="Echarged">      0.00000000 </i>
    <i name="Edipol_quadrupol">      0.00000000 </i>
    <i name="Eion">      0.00000000 </i>
   </dipole>
   <energy>
    <i name="e_fr_energy">   -221.15361846 </i>
    <i name="e_wo_entrp">   -220.83809557 </i>
    <i name="e_0_energy">   -220.99585701 </i>
   </energy>
  </scstep>
  <scstep>
   <time name="diag">    1.55    1.56</time>
   <time name="diis">    3.82    3.84</time>
   <time name="orth">    0.42    0.42</time>
   <time name="total">    6.11    6.13</time>
   <dipole>
    <v name="dipole">      0.00000000       0.00000000       1.33020566 </v>
    <i name="Tr[quadrupol]"> -11210.54807988 </i>
    <i name="Echarged">      0.00000000 </i>
    <i name="Edipol_quadrupol">      0.00000000 </i>
    <i name="Eion">      0.00000000 </i>
   </dipole>
   <energy>
    <i name="e_fr_energy">   -221.15387781 </i>
    <i name="e_wo_entrp">   -220.83841856 </i>
    <i name="e_0_energy">   -220.99614818 </i>
   </energy>
  </scstep>
  <scstep>
   <time name="diag">    1.56    1.56</time>
   <time name="diis">    3.28    3.29</time>
   <time name="orth">    0.43    0.43</time>
   <time name="total">    5.58    5.60</time>
   <dipole>
    <v name="dipole">      0.00000000       0.00000000       1.32913023 </v>
    <i name="Tr[quadrupol]"> -11210.52399955 </i>
    <i name="Echarged">      0.00000000 </i>
    <i name="Edipol_quadrupol">      0.00000000 </i>
    <i name="Eion">      0.00000000 </i>
   </dipole>
   <energy>
    <i name="e_fr_energy">   -221.15395817 </i>
    <i name="e_wo_entrp">   -220.83850982 </i>
    <i name="e_0_energy">   -220.99623399 </i>
   </energy>
  </scstep>
  <scstep>
   <time name="diag">    1.54    1.54</time>
   <time name="diis">    2.99    3.00</time>
   <time name="orth">    0.42    0.43</time>
   <time name="total">    5.27    5.29</time>
   <dipole>
    <v name="dipole">      0.00000000       0.00000000       1.32808851 </v>
    <i name="Tr[quadrupol]"> -11210.49834397 </i>
    <i name="Echarged">      0.00000000 </i>
    <i name="Edipol_quadrupol">      0.00000000 </i>
    <i name="Eion">      0.00000000 </i>
   </dipole>
   <energy>
    <i name="e_fr_energy">   -221.15401582 </i>
    <i name="e_wo_entrp">   -220.83852911 </i>
    <i name="e_0_energy">   -220.99627246 </i>
   </energy>
  </scstep>
  <scstep>
   <time name="diag">    1.56    1.56</time>
   <time name="diis">    2.61    2.62</time>
   <time name="orth">    0.42    0.43</time>
   <time name="total">    4.90    4.92</time>
   <dipole>
    <v name="dipole">      0.00000000       0.00000000       1.32765307 </v>
    <i name="Tr[quadrupol]"> -11210.48592883 </i>
    <i name="Echarged">      0.00000000 </i>
    <i name="Edipol_quadrupol">      0.00000000 </i>
    <i name="Eion">      0.00000000 </i>
   </dipole>
   <energy>
    <i name="e_fr_energy">   -221.15403372 </i>
    <i name="e_wo_entrp">   -220.83855141 </i>
    <i name="e_0_energy">   -220.99629257 </i>
   </energy>
  </scstep>
  <scstep>
   <time name="diag">    1.55    1.58</time>
   <time name="diis">    2.52    2.52</time>
   <time name="orth">    0.42    0.43</time>
   <time name="total">    4.80    4.84</time>
   <dipole>
    <v name="dipole">      0.00000000       0.00000000       1.32743906 </v>
    <i name="Tr[quadrupol]"> -11210.47621659 </i>
    <i name="Echarged">      0.00000000 </i>
    <i name="Edipol_quadrupol">      0.00000000 </i>
    <i name="Eion">      0.00000000 </i>
   </dipole>
   <energy>
    <i name="e_fr_energy">   -221.15404394 </i>
    <i name="e_wo_entrp">   -220.83858627 </i>
    <i name="e_0_energy">   -220.99631511 </i>
   </energy>
  </scstep>
  <scstep>
   <time name="diag">    1.57    1.57</time>
   <time name="diis">    2.44    2.44</time>
   <time name="orth">    0.42    0.43</time>
   <time name="total">    4.74    4.76</time>
   <dipole>
    <v name="dipole">      0.00000000       0.00000000       1.32738281 </v>
    <i name="Tr[quadrupol]"> -11210.47093929 </i>
    <i name="Echarged">      0.00000000 </i>
    <i name="Edipol_quadrupol">      0.00000000 </i>
    <i name="Eion">      0.00000000 </i>
   </dipole>
   <energy>
    <i name="e_fr_energy">   -221.15404900 </i>
    <i name="e_wo_entrp">   -220.83859295 </i>
    <i name="e_0_energy">   -220.99632098 </i>
   </energy>
  </scstep>
  <scstep>
   <time name="diag">    1.52    1.60</time>
   <time name="diis">    2.46    2.47</time>
   <time name="orth">    0.43    0.43</time>
   <time name="total">    4.71    4.80</time>
   <dipole>
    <v name="dipole">      0.00000000       0.00000000       1.32740184 </v>
    <i name="Tr[quadrupol]"> -11210.46278048 </i>
    <i name="Echarged">      0.00000000 </i>
    <i name="Edipol_quadrupol">      0.00000000 </i>
    <i name="Eion">      0.00000000 </i>
   </dipole>
   <energy>
    <i name="e_fr_energy">   -221.15405658 </i>
    <i name="e_wo_entrp">   -220.83859832 </i>
    <i name="e_0_energy">   -220.99632745 </i>
   </energy>
  </scstep>
  <scstep>
   <time name="diag">    1.56    1.56</time>
   <time name="diis">    2.35    2.36</time>
   <time name="orth">    0.42    0.43</time>
   <time name="total">    4.65    4.67</time>
   <dipole>
    <v name="dipole">      0.00000000       0.00000000       1.32744407 </v>
    <i name="Tr[quadrupol]"> -11210.45805718 </i>
    <i name="Echarged">      0.00000000 </i>
    <i name="Edipol_quadrupol">      0.00000000 </i>
    <i name="Eion">      0.00000000 </i>
   </dipole>
   <energy>
    <i name="e_fr_energy">   -221.15405991 </i>
    <i name="e_wo_entrp">   -220.83860041 </i>
    <i name="e_0_energy">   -220.99633016 </i>
   </energy>
  </scstep>
  <scstep>
   <time name="diag">    1.55    1.56</time>
   <time name="diis">    2.42    2.42</time>
   <time name="orth">    0.43    0.43</time>
   <time name="total">    4.71    4.73</time>
   <dipole>
    <v name="dipole">      0.00000000       0.00000000       1.32756053 </v>
    <i name="Tr[quadrupol]"> -11210.45248131 </i>
    <i name="Echarged">      0.00000000 </i>
    <i name="Edipol_quadrupol">      0.00000000 </i>
    <i name="Eion">      0.00000000 </i>
   </dipole>
   <energy>
    <i name="e_fr_energy">   -221.15406298 </i>
    <i name="e_wo_entrp">   -220.83860043 </i>
    <i name="e_0_energy">   -220.99633171 </i>
   </energy>
  </scstep>
  <scstep>
   <time name="diag">    1.56    1.57</time>
   <time name="diis">    1.73    1.73</time>
   <time name="orth">    0.42    0.43</time>
   <time name="total">    4.03    4.05</time>
   <dipole>
    <v name="dipole">      0.00000000       0.00000000       1.32766752 </v>
    <i name="Tr[quadrupol]"> -11210.44914045 </i>
    <i name="Echarged">      0.00000000 </i>
    <i name="Edipol_quadrupol">      0.00000000 </i>
    <i name="Eion">      0.00000000 </i>
   </dipole>
   <energy>
    <i name="e_fr_energy">   -221.15406422 </i>
    <i name="e_wo_entrp">   -220.83860192 </i>
    <i name="e_0_energy">   -220.99633307 </i>
   </energy>
  </scstep>
  <scstep>
   <time name="diag">    1.54    1.55</time>
   <time name="diis">    2.27    2.28</time>
   <time name="orth">    0.43    0.43</time>
   <time name="total">    4.30    4.31</time>
   <dipole>
    <v name="dipole">      0.00000000       0.00000000       1.32780307 </v>
    <i name="Tr[quadrupol]"> -11210.44563138 </i>
    <i name="Echarged">      0.00000000 </i>
    <i name="Edipol_quadrupol">      0.00000000 </i>
    <i name="Eion">      0.00000000 </i>
   </dipole>
   <energy>
    <i name="alphaZ">    888.18017810 </i>
    <i name="ewald"> 255198.11685328 </i>
    <i name="hartreedc">-300216.23924999 </i>
    <i name="XCdc">   -124.50951037 </i>
    <i name="pawpsdc">  52779.81379994 </i>
    <i name="pawaedc"> -50879.05669256 </i>
    <i name="eentropy">     -0.31546232 </i>
    <i name="bandstr">  -2985.03542165 </i>
    <i name="atom">  45117.89144060 </i>
    <i name="e_fr_energy">   -221.15406496 </i>
    <i name="e_wo_entrp">   -220.83860264 </i>
    <i name="e_0_energy">   -220.99633380 </i>
   </energy>
  </scstep>
  <structure>
   <crystal>
    <varray name="basis" >
     <v>      11.00258152       0.00000000       0.00000000 </v>
     <v>       5.50129076       9.52851510       0.00000000 </v>
     <v>       0.00000000       0.00000000      26.19178509 </v>
    </varray>
    <i name="volume">   2745.90128299 </i>
    <varray name="rec_basis" >
     <v>       0.09088776      -0.05247407       0.00000000 </v>
     <v>       0.00000000       0.10494815       0.00000000 </v>
     <v>       0.00000000       0.00000000       0.03817991 </v>
    </varray>
   </crystal>
   <varray name="positions" >
    <v>       0.08333333       0.08333333       0.38179910 </v>
    <v>       0.08333333       0.83333333       0.38179910 </v>
    <v>       0.66666667       0.91666667       0.46754708 </v>
    <v>       0.00000000       0.00000000       0.55329505 </v>
    <v>       0.83333333       0.83333333       0.38179910 </v>
    <v>       0.91666667       0.41666667       0.46754708 </v>
    <v>       0.00000000       0.25000000       0.55329505 </v>
    <v>       0.83333333       0.33333333       0.38179910 </v>
    <v>       0.91666667       0.66666667       0.46754708 </v>
    <v>       0.66666667       0.16666667       0.46754708 </v>
    <v>       0.83333333       0.08333333       0.38179910 </v>
    <v>       0.41666667       0.91666667       0.46754708 </v>
    <v>       0.33333333       0.83333333       0.38179910 </v>
    <v>       0.50000000       0.50000000       0.55329505 </v>
    <v>       0.33333333       0.08333333       0.38179910 </v>
    <v>       0.41666667       0.66666667       0.46754708 </v>
    <v>       0.58333333       0.58333333       0.38179910 </v>
    <v>       0.58333333       0.33333333       0.38179910 </v>
    <v>       0.16666667       0.41666667       0.46754708 </v>
    <v>       0.50000000       0.00000000       0.55329505 </v>
    <v>       0.33333333       0.58333333       0.38179910 </v>
    <v>       0.16666667       0.66666667       0.46754708 </v>
    <v>       0.58333333       0.08333333       0.38179910 </v>
    <v>       0.75000000       0.75000000       0.55329505 </v>
    <v>       0.83333333       0.83333333       0.61820090 </v>
    <v>       0.08333333       0.83333333       0.61820090 </v>
    <v>       0.08333333       0.58333333       0.61820090 </v>
    <v>       0.58333333       0.58333333       0.61820090 </v>
    <v>       0.83333333       0.58333333       0.61820090 </v>
    <v>       0.58333333       0.08333333       0.61820090 </v>
    <v>       0.58333333       0.33333333       0.61820090 </v>
    <v>       0.83333333       0.08333333       0.61820090 </v>
    <v>       0.50000000       0.25000000       0.55329505 </v>
    <v>       0.33333333       0.33333333       0.38179910 </v>
    <v>       0.41666667       0.41666667       0.46754708 </v>
    <v>       0.58333333       0.83333333       0.38179910 </v>
    <v>       0.25000000       0.25000000       0.55329505 </v>
    <v>       0.41666667       0.16666667       0.46754708 </v>
    <v>       0.25000000       0.50000000       0.55329505 </v>
    <v>       0.00000000       0.75000000       0.55329505 </v>
    <v>       0.50000000       0.75000000       0.55329505 </v>
    <v>       0.91666667       0.91666667       0.46754708 </v>
    <v>       0.16666667       0.91666667       0.46754708 </v>
    <v>       0.00000000       0.50000000       0.55329505 </v>
    <v>       0.75000000       0.00000000       0.55329505 </v>
    <v>       0.08333333       0.58333333       0.38179910 </v>
    <v>       0.66666667       0.41666667       0.46754708 </v>
    <v>       0.75000000       0.25000000       0.55329505 </v>
    <v>       0.83333333       0.58333333       0.38179910 </v>
    <v>       0.66666667       0.66666667       0.46754708 </v>
    <v>       0.75000000       0.50000000       0.55329505 </v>
    <v>       0.08333333       0.33333333       0.38179910 </v>
    <v>       0.91666667       0.16666667       0.46754708 </v>
    <v>       0.25000000       0.75000000       0.55329505 </v>
    <v>       0.25000000       0.00000000       0.55329505 </v>
    <v>       0.16666667       0.16666667       0.46754708 </v>
   </varray>
  </structure>
  <varray name="forces" >
   <v>       0.11236111       0.25684861      -1.12512140 </v>
   <v>      -0.17409105      -0.02171185      -1.36704087 </v>
   <v>       0.07562891      -0.13125943       0.31737153 </v>
   <v>       0.43021209      -0.01229511       2.02039667 </v>
   <v>      -0.10829690      -0.34510380      -1.65530755 </v>
   <v>      -0.20966797       0.07802354       0.25630447 </v>
   <v>       0.26597189      -0.06205921       1.13784530 </v>
   <v>       0.31139243       0.13349165      -1.30277744 </v>
   <v>       0.04502802      -0.00557942      -0.07977351 </v>
   <v>       0.13192713       0.16021572       0.73632683 </v>
   <v>       0.16400885      -0.13795562      -1.38348938 </v>
   <v>      -0.06140053       0.11254488       0.74132793 </v>
   <v>       0.13038896       0.09196303      -1.53611494 </v>
   <v>      -0.31118309       0.14917492       2.12511267 </v>
   <v>       0.13689323       0.37216146      -1.33555509 </v>
   <v>       0.03493965      -0.12559219       0.97929107 </v>
   <v>       0.53897389       0.12780619      -1.33283694 </v>
   <v>      -0.28779634       0.20120624      -1.35689426 </v>
   <v>       0.23086354      -0.50805871       0.09309101 </v>
   <v>      -0.52901265       0.38436188       2.07953582 </v>
   <v>      -0.41825653      -0.42917294      -1.62835265 </v>
   <v>      -0.15862913       0.14099680       0.54109823 </v>
   <v>      -0.42417890       0.02982842      -1.57797504 </v>
   <v>      -0.23966258      -0.06448561       2.35603959 </v>
   <v>      -0.02059977       0.15570358      -2.28866845 </v>
   <v>       0.73534051      -0.25704329      -2.69762801 </v>
   <v>       0.37125414      -0.46235337      -3.25396139 </v>
   <v>       0.17242881       0.41846134      -2.73542767 </v>
   <v>      -0.16492928      -0.47154145      -2.67180488 </v>
   <v>      -0.32909605       0.18902647      -2.70672999 </v>
   <v>      -0.05614456      -0.25315998      -2.69508455 </v>
   <v>       0.06560801       0.35806025      -2.57949417 </v>
   <v>      -0.06309086       0.10088782       2.54758979 </v>
   <v>      -0.11412211       0.09909274      -0.67298351 </v>
   <v>      -0.16149916      -0.26900912       0.87344073 </v>
   <v>       0.11331704      -0.21177868      -0.87672303 </v>
   <v>       0.00242990      -0.02097955       0.60788694 </v>
   <v>      -0.08294418       0.50299151       0.36213147 </v>
   <v>      -0.34130551      -0.01978357       1.81725411 </v>
   <v>       0.21222754      -0.24387280       3.48185776 </v>
   <v>      -0.15345997      -0.38201452       1.82517053 </v>
   <v>       0.08398158       0.01849658       0.54850593 </v>
   <v>      -0.16161551       0.37282677       0.52969770 </v>
   <v>       0.20458942      -0.08880559       3.01407460 </v>
   <v>       0.06658188       0.05448879       3.39820460 </v>
   <v>      -0.09982834      -0.22759180      -0.96981673 </v>
   <v>       0.26093681      -0.13697176       0.66814503 </v>
   <v>      -0.11932558      -0.04596616       2.52497426 </v>
   <v>       0.00956013       0.05473610      -0.81746291 </v>
   <v>       0.01045089      -0.12106118       0.04253449 </v>
   <v>      -0.02711430       0.25478412       2.54172055 </v>
   <v>       0.12380732       0.13934301      -0.79869611 </v>
   <v>      -0.10435516      -0.19448297       0.64902255 </v>
   <v>      -0.24785792       0.30416090       1.87637450 </v>
   <v>       0.07184023       0.05585674       0.56709357 </v>
   <v>       0.05652001      -0.06785037       0.18630023 </v>
  </varray>
  <energy>
   <i name="e_fr_energy">   -221.15406496 </i>
   <i name="e_wo_entrp">   -220.99633380 </i>
   <i name="e_0_energy">     -0.31546232 </i>
  </energy>
  <time name="totalsc">  291.83  293.41</time>
 </calculation>
 <calculation>
  <scstep>
   <time name="dav">    8.79    8.81</time>
   <time name="total">    9.10    9.12</time>
   <dipole>
    <v name="dipole">      0.00000000       0.00000000       1.32791765 </v>
    <i name="Tr[quadrupol]"> -11200.44569087 </i>
    <i name="Echarged">      0.00000000 </i>
    <i name="Edipol_quadrupol">      0.00000000 </i>
    <i name="Eion">      0.00000000 </i>
   </dipole>
   <energy>
    <i name="alphaZ">    887.30413405 </i>
    <i name="ewald"> 254463.92088437 </i>
    <i name="hartreedc">-299471.09240806 </i>
    <i name="XCdc">   -124.06679939 </i>
    <i name="pawpsdc">  52779.81697343 </i>
    <i name="pawaedc"> -50879.05994331 </i>
    <i name="eentropy">     -0.23879335 </i>
    <i name="bandstr">  -2998.21285760 </i>
    <i name="atom">  45117.89144060 </i>
    <i name="e_fr_energy">   -223.73736925 </i>
    <i name="e_wo_entrp">   -223.49857591 </i>
    <i name="e_0_energy">   -223.61797258 </i>
   </energy>
  </scstep>
  <scstep>
   <time name="diag">    1.56    1.56</time>
   <time name="diis">    4.13    4.18</time>
   <time name="orth">    0.42    0.46</time>
   <time name="total">    6.41    6.51</time>
   <dipole>
    <v name="dipole">      0.00000000       0.00000000       0.90438992 </v>
    <i name="Tr[quadrupol]"> -11200.01038567 </i>
    <i name="Echarged">      0.00000000 </i>
    <i name="Edipol_quadrupol">      0.00000000 </i>
    <i name="Eion">      0.00000000 </i>
   </dipole>
   <energy>
    <i name="e_fr_energy">   -230.06988297 </i>
    <i name="e_wo_entrp">   -229.69332494 </i>
    <i name="e_0_energy">   -229.88160395 </i>
   </energy>
  </scstep>
  <scstep>
   <time name="diag">    1.56    1.56</time>
   <time name="diis">    4.20    4.21</time>
   <time name="orth">    0.42    0.43</time>
   <time name="total">    6.49    6.51</time>
   <dipole>
    <v name="dipole">      0.00000000       0.00000000       1.32266341 </v>
    <i name="Tr[quadrupol]"> -11200.15013347 </i>
    <i name="Echarged">      0.00000000 </i>
    <i name="Edipol_quadrupol">      0.00000000 </i>
    <i name="Eion">      0.00000000 </i>
   </dipole>
   <energy>
    <i name="e_fr_energy">   -226.40449863 </i>
    <i name="e_wo_entrp">   -226.14432484 </i>
    <i name="e_0_energy">   -226.27441173 </i>
   </energy>
  </scstep>
  <scstep>
   <time name="diag">    1.56    1.56</time>
   <time name="diis">    4.16    4.18</time>
   <time name="orth">    0.42    0.43</time>
   <time name="total">    6.44    6.48</time>
   <dipole>
    <v name="dipole">      0.00000000       0.00000000       0.92464804 </v>
    <i name="Tr[quadrupol]"> -11200.53440537 </i>
    <i name="Echarged">      0.00000000 </i>
    <i name="Edipol_quadrupol">      0.00000000 </i>
    <i name="Eion">      0.00000000 </i>
   </dipole>
   <energy>
    <i name="e_fr_energy">   -227.42681490 </i>
    <i name="e_wo_entrp">   -227.05522596 </i>
    <i name="e_0_energy">   -227.24102043 </i>
   </energy>
  </scstep>
  <scstep>
   <time name="diag">    1.54    1.55</time>
   <time name="diis">    4.14    4.15</time>
   <time name="orth">    0.42    0.43</time>
   <time name="total">    6.41    6.43</time>
   <dipole>
    <v name="dipole">      0.00000000       0.00000000       1.02349292 </v>
    <i name="Tr[quadrupol]"> -11200.82642930 </i>
    <i name="Echarged">      0.00000000 </i>
    <i name="Edipol_quadrupol">      0.00000000 </i>
    <i name="Eion">      0.00000000 </i>
   </dipole>
   <energy>
    <i name="e_fr_energy">   -226.69098669 </i>
    <i name="e_wo_entrp">   -226.34705124 </i>
    <i name="e_0_energy">   -226.51901897 </i>
   </energy>
  </scstep>
  <scstep>
   <time name="diag">    1.56    1.56</time>
   <time name="diis">    4.18    4.19</time>
   <time name="orth">    0.42    0.43</time>
   <time name="total">    6.47    6.49</time>
   <dipole>
    <v name="dipole">      0.00000000       0.00000000       1.01804746 </v>
    <i name="Tr[quadrupol]"> -11200.82585113 </i>
    <i name="Echarged">      0.00000000 </i>
    <i name="Edipol_quadrupol">      0.00000000 </i>
    <i name="Eion">      0.00000000 </i>
   </dipole>
   <energy>
    <i name="e_fr_energy">   -226.18431534 </i>
    <i name="e_wo_entrp">   -225.83877258 </i>
    <i name="e_0_energy">   -226.01154396 </i>
   </energy>
  </scstep>
  <scstep>
   <time name="diag">    1.56    1.56</time>
   <time name="diis">    4.19    4.20</time>
   <time name="orth">    0.42    0.43</time>
   <time name="total">    6.47    6.49</time>
   <dipole>
    <v name="dipole">      0.00000000       0.00000000       1.02463087 </v>
    <i name="Tr[quadrupol]"> -11200.87492868 </i>
    <i name="Echarged">      0.00000000 </i>
    <i name="Edipol_quadrupol">      0.00000000 </i>
    <i name="Eion">      0.00000000 </i>
   </dipole>
   <energy>
    <i name="e_fr_energy">   -226.08518808 </i>
    <i name="e_wo_entrp">   -225.76270280 </i>
    <i name="e_0_energy">   -225.92394544 </i>
   </energy>
  </scstep>
  <scstep>
   <time name="diag">    1.56    1.57</time>
   <time name="diis">    4.19    4.20</time>
   <time name="orth">    0.42    0.43</time>
   <time name="total">    6.48    6.50</time>
   <dipole>
    <v name="dipole">      0.00000000       0.00000000       1.07319463 </v>
    <i name="Tr[quadrupol]"> -11201.07257453 </i>
    <i name="Echarged">      0.00000000 </i>
    <i name="Edipol_quadrupol">      0.00000000 </i>
    <i name="Eion">      0.00000000 </i>
   </dipole>
   <energy>
    <i name="e_fr_energy">   -225.88477488 </i>
    <i name="e_wo_entrp">   -225.57227254 </i>
    <i name="e_0_energy">   -225.72852371 </i>
   </energy>
  </scstep>
  <scstep>
   <time name="diag">    1.52    1.58</time>
   <time name="diis">    4.11    4.13</time>
   <time name="orth">    0.42    0.43</time>
   <time name="total">    6.36    6.45</time>
   <dipole>
    <v name="dipole">      0.00000000       0.00000000       1.09205200 </v>
    <i name="Tr[quadrupol]"> -11201.14130517 </i>
    <i name="Echarged">      0.00000000 </i>
    <i name="Edipol_quadrupol">      0.00000000 </i>
    <i name="Eion">      0.00000000 </i>
   </dipole>
   <energy>
    <i name="e_fr_energy">   -225.79543507 </i>
    <i name="e_wo_entrp">   -225.49378852 </i>
    <i name="e_0_energy">   -225.64461180 </i>
   </energy>
  </scstep>
  <scstep>
   <time name="diag">    1.56    1.56</time>
   <time name="diis">    4.19    4.20</time>
   <time name="orth">    0.43    0.43</time>
   <time name="total">    6.48    6.50</time>
   <dipole>
    <v name="dipole">      0.00000000       0.00000000       1.10584990 </v>
    <i name="Tr[quadrupol]"> -11201.17235462 </i>
    <i name="Echarged">      0.00000000 </i>
    <i name="Edipol_quadrupol">      0.00000000 </i>
    <i name="Eion">      0.00000000 </i>
   </dipole>
   <energy>
    <i name="e_fr_energy">   -225.77897975 </i>
    <i name="e_wo_entrp">   -225.48725286 </i>
    <i name="e_0_energy">   -225.63311630 </i>
   </energy>
  </scstep>
  <scstep>
   <time name="diag">    1.56    1.56</time>
   <time name="diis">    4.19    4.20</time>
   <time name="orth">    0.42    0.43</time>
   <time name="total">    6.48    6.50</time>
   <dipole>
    <v name="dipole">      0.00000000       0.00000000       1.10094042 </v>
    <i name="Tr[quadrupol]"> -11201.19208312 </i>
    <i name="Echarged">      0.00000000 </i>
    <i name="Edipol_quadrupol">      0.00000000 </i>
    <i name="Eion">      0.00000000 </i>
   </dipole>
   <energy>
    <i name="e_fr_energy">   -225.77354700 </i>
    <i name="e_wo_entrp">   -225.48596497 </i>
    <i name="e_0_energy">   -225.62975599 </i>
   </energy>
  </scstep>
  <scstep>
   <time name="diag">    1.56    1.56</time>
   <time name="diis">    4.19    4.20</time>
   <time name="orth">    0.42    0.42</time>
   <time name="total">    6.49    6.51</time>
   <dipole>
    <v name="dipole">      0.00000000       0.00000000       1.11426191 </v>
    <i name="Tr[quadrupol]"> -11201.22137792 </i>
    <i name="Echarged">      0.00000000 </i>
    <i name="Edipol_quadrupol">      0.00000000 </i>
    <i name="Eion">      0.00000000 </i>
   </dipole>
   <energy>
    <i name="e_fr_energy">   -225.76630044 </i>
    <i name="e_wo_entrp">   -225.48053609 </i>
    <i name="e_0_energy">   -225.62341827 </i>
   </energy>
  </scstep>
  <scstep>
   <time name="diag">    1.54    1.55</time>
   <time name="diis">    4.17    4.20</time>
   <time name="orth">    0.44    0.44</time>
   <time name="total">    6.45    6.49</time>
   <dipole>
    <v name="dipole">      0.00000000       0.00000000       1.11122469 </v>
    <i name="Tr[quadrupol]"> -11201.20308487 </i>
    <i name="Echarged">      0.00000000 </i>
    <i name="Edipol_quadrupol">      0.00000000 </i>
    <i name="Eion">      0.00000000 </i>
   </dipole>
   <energy>
    <i name="e_fr_energy">   -225.76566024 </i>
    <i name="e_wo_entrp">   -225.48051779 </i>
    <i name="e_0_energy">   -225.62308901 </i>
   </energy>
  </scstep>
  <scstep>
   <time name="diag">    1.56    1.57</time>
   <time name="diis">    4.14    4.15</time>
   <time name="orth">    0.42    0.43</time>
   <time name="total">    6.44    6.46</time>
   <dipole>
    <v name="dipole">      0.00000000       0.00000000       1.11003778 </v>
    <i name="Tr[quadrupol]"> -11201.20261885 </i>
    <i name="Echarged">      0.00000000 </i>
    <i name="Edipol_quadrupol">      0.00000000 </i>
    <i name="Eion">      0.00000000 </i>
   </dipole>
   <energy>
    <i name="e_fr_energy">   -225.76589853 </i>
    <i name="e_wo_entrp">   -225.47949789 </i>
    <i name="e_0_energy">   -225.62269821 </i>
   </energy>
  </scstep>
  <scstep>
   <time name="diag">    1.55    1.58</time>
   <time name="diis">    4.07    4.14</time>
   <time name="orth">    0.43    0.43</time>
   <time name="total">    6.36    6.46</time>
   <dipole>
    <v name="dipole">      0.00000000       0.00000000       1.11377718 </v>
    <i name="Tr[quadrupol]"> -11201.22062068 </i>
    <i name="Echarged">      0.00000000 </i>
    <i name="Edipol_quadrupol">      0.00000000 </i>
    <i name="Eion">      0.00000000 </i>
   </dipole>
   <energy>
    <i name="e_fr_energy">   -225.76531203 </i>
    <i name="e_wo_entrp">   -225.47915801 </i>
    <i name="e_0_energy">   -225.62223502 </i>
   </energy>
  </scstep>
  <scstep>
   <time name="diag">    1.56    1.57</time>
   <time name="diis">    4.16    4.17</time>
   <time name="orth">    0.43    0.43</time>
   <time name="total">    6.46    6.48</time>
   <dipole>
    <v name="dipole">      0.00000000       0.00000000       1.11273922 </v>
    <i name="Tr[quadrupol]"> -11201.22634565 </i>
    <i name="Echarged">      0.00000000 </i>
    <i name="Edipol_quadrupol">      0.00000000 </i>
    <i name="Eion">      0.00000000 </i>
   </dipole>
   <energy>
    <i name="e_fr_energy">   -225.76509933 </i>
    <i name="e_wo_entrp">   -225.48067328 </i>
    <i name="e_0_energy">   -225.62288630 </i>
   </energy>
  </scstep>
  <scstep>
   <time name="diag">    1.54    1.55</time>
   <time name="diis">    4.18    4.20</time>
   <time name="orth">    0.42    0.43</time>
   <time name="total">    6.46    6.48</time>
   <dipole>
    <v name="dipole">      0.00000000       0.00000000       1.11201595 </v>
    <i name="Tr[quadrupol]"> -11201.23398133 </i>
    <i name="Echarged">      0.00000000 </i>
    <i name="Edipol_quadrupol">      0.00000000 </i>
    <i name="Eion">      0.00000000 </i>
   </dipole>
   <energy>
    <i name="e_fr_energy">   -225.76486444 </i>
    <i name="e_wo_entrp">   -225.48048018 </i>
    <i name="e_0_energy">   -225.62267231 </i>
   </energy>
  </scstep>
  <scstep>
   <time name="diag">    1.56    1.56</time>
   <time name="diis">    4.16    4.17</time>
   <time name="orth">    0.43    0.43</time>
   <time name="total">    6.45    6.48</time>
   <dipole>
    <v name="dipole">      0.00000000       0.00000000       1.11103140 </v>
    <i name="Tr[quadrupol]"> -11201.24419032 </i>
    <i name="Echarged">      0.00000000 </i>
    <i name="Edipol_quadrupol">      0.00000000 </i>
    <i name="Eion">      0.00000000 </i>
   </dipole>
   <energy>
    <i name="e_fr_energy">   -225.76495779 </i>
    <i name="e_wo_entrp">   -225.48040247 </i>
    <i name="e_0_energy">   -225.62268013 </i>
   </energy>
  </scstep>
  <scstep>
   <time name="diag">    1.56    1.57</time>
   <time name="diis">    4.23    4.24</time>
   <time name="orth">    0.42    0.42</time>
   <time name="total">    6.53    6.55</time>
   <dipole>
    <v name="dipole">      0.00000000       0.00000000       1.10999232 </v>
    <i name="Tr[quadrupol]"> -11201.25397562 </i>
    <i name="Echarged">      0.00000000 </i>
    <i name="Edipol_quadrupol">      0.00000000 </i>
    <i name="Eion">      0.00000000 </i>
   </dipole>
   <energy>
    <i name="e_fr_energy">   -225.76505968 </i>
    <i name="e_wo_entrp">   -225.48056015 </i>
    <i name="e_0_energy">   -225.62280991 </i>
   </energy>
  </scstep>
  <scstep>
   <time name="diag">    1.56    1.57</time>
   <time name="diis">    4.04    4.05</time>
   <time name="orth">    0.42    0.42</time>
   <time name="total">    6.34    6.36</time>
   <dipole>
    <v name="dipole">      0.00000000       0.00000000       1.10965169 </v>
    <i name="Tr[quadrupol]"> -11201.26031220 </i>
    <i name="Echarged">      0.00000000 </i>
    <i name="Edipol_quadrupol">      0.00000000 </i>
    <i name="Eion">      0.00000000 </i>
   </dipole>
   <energy>
    <i name="e_fr_energy">   -225.76512200 </i>
    <i name="e_wo_entrp">   -225.48075515 </i>
    <i name="e_0_energy">   -225.62293858 </i>
   </energy>
  </scstep>
  <scstep>
   <time name="diag">    1.54    1.55</time>
   <time name="diis">    3.57    3.67</time>
   <time name="orth">    0.42    0.42</time>
   <time name="total">    5.85    5.95</time>
   <dipole>
    <v name="dipole">      0.00000000       0.00000000       1.10925232 </v>
    <i name="Tr[quadrupol]"> -11201.26863336 </i>
    <i name="Echarged">      0.00000000 </i>
    <i name="Edipol_quadrupol">      0.00000000 </i>
    <i name="Eion">      0.00000000 </i>
   </dipole>
   <energy>
    <i name="e_fr_energy">   -225.76519878 </i>
    <i name="e_wo_entrp">   -225.48094584 </i>
    <i name="e_0_energy">   -225.62307231 </i>
   </energy>
  </scstep>
  <scstep>
   <time name="diag">    1.56    1.57</time>
   <time name="diis">    2.95    2.96</time>
   <time name="orth">    0.42    0.42</time>
   <time name="total">    5.25    5.27</time>
   <dipole>
    <v name="dipole">      0.00000000       0.00000000       1.10893386 </v>
    <i name="Tr[quadrupol]"> -11201.27389317 </i>
    <i name="Echarged">      0.00000000 </i>
    <i name="Edipol_quadrupol">      0.00000000 </i>
    <i name="Eion">      0.00000000 </i>
   </dipole>
   <energy>
    <i name="e_fr_energy">   -225.76525585 </i>
    <i name="e_wo_entrp">   -225.48103645 </i>
    <i name="e_0_energy">   -225.62314615 </i>
   </energy>
  </scstep>
  <scstep>
   <time name="diag">    1.56    1.57</time>
   <time name="diis">    2.65    2.65</time>
   <time name="orth">    0.42    0.42</time>
   <time name="total">    4.94    4.96</time>
   <dipole>
    <v name="dipole">      0.00000000       0.00000000       1.10840485 </v>
    <i name="Tr[quadrupol]"> -11201.27788567 </i>
    <i name="Echarged">      0.00000000 </i>
    <i name="Edipol_quadrupol">      0.00000000 </i>
    <i name="Eion">      0.00000000 </i>
   </dipole>
   <energy>
    <i name="e_fr_energy">   -225.76530657 </i>
    <i name="e_wo_entrp">   -225.48110446 </i>
    <i name="e_0_energy">   -225.62320551 </i>
   </energy>
  </scstep>
  <scstep>
   <time name="diag">    1.56    1.57</time>
   <time name="diis">    2.60    2.62</time>
   <time name="orth">    0.42    0.42</time>
   <time name="total">    4.90    4.93</time>
   <dipole>
    <v name="dipole">      0.00000000       0.00000000       1.10798037 </v>
    <i name="Tr[quadrupol]"> -11201.28393975 </i>
    <i name="Echarged">      0.00000000 </i>
    <i name="Edipol_quadrupol">      0.00000000 </i>
    <i name="Eion">      0.00000000 </i>
   </dipole>
   <energy>
    <i name="e_fr_energy">   -225.76536908 </i>
    <i name="e_wo_entrp">   -225.48119380 </i>
    <i name="e_0_energy">   -225.62328144 </i>
   </energy>
  </scstep>
  <scstep>
   <time name="diag">    1.55    1.55</time>
   <time name="diis">    2.76    2.77</time>
   <time name="orth">    0.44    0.44</time>
   <time name="total">    5.05    5.07</time>
   <dipole>
    <v name="dipole">      0.00000000       0.00000000       1.10725484 </v>
    <i name="Tr[quadrupol]"> -11201.29245215 </i>
    <i name="Echarged">      0.00000000 </i>
    <i name="Edipol_quadrupol">      0.00000000 </i>
    <i name="Eion">      0.00000000 </i>
   </dipole>
[...]
       <r>   -19.1201     2.5431    15.9870 </r>
       <r>   -19.0273     0.1388    15.9999 </r>
       <r>   -18.9346     0.0016    16.0000 </r>
       <r>   -18.8418     0.0000    16.0000 </r>
       <r>   -18.7491     0.0000    16.0000 </r>
       <r>   -18.6563     0.0000    16.0000 </r>
       <r>   -18.5636     0.0000    16.0000 </r>
       <r>   -18.4708     0.0000    16.0000 </r>
       <r>   -18.3781     0.0000    16.0000 </r>
       <r>   -18.2853     0.0000    16.0000 </r>
       <r>   -18.1926     0.0000    16.0000 </r>
       <r>   -18.0998     0.0000    16.0000 </r>
       <r>   -18.0071     0.0000    16.0000 </r>
       <r>   -17.9143     0.0000    16.0000 </r>
       <r>   -17.8216     0.0000    16.0000 </r>
       <r>   -17.7288     0.0000    16.0000 </r>
       <r>   -17.6361     0.0000    16.0000 </r>
       <r>   -17.5434     0.0000    16.0000 </r>
       <r>   -17.4506     0.0000    16.0000 </r>
       <r>   -17.3579     0.0000    16.0000 </r>
       <r>   -17.2651     0.0000    16.0000 </r>
       <r>   -17.1724     0.0000    16.0000 </r>
       <r>   -17.0796     0.0000    16.0000 </r>
       <r>   -16.9869     0.0000    16.0000 </r>
       <r>   -16.8941     0.0000    16.0000 </r>
       <r>   -16.8014     0.0000    16.0000 </r>
       <r>   -16.7086     0.0000    16.0000 </r>
       <r>   -16.6159     0.0000    16.0000 </r>
       <r>   -16.5231     0.0000    16.0000 </r>
       <r>   -16.4304     0.0000    16.0000 </r>
       <r>   -16.3376     0.0000    16.0000 </r>
       <r>   -16.2449     0.0000    16.0000 </r>
       <r>   -16.1521     0.0000    16.0000 </r>
       <r>   -16.0594     0.0000    16.0000 </r>
       <r>   -15.9666     0.0000    16.0000 </r>
       <r>   -15.8739     0.0000    16.0000 </r>
       <r>   -15.7811     0.0000    16.0000 </r>
       <r>   -15.6884     0.0000    16.0000 </r>
       <r>   -15.5956     0.0000    16.0000 </r>
       <r>   -15.5029     0.0000    16.0000 </r>
       <r>   -15.4102     0.0000    16.0000 </r>
       <r>   -15.3174     0.0000    16.0000 </r>
       <r>   -15.2247     0.0000    16.0000 </r>
       <r>   -15.1319     0.0000    16.0000 </r>
       <r>   -15.0392     0.0000    16.0000 </r>
       <r>   -14.9464     0.0000    16.0000 </r>
       <r>   -14.8537     0.0000    16.0000 </r>
       <r>   -14.7609     0.0000    16.0000 </r>
       <r>   -14.6682     0.0000    16.0000 </r>
       <r>   -14.5754     0.0000    16.0000 </r>
       <r>   -14.4827     0.0000    16.0000 </r>
       <r>   -14.3899     0.0000    16.0000 </r>
       <r>   -14.2972     0.0000    16.0000 </r>
       <r>   -14.2044     0.0000    16.0000 </r>
       <r>   -14.1117     0.0000    16.0000 </r>
       <r>   -14.0189     0.0000    16.0000 </r>
       <r>   -13.9262     0.0000    16.0000 </r>
       <r>   -13.8334     0.0000    16.0000 </r>
       <r>   -13.7407     0.0000    16.0000 </r>
       <r>   -13.6479     0.0000    16.0000 </r>
       <r>   -13.5552     0.0000    16.0000 </r>
       <r>   -13.4624     0.0000    16.0000 </r>
       <r>   -13.3697     0.0000    16.0000 </r>
       <r>   -13.2770     0.0000    16.0000 </r>
       <r>   -13.1842     0.0000    16.0000 </r>
       <r>   -13.0915     0.0000    16.0000 </r>
       <r>   -12.9987     0.0000    16.0000 </r>
       <r>   -12.9060     0.0000    16.0000 </r>
       <r>   -12.8132     0.0000    16.0000 </r>
       <r>   -12.7205     0.0000    16.0000 </r>
       <r>   -12.6277     0.0000    16.0000 </r>
       <r>   -12.5350     0.0000    16.0000 </r>
       <r>   -12.4422     0.0000    16.0000 </r>
       <r>   -12.3495     0.0000    16.0000 </r>
       <r>   -12.2567     0.0000    16.0000 </r>
       <r>   -12.1640     0.0000    16.0000 </r>
       <r>   -12.0712     0.0000    16.0000 </r>
       <r>   -11.9785     0.0000    16.0000 </r>
       <r>   -11.8857     0.0000    16.0000 </r>
       <r>   -11.7930     0.0000    16.0000 </r>
       <r>   -11.7002     0.0000    16.0000 </r>
       <r>   -11.6075     0.0000    16.0000 </r>
       <r>   -11.5147     0.0000    16.0000 </r>
       <r>   -11.4220     0.0000    16.0000 </r>
       <r>   -11.3292     0.0000    16.0000 </r>
       <r>   -11.2365     0.0000    16.0000 </r>
       <r>   -11.1438     0.0000    16.0000 </r>
       <r>   -11.0510     0.0000    16.0000 </r>
       <r>   -10.9583     0.0000    16.0000 </r>
       <r>   -10.8655     0.0000    16.0000 </r>
       <r>   -10.7728     0.0000    16.0000 </r>
       <r>   -10.6800     0.0000    16.0000 </r>
       <r>   -10.5873     0.0000    16.0000 </r>
       <r>   -10.4945     0.0000    16.0000 </r>
       <r>   -10.4018     0.0000    16.0000 </r>
       <r>   -10.3090     0.0000    16.0000 </r>
       <r>   -10.2163     0.0000    16.0000 </r>
       <r>   -10.1235     0.0000    16.0000 </r>
       <r>   -10.0308     0.0000    16.0000 </r>
       <r>    -9.9380     0.0000    16.0000 </r>
       <r>    -9.8453     0.0000    16.0000 </r>
       <r>    -9.7525     0.0000    16.0000 </r>
       <r>    -9.6598     0.0000    16.0000 </r>
       <r>    -9.5670     0.0000    16.0000 </r>
       <r>    -9.4743     0.0018    16.0002 </r>
       <r>    -9.3815     0.1193    16.0112 </r>
       <r>    -9.2888     1.6613    16.1653 </r>
       <r>    -9.1960     5.0953    16.6379 </r>
       <r>    -9.1033     4.5944    17.0640 </r>
       <r>    -9.0106     5.0483    17.5322 </r>
       <r>    -8.9178     4.1339    17.9156 </r>
       <r>    -8.8251     0.9458    18.0033 </r>
       <r>    -8.7323     0.9206    18.0887 </r>
       <r>    -8.6396     3.2591    18.3910 </r>
       <r>    -8.5468     7.1064    19.0501 </r>
       <r>    -8.4541    11.4234    20.1096 </r>
       <r>    -8.3613    11.1436    21.1431 </r>
       <r>    -8.2686     9.0267    21.9803 </r>
       <r>    -8.1758    10.0845    22.9157 </r>
       <r>    -8.0831    13.1712    24.1373 </r>
       <r>    -7.9903    17.3367    25.7452 </r>
       <r>    -7.8976    21.1187    27.7039 </r>
       <r>    -7.8048    21.4448    29.6929 </r>
       <r>    -7.7121    29.5090    32.4298 </r>
       <r>    -7.6193    37.4537    35.9035 </r>
       <r>    -7.5266    43.0568    39.8969 </r>
       <r>    -7.4338    48.1228    44.3602 </r>
       <r>    -7.3411    50.9539    49.0861 </r>
       <r>    -7.2483    55.8873    54.2695 </r>
       <r>    -7.1556    57.2542    59.5797 </r>
       <r>    -7.0628    56.1217    64.7849 </r>
       <r>    -6.9701    62.3376    70.5666 </r>
       <r>    -6.8774    64.8185    76.5783 </r>
       <r>    -6.7846    65.7964    82.6808 </r>
       <r>    -6.6919    72.4964    89.4047 </r>
       <r>    -6.5991    77.9963    96.6387 </r>
       <r>    -6.5064    81.4462   104.1926 </r>
       <r>    -6.4136    86.9016   112.2526 </r>
       <r>    -6.3209    90.0275   120.6024 </r>
       <r>    -6.2281    88.2985   128.7919 </r>
       <r>    -6.1354    86.7422   136.8371 </r>
       <r>    -6.0426    87.1617   144.9211 </r>
       <r>    -5.9499    86.3827   152.9329 </r>
       <r>    -5.8571    84.4340   160.7640 </r>
       <r>    -5.7644    85.2895   168.6744 </r>
       <r>    -5.6716    86.2343   176.6725 </r>
       <r>    -5.5789    85.6036   184.6120 </r>
       <r>    -5.4861    86.8007   192.6626 </r>
       <r>    -5.3934    89.2465   200.9400 </r>
       <r>    -5.3006    89.0669   209.2008 </r>
       <r>    -5.2079    88.9127   217.4472 </r>
       <r>    -5.1151    87.0957   225.5252 </r>
       <r>    -5.0224    90.7241   233.9396 </r>
       <r>    -4.9296    94.4877   242.7032 </r>
       <r>    -4.8369    89.4498   250.9994 </r>
       <r>    -4.7442    89.1078   259.2640 </r>
       <r>    -4.6514    92.1050   267.8065 </r>
       <r>    -4.5587    93.8965   276.5152 </r>
       <r>    -4.4659    92.6272   285.1062 </r>
       <r>    -4.3732    91.1435   293.5595 </r>
       <r>    -4.2804    89.7247   301.8813 </r>
       <r>    -4.1877    86.8724   309.9385 </r>
       <r>    -4.0949    91.8549   318.4579 </r>
       <r>    -4.0022    96.8655   327.4420 </r>
       <r>    -3.9094   101.0672   336.8157 </r>
       <r>    -3.8167   102.6412   346.3355 </r>
       <r>    -3.7239    99.6880   355.5813 </r>
       <r>    -3.6312    98.4416   364.7116 </r>
       <r>    -3.5384    95.2120   373.5423 </r>
       <r>    -3.4457    91.8084   382.0573 </r>
       <r>    -3.3529    91.1201   390.5085 </r>
       <r>    -3.2602    90.2815   398.8819 </r>
       <r>    -3.1674    84.6821   406.7360 </r>
       <r>    -3.0747    83.5032   414.4807 </r>
       <r>    -2.9819    85.6381   422.4235 </r>
       <r>    -2.8892    89.6415   430.7375 </r>
       <r>    -2.7964    92.2785   439.2961 </r>
       <r>    -2.7037    91.6538   447.7968 </r>
       <r>    -2.6110    90.6476   456.2042 </r>
       <r>    -2.5182    93.6825   464.8931 </r>
       <r>    -2.4255    96.9755   473.8873 </r>
       <r>    -2.3327    99.1272   483.0812 </r>
       <r>    -2.2400    98.6050   492.2266 </r>
       <r>    -2.1472    92.3775   500.7944 </r>
       <r>    -2.0545    93.0019   509.4201 </r>
       <r>    -1.9617    90.0737   517.7742 </r>
       <r>    -1.8690    78.5188   525.0567 </r>
       <r>    -1.7762    73.9266   531.9132 </r>
       <r>    -1.6835    69.9367   538.3997 </r>
       <r>    -1.5907    61.3167   544.0867 </r>
       <r>    -1.4980    52.0816   548.9171 </r>
       <r>    -1.4052    39.6129   552.5912 </r>
       <r>    -1.3125    27.3719   555.1298 </r>
       <r>    -1.2197    25.0348   557.4518 </r>
       <r>    -1.1270    28.5430   560.0991 </r>
       <r>    -1.0342    27.9736   562.6935 </r>
       <r>    -0.9415    27.7972   565.2717 </r>
       <r>    -0.8487    29.8756   568.0426 </r>
       <r>    -0.7560    32.5474   571.0613 </r>
       <r>    -0.6632    30.4558   573.8860 </r>
       <r>    -0.5705    25.3545   576.2376 </r>
       <r>    -0.4778    21.1155   578.1960 </r>
       <r>    -0.3850    16.8202   579.7560 </r>
       <r>    -0.2923    11.9148   580.8611 </r>
       <r>    -0.1995     9.4979   581.7420 </r>
       <r>    -0.1068    11.0864   582.7702 </r>
       <r>    -0.0140    12.4848   583.9282 </r>
       <r>     0.0787    12.3198   585.0708 </r>
       <r>     0.1715    14.8991   586.4527 </r>
       <r>     0.2642    22.0812   588.5006 </r>
       <r>     0.3570    24.6584   590.7877 </r>
       <r>     0.4497    22.5752   592.8815 </r>
       <r>     0.5425    20.9624   594.8257 </r>
       <r>     0.6352    16.8314   596.3867 </r>
       <r>     0.7280    14.0430   597.6892 </r>
       <r>     0.8207    11.2594   598.7335 </r>
       <r>     0.9135    13.0490   599.9437 </r>
       <r>     1.0062    12.0569   601.0620 </r>
       <r>     1.0990     7.9737   601.8015 </r>
       <r>     1.1917     7.0988   602.4599 </r>
       <r>     1.2845     9.1132   603.3052 </r>
       <r>     1.3772    15.1155   604.7071 </r>
       <r>     1.4700    18.8384   606.4543 </r>
       <r>     1.5627    18.3056   608.1521 </r>
       <r>     1.6554    17.0738   609.7357 </r>
       <r>     1.7482    15.3540   611.1597 </r>
       <r>     1.8409    14.5410   612.5084 </r>
       <r>     1.9337    16.7659   614.0634 </r>
       <r>     2.0264    19.6733   615.8880 </r>
       <r>     2.1192    17.5924   617.5197 </r>
       <r>     2.2119    11.1693   618.5556 </r>
       <r>     2.3047    10.1801   619.4998 </r>
       <r>     2.3974    11.5629   620.5722 </r>
       <r>     2.4902    10.9788   621.5905 </r>
       <r>     2.5829    12.2879   622.7302 </r>
       <r>     2.6757    13.9628   624.0252 </r>
       <r>     2.7684    14.0956   625.3325 </r>
       <r>     2.8612    15.7735   626.7955 </r>
       <r>     2.9539    15.5881   628.2413 </r>
       <r>     3.0467    15.0074   629.6332 </r>
       <r>     3.1394    16.5631   631.1694 </r>
       <r>     3.2322    16.6683   632.7153 </r>
       <r>     3.3249    14.6242   634.0717 </r>
       <r>     3.4177    13.0339   635.2805 </r>
       <r>     3.5104    13.4600   636.5289 </r>
       <r>     3.6032    12.1791   637.6585 </r>
       <r>     3.6959    12.9816   638.8625 </r>
       <r>     3.7886    16.8383   640.4242 </r>
       <r>     3.8814    17.5367   642.0507 </r>
       <r>     3.9741    18.5847   643.7744 </r>
       <r>     4.0669    20.8991   645.7128 </r>
       <r>     4.1596    21.4301   647.7004 </r>
       <r>     4.2524    18.0436   649.3739 </r>
       <r>     4.3451    19.9356   651.2228 </r>
       <r>     4.4379    24.2276   653.4699 </r>
       <r>     4.5306    23.7553   655.6732 </r>
       <r>     4.6234    25.2556   658.0156 </r>
       <r>     4.7161    26.3764   660.4619 </r>
       <r>     4.8089    25.6600   662.8418 </r>
       <r>     4.9016    25.2088   665.1799 </r>
       <r>     4.9944    28.3593   667.8101 </r>
       <r>     5.0871    27.2814   670.3404 </r>
       <r>     5.1799    14.8622   671.7189 </r>
       <r>     5.2726     2.8783   671.9858 </r>
       <r>     5.3654     0.1509   671.9998 </r>
       <r>     5.4581     0.0019   672.0000 </r>
       <r>     5.5509     0.0000   672.0000 </r>
       <r>     5.6436     0.0000   672.0000 </r>
       <r>     5.7364     0.0000   672.0000 </r>
       <r>     5.8291     0.0000   672.0000 </r>
       <r>     5.9218     0.0000   672.0000 </r>
       <r>     6.0146     0.0000   672.0000 </r>
       <r>     6.1073     0.0000   672.0000 </r>
       <r>     6.2001     0.0000   672.0000 </r>
       <r>     6.2928     0.0000   672.0000 </r>
       <r>     6.3856     0.0000   672.0000 </r>
      </set>
     </set>
    </array>
   </total>
  </dos>
 </calculation>
 <structure name="finalpos" >
  <crystal>
   <varray name="basis" >
    <v>      11.00258152       0.00000000       0.00000000 </v>
    <v>       5.50129076       9.52851510       0.00000000 </v>
    <v>       0.00000000       0.00000000      26.19178509 </v>
   </varray>
   <i name="volume">   2745.90128299 </i>
   <varray name="rec_basis" >
    <v>       0.09088776      -0.05247407       0.00000000 </v>
    <v>       0.00000000       0.10494815       0.00000000 </v>
    <v>       0.00000000       0.00000000       0.03817991 </v>
   </varray>
  </crystal>
  <varray name="positions" >
   <v>       0.08333333       0.08333333       0.38179910 </v>
   <v>       0.08333333       0.83333333       0.38179910 </v>
   <v>       0.66899426       0.91856806       0.47695969 </v>
   <v>      -0.01947462      -0.00180357       0.56412883 </v>
   <v>       0.83333333       0.83333333       0.38179910 </v>
   <v>       0.91621513       0.41682803       0.47612715 </v>
   <v>      -0.00119667       0.24628687       0.56400082 </v>
   <v>       0.83333333       0.33333333       0.38179910 </v>
   <v>       0.92046822       0.66418891       0.47448842 </v>
   <v>       0.67083291       0.16496995       0.49358203 </v>
   <v>       0.83333333       0.08333333       0.38179910 </v>
   <v>       0.41856980       0.91774746       0.47597104 </v>
   <v>       0.33333333       0.83333333       0.38179910 </v>
   <v>       0.47967942       0.51454213       0.57089301 </v>
   <v>       0.33333333       0.08333333       0.38179910 </v>
   <v>       0.41998008       0.66187331       0.47729789 </v>
   <v>       0.58333333       0.58333333       0.38179910 </v>
   <v>       0.58333333       0.33333333       0.38179910 </v>
   <v>       0.17103721       0.41202890       0.47196879 </v>
   <v>       0.49330829      -0.00395367       0.57221046 </v>
   <v>       0.33333333       0.58333333       0.38179910 </v>
   <v>       0.16641336       0.66673911       0.47698230 </v>
   <v>       0.58333333       0.08333333       0.38179910 </v>
   <v>       0.76530347       0.74599438       0.56408752 </v>
   <v>       0.83324219       0.81145504       0.62872521 </v>
   <v>       0.20010190       0.77294382       0.63866471 </v>
   <v>       0.12328595       0.55668689       0.62820275 </v>
   <v>       0.57446784       0.61460183       0.61520298 </v>
   <v>       0.86729396       0.49160863       0.63832910 </v>
   <v>       0.57321969       0.07868563       0.62632047 </v>
   <v>       0.56019329       0.34425129       0.62038647 </v>
   <v>       0.81320222       0.15622578       0.65115031 </v>
   <v>       0.48228400       0.24951671       0.58037031 </v>
   <v>       0.33333333       0.33333333       0.38179910 </v>
   <v>       0.42076314       0.41126545       0.48101230 </v>
   <v>       0.58333333       0.83333333       0.38179910 </v>
   <v>       0.24418334       0.24837424       0.56127474 </v>
   <v>       0.42125281       0.16624415       0.47663280 </v>
   <v>       0.23750710       0.50220863       0.56478965 </v>
   <v>       0.02850107       0.77229325       0.63079396 </v>
   <v>       0.49300852       0.76073394       0.56439895 </v>
   <v>       0.91621138       0.91689215       0.47477093 </v>
   <v>       0.16485701       0.91719130       0.47491107 </v>
   <v>       0.01685308       0.47570771       0.59817959 </v>
   <v>       0.78015890       0.00925318       0.63556759 </v>
   <v>       0.08333333       0.58333333       0.38179910 </v>
   <v>       0.67221779       0.41236498       0.48700507 </v>
   <v>       0.75283228       0.25642031       0.58535376 </v>
   <v>       0.83333333       0.58333333       0.38179910 </v>
   <v>       0.67028516       0.66415757       0.47630129 </v>
   <v>       0.75962844       0.49719392       0.57828500 </v>
   <v>       0.08333333       0.33333333       0.38179910 </v>
   <v>       0.91540454       0.16496723       0.47520046 </v>
   <v>       0.23774833       0.76061384       0.56688830 </v>
   <v>       0.23963676       0.00309931       0.56175843 </v>
   <v>       0.16675481       0.16540286       0.47175196 </v>
  </varray>
  <varray name="selective"  type="logical" >
   <v type="logical" >  F  F  F </v>
   <v type="logical" >  F  F  F </v>
   <v type="logical" >  T  T  T </v>
   <v type="logical" >  T  T  T </v>
   <v type="logical" >  F  F  F </v>
   <v type="logical" >  T  T  T </v>
   <v type="logical" >  T  T  T </v>
   <v type="logical" >  F  F  F </v>
   <v type="logical" >  T  T  T </v>
   <v type="logical" >  T  T  T </v>
   <v type="logical" >  F  F  F </v>
   <v type="logical" >  T  T  T </v>
   <v type="logical" >  F  F  F </v>
   <v type="logical" >  T  T  T </v>
   <v type="logical" >  F  F  F </v>
   <v type="logical" >  T  T  T </v>
   <v type="logical" >  F  F  F </v>
   <v type="logical" >  F  F  F </v>
   <v type="logical" >  T  T  T </v>
   <v type="logical" >  T  T  T </v>
   <v type="logical" >  F  F  F </v>
   <v type="logical" >  T  T  T </v>
   <v type="logical" >  F  F  F </v>
   <v type="logical" >  T  T  T </v>
   <v type="logical" >  T  T  T </v>
   <v type="logical" >  T  T  T </v>
   <v type="logical" >  T  T  T </v>
   <v type="logical" >  T  T  T </v>
   <v type="logical" >  T  T  T </v>
   <v type="logical" >  T  T  T </v>
   <v type="logical" >  T  T  T </v>
   <v type="logical" >  T  T  T </v>
   <v type="logical" >  T  T  T </v>
   <v type="logical" >  F  F  F </v>
   <v type="logical" >  T  T  T </v>
   <v type="logical" >  F  F  F </v>
   <v type="logical" >  T  T  T </v>
   <v type="logical" >  T  T  T </v>
   <v type="logical" >  T  T  T </v>
   <v type="logical" >  T  T  T </v>
   <v type="logical" >  T  T  T </v>
   <v type="logical" >  T  T  T </v>
   <v type="logical" >  T  T  T </v>
   <v type="logical" >  T  T  T </v>
   <v type="logical" >  T  T  T </v>
   <v type="logical" >  F  F  F </v>
   <v type="logical" >  T  T  T </v>
   <v type="logical" >  T  T  T </v>
   <v type="logical" >  F  F  F </v>
   <v type="logical" >  T  T  T </v>
   <v type="logical" >  T  T  T </v>
   <v type="logical" >  F  F  F </v>
   <v type="logical" >  T  T  T </v>
   <v type="logical" >  T  T  T </v>
   <v type="logical" >  T  T  T </v>
   <v type="logical" >  T  T  T </v>
  </varray>
  <nose>
   <v>      -3.00000000       0.00000000       0.00010000       0.00010000 </v>
  </nose>
 </structure>
</modeling>
