  48  48   0   0
  0.5349325E+02  0.1100258E-08  0.1100258E-08  0.2449179E-08  0.3500000E-15
  1.000000000000000E-004
  CAR 
 unknown system                          
      6.33419171     -9.90250600  301     -1.08656075      1.00000000
     -9.903  0.0000E+00  0.0000E+00
     -9.848  0.0000E+00  0.0000E+00
     -9.794  0.0000E+00  0.0000E+00
     -9.740  0.0000E+00  0.0000E+00
     -9.686  0.0000E+00  0.0000E+00
     -9.632  0.0000E+00  0.0000E+00
     -9.578  0.0000E+00  0.0000E+00
     -9.524  0.0000E+00  0.0000E+00
     -9.470  0.7522E-17  0.4071E-18
     -9.415  0.3088E-14  0.1675E-15
     -9.361  0.6882E-12  0.3742E-13
     -9.307  0.8695E-10  0.4743E-11
     -9.253  0.6244E-08  0.3427E-09
     -9.199  0.2557E-06  0.1418E-07
     -9.145  0.5990E-05  0.3384E-06
     -9.091  0.8051E-04  0.4695E-05
     -9.037  0.6229E-03  0.3841E-04
     -8.982  0.2785E-02  0.1891E-03
     -8.928  0.7240E-02  0.5810E-03
     -8.874  0.1122E-01  0.1188E-02
     -8.820  0.1151E-01  0.1811E-02
     -8.766  0.1064E-01  0.2387E-02
     -8.712  0.1108E-01  0.2987E-02
     -8.658  0.9899E-02  0.3522E-02
     -8.604  0.5961E-02  0.3845E-02
     -8.549  0.2258E-02  0.3967E-02
     -8.495  0.5496E-03  0.3997E-02
     -8.441  0.2754E-03  0.4012E-02
     -8.387  0.9469E-03  0.4063E-02
     -8.333  0.2611E-02  0.4205E-02
     -8.279  0.4766E-02  0.4463E-02
     -8.225  0.7087E-02  0.4846E-02
     -8.171  0.1023E-01  0.5400E-02
     -8.116  0.1377E-01  0.6145E-02
     -8.062  0.1633E-01  0.7030E-02
     -8.008  0.1719E-01  0.7960E-02
     -7.954  0.1675E-01  0.8867E-02
     -7.900  0.1602E-01  0.9734E-02
     -7.846  0.1467E-01  0.1053E-01
     -7.792  0.1190E-01  0.1117E-01
     -7.738  0.8835E-02  0.1165E-01
     -7.683  0.8018E-02  0.1208E-01
     -7.629  0.1203E-01  0.1274E-01
     -7.575  0.1941E-01  0.1379E-01
     -7.521  0.2251E-01  0.1500E-01
     -7.467  0.1806E-01  0.1598E-01
     -7.413  0.1305E-01  0.1669E-01
     -7.359  0.1457E-01  0.1748E-01
     -7.305  0.2279E-01  0.1871E-01
     -7.251  0.3249E-01  0.2047E-01
     -7.196  0.3899E-01  0.2258E-01
     -7.142  0.4427E-01  0.2498E-01
     -7.088  0.5175E-01  0.2778E-01
     -7.034  0.6139E-01  0.3110E-01
     -6.980  0.7346E-01  0.3507E-01
     -6.926  0.8403E-01  0.3962E-01
     -6.872  0.8597E-01  0.4427E-01
     -6.818  0.8099E-01  0.4866E-01
     -6.763  0.7481E-01  0.5271E-01
     -6.709  0.6832E-01  0.5640E-01
     -6.655  0.6285E-01  0.5981E-01
     -6.601  0.6420E-01  0.6328E-01
     -6.547  0.7630E-01  0.6741E-01
     -6.493  0.9224E-01  0.7240E-01
     -6.439  0.1041E+00  0.7804E-01
     -6.385  0.1139E+00  0.8420E-01
     -6.330  0.1228E+00  0.9085E-01
     -6.276  0.1267E+00  0.9771E-01
     -6.222  0.1271E+00  0.1046E+00
     -6.168  0.1300E+00  0.1116E+00
     -6.114  0.1376E+00  0.1191E+00
     -6.060  0.1457E+00  0.1270E+00
     -6.006  0.1503E+00  0.1351E+00
     -5.952  0.1523E+00  0.1433E+00
     -5.897  0.1504E+00  0.1515E+00
     -5.843  0.1426E+00  0.1592E+00
     -5.789  0.1313E+00  0.1663E+00
     -5.735  0.1237E+00  0.1730E+00
     -5.681  0.1264E+00  0.1798E+00
     -5.627  0.1370E+00  0.1872E+00
     -5.573  0.1472E+00  0.1952E+00
     -5.519  0.1546E+00  0.2036E+00
     -5.464  0.1609E+00  0.2123E+00
     -5.410  0.1649E+00  0.2212E+00
     -5.356  0.1633E+00  0.2301E+00
     -5.302  0.1567E+00  0.2385E+00
     -5.248  0.1528E+00  0.2468E+00
     -5.194  0.1566E+00  0.2553E+00
     -5.140  0.1644E+00  0.2642E+00
     -5.086  0.1711E+00  0.2734E+00
     -5.031  0.1744E+00  0.2829E+00
     -4.977  0.1747E+00  0.2923E+00
     -4.923  0.1733E+00  0.3017E+00
     -4.869  0.1704E+00  0.3109E+00
     -4.815  0.1675E+00  0.3200E+00
     -4.761  0.1662E+00  0.3290E+00
     -4.707  0.1681E+00  0.3381E+00
     -4.653  0.1746E+00  0.3475E+00
     -4.599  0.1824E+00  0.3574E+00
     -4.544  0.1860E+00  0.3675E+00
     -4.490  0.1871E+00  0.3776E+00
     -4.436  0.1872E+00  0.3877E+00
     -4.382  0.1829E+00  0.3976E+00
     -4.328  0.1756E+00  0.4071E+00
     -4.274  0.1715E+00  0.4164E+00
     -4.220  0.1743E+00  0.4259E+00
     -4.166  0.1806E+00  0.4356E+00
     -4.111  0.1828E+00  0.4455E+00
     -4.057  0.1789E+00  0.4552E+00
     -4.003  0.1746E+00  0.4647E+00
     -3.949  0.1755E+00  0.4742E+00
     -3.895  0.1840E+00  0.4841E+00
     -3.841  0.1964E+00  0.4947E+00
     -3.787  0.2066E+00  0.5059E+00
     -3.733  0.2109E+00  0.5173E+00
     -3.678  0.2108E+00  0.5288E+00
     -3.624  0.2125E+00  0.5403E+00
     -3.570  0.2191E+00  0.5521E+00
     -3.516  0.2259E+00  0.5643E+00
     -3.462  0.2280E+00  0.5767E+00
     -3.408  0.2245E+00  0.5888E+00
     -3.354  0.2158E+00  0.6005E+00
     -3.300  0.2043E+00  0.6116E+00
     -3.245  0.1959E+00  0.6222E+00
     -3.191  0.1941E+00  0.6327E+00
     -3.137  0.1936E+00  0.6431E+00
     -3.083  0.1890E+00  0.6534E+00
     -3.029  0.1846E+00  0.6634E+00
     -2.975  0.1846E+00  0.6734E+00
     -2.921  0.1862E+00  0.6834E+00
     -2.867  0.1872E+00  0.6936E+00
     -2.812  0.1872E+00  0.7037E+00
     -2.758  0.1862E+00  0.7138E+00
     -2.704  0.1874E+00  0.7239E+00
     -2.650  0.1914E+00  0.7343E+00
     -2.596  0.1939E+00  0.7448E+00
     -2.542  0.1944E+00  0.7553E+00
     -2.488  0.1964E+00  0.7659E+00
     -2.434  0.1981E+00  0.7766E+00
     -2.380  0.1935E+00  0.7871E+00
     -2.325  0.1826E+00  0.7970E+00
     -2.271  0.1714E+00  0.8063E+00
     -2.217  0.1622E+00  0.8151E+00
     -2.163  0.1543E+00  0.8234E+00
     -2.109  0.1513E+00  0.8316E+00
     -2.055  0.1566E+00  0.8401E+00
     -2.001  0.1648E+00  0.8490E+00
     -1.947  0.1700E+00  0.8582E+00
     -1.892  0.1729E+00  0.8675E+00
     -1.838  0.1734E+00  0.8769E+00
     -1.784  0.1716E+00  0.8862E+00
     -1.730  0.1726E+00  0.8955E+00
     -1.676  0.1796E+00  0.9053E+00
     -1.622  0.1872E+00  0.9154E+00
     -1.568  0.1895E+00  0.9257E+00
     -1.514  0.1890E+00  0.9359E+00
     -1.459  0.1913E+00  0.9462E+00
     -1.405  0.1964E+00  0.9569E+00
     -1.351  0.1993E+00  0.9676E+00
     -1.297  0.1942E+00  0.9782E+00
     -1.243  0.1782E+00  0.9878E+00
     -1.189  0.1538E+00  0.9961E+00
     -1.135  0.1273E+00  0.1003E+01
     -1.081  0.1022E+00  0.1009E+01
     -1.026  0.7807E-01  0.1013E+01
     -0.972  0.5541E-01  0.1016E+01
     -0.918  0.3805E-01  0.1018E+01
     -0.864  0.2875E-01  0.1019E+01
     -0.810  0.2608E-01  0.1021E+01
     -0.756  0.2698E-01  0.1022E+01
     -0.702  0.3065E-01  0.1024E+01
     -0.648  0.3679E-01  0.1026E+01
     -0.593  0.4121E-01  0.1028E+01
     -0.539  0.4023E-01  0.1030E+01
     -0.485  0.3686E-01  0.1032E+01
     -0.431  0.3419E-01  0.1034E+01
     -0.377  0.3152E-01  0.1036E+01
     -0.323  0.3200E-01  0.1038E+01
     -0.269  0.3773E-01  0.1040E+01
     -0.215  0.4241E-01  0.1042E+01
     -0.160  0.3927E-01  0.1044E+01
     -0.106  0.2821E-01  0.1046E+01
     -0.052  0.1616E-01  0.1046E+01
      0.002  0.1221E-01  0.1047E+01
      0.056  0.1941E-01  0.1048E+01
      0.110  0.3123E-01  0.1050E+01
      0.164  0.3750E-01  0.1052E+01
      0.218  0.3648E-01  0.1054E+01
      0.272  0.3503E-01  0.1056E+01
      0.327  0.3616E-01  0.1058E+01
      0.381  0.3763E-01  0.1060E+01
      0.435  0.3870E-01  0.1062E+01
      0.489  0.4052E-01  0.1064E+01
      0.543  0.4374E-01  0.1066E+01
      0.597  0.4641E-01  0.1069E+01
      0.651  0.4593E-01  0.1071E+01
      0.705  0.4313E-01  0.1074E+01
      0.760  0.3762E-01  0.1076E+01
      0.814  0.2852E-01  0.1077E+01
      0.868  0.2151E-01  0.1078E+01
      0.922  0.2154E-01  0.1080E+01
      0.976  0.2423E-01  0.1081E+01
      1.030  0.2436E-01  0.1082E+01
      1.084  0.2252E-01  0.1084E+01
      1.138  0.2060E-01  0.1085E+01
      1.193  0.1807E-01  0.1086E+01
      1.247  0.1449E-01  0.1086E+01
      1.301  0.1178E-01  0.1087E+01
      1.355  0.1127E-01  0.1088E+01
      1.409  0.1374E-01  0.1088E+01
      1.463  0.2108E-01  0.1090E+01
      1.517  0.3072E-01  0.1091E+01
      1.571  0.3502E-01  0.1093E+01
      1.626  0.3250E-01  0.1095E+01
      1.680  0.3034E-01  0.1096E+01
      1.734  0.3293E-01  0.1098E+01
      1.788  0.3714E-01  0.1100E+01
      1.842  0.3755E-01  0.1102E+01
      1.896  0.3233E-01  0.1104E+01
      1.950  0.2497E-01  0.1105E+01
      2.004  0.2134E-01  0.1107E+01
      2.059  0.2409E-01  0.1108E+01
      2.113  0.3066E-01  0.1110E+01
      2.167  0.3649E-01  0.1111E+01
      2.221  0.3875E-01  0.1114E+01
      2.275  0.3859E-01  0.1116E+01
      2.329  0.3850E-01  0.1118E+01
      2.383  0.3803E-01  0.1120E+01
      2.437  0.3588E-01  0.1122E+01
      2.492  0.3468E-01  0.1124E+01
      2.546  0.3822E-01  0.1126E+01
      2.600  0.4454E-01  0.1128E+01
      2.654  0.4669E-01  0.1131E+01
      2.708  0.4183E-01  0.1133E+01
      2.762  0.3435E-01  0.1135E+01
      2.816  0.2827E-01  0.1136E+01
      2.870  0.2295E-01  0.1138E+01
      2.924  0.1830E-01  0.1139E+01
      2.979  0.1427E-01  0.1139E+01
      3.033  0.1022E-01  0.1140E+01
      3.087  0.9515E-02  0.1140E+01
      3.141  0.1508E-01  0.1141E+01
      3.195  0.2299E-01  0.1142E+01
      3.249  0.2636E-01  0.1144E+01
      3.303  0.2315E-01  0.1145E+01
      3.357  0.1819E-01  0.1146E+01
      3.412  0.1836E-01  0.1147E+01
      3.466  0.2498E-01  0.1148E+01
      3.520  0.3350E-01  0.1150E+01
      3.574  0.3946E-01  0.1152E+01
      3.628  0.4019E-01  0.1155E+01
      3.682  0.3673E-01  0.1157E+01
      3.736  0.3324E-01  0.1158E+01
      3.790  0.3066E-01  0.1160E+01
      3.845  0.2711E-01  0.1161E+01
      3.899  0.2275E-01  0.1163E+01
      3.953  0.2110E-01  0.1164E+01
      4.007  0.2373E-01  0.1165E+01
      4.061  0.2684E-01  0.1167E+01
      4.115  0.2739E-01  0.1168E+01
      4.169  0.2550E-01  0.1169E+01
      4.223  0.2169E-01  0.1171E+01
      4.278  0.1697E-01  0.1172E+01
      4.332  0.1492E-01  0.1172E+01
      4.386  0.2007E-01  0.1173E+01
      4.440  0.3105E-01  0.1175E+01
      4.494  0.4270E-01  0.1177E+01
      4.548  0.5318E-01  0.1180E+01
      4.602  0.6154E-01  0.1184E+01
      4.656  0.6410E-01  0.1187E+01
      4.711  0.5937E-01  0.1190E+01
      4.765  0.5072E-01  0.1193E+01
      4.819  0.4283E-01  0.1195E+01
      4.873  0.4075E-01  0.1198E+01
      4.927  0.4617E-01  0.1200E+01
      4.981  0.5482E-01  0.1203E+01
      5.035  0.6201E-01  0.1206E+01
      5.089  0.6515E-01  0.1210E+01
      5.144  0.6255E-01  0.1213E+01
      5.198  0.5747E-01  0.1216E+01
      5.252  0.5274E-01  0.1219E+01
      5.306  0.4326E-01  0.1222E+01
      5.360  0.2733E-01  0.1223E+01
      5.414  0.1217E-01  0.1224E+01
      5.468  0.3612E-02  0.1224E+01
      5.522  0.6827E-03  0.1224E+01
      5.576  0.7947E-04  0.1224E+01
      5.631  0.5558E-05  0.1224E+01
      5.685  0.2296E-06  0.1224E+01
      5.739  0.5526E-08  0.1224E+01
      5.793  0.7676E-10  0.1224E+01
      5.847  0.6105E-12  0.1224E+01
      5.901  0.2764E-14  0.1224E+01
      5.955  0.6838E-17  0.1224E+01
      6.009  0.0000E+00  0.1224E+01
      6.064  0.0000E+00  0.1224E+01
      6.118  0.0000E+00  0.1224E+01
      6.172  0.0000E+00  0.1224E+01
      6.226  0.0000E+00  0.1224E+01
      6.280  0.0000E+00  0.1224E+01
      6.334  0.0000E+00  0.1224E+01
