       N       E                     dE             d eps       ncg     rms          rms(c)
DAV:   1     0.319991339926E+04    0.31999E+04   -0.18982E+05  3672   0.112E+03
DAV:   2     0.122134318244E+02   -0.31877E+04   -0.29275E+04  4392   0.263E+02
DAV:   3    -0.201658205385E+03   -0.21387E+03   -0.19942E+03  4152   0.650E+01
DAV:   4    -0.207379891461E+03   -0.57217E+01   -0.56483E+01  4236   0.107E+01
DAV:   5    -0.207570821057E+03   -0.19093E+00   -0.19027E+00  4416   0.201E+00    0.627E+01
RMM:   6    -0.222810048110E+03   -0.15239E+02   -0.12188E+02  3678   0.164E+01    0.703E+01
RMM:   7    -0.206098242548E+03    0.16712E+02   -0.49419E+01  3681   0.107E+01    0.499E+01
RMM:   8    -0.216514940191E+03   -0.10417E+02   -0.92888E+01  3678   0.146E+01    0.451E+01
RMM:   9    -0.223521749136E+03   -0.70068E+01   -0.65526E+01  3679   0.123E+01    0.495E+01
RMM:  10    -0.206248660378E+03    0.17273E+02   -0.30933E+01  3677   0.898E+00    0.313E+01
RMM:  11    -0.196988174304E+03    0.92605E+01   -0.17634E+01  3679   0.681E+00    0.182E+01
RMM:  12    -0.191199674570E+03    0.57885E+01   -0.12088E+01  3679   0.537E+00    0.157E+01
RMM:  13    -0.189104276215E+03    0.20954E+01   -0.41015E+00  3681   0.315E+00    0.984E+00
RMM:  14    -0.188631658118E+03    0.47262E+00   -0.98528E-01  3680   0.149E+00    0.817E+00
RMM:  15    -0.188478971911E+03    0.15269E+00   -0.61171E-01  3680   0.115E+00    0.745E+00
RMM:  16    -0.188283062964E+03    0.19591E+00   -0.36547E-01  3680   0.895E-01    0.631E+00
RMM:  17    -0.188103164834E+03    0.17990E+00   -0.41901E-01  3678   0.993E-01    0.428E+00
RMM:  18    -0.187995676798E+03    0.10749E+00   -0.36144E-01  3680   0.872E-01    0.362E+00
RMM:  19    -0.187844873531E+03    0.15080E+00   -0.11181E-01  3681   0.518E-01    0.119E+00
RMM:  20    -0.187843775209E+03    0.10983E-02   -0.25089E-02  3679   0.237E-01    0.115E+00
RMM:  21    -0.187835736405E+03    0.80388E-02   -0.39151E-03  3681   0.948E-02    0.898E-01
RMM:  22    -0.187832648236E+03    0.30882E-02   -0.49845E-03  3679   0.109E-01    0.764E-01
RMM:  23    -0.187826601173E+03    0.60471E-02   -0.70929E-03  3680   0.122E-01    0.463E-01
RMM:  24    -0.187825315821E+03    0.12854E-02   -0.13487E-03  3682   0.568E-02    0.268E-01
RMM:  25    -0.187824762223E+03    0.55360E-03   -0.89010E-04  3678   0.437E-02    0.179E-01
RMM:  26    -0.187824697037E+03    0.65186E-04   -0.40390E-04  3678   0.288E-02    0.113E-01
RMM:  27    -0.187824783177E+03   -0.86140E-04   -0.21969E-04  3679   0.219E-02    0.702E-02
RMM:  28    -0.187825119033E+03   -0.33586E-03   -0.10824E-04  3678   0.146E-02    0.492E-02
RMM:  29    -0.187825390272E+03   -0.27124E-03   -0.55208E-05  3672   0.108E-02    0.305E-02
RMM:  30    -0.187825859896E+03   -0.46962E-03   -0.35480E-05  3668   0.784E-03    0.257E-02
RMM:  31    -0.187826378838E+03   -0.51894E-03   -0.36375E-05  3656   0.776E-03    0.198E-02
RMM:  32    -0.187827021117E+03   -0.64228E-03   -0.39163E-05  3631   0.804E-03    0.181E-02
RMM:  33    -0.187827331822E+03   -0.31070E-03   -0.19793E-05  3253   0.584E-03    0.125E-02
RMM:  34    -0.187827595478E+03   -0.26366E-03   -0.16030E-05  3006   0.496E-03    0.961E-03
RMM:  35    -0.187827673716E+03   -0.78238E-04   -0.43921E-06  2603   0.255E-03    0.580E-03
RMM:  36    -0.187827761269E+03   -0.87553E-04   -0.27814E-06  2440   0.209E-03    0.312E-03
RMM:  37    -0.187827797451E+03   -0.36182E-04   -0.77315E-07  2162   0.117E-03    0.309E-03
RMM:  38    -0.187827840553E+03   -0.43102E-04   -0.78004E-07  2171   0.112E-03    0.200E-03
RMM:  39    -0.187827857124E+03   -0.16571E-04   -0.34866E-07  1650   0.716E-04    0.200E-03
RMM:  40    -0.187827867442E+03   -0.10318E-04   -0.26428E-07  1908   0.697E-04    0.151E-03
RMM:  41    -0.187827872795E+03   -0.53532E-05   -0.15613E-07  1289   0.492E-04    0.974E-04
RMM:  42    -0.187827874721E+03   -0.19253E-05   -0.57323E-08   932   0.395E-04    0.570E-04
RMM:  43    -0.187827876701E+03   -0.19806E-05   -0.56175E-08   983   0.402E-04    0.368E-04
RMM:  44    -0.187827877827E+03   -0.11259E-05   -0.23465E-08   660   0.345E-04    0.312E-04
RMM:  45    -0.187827879330E+03   -0.15033E-05   -0.33611E-08   736   0.367E-04    0.254E-04
RMM:  46    -0.187827879996E+03   -0.66537E-06   -0.12957E-08   540   0.352E-04
   1 F= -.18782788E+03 E0= -.18770092E+03  d E =-.187828E+03
       N       E                     dE             d eps       ncg     rms          rms(c)
DAV:   1    -0.189062920266E+03   -0.12350E+01   -0.43778E+02  3684   0.321E+01    0.434E+00
RMM:   2    -0.189510298677E+03   -0.44738E+00   -0.45489E+00  3677   0.462E+00    0.272E+00
RMM:   3    -0.189658732250E+03   -0.14843E+00   -0.46496E-01  3701   0.118E+00    0.438E+00
RMM:   4    -0.189498557523E+03    0.16017E+00   -0.23918E-01  3685   0.811E-01    0.170E+00
RMM:   5    -0.189571961724E+03   -0.73404E-01   -0.11279E-01  3685   0.506E-01    0.280E+00
RMM:   6    -0.189492467477E+03    0.79494E-01   -0.61151E-02  3680   0.372E-01    0.133E+00
RMM:   7    -0.189476044041E+03    0.16423E-01   -0.20709E-02  3680   0.229E-01    0.495E-01
RMM:   8    -0.189474386376E+03    0.16577E-02   -0.61007E-03  3681   0.122E-01    0.376E-01
RMM:   9    -0.189473136851E+03    0.12495E-02   -0.26891E-03  3684   0.811E-02    0.203E-01
RMM:  10    -0.189472842723E+03    0.29413E-03   -0.10256E-03  3684   0.506E-02    0.125E-01
RMM:  11    -0.189472724300E+03    0.11842E-03   -0.25859E-04  3687   0.257E-02    0.651E-02
RMM:  12    -0.189472714694E+03    0.96060E-05   -0.63890E-05  3686   0.129E-02    0.500E-02
RMM:  13    -0.189472707708E+03    0.69855E-05   -0.36973E-05  3674   0.978E-03    0.381E-02
RMM:  14    -0.189472698202E+03    0.95062E-05   -0.20369E-05  3670   0.727E-03    0.188E-02
RMM:  15    -0.189472695685E+03    0.25174E-05   -0.62674E-06  3059   0.401E-03    0.604E-03
RMM:  16    -0.189472696646E+03   -0.96091E-06   -0.14478E-06  2083   0.205E-03
   2 F= -.18947270E+03 E0= -.18934582E+03  d E =-.164482E+01
       N       E                     dE             d eps       ncg     rms          rms(c)
DAV:   1    -0.187440956769E+03    0.20317E+01   -0.41292E+03  3672   0.102E+02    0.101E+01
RMM:   2    -0.191500687895E+03   -0.40597E+01   -0.40846E+01  3678   0.139E+01    0.680E+00
RMM:   3    -0.192456125959E+03   -0.95544E+00   -0.33111E+00  3705   0.312E+00    0.118E+01
RMM:   4    -0.191355789749E+03    0.11003E+01   -0.13160E+00  3685   0.189E+00    0.513E+00
RMM:   5    -0.191771165160E+03   -0.41538E+00   -0.71109E-01  3684   0.126E+00    0.837E+00
RMM:   6    -0.191320351914E+03    0.45081E+00   -0.69724E-01  3681   0.130E+00    0.416E+00
RMM:   7    -0.191134835956E+03    0.18552E+00   -0.25680E-01  3681   0.811E-01    0.173E+00
RMM:   8    -0.191118125399E+03    0.16711E-01   -0.73699E-02  3683   0.420E-01    0.153E+00
RMM:   9    -0.191093226619E+03    0.24899E-01   -0.28895E-02  3682   0.268E-01    0.579E-01
RMM:  10    -0.191090911570E+03    0.23150E-02   -0.80577E-03  3681   0.140E-01    0.360E-01
RMM:  11    -0.191090067744E+03    0.84383E-03   -0.32518E-03  3684   0.891E-02    0.230E-01
RMM:  12    -0.191090012498E+03    0.55246E-04   -0.12329E-03  3682   0.560E-02    0.192E-01
RMM:  13    -0.191089737131E+03    0.27537E-03   -0.58559E-04  3680   0.392E-02    0.100E-01
RMM:  14    -0.191089685338E+03    0.51794E-04   -0.18792E-04  3680   0.218E-02    0.606E-02
RMM:  15    -0.191089663884E+03    0.21453E-04   -0.56740E-05  3678   0.123E-02    0.314E-02
RMM:  16    -0.191089659518E+03    0.43658E-05   -0.19356E-05  3657   0.709E-03    0.142E-02
RMM:  17    -0.191089664952E+03   -0.54338E-05   -0.41963E-06  2743   0.338E-03    0.981E-03
RMM:  18    -0.191089667898E+03   -0.29461E-05   -0.19181E-06  2250   0.240E-03    0.632E-03
RMM:  19    -0.191089672875E+03   -0.49767E-05   -0.64917E-07  2076   0.144E-03    0.249E-03
RMM:  20    -0.191089675344E+03   -0.24692E-05   -0.20740E-07  1788   0.778E-04    0.138E-03
RMM:  21    -0.191089680013E+03   -0.46684E-05   -0.13791E-07  1451   0.552E-04    0.108E-03
RMM:  22    -0.191089683636E+03   -0.36230E-05   -0.12437E-07  1350   0.505E-04    0.932E-04
RMM:  23    -0.191089689048E+03   -0.54126E-05   -0.23691E-07  1633   0.564E-04    0.674E-04
RMM:  24    -0.191089692220E+03   -0.31722E-05   -0.17305E-07  1275   0.479E-04    0.530E-04
RMM:  25    -0.191089694108E+03   -0.18879E-05   -0.13020E-07  1137   0.445E-04    0.365E-04
RMM:  26    -0.191089695192E+03   -0.10840E-05   -0.89136E-08   951   0.410E-04    0.282E-04
RMM:  27    -0.191089695766E+03   -0.57358E-06   -0.57144E-08   806   0.388E-04
   3 F= -.19108970E+03 E0= -.19096550E+03  d E =-.326182E+01
       N       E                     dE             d eps       ncg     rms          rms(c)
DAV:   1    -0.191277986498E+03   -0.18829E+00   -0.39647E+02  3672   0.308E+01    0.280E+00
RMM:   2    -0.191701960506E+03   -0.42397E+00   -0.45013E+00  3681   0.452E+00    0.172E+00
RMM:   3    -0.191792934076E+03   -0.90974E-01   -0.30199E-01  3717   0.956E-01    0.357E+00
RMM:   4    -0.191696238823E+03    0.96695E-01   -0.81787E-02  3684   0.478E-01    0.138E+00
RMM:   5    -0.191715221960E+03   -0.18983E-01   -0.53380E-02  3681   0.354E-01    0.181E+00
RMM:   6    -0.191685949692E+03    0.29272E-01   -0.56377E-02  3680   0.371E-01    0.879E-01
RMM:   7    -0.191678892572E+03    0.70571E-02   -0.16326E-02  3680   0.203E-01    0.437E-01
RMM:   8    -0.191676563567E+03    0.23290E-02   -0.46359E-03  3682   0.110E-01    0.227E-01
RMM:   9    -0.191676018574E+03    0.54499E-03   -0.14568E-03  3681   0.594E-02    0.136E-01
RMM:  10    -0.191675865699E+03    0.15288E-03   -0.36050E-04  3685   0.292E-02    0.752E-02
RMM:  11    -0.191675828139E+03    0.37559E-04   -0.15279E-04  3681   0.193E-02    0.529E-02
RMM:  12    -0.191675809415E+03    0.18724E-04   -0.66313E-05  3682   0.129E-02    0.269E-02
RMM:  13    -0.191675811298E+03   -0.18826E-05   -0.18538E-05  3669   0.696E-03    0.208E-02
RMM:  14    -0.191675809387E+03    0.19106E-05   -0.59296E-06  2978   0.409E-03    0.849E-03
RMM:  15    -0.191675810780E+03   -0.13927E-05   -0.16933E-06  2116   0.223E-03    0.585E-03
RMM:  16    -0.191675812457E+03   -0.16768E-05   -0.71754E-07  2027   0.152E-03    0.289E-03
RMM:  17    -0.191675813993E+03   -0.15363E-05   -0.29253E-07  1989   0.946E-04    0.228E-03
RMM:  18    -0.191675816823E+03   -0.28305E-05   -0.20521E-07  2043   0.743E-04    0.180E-03
RMM:  19    -0.191675818315E+03   -0.14913E-05   -0.73499E-08  1209   0.499E-04    0.130E-03
RMM:  20    -0.191675819811E+03   -0.14962E-05   -0.15435E-08   631   0.393E-04    0.805E-04
RMM:  21    -0.191675821940E+03   -0.21296E-05   -0.11046E-07  1328   0.486E-04    0.806E-04
RMM:  22    -0.191675824194E+03   -0.22537E-05   -0.13280E-07  1342   0.470E-04    0.496E-04
RMM:  23    -0.191675824945E+03   -0.75113E-06   -0.41080E-08   725   0.352E-04
   4 F= -.19167582E+03 E0= -.19155746E+03  d E =-.586129E+00
       N       E                     dE             d eps       ncg     rms          rms(c)
DAV:   1    -0.191595714871E+03    0.80109E-01   -0.17993E+02  3684   0.207E+01    0.172E+00
RMM:   2    -0.191793009993E+03   -0.19730E+00   -0.20756E+00  3681   0.307E+00    0.118E+00
RMM:   3    -0.191848065913E+03   -0.55056E-01   -0.15038E-01  3719   0.669E-01    0.266E+00
RMM:   4    -0.191788858327E+03    0.59208E-01   -0.38788E-02  3682   0.326E-01    0.922E-01
RMM:   5    -0.191788355653E+03    0.50267E-03   -0.16864E-02  3682   0.203E-01    0.889E-01
RMM:   6    -0.191782517754E+03    0.58379E-02   -0.26589E-02  3680   0.255E-01    0.509E-01
RMM:   7    -0.191780432395E+03    0.20854E-02   -0.72480E-03  3680   0.135E-01    0.296E-01
RMM:   8    -0.191779305464E+03    0.11269E-02   -0.20134E-03  3682   0.724E-02    0.150E-01
RMM:   9    -0.191779053115E+03    0.25235E-03   -0.62389E-04  3680   0.388E-02    0.872E-02
RMM:  10    -0.191778986867E+03    0.66248E-04   -0.16292E-04  3685   0.195E-02    0.489E-02
RMM:  11    -0.191778968654E+03    0.18214E-04   -0.75470E-05  3680   0.134E-02    0.330E-02
RMM:  12    -0.191778962443E+03    0.62102E-05   -0.33921E-05  3679   0.911E-03    0.176E-02
RMM:  13    -0.191778963641E+03   -0.11972E-05   -0.83067E-06  3318   0.472E-03    0.134E-02
RMM:  14    -0.191778963018E+03    0.62287E-06   -0.25005E-06  2348   0.278E-03
   5 F= -.19177896E+03 E0= -.19166379E+03  d E =-.689267E+00
       N       E                     dE             d eps       ncg     rms          rms(c)
DAV:   1    -0.191793304995E+03   -0.14341E-01   -0.38323E+01  3720   0.957E+00    0.801E-01
RMM:   2    -0.191832978922E+03   -0.39674E-01   -0.42553E-01  3681   0.138E+00    0.481E-01
RMM:   3    -0.191835367883E+03   -0.23890E-02   -0.23098E-02  3698   0.269E-01    0.613E-01
RMM:   4    -0.191833765688E+03    0.16022E-02   -0.60671E-03  3684   0.130E-01    0.490E-01
RMM:   5    -0.191834422117E+03   -0.65643E-03   -0.50179E-03  3683   0.108E-01    0.538E-01
RMM:   6    -0.191832041389E+03    0.23807E-02   -0.42162E-03  3680   0.103E-01    0.268E-01
RMM:   7    -0.191831415962E+03    0.62543E-03   -0.13024E-03  3680   0.579E-02    0.118E-01
RMM:   8    -0.191831274438E+03    0.14152E-03   -0.33591E-04  3681   0.294E-02    0.625E-02
RMM:   9    -0.191831222421E+03    0.52016E-04   -0.14401E-04  3680   0.190E-02    0.403E-02
RMM:  10    -0.191831202840E+03    0.19581E-04   -0.30478E-05  3681   0.851E-03    0.142E-02
RMM:  11    -0.191831202284E+03    0.55640E-06   -0.11843E-05  3672   0.533E-03    0.149E-02
RMM:  12    -0.191831200698E+03    0.15857E-05   -0.51618E-06  3141   0.361E-03    0.691E-03
RMM:  13    -0.191831200878E+03   -0.18004E-06   -0.16840E-06  2039   0.229E-03
   6 F= -.19183120E+03 E0= -.19171660E+03  d E =-.522379E-01
       N       E                     dE             d eps       ncg     rms          rms(c)
DAV:   1    -0.191831240919E+03   -0.40220E-04   -0.16294E+00  3744   0.197E+00    0.164E-01
RMM:   2    -0.191832921651E+03   -0.16807E-02   -0.18074E-02  3681   0.286E-01    0.997E-02
RMM:   3    -0.191833070579E+03   -0.14893E-03   -0.10123E-03  3697   0.562E-02    0.143E-01
RMM:   4    -0.191832949269E+03    0.12131E-03   -0.26260E-04  3685   0.267E-02    0.102E-01
RMM:   5    -0.191832946339E+03    0.29301E-05   -0.20899E-04  3681   0.223E-02    0.972E-02
RMM:   6    -0.191832876061E+03    0.70278E-04   -0.17996E-04  3680   0.215E-02    0.535E-02
RMM:   7    -0.191832852849E+03    0.23212E-04   -0.55971E-05  3678   0.120E-02    0.256E-02
RMM:   8    -0.191832846708E+03    0.61408E-05   -0.14483E-05  3667   0.614E-03    0.134E-02
RMM:   9    -0.191832844504E+03    0.22044E-05   -0.61869E-06  3369   0.398E-03    0.869E-03
RMM:  10    -0.191832843458E+03    0.10464E-05   -0.14390E-06  2050   0.200E-03    0.309E-03
RMM:  11    -0.191832843457E+03    0.34925E-09   -0.67491E-07  1942   0.147E-03
   7 F= -.19183284E+03 E0= -.19171836E+03  d E =-.538804E-01
       N       E                     dE             d eps       ncg     rms          rms(c)
DAV:   1    -0.191837850253E+03   -0.50068E-02   -0.69202E+00  3684   0.406E+00    0.240E-01
RMM:   2    -0.191845809402E+03   -0.79591E-02   -0.81318E-02  3680   0.603E-01    0.272E-01
RMM:   3    -0.191846053895E+03   -0.24449E-03   -0.56973E-03  3735   0.131E-01    0.289E-01
RMM:   4    -0.191845475523E+03    0.57837E-03   -0.86117E-04  3679   0.487E-02    0.192E-01
RMM:   5    -0.191845179862E+03    0.29566E-03   -0.24543E-04  3685   0.254E-02    0.119E-01
RMM:   6    -0.191845145547E+03    0.34315E-04   -0.73512E-04  3680   0.413E-02    0.124E-01
RMM:   7    -0.191845076008E+03    0.69540E-04   -0.67955E-04  3681   0.401E-02    0.842E-02
RMM:   8    -0.191845024465E+03    0.51543E-04   -0.13828E-04  3681   0.186E-02    0.351E-02
RMM:   9    -0.191845009575E+03    0.14890E-04   -0.23581E-05  3675   0.765E-03    0.285E-02
RMM:  10    -0.191844998506E+03    0.11069E-04   -0.15768E-05  3672   0.615E-03    0.167E-02
RMM:  11    -0.191844995320E+03    0.31854E-05   -0.10012E-05  3661   0.469E-03    0.110E-02
RMM:  12    -0.191844993822E+03    0.14985E-05   -0.89786E-06  3671   0.444E-03    0.407E-03
RMM:  13    -0.191844993977E+03   -0.15464E-06   -0.11150E-06  1957   0.176E-03
   8 F= -.19184499E+03 E0= -.19173016E+03  d E =-.121505E-01
       N       E                     dE             d eps       ncg     rms          rms(c)
DAV:   1    -0.191832536977E+03    0.12457E-01   -0.19868E+01  3672   0.688E+00    0.407E-01
RMM:   2    -0.191855431847E+03   -0.22895E-01   -0.23323E-01  3680   0.102E+00    0.457E-01
RMM:   3    -0.191856199928E+03   -0.76808E-03   -0.16322E-02  3732   0.222E-01    0.491E-01
RMM:   4    -0.191854513336E+03    0.16866E-02   -0.24707E-03  3679   0.825E-02    0.325E-01
RMM:   5    -0.191853641147E+03    0.87219E-03   -0.70568E-04  3685   0.431E-02    0.202E-01
RMM:   6    -0.191853476214E+03    0.16493E-03   -0.21416E-03  3680   0.705E-02    0.209E-01
RMM:   7    -0.191853275752E+03    0.20046E-03   -0.19401E-03  3681   0.679E-02    0.144E-01
RMM:   8    -0.191853114387E+03    0.16136E-03   -0.38642E-04  3681   0.312E-02    0.600E-02
RMM:   9    -0.191853074139E+03    0.40248E-04   -0.68283E-05  3680   0.130E-02    0.501E-02
RMM:  10    -0.191853039781E+03    0.34357E-04   -0.47488E-05  3677   0.107E-02    0.288E-02
RMM:  11    -0.191853030407E+03    0.93748E-05   -0.28373E-05  3673   0.790E-03    0.186E-02
RMM:  12    -0.191853026089E+03    0.43177E-05   -0.27366E-05  3678   0.774E-03    0.699E-03
RMM:  13    -0.191853026607E+03   -0.51860E-06   -0.34293E-06  2539   0.299E-03
   9 F= -.19185303E+03 E0= -.19173761E+03  d E =-.201832E-01
       N       E                     dE             d eps       ncg     rms          rms(c)
DAV:   1    -0.191855154576E+03   -0.21285E-02   -0.67091E+00  3672   0.399E+00    0.211E-01
RMM:   2    -0.191862987010E+03   -0.78324E-02   -0.77596E-02  3680   0.594E-01    0.308E-01
RMM:   3    -0.191862733035E+03    0.25397E-03   -0.53685E-03  3762   0.129E-01    0.238E-01
RMM:   4    -0.191862394597E+03    0.33844E-03   -0.58335E-04  3678   0.410E-02    0.171E-01
RMM:   5    -0.191862244778E+03    0.14982E-03   -0.24350E-04  3684   0.249E-02    0.150E-01
RMM:   6    -0.191862117448E+03    0.12733E-03   -0.77898E-04  3680   0.423E-02    0.143E-01
RMM:   7    -0.191862017822E+03    0.99626E-04   -0.85402E-04  3681   0.449E-02    0.832E-02
RMM:   8    -0.191861992317E+03    0.25505E-04   -0.18633E-04  3682   0.214E-02    0.451E-02
RMM:   9    -0.191861974216E+03    0.18101E-04   -0.23416E-05  3681   0.787E-03    0.379E-02
RMM:  10    -0.191861955176E+03    0.19039E-04   -0.22507E-05  3672   0.722E-03    0.242E-02
RMM:  11    -0.191861946817E+03    0.83588E-05   -0.21854E-05  3673   0.695E-03    0.134E-02
RMM:  12    -0.191861944935E+03    0.18821E-05   -0.16633E-05  3678   0.593E-03    0.429E-03
RMM:  13    -0.191861945408E+03   -0.47297E-06   -0.18424E-06  2019   0.225E-03
  10 F= -.19186195E+03 E0= -.19174621E+03  d E =-.891880E-02
       N       E                     dE             d eps       ncg     rms          rms(c)
DAV:   1    -0.191846650417E+03    0.15295E-01   -0.22820E+01  3672   0.736E+00    0.391E-01
RMM:   2    -0.191873507643E+03   -0.26857E-01   -0.26421E-01  3680   0.110E+00    0.570E-01
RMM:   3    -0.191872675157E+03    0.83249E-03   -0.18349E-02  3759   0.237E-01    0.441E-01
RMM:   4    -0.191871472133E+03    0.12030E-02   -0.20050E-03  3678   0.760E-02    0.315E-01
RMM:   5    -0.191870907510E+03    0.56462E-03   -0.83004E-04  3684   0.461E-02    0.275E-01
RMM:   6    -0.191870419375E+03    0.48813E-03   -0.26270E-03  3680   0.778E-02    0.262E-01
RMM:   7    -0.191870034130E+03    0.38524E-03   -0.28868E-03  3681   0.825E-02    0.153E-01
RMM:   8    -0.191869933149E+03    0.10098E-03   -0.61702E-04  3682   0.390E-02    0.822E-02
RMM:   9    -0.191869872744E+03    0.60406E-04   -0.79584E-05  3685   0.145E-02    0.693E-02
RMM:  10    -0.191869809524E+03    0.63219E-04   -0.75871E-05  3678   0.132E-02    0.441E-02
RMM:  11    -0.191869781835E+03    0.27690E-04   -0.72456E-05  3679   0.126E-02    0.244E-02
RMM:  12    -0.191869775116E+03    0.67186E-05   -0.55627E-05  3680   0.108E-02    0.792E-03
RMM:  13    -0.191869776270E+03   -0.11535E-05   -0.68859E-06  3330   0.404E-03    0.643E-03
RMM:  14    -0.191869776142E+03    0.12758E-06   -0.78801E-07  1980   0.167E-03
  11 F= -.19186978E+03 E0= -.19175342E+03  d E =-.167495E-01
       N       E                     dE             d eps       ncg     rms          rms(c)
DAV:   1    -0.191869205896E+03    0.57037E-03   -0.76758E-01  3732   0.135E+00    0.712E-02
RMM:   2    -0.191870091115E+03   -0.88522E-03   -0.88562E-03  3680   0.201E-01    0.103E-01
RMM:   3    -0.191870058941E+03    0.32173E-04   -0.61177E-04  3764   0.434E-02    0.797E-02
RMM:   4    -0.191870022078E+03    0.36863E-04   -0.65936E-05  3678   0.138E-02    0.577E-02
RMM:   5    -0.191870008288E+03    0.13790E-04   -0.27507E-05  3681   0.839E-03    0.510E-02
RMM:   6    -0.191869997903E+03    0.10385E-04   -0.89380E-05  3681   0.144E-02    0.477E-02
RMM:   7    -0.191869990588E+03    0.73145E-05   -0.96818E-05  3679   0.151E-02    0.283E-02
RMM:   8    -0.191869988658E+03    0.19304E-05   -0.21574E-05  3672   0.729E-03    0.153E-02
RMM:   9    -0.191869986617E+03    0.20405E-05   -0.25045E-06  2362   0.267E-03    0.128E-02
RMM:  10    -0.191869984556E+03    0.20611E-05   -0.24134E-06  2066   0.264E-03    0.852E-03
RMM:  11    -0.191869983644E+03    0.91251E-06   -0.29292E-06  2146   0.288E-03
  12 F= -.19186998E+03 E0= -.19175352E+03  d E =-.169570E-01
       N       E                     dE             d eps       ncg     rms          rms(c)
DAV:   1    -0.191868011888E+03    0.19727E-02   -0.90815E+00  3672   0.465E+00    0.260E-01
RMM:   2    -0.191878040247E+03   -0.10028E-01   -0.10086E-01  3680   0.684E-01    0.312E-01
RMM:   3    -0.191877974498E+03    0.65749E-04   -0.66280E-03  3735   0.144E-01    0.270E-01
RMM:   4    -0.191877557795E+03    0.41670E-03   -0.83002E-04  3677   0.494E-02    0.198E-01
RMM:   5    -0.191877517224E+03    0.40571E-04   -0.56450E-04  3682   0.366E-02    0.213E-01
RMM:   6    -0.191877210571E+03    0.30665E-03   -0.11294E-03  3680   0.517E-02    0.160E-01
RMM:   7    -0.191877079304E+03    0.13127E-03   -0.97550E-04  3683   0.486E-02    0.875E-02
RMM:   8    -0.191877043084E+03    0.36220E-04   -0.16618E-04  3683   0.206E-02    0.500E-02
RMM:   9    -0.191877018119E+03    0.24964E-04   -0.32637E-05  3675   0.925E-03    0.386E-02
RMM:  10    -0.191876997385E+03    0.20734E-04   -0.29395E-05  3678   0.823E-03    0.247E-02
RMM:  11    -0.191876988329E+03    0.90556E-05   -0.23788E-05  3675   0.735E-03    0.134E-02
RMM:  12    -0.191876986242E+03    0.20868E-05   -0.17114E-05  3676   0.604E-03    0.418E-03
RMM:  13    -0.191876986552E+03   -0.30929E-06   -0.19402E-06  2022   0.234E-03
  13 F= -.19187699E+03 E0= -.19176058E+03  d E =-.700291E-02
       N       E                     dE             d eps       ncg     rms          rms(c)
DAV:   1    -0.191875028681E+03    0.19576E-02   -0.36484E+00  3684   0.295E+00    0.164E-01
RMM:   2    -0.191879028367E+03   -0.39997E-02   -0.40429E-02  3680   0.433E-01    0.196E-01
RMM:   3    -0.191878987343E+03    0.41025E-04   -0.26404E-03  3734   0.909E-02    0.167E-01
RMM:   4    -0.191878829479E+03    0.15786E-03   -0.32432E-04  3678   0.310E-02    0.124E-01
RMM:   5    -0.191878828614E+03    0.86532E-06   -0.22337E-04  3682   0.230E-02    0.137E-01
RMM:   6    -0.191878706531E+03    0.12208E-03   -0.45639E-04  3680   0.329E-02    0.101E-01
RMM:   7    -0.191878658101E+03    0.48430E-04   -0.39624E-04  3683   0.309E-02    0.554E-02
RMM:   8    -0.191878645001E+03    0.13100E-04   -0.67088E-05  3682   0.131E-02    0.320E-02
RMM:   9    -0.191878634870E+03    0.10131E-04   -0.13047E-05  3665   0.585E-03    0.246E-02
RMM:  10    -0.191878626495E+03    0.83748E-05   -0.12016E-05  3672   0.526E-03    0.158E-02
RMM:  11    -0.191878622857E+03    0.36379E-05   -0.97577E-06  3672   0.471E-03    0.856E-03
RMM:  12    -0.191878622134E+03    0.72340E-06   -0.69905E-06  3630   0.387E-03
  14 F= -.19187862E+03 E0= -.19176225E+03  d E =-.863849E-02
       N       E                     dE             d eps       ncg     rms          rms(c)
DAV:   1    -0.191878574360E+03    0.48498E-04   -0.35421E+00  3684   0.291E+00    0.145E-01
RMM:   2    -0.191882323322E+03   -0.37490E-02   -0.37962E-02  3681   0.422E-01    0.169E-01
RMM:   3    -0.191882452735E+03   -0.12941E-03   -0.23555E-03  3720   0.851E-02    0.192E-01
RMM:   4    -0.191882132131E+03    0.32060E-03   -0.30543E-04  3673   0.298E-02    0.105E-01
RMM:   5    -0.191882068138E+03    0.63993E-04   -0.11107E-04  3685   0.171E-02    0.870E-02
RMM:   6    -0.191882050058E+03    0.18080E-04   -0.44052E-04  3680   0.325E-02    0.917E-02
RMM:   7    -0.191881986301E+03    0.63756E-04   -0.33163E-04  3682   0.281E-02    0.338E-02
RMM:   8    -0.191881987442E+03   -0.11409E-05   -0.33245E-05  3675   0.939E-03    0.289E-02
RMM:   9    -0.191881979344E+03    0.80984E-05   -0.92957E-06  3462   0.494E-03    0.190E-02
RMM:  10    -0.191881974749E+03    0.45948E-05   -0.71575E-06  3655   0.416E-03    0.129E-02
RMM:  11    -0.191881972513E+03    0.22358E-05   -0.64973E-06  3612   0.384E-03    0.711E-03
RMM:  12    -0.191881972130E+03    0.38281E-06   -0.57299E-06  3597   0.359E-03
  15 F= -.19188197E+03 E0= -.19176579E+03  d E =-.335000E-02
       N       E                     dE             d eps       ncg     rms          rms(c)
DAV:   1    -0.191880968952E+03    0.10036E-02   -0.18955E+00  3684   0.213E+00    0.105E-01
RMM:   2    -0.191882963512E+03   -0.19946E-02   -0.20272E-02  3681   0.309E-01    0.122E-01
RMM:   3    -0.191883029235E+03   -0.65723E-04   -0.12473E-03  3721   0.620E-02    0.139E-01
RMM:   4    -0.191882860498E+03    0.16874E-03   -0.15966E-04  3673   0.215E-02    0.765E-02
RMM:   5    -0.191882829716E+03    0.30782E-04   -0.58443E-05  3685   0.124E-02    0.640E-02
RMM:   6    -0.191882821923E+03    0.77933E-05   -0.24281E-04  3680   0.241E-02    0.668E-02
RMM:   7    -0.191882789559E+03    0.32364E-04   -0.17624E-04  3682   0.205E-02    0.250E-02
RMM:   8    -0.191882790138E+03   -0.57893E-06   -0.17544E-05  3668   0.683E-03    0.209E-02
RMM:   9    -0.191882785879E+03    0.42592E-05   -0.48060E-06  2861   0.359E-03    0.141E-02
RMM:  10    -0.191882783287E+03    0.25917E-05   -0.38080E-06  2530   0.321E-03    0.958E-03
RMM:  11    -0.191882782062E+03    0.12248E-05   -0.38110E-06  2424   0.328E-03    0.549E-03
RMM:  12    -0.191882781869E+03    0.19288E-06   -0.37103E-06  2248   0.324E-03
  16 F= -.19188278E+03 E0= -.19176675E+03  d E =-.415974E-02
       N       E                     dE             d eps       ncg     rms          rms(c)
DAV:   1    -0.191882176728E+03    0.60533E-03   -0.34905E+00  3672   0.288E+00    0.132E-01
RMM:   2    -0.191885982572E+03   -0.38058E-02   -0.37659E-02  3679   0.421E-01    0.188E-01
RMM:   3    -0.191885927949E+03    0.54623E-04   -0.24115E-03  3744   0.866E-02    0.156E-01
RMM:   4    -0.191885743826E+03    0.18412E-03   -0.27524E-04  3673   0.281E-02    0.115E-01
RMM:   5    -0.191885649988E+03    0.93838E-04   -0.75708E-05  3686   0.146E-02    0.894E-02
RMM:   6    -0.191885627050E+03    0.22938E-04   -0.49517E-04  3680   0.344E-02    0.973E-02
RMM:   7    -0.191885551738E+03    0.75313E-04   -0.39252E-04  3681   0.303E-02    0.392E-02
RMM:   8    -0.191885557352E+03   -0.56142E-05   -0.45090E-05  3682   0.107E-02    0.343E-02
RMM:   9    -0.191885547194E+03    0.10158E-04   -0.94348E-06  3501   0.508E-03    0.231E-02
RMM:  10    -0.191885541194E+03    0.60000E-05   -0.91170E-06  3657   0.467E-03    0.160E-02
RMM:  11    -0.191885537315E+03    0.38790E-05   -0.15271E-05  3675   0.583E-03    0.700E-03
RMM:  12    -0.191885537127E+03    0.18773E-06   -0.43278E-06  2746   0.323E-03
  17 F= -.19188554E+03 E0= -.19176968E+03  d E =-.275526E-02
       N       E                     dE             d eps       ncg     rms          rms(c)
DAV:   1    -0.191883491368E+03    0.20459E-02   -0.37388E+00  3672   0.298E+00    0.136E-01
RMM:   2    -0.191887562290E+03   -0.40709E-02   -0.40302E-02  3679   0.436E-01    0.193E-01
RMM:   3    -0.191887502395E+03    0.59895E-04   -0.25724E-03  3744   0.895E-02    0.160E-01
RMM:   4    -0.191887311615E+03    0.19078E-03   -0.29078E-04  3674   0.289E-02    0.119E-01
RMM:   5    -0.191887211605E+03    0.10001E-03   -0.79750E-05  3686   0.150E-02    0.929E-02
RMM:   6    -0.191887185421E+03    0.26184E-04   -0.52949E-04  3680   0.355E-02    0.100E-01
RMM:   7    -0.191887104682E+03    0.80739E-04   -0.42589E-04  3681   0.316E-02    0.407E-02
RMM:   8    -0.191887110889E+03   -0.62064E-05   -0.48705E-05  3682   0.111E-02    0.356E-02
RMM:   9    -0.191887100013E+03    0.10876E-04   -0.10129E-05  3547   0.527E-03    0.241E-02
RMM:  10    -0.191887093540E+03    0.64727E-05   -0.96367E-06  3665   0.480E-03    0.168E-02
RMM:  11    -0.191887089281E+03    0.42598E-05   -0.16417E-05  3675   0.604E-03    0.748E-03
RMM:  12    -0.191887089038E+03    0.24278E-06   -0.50271E-06  3062   0.342E-03
  18 F= -.19188709E+03 E0= -.19177142E+03  d E =-.430717E-02
       N       E                     dE             d eps       ncg     rms          rms(c)
DAV:   1    -0.191872037088E+03    0.15052E-01   -0.14958E+01  3672   0.597E+00    0.271E-01
RMM:   2    -0.191888378271E+03   -0.16341E-01   -0.16115E-01  3679   0.872E-01    0.381E-01
RMM:   3    -0.191888234524E+03    0.14375E-03   -0.10247E-02  3743   0.179E-01    0.318E-01
RMM:   4    -0.191887461823E+03    0.77270E-03   -0.11609E-03  3674   0.578E-02    0.238E-01
RMM:   5    -0.191887040870E+03    0.42095E-03   -0.31957E-04  3686   0.299E-02    0.185E-01
RMM:   6    -0.191886860523E+03    0.18035E-03   -0.20798E-03  3680   0.704E-02    0.198E-01
RMM:   7    -0.191886527512E+03    0.33301E-03   -0.16824E-03  3682   0.627E-02    0.808E-02
RMM:   8    -0.191886549814E+03   -0.22302E-04   -0.19616E-04  3684   0.223E-02    0.716E-02
RMM:   9    -0.191886505261E+03    0.44553E-04   -0.40741E-05  3680   0.105E-02    0.480E-02
RMM:  10    -0.191886479640E+03    0.25621E-04   -0.38753E-05  3678   0.958E-03    0.335E-02
RMM:  11    -0.191886462458E+03    0.17182E-04   -0.68202E-05  3676   0.123E-02    0.139E-02
RMM:  12    -0.191886461834E+03    0.62410E-06   -0.19358E-05  3672   0.658E-03    0.708E-03
RMM:  13    -0.191886462045E+03   -0.21072E-06   -0.24341E-06  2146   0.266E-03
  19 F= -.19188646E+03 E0= -.19177115E+03  d E =-.368018E-02
       N       E                     dE             d eps       ncg     rms          rms(c)
DAV:   1    -0.191881755791E+03    0.47060E-02   -0.58342E+00  3672   0.373E+00    0.171E-01
RMM:   2    -0.191888151594E+03   -0.63958E-02   -0.63294E-02  3679   0.546E-01    0.237E-01
RMM:   3    -0.191888095114E+03    0.56480E-04   -0.40671E-03  3742   0.113E-01    0.201E-01
RMM:   4    -0.191887795837E+03    0.29928E-03   -0.47009E-04  3674   0.367E-02    0.150E-01
RMM:   5    -0.191887631684E+03    0.16415E-03   -0.13054E-04  3686   0.191E-02    0.114E-01
RMM:   6    -0.191887592819E+03    0.38865E-04   -0.78243E-04  3680   0.432E-02    0.123E-01
RMM:   7    -0.191887475260E+03    0.11756E-03   -0.63298E-04  3681   0.385E-02    0.501E-02
RMM:   8    -0.191887485503E+03   -0.10243E-04   -0.74936E-05  3683   0.138E-02    0.437E-02
RMM:   9    -0.191887469347E+03    0.16156E-04   -0.15362E-05  3661   0.648E-03    0.293E-02
RMM:  10    -0.191887460042E+03    0.93052E-05   -0.14094E-05  3672   0.579E-03    0.205E-02
RMM:  11    -0.191887453634E+03    0.64086E-05   -0.25319E-05  3677   0.750E-03    0.891E-03
RMM:  12    -0.191887453091E+03    0.54255E-06   -0.74547E-06  3612   0.409E-03
  20 F= -.19188745E+03 E0= -.19177192E+03  d E =-.467122E-02
       N       E                     dE             d eps       ncg     rms          rms(c)
DAV:   1    -0.191884742463E+03    0.27112E-02   -0.52388E+00  3672   0.353E+00    0.164E-01
RMM:   2    -0.191890588976E+03   -0.58465E-02   -0.58058E-02  3679   0.520E-01    0.229E-01
RMM:   3    -0.191890441537E+03    0.14744E-03   -0.38034E-03  3761   0.109E-01    0.171E-01
RMM:   4    -0.191890275817E+03    0.16572E-03   -0.39626E-04  3674   0.339E-02    0.150E-01
RMM:   5    -0.191890120445E+03    0.15537E-03   -0.10327E-04  3688   0.169E-02    0.112E-01
RMM:   6    -0.191890077741E+03    0.42704E-04   -0.70761E-04  3680   0.409E-02    0.124E-01
RMM:   7    -0.191889951687E+03    0.12605E-03   -0.61040E-04  3681   0.378E-02    0.494E-02
RMM:   8    -0.191889967450E+03   -0.15763E-04   -0.82515E-05  3682   0.143E-02    0.451E-02
RMM:   9    -0.191889951599E+03    0.15851E-04   -0.14850E-05  3637   0.637E-03    0.308E-02
RMM:  10    -0.191889939643E+03    0.11956E-04   -0.18036E-05  3672   0.650E-03    0.209E-02
RMM:  11    -0.191889932863E+03    0.67804E-05   -0.26932E-05  3677   0.770E-03    0.830E-03
RMM:  12    -0.191889932828E+03    0.34983E-07   -0.72184E-06  3564   0.401E-03
  21 F= -.19188993E+03 E0= -.19177438E+03  d E =-.247974E-02
       N       E                     dE             d eps       ncg     rms          rms(c)
DAV:   1    -0.191885780799E+03    0.41521E-02   -0.50956E+00  3672   0.348E+00    0.160E-01
RMM:   2    -0.191891458819E+03   -0.56780E-02   -0.56304E-02  3679   0.513E-01    0.228E-01
RMM:   3    -0.191891290914E+03    0.16791E-03   -0.36732E-03  3763   0.107E-01    0.167E-01
RMM:   4    -0.191891132310E+03    0.15860E-03   -0.37121E-04  3675   0.329E-02    0.147E-01
RMM:   5    -0.191890989240E+03    0.14307E-03   -0.94229E-05  3688   0.162E-02    0.112E-01
RMM:   6    -0.191890943219E+03    0.46021E-04   -0.72555E-04  3679   0.413E-02    0.123E-01
RMM:   7    -0.191890816318E+03    0.12690E-03   -0.61489E-04  3682   0.379E-02    0.491E-02
RMM:   8    -0.191890832235E+03   -0.15917E-04   -0.80447E-05  3682   0.141E-02    0.449E-02
RMM:   9    -0.191890816574E+03    0.15661E-04   -0.14653E-05  3635   0.632E-03    0.314E-02
RMM:  10    -0.191890804433E+03    0.12141E-04   -0.17632E-05  3672   0.643E-03    0.213E-02
RMM:  11    -0.191890797584E+03    0.68492E-05   -0.26405E-05  3678   0.763E-03    0.919E-03
RMM:  12    -0.191890797379E+03    0.20496E-06   -0.83034E-06  3619   0.428E-03
  22 F= -.19189080E+03 E0= -.19177522E+03  d E =-.334429E-02
       N       E                     dE             d eps       ncg     rms          rms(c)
DAV:   1    -0.191888947533E+03    0.18501E-02   -0.33849E+00  3672   0.283E+00    0.140E-01
RMM:   2    -0.191892736350E+03   -0.37888E-02   -0.38567E-02  3679   0.420E-01    0.174E-01
RMM:   3    -0.191892678214E+03    0.58137E-04   -0.25286E-03  3746   0.888E-02    0.144E-01
RMM:   4    -0.191892548984E+03    0.12923E-03   -0.26011E-04  3675   0.280E-02    0.113E-01
RMM:   5    -0.191892481844E+03    0.67140E-04   -0.82420E-05  3688   0.146E-02    0.933E-02
RMM:   6    -0.191892452033E+03    0.29811E-04   -0.43449E-04  3680   0.317E-02    0.965E-02
RMM:   7    -0.191892380463E+03    0.71571E-04   -0.39011E-04  3681   0.303E-02    0.376E-02
RMM:   8    -0.191892388566E+03   -0.81027E-05   -0.45625E-05  3683   0.108E-02    0.327E-02
RMM:   9    -0.191892377612E+03    0.10954E-04   -0.10688E-05  3557   0.528E-03    0.223E-02
RMM:  10    -0.191892370372E+03    0.72404E-05   -0.12888E-05  3672   0.544E-03    0.141E-02
RMM:  11    -0.191892367783E+03    0.25887E-05   -0.10969E-05  3672   0.492E-03    0.746E-03
RMM:  12    -0.191892367607E+03    0.17611E-06   -0.37529E-06  2568   0.300E-03
  23 F= -.19189237E+03 E0= -.19177666E+03  d E =-.157023E-02
       N       E                     dE             d eps       ncg     rms          rms(c)
DAV:   1    -0.191892114349E+03    0.25343E-03   -0.42810E-01  3708   0.101E+00    0.497E-02
RMM:   2    -0.191892590917E+03   -0.47657E-03   -0.48653E-03  3679   0.150E-01    0.627E-02
RMM:   3    -0.191892580815E+03    0.10101E-04   -0.31843E-04  3747   0.315E-02    0.527E-02
RMM:   4    -0.191892563984E+03    0.16831E-04   -0.32687E-05  3675   0.987E-03    0.406E-02
RMM:   5    -0.191892555910E+03    0.80743E-05   -0.10209E-05  3641   0.519E-03    0.331E-02
RMM:   6    -0.191892555743E+03    0.16650E-06   -0.57595E-05  3681   0.115E-02    0.347E-02
RMM:   7    -0.191892547926E+03    0.78171E-05   -0.50514E-05  3677   0.109E-02    0.137E-02
RMM:   8    -0.191892549017E+03   -0.10907E-05   -0.56295E-06  2966   0.387E-03    0.116E-02
RMM:   9    -0.191892547686E+03    0.13312E-05   -0.14418E-06  1988   0.214E-03    0.815E-03
RMM:  10    -0.191892546631E+03    0.10544E-05   -0.15890E-06  1946   0.211E-03    0.525E-03
RMM:  11    -0.191892546314E+03    0.31714E-06   -0.14604E-06  1932   0.208E-03
  24 F= -.19189255E+03 E0= -.19177679E+03  d E =-.174894E-02
       N       E                     dE             d eps       ncg     rms          rms(c)
DAV:   1    -0.191891711765E+03    0.83487E-03   -0.17593E+00  3672   0.204E+00    0.108E-01
RMM:   2    -0.191893697525E+03   -0.19858E-02   -0.19887E-02  3679   0.302E-01    0.138E-01
RMM:   3    -0.191893686732E+03    0.10793E-04   -0.13516E-03  3732   0.648E-02    0.125E-01
RMM:   4    -0.191893579080E+03    0.10765E-03   -0.15735E-04  3675   0.215E-02    0.822E-02
RMM:   5    -0.191893543791E+03    0.35289E-04   -0.62577E-05  3684   0.126E-02    0.709E-02
RMM:   6    -0.191893524421E+03    0.19370E-04   -0.19706E-04  3680   0.216E-02    0.660E-02
RMM:   7    -0.191893497643E+03    0.26778E-04   -0.21281E-04  3681   0.225E-02    0.258E-02
RMM:   8    -0.191893498436E+03   -0.79285E-06   -0.19153E-05  3672   0.713E-03    0.223E-02
RMM:   9    -0.191893493080E+03    0.53559E-05   -0.49762E-06  2912   0.370E-03    0.144E-02
RMM:  10    -0.191893490859E+03    0.22202E-05   -0.39711E-06  2694   0.318E-03    0.108E-02
RMM:  11    -0.191893489093E+03    0.17662E-05   -0.54330E-06  3310   0.369E-03    0.452E-03
RMM:  12    -0.191893489029E+03    0.64421E-07   -0.19215E-06  1951   0.231E-03
  25 F= -.19189349E+03 E0= -.19177768E+03  d E =-.942715E-03
       N       E                     dE             d eps       ncg     rms          rms(c)
DAV:   1    -0.191893358498E+03    0.13060E-03   -0.25677E-01  3708   0.781E-01    0.414E-02
RMM:   2    -0.191893648123E+03   -0.28963E-03   -0.28959E-03  3679   0.116E-01    0.539E-02
RMM:   3    -0.191893643481E+03    0.46424E-05   -0.19731E-04  3735   0.248E-02    0.478E-02
RMM:   4    -0.191893627972E+03    0.15509E-04   -0.22663E-05  3673   0.815E-03    0.316E-02
RMM:   5    -0.191893623527E+03    0.44453E-05   -0.90903E-06  3582   0.482E-03    0.273E-02
RMM:   6    -0.191893622386E+03    0.11413E-05   -0.29764E-05  3679   0.841E-03    0.257E-02
RMM:   7    -0.191893619111E+03    0.32749E-05   -0.32087E-05  3672   0.875E-03    0.992E-03
RMM:   8    -0.191893619292E+03   -0.18130E-06   -0.24848E-06  2283   0.272E-03
  26 F= -.19189362E+03 E0= -.19177777E+03  d E =-.107298E-02
       N       E                     dE             d eps       ncg     rms          rms(c)
DAV:   1    -0.191892459352E+03    0.11598E-02   -0.10261E+00  3672   0.156E+00    0.854E-02
RMM:   2    -0.191893619008E+03   -0.11597E-02   -0.11711E-02  3679   0.231E-01    0.103E-01
RMM:   3    -0.191893623804E+03   -0.47964E-05   -0.80353E-04  3728   0.499E-02    0.988E-02
RMM:   4    -0.191893558492E+03    0.65312E-04   -0.98855E-05  3675   0.170E-02    0.632E-02
RMM:   5    -0.191893538114E+03    0.20378E-04   -0.38672E-05  3683   0.985E-03    0.531E-02
RMM:   6    -0.191893528790E+03    0.93237E-05   -0.10626E-04  3679   0.159E-02    0.479E-02
RMM:   7    -0.191893516570E+03    0.12220E-04   -0.11202E-04  3680   0.164E-02    0.192E-02
RMM:   8    -0.191893517076E+03   -0.50566E-06   -0.10677E-05  3591   0.533E-03    0.159E-02
RMM:   9    -0.191893514346E+03    0.27297E-05   -0.26519E-06  2354   0.276E-03    0.105E-02
RMM:  10    -0.191893513097E+03    0.12490E-05   -0.21377E-06  2035   0.246E-03    0.806E-03
RMM:  11    -0.191893512141E+03    0.95645E-06   -0.26815E-06  2008   0.281E-03
  27 F= -.19189351E+03 E0= -.19177762E+03  d E =-.965826E-03
       N       E                     dE             d eps       ncg     rms          rms(c)
DAV:   1    -0.191893101770E+03    0.41133E-03   -0.53631E-01  3684   0.113E+00    0.597E-02
RMM:   2    -0.191893697016E+03   -0.59525E-03   -0.60318E-03  3679   0.166E-01    0.736E-02
RMM:   3    -0.191893692181E+03    0.48350E-05   -0.40698E-04  3733   0.356E-02    0.669E-02
RMM:   4    -0.191893661582E+03    0.30599E-04   -0.47194E-05  3674   0.118E-02    0.449E-02
RMM:   5    -0.191893652979E+03    0.86035E-05   -0.19177E-05  3677   0.694E-03    0.399E-02
RMM:   6    -0.191893648125E+03    0.48542E-05   -0.58857E-05  3680   0.118E-02    0.365E-02
RMM:   7    -0.191893639590E+03    0.85352E-05   -0.63469E-05  3673   0.123E-02    0.139E-02
RMM:   8    -0.191893639596E+03   -0.66575E-08   -0.53964E-06  2974   0.386E-03
  28 F= -.19189364E+03 E0= -.19177779E+03  d E =-.109328E-02
       N       E                     dE             d eps       ncg     rms          rms(c)
DAV:   1    -0.191892565635E+03    0.10740E-02   -0.16412E+00  3672   0.197E+00    0.954E-02
RMM:   2    -0.191894355649E+03   -0.17900E-02   -0.17948E-02  3679   0.290E-01    0.126E-01
RMM:   3    -0.191894324916E+03    0.30733E-04   -0.11579E-03  3748   0.605E-02    0.106E-01
RMM:   4    -0.191894242698E+03    0.82218E-04   -0.11558E-04  3674   0.187E-02    0.744E-02
RMM:   5    -0.191894226926E+03    0.15772E-04   -0.48381E-05  3683   0.111E-02    0.735E-02
RMM:   6    -0.191894194458E+03    0.32467E-04   -0.20266E-04  3679   0.219E-02    0.642E-02
RMM:   7    -0.191894171213E+03    0.23246E-04   -0.21777E-04  3679   0.227E-02    0.265E-02
RMM:   8    -0.191894173455E+03   -0.22428E-05   -0.20899E-05  3672   0.734E-03    0.245E-02
RMM:   9    -0.191894167648E+03    0.58079E-05   -0.47238E-06  2838   0.363E-03    0.155E-02
RMM:  10    -0.191894164883E+03    0.27644E-05   -0.49288E-06  3063   0.352E-03    0.115E-02
RMM:  11    -0.191894162702E+03    0.21811E-05   -0.77484E-06  3660   0.427E-03    0.416E-03
RMM:  12    -0.191894162726E+03   -0.24047E-07   -0.18139E-06  1956   0.220E-03
  29 F= -.19189416E+03 E0= -.19177826E+03  d E =-.523130E-03
