unknown system                          
           1
    11.002582    0.000000    0.000000
     5.501291    9.528515    0.000000
     0.000000    0.000000   24.491785
   Au   Pd
  24  24
Direct configuration=     1
   0.08333333  0.08333333  0.40830017
   0.83333333  0.83333333  0.40830017
   0.66666667  0.16666667  0.50000000
   0.83333333  0.08333333  0.40830017
   0.50000000  0.75000000  0.59169983
   0.41666667  0.91666667  0.50000000
   0.50000000  0.50000000  0.59169983
   0.50000000  0.25000000  0.59169983
   0.41666667  0.41666667  0.50000000
   0.58333333  0.33333333  0.40830017
   0.50000000  0.00000000  0.59169983
   0.41666667  0.16666667  0.50000000
   0.66666667  0.91666667  0.50000000
   0.25000000  0.50000000  0.59169983
   0.25000000  0.25000000  0.59169983
   0.25000000  0.75000000  0.59169983
   0.75000000  0.75000000  0.59169983
   0.91666667  0.91666667  0.50000000
   0.00000000  0.75000000  0.59169983
   0.33333333  0.08333333  0.40830017
   0.00000000  0.25000000  0.59169983
   0.91666667  0.16666667  0.50000000
   0.25000000  0.00000000  0.59169983
   0.16666667  0.16666667  0.50000000
   0.66666667  0.66666667  0.50000000
   0.83333333  0.58333333  0.40830017
   0.75000000  0.50000000  0.59169983
   0.91666667  0.41666667  0.50000000
   0.66666667  0.41666667  0.50000000
   0.83333333  0.33333333  0.40830017
   0.75000000  0.00000000  0.59169983
   0.00000000  0.00000000  0.59169983
   0.08333333  0.33333333  0.40830017
   0.75000000  0.25000000  0.59169983
   0.16666667  0.41666667  0.50000000
   0.08333333  0.58333333  0.40830017
   0.33333333  0.33333333  0.40830017
   0.58333333  0.58333333  0.40830017
   0.91666667  0.66666667  0.50000000
   0.00000000  0.50000000  0.59169983
   0.08333333  0.83333333  0.40830017
   0.58333333  0.08333333  0.40830017
   0.16666667  0.91666667  0.50000000
   0.33333333  0.83333333  0.40830017
   0.16666667  0.66666667  0.50000000
   0.33333333  0.58333333  0.40830017
   0.58333333  0.83333333  0.40830017
   0.41666667  0.66666667  0.50000000
Direct configuration=     2
   0.08359507  0.08281263  0.40606408
   0.83371443  0.83181550  0.40615012
   0.66716023  0.16688615  0.50035960
   0.83336956  0.08338728  0.40567035
   0.50110146  0.74859407  0.59362961
   0.41713423  0.91386000  0.49910565
   0.50196939  0.49951689  0.59354522
   0.50159260  0.24927337  0.59432332
   0.41499169  0.41902422  0.49908158
   0.58288187  0.33443780  0.40612165
   0.50089770 -0.00004544  0.59436540
   0.41607946  0.16798909  0.49909794
   0.66735396  0.91537767  0.49956090
   0.24855992  0.50040438  0.59358784
   0.24887660  0.25139785  0.59401211
   0.24917832  0.75080916  0.59327586
   0.75104731  0.74864988  0.59357317
   0.91893103  0.91518612  0.50037704
  -0.00041999  0.75016155  0.59351953
   0.33398663  0.08340480  0.40581541
  -0.00181643  0.25141811  0.59383992
   0.91587080  0.16813169  0.50039243
   0.24886435 -0.00032645  0.59396585
   0.16509049  0.16862338  0.49952354
   0.66763325  0.66482191  0.49945233
   0.83342924  0.58268168  0.40767354
   0.75046309  0.49968239  0.59233544
   0.91573665  0.41840073  0.49969940
   0.66736764  0.41809446  0.49995113
   0.83322128  0.33469267  0.40728001
   0.75040442  0.00045012  0.59315189
  -0.00045343  0.00017868  0.59291859
   0.08253432  0.33477744  0.40734905
   0.75012472  0.25003011  0.59286721
   0.16477291  0.41830861  0.49938196
   0.08386329  0.58274210  0.40761272
   0.33229384  0.33416817  0.40712619
   0.58354258  0.58370982  0.40767502
   0.91771853  0.66428554  0.49972733
  -0.00054762  0.49998422  0.59243072
   0.08474525  0.83200767  0.40729502
   0.58277451  0.08344406  0.40683543
   0.16710967  0.91504079  0.49978109
   0.33363070  0.83196817  0.40739329
   0.16663702  0.66667976  0.49922915
   0.33260635  0.58419208  0.40748930
   0.58358251  0.83224037  0.40719709
   0.41679861  0.66662874  0.49918897
Direct configuration=     3
   0.08438027  0.08125054  0.39935582
   0.83485770  0.82726201  0.39969998
   0.66864093  0.16754461  0.50143839
   0.83347824  0.08354913  0.39778089
   0.50440582  0.74437629  0.59941896
   0.41853692  0.90543999  0.49642259
   0.50787755  0.49806756  0.59908140
   0.50637039  0.24709348  0.60219378
   0.40996678  0.42609689  0.49632631
   0.58152746  0.33775118  0.39958610
   0.50359080 -0.00018174  0.60236211
   0.41431786  0.17195635  0.49639177
   0.66941584  0.91151067  0.49824362
   0.24423969  0.50161750  0.59925187
   0.24550639  0.25559139  0.60094894
   0.24671328  0.75323665  0.59800395
   0.75418923  0.74459950  0.59919317
   0.92572413  0.91074446  0.50150817
  -0.00167998  0.75064622  0.59897863
   0.33594653  0.08361918  0.39836112
  -0.00726574  0.25567246  0.60026020
   0.91348320  0.17252677  0.50156971
   0.24545738 -0.00130580  0.60076389
   0.16036194  0.17449353  0.49809417
   0.67053300  0.65928765  0.49780934
   0.83371697  0.58072674  0.40579365
   0.75185238  0.49872957  0.59424228
   0.91294659  0.42360291  0.49879758
   0.66947058  0.42237785  0.49980451
   0.83288511  0.33877067  0.40421951
   0.75161769  0.00180048  0.59750805
  -0.00181372  0.00071472  0.59657489
   0.08013727  0.33910977  0.40449568
   0.75049889  0.25012046  0.59636936
   0.15909164  0.42323446  0.49752785
   0.08545317  0.58096838  0.40555038
   0.32917535  0.33667268  0.40360425
   0.58417033  0.58483929  0.40579957
   0.92087414  0.65714217  0.49890933
  -0.00219049  0.49993687  0.59462339
   0.08898098  0.82803066  0.40427958
   0.58109805  0.08377625  0.40244123
   0.16843870  0.91016315  0.49912437
   0.33452280  0.82787267  0.40467264
   0.16654809  0.66671904  0.49691660
   0.33042539  0.58676831  0.40505668
   0.58433004  0.82896147  0.40388785
   0.41719443  0.66651497  0.49675588
Direct configuration=     4
   0.08452655  0.08142796  0.39773070
   0.83540068  0.82768782  0.39800956
   0.66750939  0.16816464  0.50095736
   0.83342403  0.08309673  0.39605203
   0.50365269  0.74650241  0.60069971
   0.41748770  0.90963119  0.49734748
   0.50561112  0.49756765  0.60023642
   0.50425472  0.24890885  0.60398073
   0.41246280  0.42381700  0.49732260
   0.58201647  0.33736290  0.39788072
   0.50237634 -0.00039991  0.60376661
   0.41393942  0.17079507  0.49709705
   0.66982900  0.91130152  0.49858219
   0.24655553  0.50144699  0.60042044
   0.24687866  0.25320179  0.60235189
   0.24810687  0.75068856  0.59911806
   0.75323273  0.74593858  0.60047958
   0.92305075  0.91152593  0.50100390
  -0.00213300  0.75074631  0.60057828
   0.33502878  0.08324241  0.39621191
  -0.00594212  0.25470929  0.60216783
   0.91499575  0.17146312  0.50104236
   0.24638638  0.00063960  0.60193485
   0.16230442  0.17214305  0.49835606
   0.66979866  0.66179975  0.49857623
   0.83372991  0.58111155  0.40425452
   0.75233777  0.49891176  0.59505800
   0.91396558  0.42135961  0.49919973
   0.66730493  0.42133478  0.49971162
   0.83349930  0.33742397  0.40315988
   0.75230888  0.00047183  0.59830020
  -0.00267057  0.00186859  0.59760514
   0.08022457  0.33814611  0.40293227
   0.75079571  0.24978869  0.59760565
   0.16136288  0.42160414  0.49831898
   0.08507804  0.58169548  0.40391141
   0.32900025  0.33706748  0.40181975
   0.58412001  0.58437796  0.40432903
   0.91914020  0.66095713  0.49924387
  -0.00233166  0.49978441  0.59529435
   0.08704362  0.82923638  0.40280646
   0.58259315  0.08365634  0.40132471
   0.16843899  0.91289752  0.49937873
   0.33401624  0.82858565  0.40269145
   0.16605544  0.66645018  0.49798162
   0.33088529  0.58634292  0.40291531
   0.58456270  0.82901545  0.40234077
   0.41778447  0.66450286  0.49791200
Direct configuration=     5
   0.08462519  0.08154760  0.39663478
   0.83576684  0.82797497  0.39686962
   0.66674634  0.16858276  0.50063297
   0.83338747  0.08279166  0.39488616
   0.50314481  0.74793618  0.60156339
   0.41678016  0.91245754  0.49797118
   0.50408274  0.49723053  0.60101532
   0.50282800  0.25013305  0.60518576
   0.41414601  0.42227955  0.49799446
   0.58234623  0.33710106  0.39673069
   0.50155736 -0.00054703  0.60471374
   0.41368422  0.17001195  0.49757266
   0.67010762  0.91116047  0.49881051
   0.24811722  0.50133200  0.60120847
   0.24780405  0.25159034  0.60329798
   0.24904665  0.74897024  0.59986937
   0.75258771  0.74684160  0.60134708
   0.92124794  0.91205292  0.50066384
  -0.00243850  0.75081381  0.60165702
   0.33440988  0.08298833  0.39476257
  -0.00504953  0.25405977  0.60345425
   0.91601575  0.17074584  0.50068674
   0.24701285  0.00195149  0.60272449
   0.16361434  0.17055799  0.49853266
   0.66930346  0.66349381  0.49909338
   0.83373863  0.58137105  0.40321659
   0.75266510  0.49903463  0.59560808
   0.91465273  0.41984682  0.49947092
   0.66584451  0.42063138  0.49964899
   0.83391349  0.33651581  0.40244530
   0.75277499 -0.00042415  0.59883440
  -0.00324839  0.00264670  0.59829990
   0.08028345  0.33749625  0.40187798
   0.75099587  0.24956496  0.59843935
   0.16289450  0.42050473  0.49885248
   0.08482506  0.58218581  0.40280616
   0.32888216  0.33733371  0.40061637
   0.58408608  0.58406686  0.40333736
   0.91797091  0.66352978  0.49946946
  -0.00242686  0.49968160  0.59574683
   0.08573714  0.83004947  0.40181305
   0.58360138  0.08357548  0.40057178
   0.16843919  0.91474145  0.49955026
   0.33367464  0.82906646  0.40135542
   0.16572322  0.66626888  0.49869982
   0.33119542  0.58605606  0.40147126
   0.58471960  0.82905186  0.40129749
   0.41818236  0.66314599  0.49869163
Direct configuration=     6
   0.08426913  0.08171871  0.39628461
   0.83530609  0.82872472  0.39649424
   0.66665253  0.16804518  0.50043355
   0.83359198  0.08280018  0.39454422
   0.50217275  0.74813554  0.60169964
   0.41676706  0.91314484  0.49806970
   0.50434837  0.49789274  0.60123489
   0.50268059  0.24894404  0.60556534
   0.41426927  0.42043232  0.49798356
   0.58244675  0.33651260  0.39636557
   0.50176097  0.00014895  0.60499330
   0.41443584  0.16911035  0.49773074
   0.66849260  0.91313025  0.49887003
   0.24798527  0.50023167  0.60141313
   0.24834124  0.25190809  0.60355056
   0.24896735  0.75055843  0.59989736
   0.75181381  0.74778000  0.60165579
   0.92061456  0.91373335  0.50028514
  -0.00165055  0.75050156  0.60200706
   0.33482621  0.08287915  0.39426376
  -0.00424602  0.25335473  0.60393424
   0.91599535  0.16963281  0.50040644
   0.24709279  0.00106167  0.60279547
   0.16449753  0.16986436  0.49856743
   0.66847198  0.66395922  0.49936053
   0.83381492  0.58140535  0.40310803
   0.75143483  0.49927753  0.59565642
   0.91513528  0.41944014  0.49945568
   0.66605893  0.41993624  0.49954104
   0.83416377  0.33547891  0.40232556
   0.75130413  0.00023426  0.59859551
  -0.00202854  0.00195602  0.59812697
   0.08092981  0.33670500  0.40173238
   0.75057708  0.24955512  0.59839059
   0.16354438  0.42000384  0.49904779
   0.08478176  0.58209047  0.40268291
   0.32966946  0.33666385  0.40052486
   0.58388948  0.58412712  0.40320405
   0.91831337  0.66342373  0.49948646
  -0.00121536  0.49940167  0.59570505
   0.08518543  0.83067950  0.40176458
   0.58338434  0.08358615  0.40068543
   0.16824800  0.91489481  0.49963071
   0.33385792  0.82951955  0.40135348
   0.16600703  0.66648421  0.49900312
   0.33135841  0.58568824  0.40132827
   0.58425951  0.82988978  0.40120703
   0.41742258  0.66535300  0.49903778
Direct configuration=     7
   0.08419569  0.08175400  0.39621239
   0.83521106  0.82887935  0.39641682
   0.66663318  0.16793431  0.50039242
   0.83363416  0.08280194  0.39447370
   0.50197227  0.74817666  0.60172774
   0.41676436  0.91328659  0.49809002
   0.50440316  0.49802931  0.60128018
   0.50265019  0.24869881  0.60564362
   0.41429469  0.42005135  0.49798131
   0.58246748  0.33639124  0.39629027
   0.50180297  0.00029249  0.60505096
   0.41459085  0.16892440  0.49776334
   0.66815952  0.91353650  0.49888231
   0.24795805  0.50000474  0.60145534
   0.24845203  0.25197363  0.60360266
   0.24895100  0.75088598  0.59990314
   0.75165420  0.74797354  0.60171946
   0.92048394  0.91407992  0.50020704
  -0.00148805  0.75043717  0.60207925
   0.33491207  0.08285664  0.39416089
  -0.00408030  0.25320933  0.60403323
   0.91599114  0.16940326  0.50034863
   0.24710928  0.00087815  0.60281011
   0.16467968  0.16972131  0.49857460
   0.66830050  0.66405520  0.49941563
   0.83383066  0.58141242  0.40308564
   0.75118110  0.49932762  0.59566639
   0.91523480  0.41935627  0.49945253
   0.66610315  0.41979288  0.49951878
   0.83421539  0.33526507  0.40230087
   0.75100079  0.00037005  0.59854624
  -0.00177696  0.00181358  0.59809130
   0.08106312  0.33654181  0.40170235
   0.75049071  0.24955309  0.59838054
   0.16367841  0.41990054  0.49908807
   0.08477283  0.58207081  0.40265749
   0.32983184  0.33652570  0.40050599
   0.58384894  0.58413955  0.40317655
   0.91838400  0.66340186  0.49948997
  -0.00096550  0.49934394  0.59569643
   0.08507165  0.83080944  0.40175458
   0.58333958  0.08358835  0.40070887
   0.16820857  0.91492644  0.49964731
   0.33389573  0.82961300  0.40135308
   0.16606556  0.66652862  0.49906567
   0.33139202  0.58561238  0.40129878
   0.58416462  0.83006259  0.40118838
   0.41726589  0.66580818  0.49910917
Direct configuration=     8
   0.08434170  0.08175090  0.39602018
   0.83480550  0.82918586  0.39626444
   0.66659525  0.16805514  0.50026903
   0.83354405  0.08287573  0.39416638
   0.50177025  0.74856649  0.60181438
   0.41665252  0.91352703  0.49807515
   0.50408942  0.49799361  0.60128818
   0.50287142  0.24868515  0.60590270
   0.41417410  0.42023802  0.49790372
   0.58249645  0.33612133  0.39607837
   0.50147651  0.00032764  0.60530988
   0.41456637  0.16862660  0.49782716
   0.66802507  0.91372422  0.49889312
   0.24835457  0.50003837  0.60152962
   0.24852291  0.25158607  0.60376326
   0.24876713  0.75096862  0.59988532
   0.75161650  0.74799692  0.60181084
   0.92041139  0.91414800  0.49998201
  -0.00131265  0.75064111  0.60214092
   0.33503906  0.08291197  0.39382535
  -0.00400157  0.25316906  0.60422475
   0.91608182  0.16936957  0.50020498
   0.24743296  0.00093158  0.60282843
   0.16470714  0.16961482  0.49857916
   0.66814722  0.66410144  0.49952540
   0.83379931  0.58135655  0.40326302
   0.75114160  0.49930383  0.59555762
   0.91541932  0.41908685  0.49942720
   0.66604756  0.41967638  0.49936685
   0.83418421  0.33492073  0.40231187
   0.75089953  0.00049621  0.59820624
  -0.00171806  0.00157389  0.59782962
   0.08159858  0.33607573  0.40178773
   0.75035443  0.24939749  0.59814514
   0.16382704  0.41963423  0.49906041
   0.08482503  0.58190695  0.40281064
   0.33030684  0.33601988  0.40060886
   0.58381332  0.58416379  0.40333077
   0.91828900  0.66366050  0.49946799
  -0.00107679  0.49940075  0.59556388
   0.08520667  0.83079926  0.40188935
   0.58317155  0.08363207  0.40080909
   0.16811307  0.91491384  0.49955008
   0.33390793  0.82986731  0.40157997
   0.16641746  0.66667310  0.49919358
   0.33141869  0.58555258  0.40158401
   0.58403416  0.83041098  0.40131818
   0.41684449  0.66632183  0.49922513
Direct configuration=     9
   0.08458906  0.08174565  0.39569454
   0.83411839  0.82970517  0.39600629
   0.66653098  0.16825986  0.50005997
   0.83339137  0.08300075  0.39364571
   0.50142799  0.74922693  0.60196117
   0.41646303  0.91393438  0.49804997
   0.50355788  0.49793313  0.60130175
   0.50324622  0.24866201  0.60634163
   0.41396981  0.42055427  0.49777226
   0.58254552  0.33566404  0.39571938
   0.50092343  0.00038717  0.60574856
   0.41452490  0.16812205  0.49793527
   0.66779728  0.91404225  0.49891145
   0.24902635  0.50009535  0.60165548
   0.24864301  0.25092948  0.60403534
   0.24845562  0.75110862  0.59985513
   0.75155265  0.74803653  0.60196567
   0.92028847  0.91426335  0.49960077
  -0.00101550  0.75098664  0.60224541
   0.33525419  0.08300571  0.39325687
  -0.00386818  0.25310084  0.60454920
   0.91623545  0.16931251  0.49996162
   0.24798133  0.00102209  0.60285946
   0.16475365  0.16943441  0.49858688
   0.66788754  0.66417978  0.49971138
   0.83374620  0.58126189  0.40356355
   0.75107467  0.49926352  0.59537336
   0.91573193  0.41863040  0.49938429
   0.66595337  0.41947901  0.49910944
   0.83413139  0.33433735  0.40233052
   0.75072798  0.00070996  0.59763021
  -0.00161825  0.00116781  0.59738629
   0.08250576  0.33528610  0.40193239
   0.75012354  0.24913387  0.59774632
   0.16407886  0.41918305  0.49901355
   0.08491347  0.58162934  0.40307012
   0.33111160  0.33516291  0.40078314
   0.58375297  0.58420487  0.40359205
   0.91812804  0.66409869  0.49943076
  -0.00126534  0.49949701  0.59533930
   0.08543543  0.83078202  0.40211767
   0.58288688  0.08370613  0.40097888
   0.16795127  0.91489248  0.49938535
   0.33392861  0.83029817  0.40196437
   0.16701364  0.66691787  0.49941030
   0.33146387  0.58545126  0.40206725
   0.58381314  0.83100122  0.40153809
   0.41613055  0.66719205  0.49942160
Direct configuration=    10
   0.08473288  0.08168719  0.39546966
   0.83407787  0.82962686  0.39586110
   0.66627971  0.16855203  0.49986999
   0.83344889  0.08286083  0.39324897
   0.50149211  0.74909397  0.60206069
   0.41636007  0.91406055  0.49807192
   0.50357383  0.49805153  0.60125263
   0.50324452  0.24859100  0.60662051
   0.41406117  0.42058029  0.49776368
   0.58249658  0.33565472  0.39549074
   0.50105176  0.00040934  0.60607336
   0.41444536  0.16823603  0.49807380
   0.66795121  0.91380979  0.49896414
   0.24905127  0.49988966  0.60170899
   0.24857684  0.25122829  0.60420341
   0.24852415  0.75124150  0.59989115
   0.75168317  0.74806829  0.60203134
   0.92026837  0.91409142  0.49932429
  -0.00120118  0.75101794  0.60224508
   0.33531290  0.08298895  0.39288181
  -0.00408280  0.25306696  0.60469591
   0.91633541  0.16937143  0.49982569
   0.24778897  0.00105613  0.60288082
   0.16465222  0.16930726  0.49860254
   0.66786438  0.66416589  0.49983883
   0.83378597  0.58111986  0.40379175
   0.75097642  0.49918269  0.59523250
   0.91572960  0.41860333  0.49936566
   0.66573002  0.41965652  0.49897797
   0.83417948  0.33425328  0.40231142
   0.75076815  0.00052972  0.59727727
  -0.00166714  0.00136422  0.59708518
   0.08272339  0.33506577  0.40201314
   0.75022669  0.24912789  0.59745288
   0.16409495  0.41919357  0.49904876
   0.08492608  0.58156889  0.40330059
   0.33132358  0.33496388  0.40088895
   0.58374533  0.58418126  0.40379169
   0.91811309  0.66424771  0.49943679
  -0.00121805  0.49956632  0.59515760
   0.08546980  0.83069918  0.40221502
   0.58288499  0.08372777  0.40103345
   0.16779188  0.91518757  0.49931817
   0.33398547  0.83041337  0.40214639
   0.16689929  0.66698785  0.49956453
   0.33152968  0.58543669  0.40235198
   0.58378819  0.83102897  0.40169398
   0.41622344  0.66718583  0.49959325
Direct configuration=    11
   0.08499809  0.08157940  0.39505496
   0.83400317  0.82948245  0.39559336
   0.66581637  0.16909081  0.49951965
   0.83355495  0.08260280  0.39251735
   0.50161036  0.74884877  0.60224421
   0.41617022  0.91429321  0.49811238
   0.50360323  0.49826988  0.60116206
   0.50324137  0.24846006  0.60713478
   0.41422965  0.42062828  0.49774786
   0.58240634  0.33563752  0.39506912
   0.50128843  0.00045021  0.60667233
   0.41429870  0.16844621  0.49832927
   0.66823507  0.91338111  0.49906132
   0.24909723  0.49951036  0.60180768
   0.24845483  0.25177931  0.60451335
   0.24865052  0.75148654  0.59995758
   0.75192387  0.74812686  0.60215242
   0.92023131  0.91377435  0.49881444
  -0.00154359  0.75107567  0.60224446
   0.33542116  0.08295805  0.39219016
  -0.00447857  0.25300449  0.60496644
   0.91651975  0.16948008  0.49957502
   0.24743424  0.00111889  0.60292020
   0.16446516  0.16907279  0.49863142
   0.66782168  0.66414028  0.50007386
   0.83385932  0.58085795  0.40421258
   0.75079523  0.49903363  0.59497275
   0.91572531  0.41855340  0.49933132
   0.66531814  0.41998386  0.49873551
   0.83426817  0.33409826  0.40227619
   0.75084224  0.00019734  0.59662643
  -0.00175730  0.00172640  0.59652990
   0.08312470  0.33465947  0.40216206
   0.75041690  0.24911686  0.59691175
   0.16412463  0.41921296  0.49911371
   0.08494935  0.58145741  0.40372558
   0.33171449  0.33459684  0.40108406
   0.58373123  0.58413774  0.40415985
   0.91808553  0.66452252  0.49944792
  -0.00113084  0.49969415  0.59482253
   0.08553318  0.83054642  0.40239454
   0.58288152  0.08376767  0.40113409
   0.16749795  0.91573172  0.49919427
   0.33409033  0.83062581  0.40248204
   0.16668843  0.66711688  0.49984896
   0.33165104  0.58540982  0.40287703
   0.58374219  0.83108014  0.40198144
   0.41639474  0.66717437  0.49990977
Direct configuration=    12
   0.08504673  0.08155963  0.39497890
   0.83398947  0.82945597  0.39554426
   0.66573139  0.16918962  0.49945540
   0.83357441  0.08255548  0.39238317
   0.50163205  0.74880380  0.60227787
   0.41613540  0.91433588  0.49811981
   0.50360862  0.49830992  0.60114545
   0.50324079  0.24843605  0.60722910
   0.41426054  0.42063708  0.49774496
   0.58238979  0.33563436  0.39499180
   0.50133184  0.00045771  0.60678218
   0.41427180  0.16848476  0.49837612
   0.66828713  0.91330248  0.49907914
   0.24910566  0.49944079  0.60182577
   0.24843246  0.25188038  0.60457019
   0.24867370  0.75153148  0.59996977
   0.75196801  0.74813761  0.60217463
   0.92022451  0.91371620  0.49872093
  -0.00160639  0.75108626  0.60224434
   0.33544101  0.08295238  0.39206331
  -0.00455116  0.25299303  0.60501606
   0.91655355  0.16950000  0.49952905
   0.24736918  0.00113040  0.60292742
   0.16443085  0.16902978  0.49863672
   0.66781385  0.66413558  0.50011697
   0.83387278  0.58080992  0.40428976
   0.75076200  0.49900629  0.59492511
   0.91572453  0.41854424  0.49932502
   0.66524260  0.42004390  0.49869105
   0.83428444  0.33406983  0.40226973
   0.75085582  0.00013638  0.59650706
  -0.00177383  0.00179283  0.59642806
   0.08319831  0.33458495  0.40218938
   0.75045178  0.24911483  0.59681250
   0.16413008  0.41921652  0.49912562
   0.08495362  0.58143697  0.40380353
   0.33178619  0.33452952  0.40111984
   0.58372865  0.58412976  0.40422737
   0.91808047  0.66457292  0.49944996
  -0.00111485  0.49971759  0.59476107
   0.08554481  0.83051840  0.40242747
   0.58288088  0.08377498  0.40115255
   0.16744404  0.91583152  0.49917154
   0.33410956  0.83066477  0.40254361
   0.16664976  0.66714054  0.49990113
   0.33167330  0.58540489  0.40297333
   0.58373375  0.83108953  0.40203417
   0.41642616  0.66717227  0.49996783
Direct configuration=    13
   0.08502750  0.08141158  0.39471471
   0.83432194  0.82896128  0.39536376
   0.66586329  0.16908743  0.49916258
   0.83380185  0.08236509  0.39192521
   0.50198164  0.74877730  0.60243513
   0.41621182  0.91449574  0.49831200
   0.50382820  0.49804542  0.60106983
   0.50347911  0.24837841  0.60747394
   0.41422478  0.42057020  0.49794464
   0.58246952  0.33584054  0.39471302
   0.50146593  0.00035236  0.60715182
   0.41418235  0.16858915  0.49859476
   0.66805608  0.91331466  0.49912460
   0.24881487  0.49971226  0.60186874
   0.24818358  0.25201856  0.60475572
   0.24851472  0.75148096  0.60006809
   0.75185340  0.74794871  0.60225048
   0.91996680  0.91412064  0.49842729
  -0.00144234  0.75098362  0.60217351
   0.33551782  0.08282696  0.39173363
  -0.00467445  0.25328151  0.60510780
   0.91603841  0.16960893  0.49925451
   0.24715270  0.00145998  0.60295679
   0.16466899  0.16917308  0.49868416
   0.66788955  0.66425192  0.50029964
   0.83394881  0.58072089  0.40447542
   0.75088059  0.49898587  0.59482917
   0.91561567  0.41871956  0.49936862
   0.66530186  0.42008114  0.49859372
   0.83444055  0.33408435  0.40215415
   0.75091848  0.00019855  0.59616467
  -0.00204472  0.00199365  0.59610559
   0.08303352  0.33467231  0.40223201
   0.75023248  0.24925265  0.59646217
   0.16409861  0.41926004  0.49925522
   0.08498750  0.58147837  0.40402112
   0.33155304  0.33474675  0.40120469
   0.58376251  0.58411779  0.40436873
   0.91814059  0.66428253  0.49950210
  -0.00110759  0.49955313  0.59461398
   0.08557812  0.83035305  0.40236198
   0.58309583  0.08359200  0.40115677
   0.16742376  0.91592701  0.49916383
   0.33413725  0.83046174  0.40260445
   0.16640219  0.66709597  0.50020584
   0.33168646  0.58554031  0.40318405
   0.58390895  0.83074849  0.40216610
   0.41660750  0.66707753  0.50023924
Direct configuration=    14
   0.08501532  0.08131774  0.39454728
   0.83453265  0.82864776  0.39524937
   0.66594688  0.16902266  0.49897700
   0.83394599  0.08224443  0.39163496
   0.50220321  0.74876050  0.60253479
   0.41626025  0.91459706  0.49843381
   0.50396736  0.49787779  0.60102190
   0.50363015  0.24834187  0.60762911
   0.41420212  0.42052782  0.49807119
   0.58252005  0.33597122  0.39453634
   0.50155091  0.00028558  0.60738609
   0.41412566  0.16865532  0.49873333
   0.66790965  0.91332238  0.49915341
   0.24863057  0.49988431  0.60189598
   0.24802584  0.25210614  0.60487331
   0.24841396  0.75144894  0.60013041
   0.75178076  0.74782899  0.60229855
   0.91980347  0.91437697  0.49824118
  -0.00133837  0.75091856  0.60212862
   0.33556651  0.08274747  0.39152469
  -0.00475259  0.25346435  0.60516595
   0.91571192  0.16967797  0.49908052
   0.24701551  0.00166886  0.60297540
   0.16481991  0.16926389  0.49871422
   0.66793752  0.66432566  0.50041542
   0.83399700  0.58066447  0.40459308
   0.75095575  0.49897293  0.59476837
   0.91554668  0.41883067  0.49939625
   0.66533942  0.42010475  0.49853204
   0.83453948  0.33409356  0.40208090
   0.75095819  0.00023795  0.59594767
  -0.00221641  0.00212093  0.59590121
   0.08292907  0.33472768  0.40225904
   0.75009350  0.24934000  0.59624014
   0.16407867  0.41928762  0.49933736
   0.08500897  0.58150461  0.40415902
   0.33140528  0.33488443  0.40125847
   0.58378398  0.58411020  0.40445832
   0.91817869  0.66409849  0.49953515
  -0.00110299  0.49944890  0.59452075
   0.08559923  0.83024825  0.40232048
   0.58323207  0.08347603  0.40115944
   0.16741090  0.91598752  0.49915895
   0.33415480  0.83033307  0.40264301
   0.16624529  0.66706772  0.50039896
   0.33169480  0.58562614  0.40331760
   0.58401999  0.83053235  0.40224971
   0.41672243  0.66701748  0.50041126
Direct configuration=    15
   0.08508969  0.08121839  0.39444275
   0.83473495  0.82839092  0.39516548
   0.66577310  0.16887037  0.49869300
   0.83398231  0.08214804  0.39135377
   0.50194761  0.74888716  0.60268145
   0.41623244  0.91455433  0.49859483
   0.50397792  0.49780873  0.60102179
   0.50355869  0.24833328  0.60768363
   0.41419042  0.42038120  0.49826074
   0.58257905  0.33609156  0.39442831
   0.50143854  0.00044409  0.60756360
   0.41431098  0.16867743  0.49883264
   0.66777643  0.91352049  0.49912209
   0.24868154  0.49990248  0.60198434
   0.24822212  0.25192353  0.60498346
   0.24851118  0.75156916  0.60024611
   0.75194497  0.74777571  0.60236541
   0.91968643  0.91441325  0.49806581
  -0.00156586  0.75111568  0.60203227
   0.33563518  0.08260568  0.39154272
  -0.00481915  0.25358145  0.60510531
   0.91585174  0.16984263  0.49878852
   0.24705609  0.00168660  0.60298171
   0.16459636  0.16949741  0.49869700
   0.66787224  0.66454840  0.50050599
   0.83400670  0.58067729  0.40457741
   0.75109181  0.49893626  0.59483661
   0.91559189  0.41855680  0.49942177
   0.66547094  0.42002857  0.49848224
   0.83464480  0.33411212  0.40191530
   0.75093510  0.00027195  0.59589116
  -0.00234640  0.00221024  0.59573605
   0.08273124  0.33482077  0.40225966
   0.75000070  0.24940738  0.59610086
   0.16415828  0.41918457  0.49944427
   0.08518037  0.58148133  0.40421020
   0.33125681  0.33506497  0.40132049
   0.58381460  0.58412218  0.40446048
   0.91801668  0.66421718  0.49961812
  -0.00120599  0.49941030  0.59461776
   0.08566546  0.83015595  0.40217206
   0.58334553  0.08332019  0.40111616
   0.16760565  0.91583988  0.49917938
   0.33416864  0.83015507  0.40262482
   0.16608635  0.66718204  0.50059598
   0.33170013  0.58565219  0.40339283
   0.58414999  0.83027528  0.40228479
   0.41666575  0.66712953  0.50059889
Direct configuration=    16
   0.08514410  0.08114570  0.39436629
   0.83488293  0.82820304  0.39510411
   0.66564599  0.16875897  0.49848525
   0.83400888  0.08207753  0.39114808
   0.50176063  0.74897982  0.60278872
   0.41621210  0.91452306  0.49871263
   0.50398564  0.49775821  0.60102172
   0.50350642  0.24832699  0.60772352
   0.41418186  0.42027395  0.49839940
   0.58262221  0.33617960  0.39434929
   0.50135634  0.00056004  0.60769346
   0.41444654  0.16869361  0.49890529
   0.66767898  0.91366541  0.49909918
   0.24871883  0.49991577  0.60204897
   0.24836570  0.25178995  0.60506404
   0.24858229  0.75165710  0.60033074
   0.75206510  0.74773673  0.60241432
   0.91960080  0.91443980  0.49793752
  -0.00173228  0.75125987  0.60196179
   0.33568541  0.08250196  0.39155590
  -0.00486783  0.25366711  0.60506095
   0.91595402  0.16996308  0.49857492
   0.24708577  0.00169958  0.60298632
   0.16443283  0.16966824  0.49868441
   0.66782449  0.66471134  0.50057224
   0.83401380  0.58068667  0.40456595
   0.75119134  0.49890943  0.59488652
   0.91562495  0.41835646  0.49944043
   0.66556715  0.41997284  0.49844582
   0.83472184  0.33412571  0.40179417
   0.75091822  0.00029681  0.59584982
  -0.00244149  0.00227557  0.59561523
   0.08258652  0.33488887  0.40226011
   0.74993282  0.24945666  0.59599897
   0.16421651  0.41910919  0.49952248
   0.08530575  0.58146430  0.40424763
   0.33114820  0.33519703  0.40136586
   0.58383700  0.58413094  0.40446205
   0.91789817  0.66430400  0.49967881
  -0.00128134  0.49938206  0.59468872
   0.08571391  0.83008843  0.40206349
   0.58342852  0.08320619  0.40108450
   0.16774812  0.91573188  0.49919433
   0.33417877  0.83002486  0.40261151
   0.16597009  0.66726567  0.50074011
   0.33170404  0.58567124  0.40344786
   0.58424508  0.83008723  0.40231045
   0.41662429  0.66721150  0.50073614
Direct configuration=    17
   0.08527839  0.08102927  0.39427823
   0.83500469  0.82807863  0.39502328
   0.66581418  0.16874628  0.49822502
   0.83399211  0.08203294  0.39086020