  56  56   0   0
  0.4903395E+02  0.1100258E-08  0.1100258E-08  0.2619179E-08  0.3500000E-15
  1.000000000000000E-004
  CAR 
 unknown system                          
      6.39933745    -21.71255488  301     -1.27775130      1.00000000
    -21.713  0.0000E+00  0.0000E+00
    -21.619  0.0000E+00  0.0000E+00
    -21.525  0.0000E+00  0.0000E+00
    -21.431  0.0000E+00  0.0000E+00
    -21.338  0.0000E+00  0.0000E+00
    -21.244  0.0000E+00  0.0000E+00
    -21.150  0.0000E+00  0.0000E+00
    -21.057  0.0000E+00  0.0000E+00
    -20.963  0.1131E-14  0.1060E-15
    -20.869  0.1204E-10  0.1128E-11
    -20.775  0.2310E-07  0.2166E-08
    -20.682  0.8164E-05  0.7672E-06
    -20.588  0.5531E-03  0.5260E-04
    -20.494  0.7831E-02  0.7864E-03
    -20.401  0.2845E-01  0.3453E-02
    -20.307  0.4152E-01  0.7343E-02
    -20.213  0.4060E-01  0.1115E-01
    -20.120  0.4412E-01  0.1528E-01
    -20.026  0.5731E-01  0.2065E-01
    -19.932  0.6023E-01  0.2630E-01
    -19.838  0.4611E-01  0.3062E-01
    -19.745  0.1368E-01  0.3190E-01
    -19.651  0.1065E-02  0.3200E-01
    -19.557  0.1828E-04  0.3200E-01
    -19.464  0.6279E-07  0.3200E-01
    -19.370  0.4070E-10  0.3200E-01
    -19.276  0.4813E-14  0.3200E-01
    -19.182  0.0000E+00  0.3200E-01
    -19.089  0.0000E+00  0.3200E-01
    -18.995  0.0000E+00  0.3200E-01
    -18.901  0.0000E+00  0.3200E-01
    -18.808  0.0000E+00  0.3200E-01
    -18.714  0.0000E+00  0.3200E-01
    -18.620  0.0000E+00  0.3200E-01
    -18.527  0.0000E+00  0.3200E-01
    -18.433  0.0000E+00  0.3200E-01
    -18.339  0.0000E+00  0.3200E-01
    -18.245  0.0000E+00  0.3200E-01
    -18.152  0.0000E+00  0.3200E-01
    -18.058  0.0000E+00  0.3200E-01
    -17.964  0.0000E+00  0.3200E-01
    -17.871  0.0000E+00  0.3200E-01
    -17.777  0.0000E+00  0.3200E-01
    -17.683  0.0000E+00  0.3200E-01
    -17.589  0.0000E+00  0.3200E-01
    -17.496  0.0000E+00  0.3200E-01
    -17.402  0.0000E+00  0.3200E-01
    -17.308  0.0000E+00  0.3200E-01
    -17.215  0.0000E+00  0.3200E-01
    -17.121  0.0000E+00  0.3200E-01
    -17.027  0.0000E+00  0.3200E-01
    -16.934  0.0000E+00  0.3200E-01
    -16.840  0.0000E+00  0.3200E-01
    -16.746  0.0000E+00  0.3200E-01
    -16.652  0.0000E+00  0.3200E-01
    -16.559  0.0000E+00  0.3200E-01
    -16.465  0.0000E+00  0.3200E-01
    -16.371  0.0000E+00  0.3200E-01
    -16.278  0.0000E+00  0.3200E-01
    -16.184  0.0000E+00  0.3200E-01
    -16.090  0.0000E+00  0.3200E-01
    -15.996  0.0000E+00  0.3200E-01
    -15.903  0.0000E+00  0.3200E-01
    -15.809  0.0000E+00  0.3200E-01
    -15.715  0.0000E+00  0.3200E-01
    -15.622  0.0000E+00  0.3200E-01
    -15.528  0.0000E+00  0.3200E-01
    -15.434  0.0000E+00  0.3200E-01
    -15.341  0.0000E+00  0.3200E-01
    -15.247  0.0000E+00  0.3200E-01
    -15.153  0.0000E+00  0.3200E-01
    -15.059  0.0000E+00  0.3200E-01
    -14.966  0.0000E+00  0.3200E-01
    -14.872  0.0000E+00  0.3200E-01
    -14.778  0.0000E+00  0.3200E-01
    -14.685  0.0000E+00  0.3200E-01
    -14.591  0.0000E+00  0.3200E-01
    -14.497  0.0000E+00  0.3200E-01
    -14.403  0.0000E+00  0.3200E-01
    -14.310  0.0000E+00  0.3200E-01
    -14.216  0.0000E+00  0.3200E-01
    -14.122  0.0000E+00  0.3200E-01
    -14.029  0.0000E+00  0.3200E-01
    -13.935  0.0000E+00  0.3200E-01
    -13.841  0.0000E+00  0.3200E-01
    -13.748  0.0000E+00  0.3200E-01
    -13.654  0.0000E+00  0.3200E-01
    -13.560  0.0000E+00  0.3200E-01
    -13.466  0.0000E+00  0.3200E-01
    -13.373  0.0000E+00  0.3200E-01
    -13.279  0.0000E+00  0.3200E-01
    -13.185  0.0000E+00  0.3200E-01
    -13.092  0.0000E+00  0.3200E-01
    -12.998  0.0000E+00  0.3200E-01
    -12.904  0.0000E+00  0.3200E-01
    -12.810  0.0000E+00  0.3200E-01
    -12.717  0.0000E+00  0.3200E-01
    -12.623  0.0000E+00  0.3200E-01
    -12.529  0.0000E+00  0.3200E-01
    -12.436  0.0000E+00  0.3200E-01
    -12.342  0.0000E+00  0.3200E-01
    -12.248  0.0000E+00  0.3200E-01
    -12.155  0.0000E+00  0.3200E-01
    -12.061  0.0000E+00  0.3200E-01
    -11.967  0.0000E+00  0.3200E-01
    -11.873  0.0000E+00  0.3200E-01
    -11.780  0.0000E+00  0.3200E-01
    -11.686  0.0000E+00  0.3200E-01
    -11.592  0.0000E+00  0.3200E-01
    -11.499  0.0000E+00  0.3200E-01
    -11.405  0.0000E+00  0.3200E-01
    -11.311  0.0000E+00  0.3200E-01
    -11.217  0.0000E+00  0.3200E-01
    -11.124  0.0000E+00  0.3200E-01
    -11.030  0.0000E+00  0.3200E-01
    -10.936  0.0000E+00  0.3200E-01
    -10.843  0.0000E+00  0.3200E-01
    -10.749  0.0000E+00  0.3200E-01
    -10.655  0.0000E+00  0.3200E-01
    -10.562  0.0000E+00  0.3200E-01
    -10.468  0.0000E+00  0.3200E-01
    -10.374  0.0000E+00  0.3200E-01
    -10.280  0.0000E+00  0.3200E-01
    -10.187  0.0000E+00  0.3200E-01
    -10.093  0.7899E-17  0.3200E-01
     -9.999  0.1720E-12  0.3200E-01
     -9.906  0.6492E-09  0.3200E-01
     -9.812  0.4497E-06  0.3200E-01
     -9.718  0.5867E-04  0.3201E-01
     -9.624  0.1503E-02  0.3215E-01
     -9.531  0.8009E-02  0.3290E-01
     -9.437  0.9797E-02  0.3381E-01
     -9.343  0.7115E-02  0.3448E-01
     -9.250  0.1031E-01  0.3545E-01
     -9.156  0.5243E-02  0.3594E-01
     -9.062  0.8282E-03  0.3602E-01
     -8.968  0.1959E-02  0.3620E-01
     -8.875  0.5914E-02  0.3675E-01
     -8.781  0.9502E-02  0.3764E-01
     -8.687  0.1520E-01  0.3907E-01
     -8.594  0.1937E-01  0.4088E-01
     -8.500  0.1356E-01  0.4215E-01
     -8.406  0.1161E-01  0.4324E-01
     -8.313  0.9945E-02  0.4417E-01
     -8.219  0.1866E-01  0.4592E-01
     -8.125  0.3508E-01  0.4921E-01
     -8.031  0.4316E-01  0.5325E-01
     -7.938  0.5565E-01  0.5847E-01
     -7.844  0.8281E-01  0.6623E-01
     -7.750  0.1042E+00  0.7599E-01
     -7.657  0.1058E+00  0.8591E-01
     -7.563  0.1174E+00  0.9691E-01
     -7.469  0.1175E+00  0.1079E+00
     -7.375  0.9923E-01  0.1172E+00
     -7.282  0.9682E-01  0.1263E+00
     -7.188  0.1079E+00  0.1364E+00
     -7.094  0.1235E+00  0.1480E+00
     -7.001  0.1362E+00  0.1607E+00
     -6.907  0.1451E+00  0.1743E+00
     -6.813  0.1609E+00  0.1894E+00
     -6.720  0.1713E+00  0.2055E+00
     -6.626  0.1685E+00  0.2213E+00
     -6.532  0.1658E+00  0.2368E+00
     -6.438  0.1745E+00  0.2532E+00
     -6.345  0.1686E+00  0.2690E+00
     -6.251  0.1486E+00  0.2829E+00
     -6.157  0.1397E+00  0.2960E+00
     -6.064  0.1381E+00  0.3089E+00
     -5.970  0.1444E+00  0.3225E+00
     -5.876  0.1553E+00  0.3370E+00
     -5.782  0.1619E+00  0.3522E+00
     -5.689  0.1728E+00  0.3684E+00
     -5.595  0.1776E+00  0.3850E+00
     -5.501  0.1832E+00  0.4022E+00
     -5.408  0.1808E+00  0.4191E+00
     -5.314  0.1724E+00  0.4353E+00
     -5.220  0.1704E+00  0.4512E+00
     -5.127  0.1721E+00  0.4674E+00
     -5.033  0.1738E+00  0.4836E+00
     -4.939  0.1735E+00  0.4999E+00
     -4.845  0.1838E+00  0.5171E+00
     -4.752  0.1987E+00  0.5357E+00
     -4.658  0.1967E+00  0.5542E+00
     -4.564  0.1891E+00  0.5719E+00
     -4.471  0.1983E+00  0.5905E+00
     -4.377  0.2066E+00  0.6098E+00
     -4.283  0.2202E+00  0.6305E+00
     -4.189  0.2276E+00  0.6518E+00
     -4.096  0.2242E+00  0.6728E+00
     -4.002  0.2197E+00  0.6934E+00
     -3.908  0.2072E+00  0.7128E+00
     -3.815  0.1902E+00  0.7306E+00
     -3.721  0.1700E+00  0.7466E+00
     -3.627  0.1800E+00  0.7634E+00
     -3.534  0.1929E+00  0.7815E+00
     -3.440  0.1889E+00  0.7992E+00
     -3.346  0.1823E+00  0.8163E+00
     -3.252  0.1640E+00  0.8317E+00
     -3.159  0.1522E+00  0.8459E+00
     -3.065  0.1578E+00  0.8607E+00
     -2.971  0.1591E+00  0.8756E+00
     -2.878  0.1558E+00  0.8902E+00
     -2.784  0.1615E+00  0.9053E+00
     -2.690  0.1631E+00  0.9206E+00
     -2.596  0.1735E+00  0.9369E+00
     -2.503  0.1758E+00  0.9534E+00
     -2.409  0.1719E+00  0.9695E+00
     -2.315  0.1786E+00  0.9862E+00
     -2.222  0.1813E+00  0.1003E+01
     -2.128  0.1742E+00  0.1020E+01
     -2.034  0.1646E+00  0.1035E+01
     -1.941  0.1397E+00  0.1048E+01
     -1.847  0.1064E+00  0.1058E+01
     -1.753  0.8708E-01  0.1066E+01
     -1.659  0.8874E-01  0.1074E+01
     -1.566  0.8823E-01  0.1083E+01
     -1.472  0.8040E-01  0.1090E+01
     -1.378  0.7218E-01  0.1097E+01
     -1.285  0.6927E-01  0.1104E+01
     -1.191  0.6705E-01  0.1110E+01
     -1.097  0.6804E-01  0.1116E+01
     -1.003  0.7721E-01  0.1123E+01
     -0.910  0.8580E-01  0.1131E+01
     -0.816  0.8230E-01  0.1139E+01
     -0.722  0.6878E-01  0.1146E+01
     -0.629  0.5993E-01  0.1151E+01
     -0.535  0.5740E-01  0.1157E+01
     -0.441  0.4504E-01  0.1161E+01
     -0.348  0.2861E-01  0.1164E+01
     -0.254  0.2471E-01  0.1166E+01
     -0.160  0.2145E-01  0.1168E+01
     -0.066  0.1669E-01  0.1169E+01
      0.027  0.2506E-01  0.1172E+01
      0.121  0.3459E-01  0.1175E+01
      0.215  0.3416E-01  0.1178E+01
      0.308  0.3756E-01  0.1182E+01
      0.402  0.3715E-01  0.1185E+01
      0.496  0.3266E-01  0.1188E+01
      0.590  0.3225E-01  0.1191E+01
      0.683  0.3271E-01  0.1194E+01
      0.777  0.2327E-01  0.1197E+01
      0.871  0.2077E-01  0.1198E+01
      0.964  0.2030E-01  0.1200E+01
      1.058  0.1518E-01  0.1202E+01
      1.152  0.1819E-01  0.1204E+01
      1.245  0.2464E-01  0.1206E+01
      1.339  0.2789E-01  0.1208E+01
      1.433  0.2687E-01  0.1211E+01
      1.527  0.3461E-01  0.1214E+01
      1.620  0.4330E-01  0.1218E+01
      1.714  0.4526E-01  0.1222E+01
      1.808  0.3872E-01  0.1226E+01
      1.901  0.2960E-01  0.1229E+01
      1.995  0.2984E-01  0.1232E+01
      2.089  0.2906E-01  0.1234E+01
      2.183  0.2224E-01  0.1236E+01
      2.276  0.2310E-01  0.1239E+01
      2.370  0.2392E-01  0.1241E+01
      2.464  0.1043E-01  0.1242E+01
      2.557  0.2685E-02  0.1242E+01
      2.651  0.9774E-02  0.1243E+01
      2.745  0.1996E-01  0.1245E+01
      2.838  0.2330E-01  0.1247E+01
      2.932  0.3293E-01  0.1250E+01
      3.026  0.3959E-01  0.1254E+01
      3.120  0.3298E-01  0.1257E+01
      3.213  0.2344E-01  0.1259E+01
      3.307  0.1993E-01  0.1261E+01
      3.401  0.2371E-01  0.1263E+01
      3.494  0.2956E-01  0.1266E+01
      3.588  0.3232E-01  0.1269E+01
      3.682  0.3180E-01  0.1272E+01
      3.776  0.3632E-01  0.1275E+01
      3.869  0.4824E-01  0.1280E+01
      3.963  0.5205E-01  0.1285E+01
      4.057  0.4392E-01  0.1289E+01
      4.150  0.3708E-01  0.1292E+01
      4.244  0.4436E-01  0.1297E+01
      4.338  0.5026E-01  0.1301E+01
      4.432  0.4364E-01  0.1305E+01
      4.525  0.4161E-01  0.1309E+01
      4.619  0.4324E-01  0.1313E+01
      4.713  0.5069E-01  0.1318E+01
      4.806  0.5986E-01  0.1324E+01
      4.900  0.6430E-01  0.1330E+01
      4.994  0.6381E-01  0.1336E+01
      5.087  0.5744E-01  0.1341E+01
      5.181  0.2650E-01  0.1344E+01
      5.275  0.4299E-02  0.1344E+01
      5.369  0.2087E-03  0.1344E+01
      5.462  0.2548E-05  0.1344E+01
      5.556  0.6683E-08  0.1344E+01
      5.650  0.3418E-11  0.1344E+01
      5.743  0.3238E-15  0.1344E+01
      5.837  0.0000E+00  0.1344E+01
      5.931  0.0000E+00  0.1344E+01
      6.025  0.0000E+00  0.1344E+01
      6.118  0.0000E+00  0.1344E+01
      6.212  0.0000E+00  0.1344E+01
      6.306  0.0000E+00  0.1344E+01
      6.399  0.0000E+00  0.1344E+01
