<?xml version="1.0" encoding="ISO-8859-1"?>
<modeling>
 <generator>
  <i name="program" type="string">vasp </i>
  <i name="version" type="string">5.4.1  </i>
  <i name="subversion" type="string">24Jun15 (build Mar 14 2019 10:18:33) complex                          parallel </i>
  <i name="platform" type="string">INTEL-19.0.2+OPENMPI-3.1.3 </i>
  <i name="date" type="string">2023 03 12 </i>
  <i name="time" type="string">18:14:58 </i>
 </generator>
 <incar>
  <i type="int" name="ISTART">     0</i>
  <i type="string" name="PREC">normal</i>
  <i type="string" name="ALGO"> Fast</i>
  <i type="int" name="NELM">   500</i>
  <i type="int" name="IBRION">     2</i>
  <i type="int" name="NFREE">     2</i>
  <i name="EDIFF">      0.00000100</i>
  <i name="EDIFFG">     -0.02000000</i>
  <i type="int" name="NSW">   500</i>
  <i type="int" name="ISIF">     0</i>
  <i type="int" name="ISYM">     2</i>
  <i name="ENCUT">    400.00000000</i>
  <i name="POTIM">      0.35000000</i>
  <i type="string" name="LREAL"> Auto</i>
  <i type="logical" name="LPLANE"> T  </i>
  <i type="int" name="ISMEAR">     0</i>
  <i name="SIGMA">      0.10000000</i>
  <i type="int" name="NWRITE">     1</i>
  <i type="logical" name="LWAVE"> F  </i>
  <i type="logical" name="LCHARG"> F  </i>
  <i type="logical" name="LVTOT"> F  </i>
  <i type="logical" name="LORBIT"> F  </i>
  <i type="logical" name="LAECHG"> F  </i>
  <v type="int" name="KPOINT_BSE">    -1     0     0     0</v>
  <i type="int" name="NELM">   500</i>
  <i type="string" name="GGA"> PE          ! optPBE-vdW XC-functional</i>
  <i type="int" name="VOSKOWN">     1</i>
  <i type="logical" name="LDIPOL"> T  </i>
  <i type="logical" name="LMONO"> F  </i>
  <i type="int" name="IDIPOL">     3</i>
  <v name="DIPOL">      0.00000000      0.00000000      0.50000000</v>
 </incar>
 <kpoints>
  <generation param="Monkhorst-Pack">
   <v type="int" name="divisions">       2        2        1 </v>
   <v name="usershift">      0.00000000       0.00000000       0.00000000 </v>
   <v name="genvec1">      0.50000000       0.00000000       0.00000000 </v>
   <v name="genvec2">      0.00000000       0.50000000       0.00000000 </v>
   <v name="genvec3">      0.00000000       0.00000000       1.00000000 </v>
   <v name="shift">      0.50000000       0.50000000       0.00000000 </v>
  </generation>
  <varray name="kpointlist" >
   <v>       0.25000000       0.25000000       0.00000000 </v>
   <v>       0.00000000       0.25000000       0.00000000 </v>
   <v>      -0.25000000       0.00000000       0.00000000 </v>
   <v>      -0.25000000       0.25000000       0.00000000 </v>
   <v>       0.50000000      -0.25000000       0.00000000 </v>
   <v>      -0.25000000       0.50000000       0.00000000 </v>
  </varray>
  <varray name="weights" >
   <v>       0.16666667 </v>
   <v>       0.16666667 </v>
   <v>       0.16666667 </v>
   <v>       0.16666667 </v>
   <v>       0.16666667 </v>
   <v>       0.16666667 </v>
  </varray>
 </kpoints>
 <parameters>
  <separator name="general" >
   <i type="string" name="SYSTEM">unknown system</i>
   <i type="logical" name="LCOMPAT"> F  </i>
  </separator>
  <separator name="electronic" >
   <i type="string" name="PREC">normal</i>
   <i name="ENMAX">    400.00000000</i>
   <i name="ENAUG">    605.39200000</i>
   <i name="EDIFF">      0.00000100</i>
   <i type="int" name="IALGO">    68</i>
   <i type="int" name="IWAVPR">    11</i>
   <i type="int" name="NBANDS">   336</i>
   <i name="NELECT">    552.00000000</i>
   <i type="int" name="TURBO">     0</i>
   <i type="int" name="IRESTART">     0</i>
   <i type="int" name="NREBOOT">     0</i>
   <i type="int" name="NMIN">     0</i>
   <i name="EREF">      0.00000000</i>
   <separator name="electronic smearing" >
    <i type="int" name="ISMEAR">     0</i>
    <i name="SIGMA">      0.10000000</i>
    <i name="KSPACING">      0.50000000</i>
    <i type="logical" name="KGAMMA"> T  </i>
   </separator>
   <separator name="electronic projectors" >
    <i type="logical" name="LREAL"> T  </i>
    <v name="ROPT">     -0.00050000     -0.00050000     -0.00050000</v>
    <i type="int" name="LMAXPAW">  -100</i>
    <i type="int" name="LMAXMIX">     2</i>
    <i type="logical" name="NLSPLINE"> F  </i>
   </separator>
   <separator name="electronic startup" >
    <i type="int" name="ISTART">     0</i>
    <i type="int" name="ICHARG">     2</i>
    <i type="int" name="INIWAV">     1</i>
   </separator>
   <separator name="electronic spin" >
    <i type="int" name="ISPIN">     1</i>
    <i type="logical" name="LNONCOLLINEAR"> F  </i>
    <v name="MAGMOM">      1.00000000      1.00000000      1.00000000      1.00000000      1.00000000      1.00000000      1.00000000      1.00000000      1.00000000      1.00000000      1.00000000      1.00000000      1.00000000      1.00000000      1.00000000      1.00000000      1.00000000      1.00000000      1.00000000      1.00000000
      1.00000000      1.00000000      1.00000000      1.00000000      1.00000000      1.00000000      1.00000000      1.00000000      1.00000000      1.00000000      1.00000000      1.00000000      1.00000000      1.00000000      1.00000000      1.00000000      1.00000000      1.00000000      1.00000000      1.00000000
      1.00000000      1.00000000      1.00000000      1.00000000      1.00000000      1.00000000      1.00000000      1.00000000      1.00000000      1.00000000      1.00000000      1.00000000      1.00000000      1.00000000      1.00000000      1.00000000</v>
    <i name="NUPDOWN">     -1.00000000</i>
    <i type="logical" name="LSORBIT"> F  </i>
    <v name="SAXIS">      0.00000000      0.00000000      1.00000000</v>
    <i type="logical" name="LSPIRAL"> F  </i>
    <v name="QSPIRAL">      0.00000000      0.00000000      0.00000000</v>
    <i type="logical" name="LZEROZ"> F  </i>
   </separator>
   <separator name="electronic exchange-correlation" >
    <i type="logical" name="LASPH"> F  </i>
    <i type="logical" name="LMETAGGA"> F  </i>
   </separator>
   <separator name="electronic convergence" >
    <i type="int" name="NELM">   500</i>
    <i type="int" name="NELMDL">    -5</i>
    <i type="int" name="NELMIN">     2</i>
    <i name="ENINI">    400.00000000</i>
    <separator name="electronic convergence detail" >
     <i type="logical" name="LDIAG"> T  </i>
     <i type="logical" name="LSUBROT"> F  </i>
     <i name="WEIMIN">      0.00100000</i>
     <i name="EBREAK">      0.00000000</i>
     <i name="DEPER">      0.30000000</i>
     <i type="int" name="NRMM">     4</i>
     <i name="TIME">      0.40000000</i>
    </separator>
   </separator>
   <separator name="electronic mixer" >
    <i name="AMIX">      0.40000000</i>
    <i name="BMIX">      1.00000000</i>
    <i name="AMIN">      0.10000000</i>
    <i name="AMIX_MAG">      1.60000000</i>
    <i name="BMIX_MAG">      1.00000000</i>
    <separator name="electronic mixer details" >
     <i type="int" name="IMIX">     4</i>
     <i type="logical" name="MIXFIRST"> F  </i>
     <i type="int" name="MAXMIX">   -45</i>
     <i name="WC">    100.00000000</i>
     <i type="int" name="INIMIX">     1</i>
     <i type="int" name="MIXPRE">     1</i>
     <i type="int" name="MREMOVE">     5</i>
    </separator>
   </separator>
   <separator name="electronic dipolcorrection" >
    <i type="logical" name="LDIPOL"> T  </i>
    <i type="logical" name="LMONO"> F  </i>
    <i type="int" name="IDIPOL">     3</i>
    <i name="EPSILON">      1.00000000</i>
    <v name="DIPOL">      0.00000000      0.00000000      0.50000000</v>
    <i name="EFIELD">      0.00000000</i>
   </separator>
  </separator>
  <separator name="grids" >
   <i type="int" name="NGX">    54</i>
   <i type="int" name="NGY">    54</i>
   <i type="int" name="NGZ">   128</i>
   <i type="int" name="NGXF">   108</i>
   <i type="int" name="NGYF">   108</i>
   <i type="int" name="NGZF">   256</i>
   <i type="logical" name="ADDGRID"> F  </i>
  </separator>
  <separator name="ionic" >
   <i type="int" name="NSW">   500</i>
   <i type="int" name="IBRION">     2</i>
   <i type="int" name="ISIF">     0</i>
   <i name="PSTRESS">      0.00000000</i>
   <i name="EDIFFG">     -0.02000000</i>
   <i type="int" name="NFREE">     2</i>
   <i name="POTIM">      0.35000000</i>
   <i name="SMASS">     -3.00000000</i>
   <i name="SCALEE">      1.00000000</i>
  </separator>
  <separator name="ionic md" >
   <i name="TEBEG">      0.00010000</i>
   <i name="TEEND">      0.00010000</i>
   <i type="int" name="NBLOCK">     1</i>
   <i type="int" name="KBLOCK">   500</i>
   <i type="int" name="NPACO">   256</i>
   <i name="APACO">     16.00000000</i>
  </separator>
  <separator name="symmetry" >
   <i type="int" name="ISYM">     2</i>
   <i name="SYMPREC">      0.00001000</i>
  </separator>
  <separator name="dos" >
   <i type="logical" name="LORBIT"> F  </i>
   <v name="RWIGS">     -1.00000000     -1.00000000     -1.00000000</v>
   <i type="int" name="NEDOS">   301</i>
   <i name="EMIN">     10.00000000</i>
   <i name="EMAX">    -10.00000000</i>
   <i name="EFERMI">      0.00000000</i>
  </separator>
  <separator name="writing" >
   <i type="int" name="NWRITE">     1</i>
   <i type="logical" name="LWAVE"> F  </i>
   <i type="logical" name="LCHARG"> F  </i>
   <i type="logical" name="LPARD"> F  </i>
   <i type="logical" name="LVTOT"> F  </i>
   <i type="logical" name="LVHAR"> F  </i>
   <i type="logical" name="LELF"> F  </i>
   <i type="logical" name="LOPTICS"> F  </i>
   <v name="STM">      0.00000000      0.00000000      0.00000000      0.00000000      0.00000000      0.00000000      0.00000000</v>
  </separator>
  <separator name="performance" >
   <i type="int" name="NPAR">     6</i>
   <i type="int" name="NSIM">     4</i>
   <i type="int" name="NBLK">    -1</i>
   <i type="logical" name="LPLANE"> T  </i>
   <i type="logical" name="LSCALAPACK"> T  </i>
   <i type="logical" name="LSCAAWARE"> F  </i>
   <i type="logical" name="LSCALU"> F  </i>
   <i type="logical" name="LASYNC"> F  </i>
   <i type="logical" name="LORBITALREAL"> F  </i>
  </separator>
  <separator name="miscellaneous" >
   <i type="int" name="IDIOT">     3</i>
   <i type="logical" name="LMUSIC"> F  </i>
   <v name="POMASS">    196.96600000     16.00000000    106.42000000</v>
   <v name="DARWINR">      0.00000000      0.00000000      0.00000000</v>
   <v name="DARWINV">      1.00000000      1.00000000      1.00000000</v>
   <i type="logical" name="LCORR"> T  </i>
  </separator>
  <i type="logical" name="GGA_COMPAT"> T  </i>
  <i type="logical" name="LBERRY"> F  </i>
  <i type="int" name="ICORELEVEL">     0</i>
  <i type="logical" name="LDAU"> F  </i>
  <i type="int" name="I_CONSTRAINED_M">     0</i>
  <separator name="electronic exchange-correlation" >
   <i type="string" name="GGA">PE</i>
   <i type="int" name="VOSKOWN">     1</i>
   <i type="logical" name="LHFCALC"> F  </i>
   <i type="string" name="PRECFOCK"></i>
   <i type="logical" name="LSYMGRAD"> F  </i>
   <i type="logical" name="LHFONE"> F  </i>
   <i type="logical" name="LRHFCALC"> F  </i>
   <i type="logical" name="LTHOMAS"> F  </i>
   <i type="logical" name="LMODELHF"> F  </i>
   <i name="ENCUT4O">     -1.00000000</i>
   <i type="int" name="EXXOEP">     0</i>
   <i type="int" name="FOURORBIT">     0</i>
   <i name="AEXX">      0.00000000</i>
   <i name="HFALPHA">      0.00000000</i>
   <i name="MCALPHA">      0.00000000</i>
   <i name="ALDAX">      1.00000000</i>
   <i name="AGGAX">      1.00000000</i>
   <i name="ALDAC">      1.00000000</i>
   <i name="AGGAC">      1.00000000</i>
   <i type="int" name="NKREDX">     1</i>
   <i type="int" name="NKREDY">     1</i>
   <i type="int" name="NKREDZ">     1</i>
   <i type="logical" name="SHIFTRED"> F  </i>
   <i type="logical" name="ODDONLY"> F  </i>
   <i type="logical" name="EVENONLY"> F  </i>
   <i type="int" name="LMAXFOCK">     0</i>
   <i type="int" name="NMAXFOCKAE">     0</i>
   <i type="logical" name="LFOCKAEDFT"> F  </i>
   <i name="HFSCREEN">      0.00000000</i>
   <i name="HFSCREENC">      0.00000000</i>
   <i type="int" name="NBANDSGWLOW">     0</i>
  </separator>
  <separator name="vdW DFT" >
   <i type="logical" name="LUSE_VDW"> F  </i>
   <i name="Zab_VDW">     -0.84910000</i>
   <i name="PARAM1">      0.12340000</i>
   <i name="PARAM2">      1.00000000</i>
   <i name="PARAM3">      0.00000000</i>
  </separator>
  <separator name="model GW" >
   <i type="int" name="MODEL_GW">     0</i>
   <i name="MODEL_EPS0">     29.42037089</i>
   <i name="MODEL_ALPHA">      1.00000000</i>
  </separator>
  <separator name="linear response parameters" >
   <i type="logical" name="LEPSILON"> F  </i>
   <i type="logical" name="LRPA"> F  </i>
   <i type="logical" name="LNABLA"> F  </i>
   <i type="logical" name="LVEL"> F  </i>
   <i type="int" name="KINTER">     0</i>
   <i name="CSHIFT">      0.10000000</i>
   <i name="OMEGAMAX">     -1.00000000</i>
   <i name="DEG_THRESHOLD">      0.00200000</i>
  </separator>
  <separator name="orbital magnetization" >
   <i type="logical" name="NUCIND"> F  </i>
   <v name="MAGPOS">      0.00000000      0.00000000      0.00000000</v>
   <i type="logical" name="LNICSALL"> T  </i>
   <i type="logical" name="ORBITALMAG"> F  </i>
   <i type="logical" name="LMAGBLOCH"> F  </i>
   <i type="logical" name="LCHIMAG"> F  </i>
   <i type="logical" name="LGAUGE"> T  </i>
   <i type="int" name="MAGATOM">     0</i>
   <v name="MAGDIPOL">      0.00000000      0.00000000      0.00000000</v>
   <v name="AVECCONST">      0.00000000      0.00000000      0.00000000</v>
  </separator>
  <separator name="response functions" >
   <i type="logical" name="LADDER"> F  </i>
   <i type="logical" name="LFXC"> F  </i>
   <i type="logical" name="LHARTREE"> T  </i>
   <i type="int" name="IBSE">     0</i>
   <v type="int" name="KPOINT">    -1     0     0     0</v>
   <i type="logical" name="LTCTE"> F  </i>
   <i type="logical" name="LTETE"> F  </i>
   <i type="logical" name="LTRIPLET"> F  </i>
   <i type="logical" name="LFXCEPS"> F  </i>
   <i type="logical" name="LFXHEG"> F  </i>
   <i type="int" name="NATURALO">     0</i>
   <i type="logical" name="L2ORDER"> F  </i>
   <i type="logical" name="LUSEW"> F  </i>
   <i name="ENCUTGW">     -2.00000000</i>
   <i name="ENCUTGWSOFT">     -2.00000000</i>
   <i name="ENCUTLF">     -1.00000000</i>
   <i type="int" name="LMAXMP2">    -1</i>
   <i name="SCISSOR">      0.00000000</i>
   <i type="int" name="NOMEGA">     0</i>
   <i type="int" name="NOMEGAR">     0</i>
   <i type="int" name="NBANDSGW">    -1</i>
   <i type="int" name="NBANDSO">    -1</i>
   <i type="int" name="NBANDSV">    -1</i>
   <i type="int" name="NELM">   500</i>
   <i type="int" name="NELMHF">     1</i>
   <i type="int" name="DIM">     3</i>
   <i type="int" name="ANTIRES">     0</i>
   <i name="OMEGAMAX">    -30.00000000</i>
   <i name="OMEGAMIN">    -30.00000000</i>
   <i name="OMEGATL">   -200.00000000</i>
   <i type="int" name="OMEGAGRID">     0</i>
   <i name="CSHIFT">     -0.10000000</i>
   <i type="logical" name="SELFENERGY"> F  </i>
   <i type="logical" name="LSPECTRAL"> F  </i>
   <i type="logical" name="LSPECTRALGW"> F  </i>
   <i type="logical" name="LSINGLES"> F  </i>
   <i type="logical" name="LFERMIGW"> F  </i>
   <i type="logical" name="ODDONLYGW"> F  </i>
   <i type="logical" name="EVENONLYGW"> F  </i>
   <i type="int" name="NKREDLFX">     1</i>
   <i type="int" name="NKREDLFY">     1</i>
   <i type="int" name="NKREDLFZ">     1</i>
   <i type="int" name="MAXMEM">  1800</i>
   <i type="int" name="TELESCOPE">     0</i>
   <i type="int" name="TAUPAR">     1</i>
   <i type="int" name="OMEGAPAR">    -1</i>
   <i name="LAMBDA">      1.00000000</i>
  </separator>
  <separator name="External order field" >
   <i name="OFIELD_KAPPA">      0.00000000</i>
   <v name="OFIELD_K">      0.00000000      0.00000000      0.00000000</v>
   <i name="OFIELD_Q6_NEAR">      0.00000000</i>
   <i name="OFIELD_Q6_FAR">      0.00000000</i>
   <i name="OFIELD_A">      0.00000000</i>
  </separator>
 </parameters>
 <atominfo>
  <atoms>      56 </atoms>
  <types>       3 </types>
  <array name="atoms" >
   <dimension dim="1">ion</dimension>
   <field type="string">element</field>
   <field type="int">atomtype</field>
   <set>
    <rc><c>Au</c><c>   1</c></rc>
    <rc><c>Au</c><c>   1</c></rc>
    <rc><c>Au</c><c>   1</c></rc>
    <rc><c>Au</c><c>   1</c></rc>
    <rc><c>Au</c><c>   1</c></rc>
    <rc><c>Au</c><c>   1</c></rc>
    <rc><c>Au</c><c>   1</c></rc>
    <rc><c>Au</c><c>   1</c></rc>
    <rc><c>Au</c><c>   1</c></rc>
    <rc><c>Au</c><c>   1</c></rc>
    <rc><c>Au</c><c>   1</c></rc>
    <rc><c>Au</c><c>   1</c></rc>
    <rc><c>Au</c><c>   1</c></rc>
    <rc><c>Au</c><c>   1</c></rc>
    <rc><c>Au</c><c>   1</c></rc>
    <rc><c>Au</c><c>   1</c></rc>
    <rc><c>Au</c><c>   1</c></rc>
    <rc><c>Au</c><c>   1</c></rc>
    <rc><c>Au</c><c>   1</c></rc>
    <rc><c>Au</c><c>   1</c></rc>
    <rc><c>Au</c><c>   1</c></rc>
    <rc><c>Au</c><c>   1</c></rc>
    <rc><c>Au</c><c>   1</c></rc>
    <rc><c>Au</c><c>   1</c></rc>
    <rc><c>O </c><c>   2</c></rc>
    <rc><c>O </c><c>   2</c></rc>
    <rc><c>O </c><c>   2</c></rc>
    <rc><c>O </c><c>   2</c></rc>
    <rc><c>O </c><c>   2</c></rc>
    <rc><c>O </c><c>   2</c></rc>
    <rc><c>O </c><c>   2</c></rc>
    <rc><c>O </c><c>   2</c></rc>
    <rc><c>Pd</c><c>   3</c></rc>
    <rc><c>Pd</c><c>   3</c></rc>
    <rc><c>Pd</c><c>   3</c></rc>
    <rc><c>Pd</c><c>   3</c></rc>
    <rc><c>Pd</c><c>   3</c></rc>
    <rc><c>Pd</c><c>   3</c></rc>
    <rc><c>Pd</c><c>   3</c></rc>
    <rc><c>Pd</c><c>   3</c></rc>
    <rc><c>Pd</c><c>   3</c></rc>
    <rc><c>Pd</c><c>   3</c></rc>
    <rc><c>Pd</c><c>   3</c></rc>
    <rc><c>Pd</c><c>   3</c></rc>
    <rc><c>Pd</c><c>   3</c></rc>
    <rc><c>Pd</c><c>   3</c></rc>
    <rc><c>Pd</c><c>   3</c></rc>
    <rc><c>Pd</c><c>   3</c></rc>
    <rc><c>Pd</c><c>   3</c></rc>
    <rc><c>Pd</c><c>   3</c></rc>
    <rc><c>Pd</c><c>   3</c></rc>
    <rc><c>Pd</c><c>   3</c></rc>
    <rc><c>Pd</c><c>   3</c></rc>
    <rc><c>Pd</c><c>   3</c></rc>
    <rc><c>Pd</c><c>   3</c></rc>
    <rc><c>Pd</c><c>   3</c></rc>
   </set>
  </array>
  <array name="atomtypes" >
   <dimension dim="1">type</dimension>
   <field type="int">atomspertype</field>
   <field type="string">element</field>
   <field>mass</field>
   <field>valence</field>
   <field type="string">pseudopotential</field>
   <set>
    <rc><c>  24</c><c>Au</c><c>    196.96600000</c><c>     11.00000000</c><c>  PAW_PBE Au 04Oct2007                  </c></rc>
    <rc><c>   8</c><c>O </c><c>     16.00000000</c><c>      6.00000000</c><c>  PAW_PBE O 08Apr2002                   </c></rc>
    <rc><c>  24</c><c>Pd</c><c>    106.42000000</c><c>     10.00000000</c><c>  PAW_PBE Pd 04Jan2005                  </c></rc>
   </set>
  </array>
 </atominfo>
 <structure name="initialpos" >
  <crystal>
   <varray name="basis" >
    <v>      11.00258152       0.00000000       0.00000000 </v>
    <v>       5.50129076       9.52851510       0.00000000 </v>
    <v>       0.00000000       0.00000000      26.19178509 </v>
   </varray>
   <i name="volume">   2745.90128299 </i>
   <varray name="rec_basis" >
    <v>       0.09088776      -0.05247407       0.00000000 </v>
    <v>       0.00000000       0.10494815       0.00000000 </v>
    <v>       0.00000000       0.00000000       0.03817991 </v>
   </varray>
  </crystal>
  <varray name="positions" >
   <v>       0.08333333       0.08333333       0.38179910 </v>
   <v>       0.33333333       0.83333333       0.38179910 </v>
   <v>       0.91666667       0.16666667       0.46754708 </v>
   <v>       0.83333333       0.83333333       0.38179910 </v>
   <v>       0.83333333       0.58333333       0.38179910 </v>
   <v>       0.08333333       0.33333333       0.38179910 </v>
   <v>       0.91666667       0.41666667       0.46754708 </v>
   <v>       0.00000000       0.25000000       0.55329505 </v>
   <v>       0.83333333       0.33333333       0.38179910 </v>
   <v>       0.08333333       0.58333333       0.38179910 </v>
   <v>       0.66666667       0.16666667       0.46754708 </v>
   <v>       0.91666667       0.91666667       0.46754708 </v>
   <v>       0.83333333       0.08333333       0.38179910 </v>
   <v>       0.58333333       0.83333333       0.38179910 </v>
   <v>       0.33333333       0.08333333       0.38179910 </v>
   <v>       0.16666667       0.16666667       0.46754708 </v>
   <v>       0.58333333       0.58333333       0.38179910 </v>
   <v>       0.58333333       0.33333333       0.38179910 </v>
   <v>       0.33333333       0.33333333       0.38179910 </v>
   <v>       0.41666667       0.16666667       0.46754708 </v>
   <v>       0.25000000       0.25000000       0.55329505 </v>
   <v>       0.58333333       0.08333333       0.38179910 </v>
   <v>       0.33333333       0.58333333       0.38179910 </v>
   <v>       0.16666667       0.66666667       0.46754708 </v>
   <v>       0.33333333       0.08333333       0.61820090 </v>
   <v>       0.33333333       0.58333333       0.61820090 </v>
   <v>       0.08333333       0.58333333       0.61820090 </v>
   <v>       0.33333333       0.33333333       0.61820090 </v>
   <v>       0.83333333       0.83333333       0.61820090 </v>
   <v>       0.58333333       0.83333333       0.61820090 </v>
   <v>       0.83333333       0.08333333       0.61820090 </v>
   <v>       0.58333333       0.58333333       0.61820090 </v>
   <v>       0.00000000       0.75000000       0.55329505 </v>
   <v>       0.25000000       0.75000000       0.55329505 </v>
   <v>       0.41666667       0.41666667       0.46754708 </v>
   <v>       0.50000000       0.25000000       0.55329505 </v>
   <v>       0.16666667       0.91666667       0.46754708 </v>
   <v>       0.25000000       0.00000000       0.55329505 </v>
   <v>       0.41666667       0.66666667       0.46754708 </v>
   <v>       0.50000000       0.50000000       0.55329505 </v>
   <v>       0.50000000       0.00000000       0.55329505 </v>
   <v>       0.41666667       0.91666667       0.46754708 </v>
   <v>       0.50000000       0.75000000       0.55329505 </v>
   <v>       0.08333333       0.83333333       0.38179910 </v>
   <v>       0.00000000       0.50000000       0.55329505 </v>
   <v>       0.75000000       0.00000000       0.55329505 </v>
   <v>       0.91666667       0.66666667       0.46754708 </v>
   <v>       0.66666667       0.41666667       0.46754708 </v>
   <v>       0.75000000       0.25000000       0.55329505 </v>
   <v>       0.66666667       0.66666667       0.46754708 </v>
   <v>       0.75000000       0.50000000       0.55329505 </v>
   <v>       0.00000000       0.00000000       0.55329505 </v>
   <v>       0.66666667       0.91666667       0.46754708 </v>
   <v>       0.25000000       0.50000000       0.55329505 </v>
   <v>       0.75000000       0.75000000       0.55329505 </v>
   <v>       0.16666667       0.41666667       0.46754708 </v>
  </varray>
  <varray name="selective"  type="logical" >
   <v type="logical" >  F  F  F </v>
   <v type="logical" >  F  F  F </v>
   <v type="logical" >  T  T  T </v>
   <v type="logical" >  F  F  F </v>
   <v type="logical" >  F  F  F </v>
   <v type="logical" >  F  F  F </v>
   <v type="logical" >  T  T  T </v>
   <v type="logical" >  T  T  T </v>
   <v type="logical" >  F  F  F </v>
   <v type="logical" >  F  F  F </v>
   <v type="logical" >  T  T  T </v>
   <v type="logical" >  T  T  T </v>
   <v type="logical" >  F  F  F </v>
   <v type="logical" >  F  F  F </v>
   <v type="logical" >  F  F  F </v>
   <v type="logical" >  T  T  T </v>
   <v type="logical" >  F  F  F </v>
   <v type="logical" >  F  F  F </v>
   <v type="logical" >  F  F  F </v>
   <v type="logical" >  T  T  T </v>
   <v type="logical" >  T  T  T </v>
   <v type="logical" >  F  F  F </v>
   <v type="logical" >  F  F  F </v>
   <v type="logical" >  T  T  T </v>
   <v type="logical" >  T  T  T </v>
   <v type="logical" >  T  T  T </v>
   <v type="logical" >  T  T  T </v>
   <v type="logical" >  T  T  T </v>
   <v type="logical" >  T  T  T </v>
   <v type="logical" >  T  T  T </v>
   <v type="logical" >  T  T  T </v>
   <v type="logical" >  T  T  T </v>
   <v type="logical" >  T  T  T </v>
   <v type="logical" >  T  T  T </v>
   <v type="logical" >  T  T  T </v>
   <v type="logical" >  T  T  T </v>
   <v type="logical" >  T  T  T </v>
   <v type="logical" >  T  T  T </v>
   <v type="logical" >  T  T  T </v>
   <v type="logical" >  T  T  T </v>
   <v type="logical" >  T  T  T </v>
   <v type="logical" >  T  T  T </v>
   <v type="logical" >  T  T  T </v>
   <v type="logical" >  F  F  F </v>
   <v type="logical" >  T  T  T </v>
   <v type="logical" >  T  T  T </v>
   <v type="logical" >  T  T  T </v>
   <v type="logical" >  T  T  T </v>
   <v type="logical" >  T  T  T </v>
   <v type="logical" >  T  T  T </v>
   <v type="logical" >  T  T  T </v>
   <v type="logical" >  T  T  T </v>
   <v type="logical" >  T  T  T </v>
   <v type="logical" >  T  T  T </v>
   <v type="logical" >  T  T  T </v>
   <v type="logical" >  T  T  T </v>
  </varray>
  <nose>
   <v>      -3.00000000       0.00000000       0.00010000       0.00010000 </v>
  </nose>
 </structure>
 <calculation>
  <scstep>
   <time name="dav">    8.56    8.58</time>
   <time name="total">    8.61    8.64</time>
   <dipole>
    <v name="dipole">      0.00000000       0.00000000       0.00008199 </v>
    <i name="Tr[quadrupol]"> -11247.38544251 </i>
    <i name="Echarged">      0.00000000 </i>
    <i name="Edipol_quadrupol">      0.00000000 </i>
    <i name="Eion">      0.00000000 </i>
   </dipole>
   <energy>
    <i name="alphaZ">    862.57815090 </i>
    <i name="ewald"> 254380.45317138 </i>
    <i name="hartreedc">-299951.83090680 </i>
    <i name="XCdc">   -110.05023109 </i>
    <i name="pawpsdc">  43112.45544455 </i>
    <i name="pawaedc"> -41079.41300390 </i>
    <i name="eentropy">     -0.15900912 </i>
    <i name="bandstr">   1326.34635924 </i>
    <i name="atom">  45117.89144060 </i>
    <i name="e_fr_energy">   3658.27141575 </i>
    <i name="e_wo_entrp">   3658.43042487 </i>
    <i name="e_0_energy">   3658.35092031 </i>
   </energy>
  </scstep>
  <scstep>
   <time name="dav">   10.15   10.17</time>
   <time name="total">   10.15   10.67</time>
   <dipole>
    <v name="dipole">      0.00000000       0.00000000       0.00008199 </v>
    <i name="Tr[quadrupol]"> -11247.38544251 </i>
    <i name="Echarged">      0.00000000 </i>
    <i name="Edipol_quadrupol">      0.00000000 </i>
    <i name="Eion">      0.00000000 </i>
   </dipole>
   <energy>
    <i name="e_fr_energy">     49.76358115 </i>
    <i name="e_wo_entrp">     49.91927963 </i>
    <i name="e_0_energy">     49.84143039 </i>
   </energy>
  </scstep>
  <scstep>
   <time name="dav">    9.76    9.79</time>
   <time name="total">    9.77    9.80</time>
   <dipole>
    <v name="dipole">      0.00000000       0.00000000       0.00008199 </v>
    <i name="Tr[quadrupol]"> -11247.38544251 </i>
    <i name="Echarged">      0.00000000 </i>
    <i name="Edipol_quadrupol">      0.00000000 </i>
    <i name="Eion">      0.00000000 </i>
   </dipole>
   <energy>
    <i name="e_fr_energy">   -256.87873473 </i>
    <i name="e_wo_entrp">   -256.42955299 </i>
    <i name="e_0_energy">   -256.65414386 </i>
   </energy>
  </scstep>
  <scstep>
   <time name="dav">    9.56    9.65</time>
   <time name="total">    9.56    9.66</time>
   <dipole>
    <v name="dipole">      0.00000000       0.00000000       0.00008199 </v>
    <i name="Tr[quadrupol]"> -11247.38544251 </i>
    <i name="Echarged">      0.00000000 </i>
    <i name="Edipol_quadrupol">      0.00000000 </i>
    <i name="Eion">      0.00000000 </i>
   </dipole>
   <energy>
    <i name="e_fr_energy">   -267.81452752 </i>
    <i name="e_wo_entrp">   -267.34971985 </i>
    <i name="e_0_energy">   -267.58212369 </i>
   </energy>
  </scstep>
  <scstep>
   <time name="dav">   10.08   10.11</time>
   <time name="total">   10.34   10.37</time>
   <dipole>
    <v name="dipole">      0.00000000       0.00000000       0.00008199 </v>
    <i name="Tr[quadrupol]"> -11247.38544251 </i>
    <i name="Echarged">      0.00000000 </i>
    <i name="Edipol_quadrupol">      0.00000000 </i>
    <i name="Eion">      0.00000000 </i>
   </dipole>
   <energy>
    <i name="e_fr_energy">   -268.14845157 </i>
    <i name="e_wo_entrp">   -267.68261898 </i>
    <i name="e_0_energy">   -267.91553528 </i>
   </energy>
  </scstep>
  <scstep>
   <time name="diag">    1.55    1.56</time>
   <time name="diis">    4.34    4.35</time>
   <time name="orth">    0.43    0.43</time>
   <time name="total">    6.64    6.66</time>
   <dipole>
    <v name="dipole">      0.00000000       0.00000000       8.62850936 </v>
    <i name="Tr[quadrupol]"> -11249.37016689 </i>
    <i name="Echarged">      0.00000000 </i>
    <i name="Edipol_quadrupol">      0.00000000 </i>
    <i name="Eion">      0.00000000 </i>
   </dipole>
   <energy>
    <i name="e_fr_energy">   -636.02456388 </i>
    <i name="e_wo_entrp">   -635.76908789 </i>
    <i name="e_0_energy">   -635.89682589 </i>
   </energy>
  </scstep>
  <scstep>
   <time name="diag">    1.55    1.56</time>
   <time name="diis">    4.15    4.16</time>
   <time name="orth">    0.43    0.43</time>
   <time name="total">    6.45    6.47</time>
   <dipole>
    <v name="dipole">      0.00000000       0.00000000       2.45323460 </v>
    <i name="Tr[quadrupol]"> -11241.59871151 </i>
    <i name="Echarged">      0.00000000 </i>
    <i name="Edipol_quadrupol">      0.00000000 </i>
    <i name="Eion">      0.00000000 </i>
   </dipole>
   <energy>
    <i name="e_fr_energy">   -254.19362758 </i>
    <i name="e_wo_entrp">   -253.95626616 </i>
    <i name="e_0_energy">   -254.07494687 </i>
   </energy>
  </scstep>
  <scstep>
   <time name="diag">    1.55    1.56</time>
   <time name="diis">    4.12    4.13</time>
   <time name="orth">    0.43    0.43</time>
   <time name="total">    6.41    6.43</time>
   <dipole>
    <v name="dipole">      0.00000000       0.00000000       3.03745573 </v>
    <i name="Tr[quadrupol]"> -11252.76969194 </i>
    <i name="Echarged">      0.00000000 </i>
    <i name="Edipol_quadrupol">      0.00000000 </i>
    <i name="Eion">      0.00000000 </i>
   </dipole>
   <energy>
    <i name="e_fr_energy">   -315.80300472 </i>
    <i name="e_wo_entrp">   -315.67113622 </i>
    <i name="e_0_energy">   -315.73707047 </i>
   </energy>
  </scstep>
  <scstep>
   <time name="diag">    1.55    1.56</time>
   <time name="diis">    4.07    4.08</time>
   <time name="orth">    0.44    0.44</time>
   <time name="total">    6.37    6.39</time>
   <dipole>
    <v name="dipole">      0.00000000       0.00000000       3.08930991 </v>
    <i name="Tr[quadrupol]"> -11255.59822904 </i>
    <i name="Echarged">      0.00000000 </i>
    <i name="Edipol_quadrupol">      0.00000000 </i>
    <i name="Eion">      0.00000000 </i>
   </dipole>
   <energy>
    <i name="e_fr_energy">   -252.64581252 </i>
    <i name="e_wo_entrp">   -252.47862870 </i>
    <i name="e_0_energy">   -252.56222061 </i>
   </energy>
  </scstep>
  <scstep>
   <time name="diag">    1.53    1.61</time>
   <time name="diis">    4.03    4.04</time>
   <time name="orth">    0.43    0.43</time>
   <time name="total">    6.30    6.39</time>
   <dipole>
    <v name="dipole">      0.00000000       0.00000000       2.84981526 </v>
    <i name="Tr[quadrupol]"> -11262.46349891 </i>
    <i name="Echarged">      0.00000000 </i>
    <i name="Edipol_quadrupol">      0.00000000 </i>
    <i name="Eion">      0.00000000 </i>
   </dipole>
   <energy>
    <i name="e_fr_energy">   -235.31453488 </i>
    <i name="e_wo_entrp">   -235.16859503 </i>
    <i name="e_0_energy">   -235.24156495 </i>
   </energy>
  </scstep>
  <scstep>
   <time name="diag">    1.56    1.57</time>
   <time name="diis">    4.05    4.06</time>
   <time name="orth">    0.42    0.42</time>
   <time name="total">    6.34    6.36</time>
   <dipole>
    <v name="dipole">      0.00000000       0.00000000       2.68726567 </v>
    <i name="Tr[quadrupol]"> -11263.91887034 </i>
    <i name="Echarged">      0.00000000 </i>
    <i name="Edipol_quadrupol">      0.00000000 </i>
    <i name="Eion">      0.00000000 </i>
   </dipole>
   <energy>
    <i name="e_fr_energy">   -230.02558122 </i>
    <i name="e_wo_entrp">   -229.68566045 </i>
    <i name="e_0_energy">   -229.85562084 </i>
   </energy>
  </scstep>
  <scstep>
   <time name="diag">    1.56    1.57</time>
   <time name="diis">    4.12    4.13</time>
   <time name="orth">    0.42    0.42</time>
   <time name="total">    6.41    6.43</time>
   <dipole>
    <v name="dipole">      0.00000000       0.00000000       2.23735290 </v>
    <i name="Tr[quadrupol]"> -11261.22421941 </i>
    <i name="Echarged">      0.00000000 </i>
    <i name="Edipol_quadrupol">      0.00000000 </i>
    <i name="Eion">      0.00000000 </i>
   </dipole>
   <energy>
    <i name="e_fr_energy">   -228.31059917 </i>
    <i name="e_wo_entrp">   -227.92531885 </i>
    <i name="e_0_energy">   -228.11795901 </i>
   </energy>
  </scstep>
  <scstep>
   <time name="diag">    1.55    1.56</time>
   <time name="diis">    4.14    4.15</time>
   <time name="orth">    0.42    0.42</time>
   <time name="total">    6.42    6.44</time>
   <dipole>
    <v name="dipole">      0.00000000       0.00000000       2.33311671 </v>
    <i name="Tr[quadrupol]"> -11260.05388516 </i>
    <i name="Echarged">      0.00000000 </i>
    <i name="Edipol_quadrupol">      0.00000000 </i>
    <i name="Eion">      0.00000000 </i>
   </dipole>
   <energy>
    <i name="e_fr_energy">   -224.55693794 </i>
    <i name="e_wo_entrp">   -224.28046444 </i>
    <i name="e_0_energy">   -224.41870119 </i>
   </energy>
  </scstep>
  <scstep>
   <time name="diag">    1.55    1.56</time>
   <time name="diis">    4.15    4.16</time>
   <time name="orth">    0.42    0.42</time>
   <time name="total">    6.43    6.45</time>
   <dipole>
    <v name="dipole">      0.00000000       0.00000000       2.41308737 </v>
    <i name="Tr[quadrupol]"> -11259.46969316 </i>
    <i name="Echarged">      0.00000000 </i>
    <i name="Edipol_quadrupol">      0.00000000 </i>
    <i name="Eion">      0.00000000 </i>
   </dipole>
   <energy>
    <i name="e_fr_energy">   -223.89461473 </i>
    <i name="e_wo_entrp">   -223.64094937 </i>
    <i name="e_0_energy">   -223.76778205 </i>
   </energy>
  </scstep>
  <scstep>
   <time name="diag">    1.55    1.56</time>
   <time name="diis">    4.10    4.11</time>
   <time name="orth">    0.42    0.42</time>
   <time name="total">    6.39    6.41</time>
   <dipole>
    <v name="dipole">      0.00000000       0.00000000       2.44268965 </v>
    <i name="Tr[quadrupol]"> -11258.98829773 </i>
    <i name="Echarged">      0.00000000 </i>
    <i name="Edipol_quadrupol">      0.00000000 </i>
    <i name="Eion">      0.00000000 </i>
   </dipole>
   <energy>
    <i name="e_fr_energy">   -222.96545564 </i>
    <i name="e_wo_entrp">   -222.67915287 </i>
    <i name="e_0_energy">   -222.82230425 </i>
   </energy>
  </scstep>
  <scstep>
   <time name="diag">    1.55    1.56</time>
   <time name="diis">    3.98    4.08</time>
   <time name="orth">    0.42    0.42</time>
   <time name="total">    6.26    6.37</time>
   <dipole>
    <v name="dipole">      0.00000000       0.00000000       2.42538544 </v>
    <i name="Tr[quadrupol]"> -11258.40828506 </i>
    <i name="Echarged">      0.00000000 </i>
    <i name="Edipol_quadrupol">      0.00000000 </i>
    <i name="Eion">      0.00000000 </i>
   </dipole>
   <energy>
    <i name="e_fr_energy">   -222.88285537 </i>
    <i name="e_wo_entrp">   -222.59145566 </i>
    <i name="e_0_energy">   -222.73715552 </i>
   </energy>
  </scstep>
  <scstep>
   <time name="diag">    1.55    1.56</time>
   <time name="diis">    4.10    4.13</time>
   <time name="orth">    0.42    0.43</time>
   <time name="total">    6.38    6.43</time>
   <dipole>
    <v name="dipole">      0.00000000       0.00000000       2.36924441 </v>
    <i name="Tr[quadrupol]"> -11257.84679551 </i>
    <i name="Echarged">      0.00000000 </i>
    <i name="Edipol_quadrupol">      0.00000000 </i>
    <i name="Eion">      0.00000000 </i>
   </dipole>
   <energy>
    <i name="e_fr_energy">   -222.85271582 </i>
    <i name="e_wo_entrp">   -222.56813786 </i>
    <i name="e_0_energy">   -222.71042684 </i>
   </energy>
  </scstep>
  <scstep>
   <time name="diag">    1.55    1.56</time>
   <time name="diis">    4.14    4.15</time>
   <time name="orth">    0.42    0.42</time>
   <time name="total">    6.42    6.44</time>
   <dipole>
    <v name="dipole">      0.00000000       0.00000000       2.28355934 </v>
    <i name="Tr[quadrupol]"> -11256.92767530 </i>
    <i name="Echarged">      0.00000000 </i>
    <i name="Edipol_quadrupol">      0.00000000 </i>
    <i name="Eion">      0.00000000 </i>
   </dipole>
   <energy>
    <i name="e_fr_energy">   -222.81480074 </i>
    <i name="e_wo_entrp">   -222.53343073 </i>
    <i name="e_0_energy">   -222.67411573 </i>
   </energy>
  </scstep>
  <scstep>
   <time name="diag">    1.55    1.55</time>
   <time name="diis">    4.13    4.15</time>
   <time name="orth">    0.42    0.42</time>
   <time name="total">    6.41    6.43</time>
   <dipole>
    <v name="dipole">      0.00000000       0.00000000       2.19650478 </v>
    <i name="Tr[quadrupol]"> -11255.62848079 </i>
    <i name="Echarged">      0.00000000 </i>
    <i name="Edipol_quadrupol">      0.00000000 </i>
    <i name="Eion">      0.00000000 </i>
   </dipole>
   <energy>
    <i name="e_fr_energy">   -222.73801356 </i>
    <i name="e_wo_entrp">   -222.45039062 </i>
    <i name="e_0_energy">   -222.59420209 </i>
   </energy>
  </scstep>
  <scstep>
   <time name="diag">    1.55    1.56</time>
   <time name="diis">    4.09    4.10</time>
   <time name="orth">    0.42    0.42</time>
   <time name="total">    6.37    6.39</time>
   <dipole>
    <v name="dipole">      0.00000000       0.00000000       2.13473351 </v>
    <i name="Tr[quadrupol]"> -11254.50099724 </i>
    <i name="Echarged">      0.00000000 </i>
    <i name="Edipol_quadrupol">      0.00000000 </i>
    <i name="Eion">      0.00000000 </i>
   </dipole>
   <energy>
    <i name="e_fr_energy">   -222.61708502 </i>
    <i name="e_wo_entrp">   -222.32798365 </i>
    <i name="e_0_energy">   -222.47253433 </i>
   </energy>
  </scstep>
  <scstep>
   <time name="diag">    1.55    1.56</time>
   <time name="diis">    4.11    4.12</time>
   <time name="orth">    0.42    0.42</time>
   <time name="total">    6.39    6.42</time>
   <dipole>
    <v name="dipole">      0.00000000       0.00000000       2.10795675 </v>
    <i name="Tr[quadrupol]"> -11254.02129979 </i>
    <i name="Echarged">      0.00000000 </i>
    <i name="Edipol_quadrupol">      0.00000000 </i>
    <i name="Eion">      0.00000000 </i>
   </dipole>
   <energy>
    <i name="e_fr_energy">   -222.59045097 </i>
    <i name="e_wo_entrp">   -222.30574503 </i>
    <i name="e_0_energy">   -222.44809800 </i>
   </energy>
  </scstep>
  <scstep>
   <time name="diag">    1.55    1.56</time>
   <time name="diis">    4.02    4.12</time>
   <time name="orth">    0.42    0.42</time>
   <time name="total">    6.30    6.41</time>
   <dipole>
    <v name="dipole">      0.00000000       0.00000000       2.08294332 </v>
    <i name="Tr[quadrupol]"> -11253.67544962 </i>
    <i name="Echarged">      0.00000000 </i>
    <i name="Edipol_quadrupol">      0.00000000 </i>
    <i name="Eion">      0.00000000 </i>
   </dipole>
   <energy>
    <i name="e_fr_energy">   -222.57316840 </i>
    <i name="e_wo_entrp">   -222.28507415 </i>
    <i name="e_0_energy">   -222.42912127 </i>
   </energy>
  </scstep>
  <scstep>
   <time name="diag">    1.55    1.55</time>
   <time name="diis">    4.17    4.18</time>
   <time name="orth">    0.42    0.42</time>
   <time name="total">    6.48    6.50</time>
   <dipole>
    <v name="dipole">      0.00000000       0.00000000       2.05625781 </v>
    <i name="Tr[quadrupol]"> -11253.34617283 </i>
    <i name="Echarged">      0.00000000 </i>
    <i name="Edipol_quadrupol">      0.00000000 </i>
    <i name="Eion">      0.00000000 </i>
   </dipole>
   <energy>
    <i name="e_fr_energy">   -222.57012403 </i>
    <i name="e_wo_entrp">   -222.28247924 </i>
    <i name="e_0_energy">   -222.42630163 </i>
   </energy>
  </scstep>
  <scstep>
   <time name="diag">    1.55    1.55</time>
   <time name="diis">    4.15    4.16</time>
   <time name="orth">    0.42    0.42</time>
   <time name="total">    6.43    6.45</time>
   <dipole>
    <v name="dipole">      0.00000000       0.00000000       2.01607199 </v>
    <i name="Tr[quadrupol]"> -11252.76445477 </i>
    <i name="Echarged">      0.00000000 </i>
    <i name="Edipol_quadrupol">      0.00000000 </i>
    <i name="Eion">      0.00000000 </i>
   </dipole>
   <energy>
    <i name="e_fr_energy">   -222.55874281 </i>
    <i name="e_wo_entrp">   -222.26973300 </i>
    <i name="e_0_energy">   -222.41423790 </i>
   </energy>
  </scstep>
  <scstep>
   <time name="diag">    1.55    1.56</time>
   <time name="diis">    4.09    4.11</time>
   <time name="orth">    0.42    0.42</time>
   <time name="total">    6.38    6.40</time>
   <dipole>
    <v name="dipole">      0.00000000       0.00000000       1.94120801 </v>
    <i name="Tr[quadrupol]"> -11251.69719713 </i>
    <i name="Echarged">      0.00000000 </i>
    <i name="Edipol_quadrupol">      0.00000000 </i>
    <i name="Eion">      0.00000000 </i>
   </dipole>
   <energy>
    <i name="e_fr_energy">   -222.54518335 </i>
    <i name="e_wo_entrp">   -222.25987326 </i>
    <i name="e_0_energy">   -222.40252831 </i>
   </energy>
  </scstep>
  <scstep>
   <time name="diag">    1.55    1.55</time>
   <time name="diis">    4.06    4.07</time>
   <time name="orth">    0.42    0.42</time>
   <time name="total">    6.34    6.36</time>
   <dipole>
    <v name="dipole">      0.00000000       0.00000000       1.89456205 </v>
    <i name="Tr[quadrupol]"> -11250.99198399 </i>
    <i name="Echarged">      0.00000000 </i>
    <i name="Edipol_quadrupol">      0.00000000 </i>
    <i name="Eion">      0.00000000 </i>
   </dipole>
   <energy>
    <i name="e_fr_energy">   -222.53674181 </i>
    <i name="e_wo_entrp">   -222.25170628 </i>
    <i name="e_0_energy">   -222.39422404 </i>
   </energy>
  </scstep>
  <scstep>
   <time name="diag">    1.55    1.56</time>
   <time name="diis">    4.15    4.16</time>
   <time name="orth">    0.42    0.42</time>
   <time name="total">    6.44    6.46</time>
   <dipole>
    <v name="dipole">      0.00000000       0.00000000       1.84547598 </v>
    <i name="Tr[quadrupol]"> -11250.28791704 </i>
    <i name="Echarged">      0.00000000 </i>
    <i name="Edipol_quadrupol">      0.00000000 </i>
    <i name="Eion">      0.00000000 </i>
   </dipole>
   <energy>
    <i name="e_fr_energy">   -222.53052425 </i>
    <i name="e_wo_entrp">   -222.24607053 </i>
    <i name="e_0_energy">   -222.38829739 </i>
   </energy>
  </scstep>
  <scstep>
   <time name="diag">    1.55    1.55</time>
   <time name="diis">    4.07    4.16</time>
   <time name="orth">    0.42    0.42</time>
   <time name="total">    6.35    6.44</time>
   <dipole>
    <v name="dipole">      0.00000000       0.00000000       1.78078773 </v>
    <i name="Tr[quadrupol]"> -11249.40134728 </i>
    <i name="Echarged">      0.00000000 </i>
    <i name="Edipol_quadrupol">      0.00000000 </i>
    <i name="Eion">      0.00000000 </i>
   </dipole>
   <energy>
    <i name="e_fr_energy">   -222.52501183 </i>
    <i name="e_wo_entrp">   -222.24010514 </i>
    <i name="e_0_energy">   -222.38255849 </i>
   </energy>
  </scstep>
  <scstep>
   <time name="diag">    1.55    1.56</time>
   <time name="diis">    4.17    4.18</time>
   <time name="orth">    0.42    0.42</time>
   <time name="total">    6.46    6.48</time>
   <dipole>
    <v name="dipole">      0.00000000       0.00000000       1.73271313 </v>
    <i name="Tr[quadrupol]"> -11248.74751280 </i>
    <i name="Echarged">      0.00000000 </i>
    <i name="Edipol_quadrupol">      0.00000000 </i>
    <i name="Eion">      0.00000000 </i>
   </dipole>
   <energy>
    <i name="e_fr_energy">   -222.52158509 </i>
    <i name="e_wo_entrp">   -222.23581578 </i>
    <i name="e_0_energy">   -222.37870043 </i>
   </energy>
  </scstep>
  <scstep>
   <time name="diag">    1.55    1.55</time>
   <time name="diis">    4.22    4.23</time>
   <time name="orth">    0.42    0.42</time>
   <time name="total">    6.51    6.52</time>
   <dipole>
    <v name="dipole">      0.00000000       0.00000000       1.67227294 </v>
    <i name="Tr[quadrupol]"> -11247.90323060 </i>
    <i name="Echarged">      0.00000000 </i>
    <i name="Edipol_quadrupol">      0.00000000 </i>
    <i name="Eion">      0.00000000 </i>
   </dipole>
   <energy>
    <i name="e_fr_energy">   -222.51764822 </i>
    <i name="e_wo_entrp">   -222.23188230 </i>
    <i name="e_0_energy">   -222.37476526 </i>
   </energy>
  </scstep>
  <scstep>
   <time name="diag">    1.55    1.55</time>
   <time name="diis">    4.15    4.16</time>
   <time name="orth">    0.42    0.42</time>
   <time name="total">    6.43    6.45</time>
   <dipole>
    <v name="dipole">      0.00000000       0.00000000       1.61833083 </v>
    <i name="Tr[quadrupol]"> -11247.16374681 </i>
    <i name="Echarged">      0.00000000 </i>
    <i name="Edipol_quadrupol">      0.00000000 </i>
    <i name="Eion">      0.00000000 </i>
   </dipole>
   <energy>
    <i name="e_fr_energy">   -222.51532777 </i>
    <i name="e_wo_entrp">   -222.22976931 </i>
    <i name="e_0_energy">   -222.37254854 </i>
   </energy>
  </scstep>
  <scstep>
   <time name="diag">    1.54    1.55</time>
   <time name="diis">    4.12    4.12</time>
   <time name="orth">    0.42    0.42</time>
   <time name="total">    6.39    6.41</time>
   <dipole>
    <v name="dipole">      0.00000000       0.00000000       1.58031773 </v>
    <i name="Tr[quadrupol]"> -11246.65515692 </i>
    <i name="Echarged">      0.00000000 </i>
    <i name="Edipol_quadrupol">      0.00000000 </i>
    <i name="Eion">      0.00000000 </i>
   </dipole>
   <energy>
    <i name="e_fr_energy">   -222.51406252 </i>
    <i name="e_wo_entrp">   -222.22916215 </i>
    <i name="e_0_energy">   -222.37161233 </i>
   </energy>
  </scstep>
  <scstep>
   <time name="diag">    1.55    1.56</time>
   <time name="diis">    4.24    4.25</time>
   <time name="orth">    0.42    0.42</time>
   <time name="total">    6.53    6.55</time>
   <dipole>
    <v name="dipole">      0.00000000       0.00000000       1.54048645 </v>
    <i name="Tr[quadrupol]"> -11246.13648665 </i>
    <i name="Echarged">      0.00000000 </i>
    <i name="Edipol_quadrupol">      0.00000000 </i>
    <i name="Eion">      0.00000000 </i>
   </dipole>
   <energy>
    <i name="e_fr_energy">   -222.51314425 </i>
    <i name="e_wo_entrp">   -222.22833527 </i>
    <i name="e_0_energy">   -222.37073976 </i>
   </energy>
  </scstep>
  <scstep>
   <time name="diag">    1.55    1.55</time>
   <time name="diis">    4.24    4.26</time>
   <time name="orth">    0.42    0.45</time>
   <time name="total">    6.52    6.60</time>
   <dipole>
    <v name="dipole">      0.00000000       0.00000000       1.50507447 </v>
    <i name="Tr[quadrupol]"> -11245.68363407 </i>
    <i name="Echarged">      0.00000000 </i>
    <i name="Edipol_quadrupol">      0.00000000 </i>
    <i name="Eion">      0.00000000 </i>
   </dipole>
   <energy>
    <i name="e_fr_energy">   -222.51247826 </i>
    <i name="e_wo_entrp">   -222.22775493 </i>
    <i name="e_0_energy">   -222.37011660 </i>
   </energy>
  </scstep>
  <scstep>
   <time name="diag">    1.55    1.56</time>
   <time name="diis">    4.11    4.13</time>
   <time name="orth">    0.42    0.42</time>
   <time name="total">    6.40    6.43</time>
   <dipole>
    <v name="dipole">      0.00000000       0.00000000       1.49494599 </v>
    <i name="Tr[quadrupol]"> -11245.58690448 </i>
    <i name="Echarged">      0.00000000 </i>
    <i name="Edipol_quadrupol">      0.00000000 </i>
    <i name="Eion">      0.00000000 </i>
   </dipole>
   <energy>
    <i name="e_fr_energy">   -222.51240593 </i>
    <i name="e_wo_entrp">   -222.22771120 </i>
    <i name="e_0_energy">   -222.37005856 </i>
   </energy>
  </scstep>
  <scstep>
   <time name="diag">    1.55    1.55</time>
   <time name="diis">    4.14    4.18</time>
   <time name="orth">    0.42    0.42</time>
   <time name="total">    6.42    6.48</time>
   <dipole>
    <v name="dipole">      0.00000000       0.00000000       1.48557228 </v>
    <i name="Tr[quadrupol]"> -11245.50584803 </i>
    <i name="Echarged">      0.00000000 </i>
    <i name="Edipol_quadrupol">      0.00000000 </i>
    <i name="Eion">      0.00000000 </i>
   </dipole>
   <energy>
    <i name="e_fr_energy">   -222.51238580 </i>
    <i name="e_wo_entrp">   -222.22748668 </i>
    <i name="e_0_energy">   -222.36993624 </i>
   </energy>
  </scstep>
  <scstep>
   <time name="diag">    1.56    1.57</time>
   <time name="diis">    3.98    3.99</time>
   <time name="orth">    0.43    0.43</time>
   <time name="total">    6.29    6.31</time>
   <dipole>
    <v name="dipole">      0.00000000       0.00000000       1.47314961 </v>
    <i name="Tr[quadrupol]"> -11245.38621053 </i>
    <i name="Echarged">      0.00000000 </i>
    <i name="Edipol_quadrupol">      0.00000000 </i>
    <i name="Eion">      0.00000000 </i>
   </dipole>
   <energy>
    <i name="e_fr_energy">   -222.51236113 </i>
    <i name="e_wo_entrp">   -222.22752798 </i>
    <i name="e_0_energy">   -222.36994456 </i>
   </energy>
  </scstep>
  <scstep>
   <time name="diag">    1.55    1.55</time>
   <time name="diis">    3.92    3.93</time>
   <time name="orth">    0.42    0.42</time>
   <time name="total">    6.20    6.23</time>
   <dipole>
    <v name="dipole">      0.00000000       0.00000000       1.46340932 </v>
    <i name="Tr[quadrupol]"> -11245.31104247 </i>
    <i name="Echarged">      0.00000000 </i>
    <i name="Edipol_quadrupol">      0.00000000 </i>
    <i name="Eion">      0.00000000 </i>
   </dipole>
   <energy>
    <i name="e_fr_energy">   -222.51241308 </i>
    <i name="e_wo_entrp">   -222.22747775 </i>
    <i name="e_0_energy">   -222.36994541 </i>
   </energy>
  </scstep>
  <scstep>
   <time name="diag">    1.55    1.56</time>
   <time name="diis">    3.88    3.89</time>
   <time name="orth">    0.42    0.42</time>
   <time name="total">    6.17    6.19</time>
   <dipole>
    <v name="dipole">      0.00000000       0.00000000       1.45349379 </v>
    <i name="Tr[quadrupol]"> -11245.24658278 </i>
    <i name="Echarged">      0.00000000 </i>
    <i name="Edipol_quadrupol">      0.00000000 </i>
    <i name="Eion">      0.00000000 </i>
   </dipole>
   <energy>
    <i name="e_fr_energy">   -222.51253081 </i>
    <i name="e_wo_entrp">   -222.22759243 </i>
    <i name="e_0_energy">   -222.37006162 </i>
   </energy>
  </scstep>
  <scstep>
   <time name="diag">    1.56    1.57</time>
   <time name="diis">    3.06    3.07</time>
   <time name="orth">    0.42    0.43</time>
   <time name="total">    5.36    5.39</time>
   <dipole>
    <v name="dipole">      0.00000000       0.00000000       1.44803007 </v>
    <i name="Tr[quadrupol]"> -11245.20069836 </i>
    <i name="Echarged">      0.00000000 </i>
    <i name="Edipol_quadrupol">      0.00000000 </i>
    <i name="Eion">      0.00000000 </i>
   </dipole>
   <energy>
    <i name="e_fr_energy">   -222.51256401 </i>
    <i name="e_wo_entrp">   -222.22764793 </i>
    <i name="e_0_energy">   -222.37010597 </i>
   </energy>
  </scstep>
  <scstep>
   <time name="diag">    1.55    1.56</time>
   <time name="diis">    2.89    2.98</time>
   <time name="orth">    0.42    0.42</time>
   <time name="total">    5.19    5.29</time>
   <dipole>
    <v name="dipole">      0.00000000       0.00000000       1.44250704 </v>
    <i name="Tr[quadrupol]"> -11245.16056748 </i>
    <i name="Echarged">      0.00000000 </i>
    <i name="Edipol_quadrupol">      0.00000000 </i>
    <i name="Eion">      0.00000000 </i>
   </dipole>
   <energy>
    <i name="e_fr_energy">   -222.51265295 </i>
    <i name="e_wo_entrp">   -222.22784859 </i>
    <i name="e_0_energy">   -222.37025077 </i>
   </energy>
  </scstep>
  <scstep>
   <time name="diag">    1.55    1.56</time>
   <time name="diis">    2.71    2.71</time>
   <time name="orth">    0.42    0.42</time>
   <time name="total">    5.00    5.01</time>
   <dipole>
    <v name="dipole">      0.00000000       0.00000000       1.43886970 </v>
    <i name="Tr[quadrupol]"> -11245.13322201 </i>
    <i name="Echarged">      0.00000000 </i>
    <i name="Edipol_quadrupol">      0.00000000 </i>
    <i name="Eion">      0.00000000 </i>
   </dipole>
   <energy>
    <i name="e_fr_energy">   -222.51270993 </i>
    <i name="e_wo_entrp">   -222.22789473 </i>
    <i name="e_0_energy">   -222.37030233 </i>
   </energy>
  </scstep>
  <scstep>
   <time name="diag">    1.56    1.56</time>
   <time name="diis">    2.83    2.84</time>
   <time name="orth">    0.42    0.42</time>
   <time name="total">    5.13    5.15</time>
   <dipole>
    <v name="dipole">      0.00000000       0.00000000       1.43503560 </v>
    <i name="Tr[quadrupol]"> -11245.10577317 </i>
    <i name="Echarged">      0.00000000 </i>
    <i name="Edipol_quadrupol">      0.00000000 </i>
    <i name="Eion">      0.00000000 </i>
   </dipole>
   <energy>
    <i name="e_fr_energy">   -222.51277729 </i>
    <i name="e_wo_entrp">   -222.22796082 </i>
    <i name="e_0_energy">   -222.37036905 </i>
   </energy>
  </scstep>
  <scstep>
   <time name="diag">    1.56    1.56</time>
   <time name="diis">    2.47    2.48</time>
   <time name="orth">    0.42    0.42</time>
   <time name="total">    4.77    4.78</time>
   <dipole>
    <v name="dipole">      0.00000000       0.00000000       1.43428230 </v>
    <i name="Tr[quadrupol]"> -11245.10042043 </i>
    <i name="Echarged">      0.00000000 </i>
    <i name="Edipol_quadrupol">      0.00000000 </i>
    <i name="Eion">      0.00000000 </i>
   </dipole>
   <energy>
    <i name="e_fr_energy">   -222.51279875 </i>
    <i name="e_wo_entrp">   -222.22798091 </i>
    <i name="e_0_energy">   -222.37038983 </i>
   </energy>
  </scstep>
  <scstep>
   <time name="diag">    1.56    1.57</time>
   <time name="diis">    2.58    2.59</time>
   <time name="orth">    0.42    0.42</time>
   <time name="total">    4.88    4.91</time>
   <dipole>
    <v name="dipole">      0.00000000       0.00000000       1.43335702 </v>
    <i name="Tr[quadrupol]"> -11245.09414522 </i>
    <i name="Echarged">      0.00000000 </i>
    <i name="Edipol_quadrupol">      0.00000000 </i>
    <i name="Eion">      0.00000000 </i>
   </dipole>
   <energy>
    <i name="e_fr_energy">   -222.51284491 </i>
    <i name="e_wo_entrp">   -222.22802035 </i>
    <i name="e_0_energy">   -222.37043263 </i>
   </energy>
  </scstep>
  <scstep>
   <time name="diag">    1.55    1.55</time>
   <time name="diis">    2.43    2.43</time>
   <time name="orth">    0.42    0.42</time>
   <time name="total">    4.72    4.73</time>
   <dipole>
    <v name="dipole">      0.00000000       0.00000000       1.43264616 </v>
    <i name="Tr[quadrupol]"> -11245.08555174 </i>
    <i name="Echarged">      0.00000000 </i>
    <i name="Edipol_quadrupol">      0.00000000 </i>
    <i name="Eion">      0.00000000 </i>
   </dipole>
   <energy>
    <i name="e_fr_energy">   -222.51286316 </i>
    <i name="e_wo_entrp">   -222.22804902 </i>
    <i name="e_0_energy">   -222.37045609 </i>
   </energy>
  </scstep>
  <scstep>
   <time name="diag">    1.55    1.56</time>
   <time name="diis">    2.46    2.49</time>
   <time name="orth">    0.42    0.42</time>
   <time name="total">    4.75    4.79</time>
   <dipole>
    <v name="dipole">      0.00000000       0.00000000       1.43201904 </v>
    <i name="Tr[quadrupol]"> -11245.07642346 </i>
    <i name="Echarged">      0.00000000 </i>
    <i name="Edipol_quadrupol">      0.00000000 </i>
    <i name="Eion">      0.00000000 </i>
   </dipole>
   <energy>
    <i name="e_fr_energy">   -222.51288591 </i>
    <i name="e_wo_entrp">   -222.22807163 </i>
    <i name="e_0_energy">   -222.37047877 </i>
   </energy>
  </scstep>
  <scstep>
   <time name="diag">    1.55    1.55</time>
   <time name="diis">    2.04    2.05</time>
   <time name="orth">    0.42    0.42</time>
   <time name="total">    4.34    4.35</time>
   <dipole>
    <v name="dipole">      0.00000000       0.00000000       1.43211579 </v>
    <i name="Tr[quadrupol]"> -11245.07562432 </i>
    <i name="Echarged">      0.00000000 </i>
    <i name="Edipol_quadrupol">      0.00000000 </i>
    <i name="Eion">      0.00000000 </i>
   </dipole>
   <energy>
    <i name="e_fr_energy">   -222.51289310 </i>
    <i name="e_wo_entrp">   -222.22807560 </i>
    <i name="e_0_energy">   -222.37048435 </i>
   </energy>
  </scstep>
  <scstep>
   <time name="diag">    1.55    1.57</time>
   <time name="diis">    2.41    2.42</time>
   <time name="orth">    0.42    0.44</time>
   <time name="total">    4.70    4.77</time>
   <dipole>
    <v name="dipole">      0.00000000       0.00000000       1.43227618 </v>
    <i name="Tr[quadrupol]"> -11245.07328429 </i>
    <i name="Echarged">      0.00000000 </i>
    <i name="Edipol_quadrupol">      0.00000000 </i>
    <i name="Eion">      0.00000000 </i>
   </dipole>
   <energy>
    <i name="e_fr_energy">   -222.51290026 </i>
    <i name="e_wo_entrp">   -222.22808176 </i>
    <i name="e_0_energy">   -222.37049101 </i>
   </energy>
  </scstep>
  <scstep>
   <time name="diag">    1.53    1.56</time>
   <time name="diis">    1.77    1.77</time>
   <time name="orth">    0.42    0.42</time>
   <time name="total">    4.04    4.08</time>
   <dipole>
    <v name="dipole">      0.00000000       0.00000000       1.43242501 </v>
    <i name="Tr[quadrupol]"> -11245.07210274 </i>
    <i name="Echarged">      0.00000000 </i>
    <i name="Edipol_quadrupol">      0.00000000 </i>
    <i name="Eion">      0.00000000 </i>
   </dipole>
   <energy>
    <i name="e_fr_energy">   -222.51290280 </i>
    <i name="e_wo_entrp">   -222.22808330 </i>
    <i name="e_0_energy">   -222.37049305 </i>
   </energy>
  </scstep>
  <scstep>
   <time name="diag">    1.55    1.56</time>
   <time name="diis">    1.68    1.68</time>
   <time name="orth">    0.42    0.42</time>
   <time name="total">    3.97    3.99</time>
   <dipole>
    <v name="dipole">      0.00000000       0.00000000       1.43256797 </v>
    <i name="Tr[quadrupol]"> -11245.07059862 </i>
    <i name="Echarged">      0.00000000 </i>
    <i name="Edipol_quadrupol">      0.00000000 </i>
    <i name="Eion">      0.00000000 </i>
   </dipole>
   <energy>
    <i name="e_fr_energy">   -222.51290411 </i>
    <i name="e_wo_entrp">   -222.22808737 </i>
    <i name="e_0_energy">   -222.37049574 </i>
   </energy>
  </scstep>
  <scstep>
   <time name="diag">    1.55    1.56</time>
   <time name="diis">    1.76    1.76</time>
   <time name="orth">    0.42    0.42</time>
   <time name="total">    3.79    3.80</time>
   <dipole>
    <v name="dipole">      0.00000000       0.00000000       1.43264967 </v>
    <i name="Tr[quadrupol]"> -11245.06885391 </i>
    <i name="Echarged">      0.00000000 </i>
    <i name="Edipol_quadrupol">      0.00000000 </i>
    <i name="Eion">      0.00000000 </i>
   </dipole>
   <energy>
    <i name="alphaZ">    891.68121606 </i>
    <i name="ewald"> 254380.45317138 </i>
    <i name="hartreedc">-299349.01088144 </i>
    <i name="XCdc">   -125.08634080 </i>
    <i name="pawpsdc">  52765.98378500 </i>
    <i name="pawaedc"> -50867.95120079 </i>
    <i name="eentropy">     -0.28481857 </i>
    <i name="bandstr">  -3036.18927653 </i>
    <i name="atom">  45117.89144060 </i>
    <i name="e_fr_energy">   -222.51290509 </i>
    <i name="e_wo_entrp">   -222.22808652 </i>
    <i name="e_0_energy">   -222.37049580 </i>
   </energy>
  </scstep>
  <structure>
   <crystal>
    <varray name="basis" >
     <v>      11.00258152       0.00000000       0.00000000 </v>
     <v>       5.50129076       9.52851510       0.00000000 </v>
     <v>       0.00000000       0.00000000      26.19178509 </v>
    </varray>
    <i name="volume">   2745.90128299 </i>
    <varray name="rec_basis" >
     <v>       0.09088776      -0.05247407       0.00000000 </v>
     <v>       0.00000000       0.10494815       0.00000000 </v>
     <v>       0.00000000       0.00000000       0.03817991 </v>
    </varray>
   </crystal>
   <varray name="positions" >
    <v>       0.08333333       0.08333333       0.38179910 </v>
    <v>       0.33333333       0.83333333       0.38179910 </v>
    <v>       0.91666667       0.16666667       0.46754708 </v>
    <v>       0.83333333       0.83333333       0.38179910 </v>
    <v>       0.83333333       0.58333333       0.38179910 </v>
    <v>       0.08333333       0.33333333       0.38179910 </v>
    <v>       0.91666667       0.41666667       0.46754708 </v>
    <v>       0.00000000       0.25000000       0.55329505 </v>
    <v>       0.83333333       0.33333333       0.38179910 </v>
    <v>       0.08333333       0.58333333       0.38179910 </v>
    <v>       0.66666667       0.16666667       0.46754708 </v>
    <v>       0.91666667       0.91666667       0.46754708 </v>
    <v>       0.83333333       0.08333333       0.38179910 </v>
    <v>       0.58333333       0.83333333       0.38179910 </v>
    <v>       0.33333333       0.08333333       0.38179910 </v>
    <v>       0.16666667       0.16666667       0.46754708 </v>
    <v>       0.58333333       0.58333333       0.38179910 </v>
    <v>       0.58333333       0.33333333       0.38179910 </v>
    <v>       0.33333333       0.33333333       0.38179910 </v>
    <v>       0.41666667       0.16666667       0.46754708 </v>
    <v>       0.25000000       0.25000000       0.55329505 </v>
    <v>       0.58333333       0.08333333       0.38179910 </v>
    <v>       0.33333333       0.58333333       0.38179910 </v>
    <v>       0.16666667       0.66666667       0.46754708 </v>
    <v>       0.33333333       0.08333333       0.61820090 </v>
    <v>       0.33333333       0.58333333       0.61820090 </v>
    <v>       0.08333333       0.58333333       0.61820090 </v>
    <v>       0.33333333       0.33333333       0.61820090 </v>
    <v>       0.83333333       0.83333333       0.61820090 </v>
    <v>       0.58333333       0.83333333       0.61820090 </v>
    <v>       0.83333333       0.08333333       0.61820090 </v>
    <v>       0.58333333       0.58333333       0.61820090 </v>
    <v>       0.00000000       0.75000000       0.55329505 </v>
    <v>       0.25000000       0.75000000       0.55329505 </v>
    <v>       0.41666667       0.41666667       0.46754708 </v>
    <v>       0.50000000       0.25000000       0.55329505 </v>
    <v>       0.16666667       0.91666667       0.46754708 </v>
    <v>       0.25000000       0.00000000       0.55329505 </v>
    <v>       0.41666667       0.66666667       0.46754708 </v>
    <v>       0.50000000       0.50000000       0.55329505 </v>
    <v>       0.50000000       0.00000000       0.55329505 </v>
    <v>       0.41666667       0.91666667       0.46754708 </v>
    <v>       0.50000000       0.75000000       0.55329505 </v>
    <v>       0.08333333       0.83333333       0.38179910 </v>
    <v>       0.00000000       0.50000000       0.55329505 </v>
    <v>       0.75000000       0.00000000       0.55329505 </v>
    <v>       0.91666667       0.66666667       0.46754708 </v>
    <v>       0.66666667       0.41666667       0.46754708 </v>
    <v>       0.75000000       0.25000000       0.55329505 </v>
    <v>       0.66666667       0.66666667       0.46754708 </v>
    <v>       0.75000000       0.50000000       0.55329505 </v>
    <v>       0.00000000       0.00000000       0.55329505 </v>
    <v>       0.66666667       0.91666667       0.46754708 </v>
    <v>       0.25000000       0.50000000       0.55329505 </v>
    <v>       0.75000000       0.75000000       0.55329505 </v>
    <v>       0.16666667       0.41666667       0.46754708 </v>
   </varray>
  </structure>
  <varray name="forces" >
   <v>      -0.08487239      -0.46287116      -1.61637162 </v>
   <v>      -0.31003605       0.01439398      -1.06685379 </v>
   <v>      -0.18422525      -0.13070915       0.60797517 </v>
   <v>       0.04782894      -0.07185951      -1.33159845 </v>
   <v>      -0.01166339       0.14983074      -1.31251156 </v>
   <v>       0.14324255       0.15067576      -1.63866768 </v>
   <v>      -0.02509251       0.92796201       1.06244170 </v>
   <v>      -0.26807999       0.03611722       1.62414861 </v>
   <v>      -0.13899781       0.14733616      -1.63967096 </v>
   <v>      -0.03051432       0.10152455      -1.32521989 </v>
   <v>      -0.33047508       0.21723598       1.21761982 </v>
   <v>       0.01227465      -0.48497699       0.61503755 </v>
   <v>       0.10659176      -0.22578121      -1.85803102 </v>
   <v>       0.04598364       0.02457318      -1.04145043 </v>
   <v>      -0.02837415      -0.22838951      -1.64127004 </v>
   <v>       0.26439972      -0.46426277       0.52861248 </v>
   <v>      -0.00772001      -0.02375991      -1.07015443 </v>
   <v>      -0.04449358       0.14301387      -1.36320183 </v>
   <v>       0.03735742       0.15815376      -1.40639237 </v>
   <v>       0.19020916      -0.20261235       0.72234303 </v>
   <v>      -0.13343905       0.14648796       2.44518647 </v>
   <v>       0.01078336      -0.17672449      -1.61815827 </v>
   <v>       0.03037728       0.18614033      -1.29415916 </v>
   <v>       0.07318928      -0.04928545       0.75725045 </v>
   <v>      -0.22218864      -0.45547960      -2.74525367 </v>
   <v>       0.22139547       0.35410842      -3.23924608 </v>
   <v>      -0.39045097       0.05749798      -3.15542430 </v>
   <v>       0.56084178      -0.10687447      -2.67714363 </v>
   <v>      -0.05247572      -0.21322134      -3.22937692 </v>
   <v>       0.03026934      -0.09768431      -3.16742013 </v>
   <v>       0.21420612       0.25081026      -3.41980275 </v>
   <v>       0.14705908      -0.19404192      -3.29637739 </v>
   <v>      -0.30934812      -0.29165172       2.90506938 </v>
   <v>       0.18400669      -0.12282906       1.57956456 </v>
   <v>       0.15344101       0.27248495       0.76696959 </v>
   <v>      -0.01575978       0.19025682       1.81370528 </v>
   <v>       0.23044060      -0.32340194       1.16377275 </v>
   <v>       0.07531410      -0.24172479       1.59469710 </v>
   <v>       0.30264360       0.13226513       0.58859901 </v>
   <v>       0.03969065       0.20339584       2.43878763 </v>
   <v>      -0.12407677      -0.30506467       2.56142088 </v>
   <v>       0.01683986      -0.48811648       0.59259413 </v>
   <v>       0.19863752      -0.22230790       2.41500871 </v>
   <v>       0.13787344       0.02754044      -0.88927905 </v>
   <v>       0.17092182       0.55666375       1.67809416 </v>
   <v>       0.17814770       0.02513145       2.70894178 </v>
   <v>      -0.28763710       0.09261331       0.65883589 </v>
   <v>      -0.27004507       0.32431281       0.97813963 </v>
   <v>       0.03798324      -0.29187409       1.78687776 </v>
   <v>      -0.00942187       0.20487602       0.67247511 </v>
   <v>      -0.40029940       0.29974562       1.57400541 </v>
   <v>      -0.18445462       0.16748694       1.84666377 </v>
   <v>      -0.21564296      -0.26144962       0.86492491 </v>
   <v>       0.05374791       0.13390643       3.21976819 </v>
   <v>      -0.00880621       0.21717322       2.42658685 </v>
   <v>       0.17289313       0.22323949       0.62691766 </v>
  </varray>
  <energy>
   <i name="e_fr_energy">   -222.51290509 </i>
   <i name="e_wo_entrp">   -222.37049580 </i>
   <i name="e_0_energy">     -0.28481857 </i>
  </energy>
  <time name="totalsc">  329.44  331.70</time>
 </calculation>
 <calculation>
  <scstep>
   <time name="dav">    8.67    8.69</time>
   <time name="total">    8.98    9.01</time>
   <dipole>
    <v name="dipole">      0.00000000       0.00000000       1.43267399 </v>
    <i name="Tr[quadrupol]"> -11252.78786799 </i>
    <i name="Echarged">      0.00000000 </i>
    <i name="Edipol_quadrupol">      0.00000000 </i>
    <i name="Eion">      0.00000000 </i>
   </dipole>
   <energy>
    <i name="alphaZ">    890.62819843 </i>
    <i name="ewald"> 253837.22464702 </i>
    <i name="hartreedc">-298793.73772075 </i>
    <i name="XCdc">   -124.62004714 </i>
    <i name="pawpsdc">  52765.98145094 </i>
    <i name="pawaedc"> -50867.94883155 </i>
    <i name="eentropy">     -0.25238571 </i>
    <i name="bandstr">  -3050.56191628 </i>
    <i name="atom">  45117.89144060 </i>
    <i name="e_fr_energy">   -225.39516444 </i>
    <i name="e_wo_entrp">   -225.14277873 </i>
    <i name="e_0_energy">   -225.26897158 </i>
   </energy>
  </scstep>
  <scstep>
   <time name="diag">    1.55    1.56</time>
   <time name="diis">    4.12    4.13</time>
   <time name="orth">    0.42    0.42</time>
   <time name="total">    6.40    6.42</time>
   <dipole>
    <v name="dipole">      0.00000000       0.00000000       1.02840877 </v>
    <i name="Tr[quadrupol]"> -11252.33653694 </i>
    <i name="Echarged">      0.00000000 </i>
    <i name="Edipol_quadrupol">      0.00000000 </i>
    <i name="Eion">      0.00000000 </i>
   </dipole>
   <energy>
    <i name="e_fr_energy">   -229.98506186 </i>
    <i name="e_wo_entrp">   -229.64170731 </i>
    <i name="e_0_energy">   -229.81338459 </i>
   </energy>
  </scstep>
  <scstep>
   <time name="diag">    1.55    1.55</time>
   <time name="diis">    4.10    4.11</time>
   <time name="orth">    0.42    0.42</time>
   <time name="total">    6.37    6.39</time>
   <dipole>
    <v name="dipole">      0.00000000       0.00000000       1.38356881 </v>
    <i name="Tr[quadrupol]"> -11252.45346720 </i>
    <i name="Echarged">      0.00000000 </i>
    <i name="Edipol_quadrupol">      0.00000000 </i>
    <i name="Eion">      0.00000000 </i>
   </dipole>
   <energy>
    <i name="e_fr_energy">   -228.18827867 </i>
    <i name="e_wo_entrp">   -227.95103035 </i>
    <i name="e_0_energy">   -228.06965451 </i>
   </energy>
  </scstep>
  <scstep>
   <time name="diag">    1.55    1.55</time>
   <time name="diis">    4.00    4.09</time>
   <time name="orth">    0.42    0.42</time>
   <time name="total">    6.28    6.38</time>
   <dipole>
    <v name="dipole">      0.00000000       0.00000000       1.09840445 </v>
    <i name="Tr[quadrupol]"> -11253.21210523 </i>
    <i name="Echarged">      0.00000000 </i>
    <i name="Edipol_quadrupol">      0.00000000 </i>
    <i name="Eion">      0.00000000 </i>
   </dipole>
   <energy>
    <i name="e_fr_energy">   -229.03592339 </i>
    <i name="e_wo_entrp">   -228.73753832 </i>
    <i name="e_0_energy">   -228.88673085 </i>
   </energy>
  </scstep>
  <scstep>
   <time name="diag">    1.56    1.56</time>
   <time name="diis">    4.13    4.14</time>
   <time name="orth">    0.42    0.43</time>
   <time name="total">    6.41    6.44</time>
   <dipole>
    <v name="dipole">      0.00000000       0.00000000       1.06601882 </v>
    <i name="Tr[quadrupol]"> -11253.21648326 </i>
    <i name="Echarged">      0.00000000 </i>
    <i name="Edipol_quadrupol">      0.00000000 </i>
    <i name="Eion">      0.00000000 </i>
   </dipole>
   <energy>
    <i name="e_fr_energy">   -228.61004767 </i>
    <i name="e_wo_entrp">   -228.29996956 </i>
    <i name="e_0_energy">   -228.45500861 </i>
   </energy>
  </scstep>
  <scstep>
   <time name="diag">    1.55    1.56</time>
   <time name="diis">    4.12    4.13</time>
   <time name="orth">    0.42    0.42</time>
   <time name="total">    6.40    6.43</time>
   <dipole>
    <v name="dipole">      0.00000000       0.00000000       1.15537201 </v>
    <i name="Tr[quadrupol]"> -11253.25448186 </i>
    <i name="Echarged">      0.00000000 </i>
    <i name="Edipol_quadrupol">      0.00000000 </i>
    <i name="Eion">      0.00000000 </i>
   </dipole>
   <energy>
    <i name="e_fr_energy">   -228.06892682 </i>
    <i name="e_wo_entrp">   -227.79091610 </i>
    <i name="e_0_energy">   -227.92992146 </i>
   </energy>
  </scstep>
  <scstep>
   <time name="diag">    1.55    1.55</time>
   <time name="diis">    4.11    4.12</time>
   <time name="orth">    0.42    0.42</time>
   <time name="total">    6.38    6.40</time>
   <dipole>
    <v name="dipole">      0.00000000       0.00000000       1.14516478 </v>
    <i name="Tr[quadrupol]"> -11253.43082123 </i>
    <i name="Echarged">      0.00000000 </i>
    <i name="Edipol_quadrupol">      0.00000000 </i>
    <i name="Eion">      0.00000000 </i>
   </dipole>
   <energy>
    <i name="e_fr_energy">   -228.08224939 </i>
    <i name="e_wo_entrp">   -227.81757591 </i>
    <i name="e_0_energy">   -227.94991265 </i>
   </energy>
  </scstep>
  <scstep>
   <time name="diag">    1.55    1.55</time>
   <time name="diis">    4.11    4.12</time>
   <time name="orth">    0.42    0.42</time>
   <time name="total">    6.39    6.41</time>
   <dipole>
    <v name="dipole">      0.00000000       0.00000000       1.18935867 </v>
    <i name="Tr[quadrupol]"> -11253.57848204 </i>
    <i name="Echarged">      0.00000000 </i>
    <i name="Edipol_quadrupol">      0.00000000 </i>
    <i name="Eion">      0.00000000 </i>
   </dipole>
   <energy>
    <i name="e_fr_energy">   -227.94583730 </i>
    <i name="e_wo_entrp">   -227.68093428 </i>
    <i name="e_0_energy">   -227.81338579 </i>
   </energy>
  </scstep>
  <scstep>
   <time name="diag">    1.55    1.56</time>
   <time name="diis">    4.14    4.15</time>
   <time name="orth">    0.42    0.42</time>
   <time name="total">    6.42    6.44</time>
   <dipole>
    <v name="dipole">      0.00000000       0.00000000       1.19453695 </v>
    <i name="Tr[quadrupol]"> -11253.60670480 </i>
    <i name="Echarged">      0.00000000 </i>
    <i name="Edipol_quadrupol">      0.00000000 </i>
    <i name="Eion">      0.00000000 </i>
   </dipole>
   <energy>
    <i name="e_fr_energy">   -227.90618411 </i>
    <i name="e_wo_entrp">   -227.64887142 </i>
    <i name="e_0_energy">   -227.77752777 </i>
   </energy>
  </scstep>
  <scstep>
   <time name="diag">    1.55    1.55</time>
   <time name="diis">    4.03    4.12</time>
   <time name="orth">    0.42    0.42</time>
   <time name="total">    6.31    6.41</time>
   <dipole>
    <v name="dipole">      0.00000000       0.00000000       1.19134471 </v>
    <i name="Tr[quadrupol]"> -11253.60941516 </i>
    <i name="Echarged">      0.00000000 </i>
    <i name="Edipol_quadrupol">      0.00000000 </i>
    <i name="Eion">      0.00000000 </i>
   </dipole>
   <energy>
    <i name="e_fr_energy">   -227.90177182 </i>
    <i name="e_wo_entrp">   -227.64360059 </i>
    <i name="e_0_energy">   -227.77268620 </i>
   </energy>
  </scstep>
  <scstep>
   <time name="diag">    1.54    1.54</time>
   <time name="diis">    4.18    4.19</time>
   <time name="orth">    0.42    0.42</time>
   <time name="total">    6.46    6.48</time>
   <dipole>
    <v name="dipole">      0.00000000       0.00000000       1.19255798 </v>
    <i name="Tr[quadrupol]"> -11253.63401639 </i>
    <i name="Echarged">      0.00000000 </i>
    <i name="Edipol_quadrupol">      0.00000000 </i>
    <i name="Eion">      0.00000000 </i>
   </dipole>
   <energy>
    <i name="e_fr_energy">   -227.89761952 </i>
    <i name="e_wo_entrp">   -227.63857903 </i>
    <i name="e_0_energy">   -227.76809927 </i>
   </energy>
  </scstep>
  <scstep>
   <time name="diag">    1.55    1.56</time>
   <time name="diis">    4.10    4.12</time>
   <time name="orth">    0.42    0.42</time>
   <time name="total">    6.39    6.41</time>
   <dipole>
    <v name="dipole">      0.00000000       0.00000000       1.18972046 </v>
    <i name="Tr[quadrupol]"> -11253.64470768 </i>
    <i name="Echarged">      0.00000000 </i>
    <i name="Edipol_quadrupol">      0.00000000 </i>
    <i name="Eion">      0.00000000 </i>
   </dipole>
   <energy>
    <i name="e_fr_energy">   -227.89815146 </i>
    <i name="e_wo_entrp">   -227.63867158 </i>
    <i name="e_0_energy">   -227.76841152 </i>
   </energy>
  </scstep>
  <scstep>
   <time name="diag">    1.55    1.55</time>
   <time name="diis">    4.11    4.12</time>
   <time name="orth">    0.42    0.42</time>
   <time name="total">    6.39    6.41</time>
   <dipole>
    <v name="dipole">      0.00000000       0.00000000       1.19068205 </v>
    <i name="Tr[quadrupol]"> -11253.65578132 </i>
    <i name="Echarged">      0.00000000 </i>
    <i name="Edipol_quadrupol">      0.00000000 </i>
    <i name="Eion">      0.00000000 </i>
   </dipole>
   <energy>
    <i name="e_fr_energy">   -227.89725050 </i>
    <i name="e_wo_entrp">   -227.63863290 </i>
    <i name="e_0_energy">   -227.76794170 </i>
   </energy>
  </scstep>
  <scstep>
   <time name="diag">    1.56    1.56</time>
   <time name="diis">    4.13    4.14</time>
   <time name="orth">    0.42    0.42</time>
   <time name="total">    6.41    6.43</time>
   <dipole>
    <v name="dipole">      0.00000000       0.00000000       1.18930915 </v>
    <i name="Tr[quadrupol]"> -11253.66851718 </i>
    <i name="Echarged">      0.00000000 </i>
    <i name="Edipol_quadrupol">      0.00000000 </i>
    <i name="Eion">      0.00000000 </i>
   </dipole>
   <energy>
    <i name="e_fr_energy">   -227.89626496 </i>
    <i name="e_wo_entrp">   -227.63630419 </i>
    <i name="e_0_energy">   -227.76628458 </i>
   </energy>
  </scstep>
  <scstep>
   <time name="diag">    1.54    1.55</time>
   <time name="diis">    4.15    4.17</time>
   <time name="orth">    0.42    0.42</time>
   <time name="total">    6.43    6.45</time>
   <dipole>
    <v name="dipole">      0.00000000       0.00000000       1.19060223 </v>
    <i name="Tr[quadrupol]"> -11253.67741832 </i>
    <i name="Echarged">      0.00000000 </i>
    <i name="Edipol_quadrupol">      0.00000000 </i>
    <i name="Eion">      0.00000000 </i>
   </dipole>
   <energy>
    <i name="e_fr_energy">   -227.89618709 </i>
    <i name="e_wo_entrp">   -227.63739028 </i>
    <i name="e_0_energy">   -227.76678868 </i>
   </energy>
  </scstep>
  <scstep>
   <time name="diag">    1.55    1.55</time>
   <time name="diis">    4.16    4.17</time>
   <time name="orth">    0.42    0.42</time>
   <time name="total">    6.44    6.46</time>
   <dipole>
    <v name="dipole">      0.00000000       0.00000000       1.18835854 </v>
    <i name="Tr[quadrupol]"> -11253.69072091 </i>
    <i name="Echarged">      0.00000000 </i>
    <i name="Edipol_quadrupol">      0.00000000 </i>
    <i name="Eion">      0.00000000 </i>
   </dipole>
   <energy>
    <i name="e_fr_energy">   -227.89623631 </i>
    <i name="e_wo_entrp">   -227.63714307 </i>
    <i name="e_0_energy">   -227.76668969 </i>
   </energy>
  </scstep>
  <scstep>
   <time name="diag">    1.55    1.56</time>
   <time name="diis">    3.96    4.05</time>
   <time name="orth">    0.42    0.42</time>
   <time name="total">    6.25    6.35</time>
   <dipole>
    <v name="dipole">      0.00000000       0.00000000       1.18853991 </v>
    <i name="Tr[quadrupol]"> -11253.70007227 </i>
    <i name="Echarged">      0.00000000 </i>
    <i name="Edipol_quadrupol">      0.00000000 </i>
    <i name="Eion">      0.00000000 </i>
   </dipole>
   <energy>
    <i name="e_fr_energy">   -227.89627906 </i>
    <i name="e_wo_entrp">   -227.63708768 </i>
    <i name="e_0_energy">   -227.76668337 </i>
   </energy>
  </scstep>
  <scstep>
   <time name="diag">    1.55    1.55</time>
   <time name="diis">    4.01    4.02</time>
   <time name="orth">    0.42    0.42</time>
   <time name="total">    6.29    6.31</time>
   <dipole>
    <v name="dipole">      0.00000000       0.00000000       1.18651176 </v>
    <i name="Tr[quadrupol]"> -11253.71421348 </i>
    <i name="Echarged">      0.00000000 </i>
    <i name="Edipol_quadrupol">      0.00000000 </i>
    <i name="Eion">      0.00000000 </i>
   </dipole>
[...]
       <r>   -19.3699     0.0000    16.0000 </r>
       <r>   -19.2762     0.0000    16.0000 </r>
       <r>   -19.1825     0.0000    16.0000 </r>
       <r>   -19.0888     0.0000    16.0000 </r>
       <r>   -18.9951     0.0000    16.0000 </r>
       <r>   -18.9014     0.0000    16.0000 </r>
       <r>   -18.8077     0.0000    16.0000 </r>
       <r>   -18.7140     0.0000    16.0000 </r>
       <r>   -18.6202     0.0000    16.0000 </r>
       <r>   -18.5265     0.0000    16.0000 </r>
       <r>   -18.4328     0.0000    16.0000 </r>
       <r>   -18.3391     0.0000    16.0000 </r>
       <r>   -18.2454     0.0000    16.0000 </r>
       <r>   -18.1517     0.0000    16.0000 </r>
       <r>   -18.0580     0.0000    16.0000 </r>
       <r>   -17.9643     0.0000    16.0000 </r>
       <r>   -17.8706     0.0000    16.0000 </r>
       <r>   -17.7769     0.0000    16.0000 </r>
       <r>   -17.6832     0.0000    16.0000 </r>
       <r>   -17.5895     0.0000    16.0000 </r>
       <r>   -17.4958     0.0000    16.0000 </r>
       <r>   -17.4021     0.0000    16.0000 </r>
       <r>   -17.3084     0.0000    16.0000 </r>
       <r>   -17.2147     0.0000    16.0000 </r>
       <r>   -17.1209     0.0000    16.0000 </r>
       <r>   -17.0272     0.0000    16.0000 </r>
       <r>   -16.9335     0.0000    16.0000 </r>
       <r>   -16.8398     0.0000    16.0000 </r>
       <r>   -16.7461     0.0000    16.0000 </r>
       <r>   -16.6524     0.0000    16.0000 </r>
       <r>   -16.5587     0.0000    16.0000 </r>
       <r>   -16.4650     0.0000    16.0000 </r>
       <r>   -16.3713     0.0000    16.0000 </r>
       <r>   -16.2776     0.0000    16.0000 </r>
       <r>   -16.1839     0.0000    16.0000 </r>
       <r>   -16.0902     0.0000    16.0000 </r>
       <r>   -15.9965     0.0000    16.0000 </r>
       <r>   -15.9028     0.0000    16.0000 </r>
       <r>   -15.8091     0.0000    16.0000 </r>
       <r>   -15.7154     0.0000    16.0000 </r>
       <r>   -15.6216     0.0000    16.0000 </r>
       <r>   -15.5279     0.0000    16.0000 </r>
       <r>   -15.4342     0.0000    16.0000 </r>
       <r>   -15.3405     0.0000    16.0000 </r>
       <r>   -15.2468     0.0000    16.0000 </r>
       <r>   -15.1531     0.0000    16.0000 </r>
       <r>   -15.0594     0.0000    16.0000 </r>
       <r>   -14.9657     0.0000    16.0000 </r>
       <r>   -14.8720     0.0000    16.0000 </r>
       <r>   -14.7783     0.0000    16.0000 </r>
       <r>   -14.6846     0.0000    16.0000 </r>
       <r>   -14.5909     0.0000    16.0000 </r>
       <r>   -14.4972     0.0000    16.0000 </r>
       <r>   -14.4035     0.0000    16.0000 </r>
       <r>   -14.3098     0.0000    16.0000 </r>
       <r>   -14.2161     0.0000    16.0000 </r>
       <r>   -14.1223     0.0000    16.0000 </r>
       <r>   -14.0286     0.0000    16.0000 </r>
       <r>   -13.9349     0.0000    16.0000 </r>
       <r>   -13.8412     0.0000    16.0000 </r>
       <r>   -13.7475     0.0000    16.0000 </r>
       <r>   -13.6538     0.0000    16.0000 </r>
       <r>   -13.5601     0.0000    16.0000 </r>
       <r>   -13.4664     0.0000    16.0000 </r>
       <r>   -13.3727     0.0000    16.0000 </r>
       <r>   -13.2790     0.0000    16.0000 </r>
       <r>   -13.1853     0.0000    16.0000 </r>
       <r>   -13.0916     0.0000    16.0000 </r>
       <r>   -12.9979     0.0000    16.0000 </r>
       <r>   -12.9042     0.0000    16.0000 </r>
       <r>   -12.8105     0.0000    16.0000 </r>
       <r>   -12.7167     0.0000    16.0000 </r>
       <r>   -12.6230     0.0000    16.0000 </r>
       <r>   -12.5293     0.0000    16.0000 </r>
       <r>   -12.4356     0.0000    16.0000 </r>
       <r>   -12.3419     0.0000    16.0000 </r>
       <r>   -12.2482     0.0000    16.0000 </r>
       <r>   -12.1545     0.0000    16.0000 </r>
       <r>   -12.0608     0.0000    16.0000 </r>
       <r>   -11.9671     0.0000    16.0000 </r>
       <r>   -11.8734     0.0000    16.0000 </r>
       <r>   -11.7797     0.0000    16.0000 </r>
       <r>   -11.6860     0.0000    16.0000 </r>
       <r>   -11.5923     0.0000    16.0000 </r>
       <r>   -11.4986     0.0000    16.0000 </r>
       <r>   -11.4049     0.0000    16.0000 </r>
       <r>   -11.3112     0.0000    16.0000 </r>
       <r>   -11.2174     0.0000    16.0000 </r>
       <r>   -11.1237     0.0000    16.0000 </r>
       <r>   -11.0300     0.0000    16.0000 </r>
       <r>   -10.9363     0.0000    16.0000 </r>
       <r>   -10.8426     0.0000    16.0000 </r>
       <r>   -10.7489     0.0000    16.0000 </r>
       <r>   -10.6552     0.0000    16.0000 </r>
       <r>   -10.5615     0.0000    16.0000 </r>
       <r>   -10.4678     0.0000    16.0000 </r>
       <r>   -10.3741     0.0000    16.0000 </r>
       <r>   -10.2804     0.0000    16.0000 </r>
       <r>   -10.1867     0.0000    16.0000 </r>
       <r>   -10.0930     0.0000    16.0000 </r>
       <r>    -9.9993     0.0000    16.0000 </r>
       <r>    -9.9056     0.0000    16.0000 </r>
       <r>    -9.8119     0.0002    16.0000 </r>
       <r>    -9.7181     0.0293    16.0028 </r>
       <r>    -9.6244     0.7515    16.0732 </r>
       <r>    -9.5307     4.0043    16.4484 </r>
       <r>    -9.4370     4.8983    16.9074 </r>
       <r>    -9.3433     3.5576    17.2408 </r>
       <r>    -9.2496     5.1527    17.7236 </r>
       <r>    -9.1559     2.6216    17.9693 </r>
       <r>    -9.0622     0.4141    18.0081 </r>
       <r>    -8.9685     0.9794    18.0999 </r>
       <r>    -8.8748     2.9572    18.3770 </r>
       <r>    -8.7811     4.7509    18.8222 </r>
       <r>    -8.6874     7.5976    19.5341 </r>
       <r>    -8.5937     9.6865    20.4418 </r>
       <r>    -8.5000     6.7795    21.0771 </r>
       <r>    -8.4063     5.8065    21.6212 </r>
       <r>    -8.3126     4.9725    22.0871 </r>
       <r>    -8.2188     9.3288    22.9613 </r>
       <r>    -8.1251    17.5377    24.6047 </r>
       <r>    -8.0314    21.5795    26.6269 </r>
       <r>    -7.9377    27.8243    29.2342 </r>
       <r>    -7.8440    41.4032    33.1139 </r>
       <r>    -7.7503    52.0988    37.9959 </r>
       <r>    -7.6566    52.9134    42.9542 </r>
       <r>    -7.5629    58.6796    48.4529 </r>
       <r>    -7.4692    58.7722    53.9602 </r>
       <r>    -7.3755    49.6174    58.6097 </r>
       <r>    -7.2818    48.4094    63.1459 </r>
       <r>    -7.1881    53.9686    68.2031 </r>
       <r>    -7.0944    61.7544    73.9899 </r>
       <r>    -7.0007    68.1140    80.3726 </r>
       <r>    -6.9070    72.5659    87.1725 </r>
       <r>    -6.8133    80.4691    94.7129 </r>
       <r>    -6.7195    85.6580   102.7396 </r>
       <r>    -6.6258    84.2542   110.6348 </r>
       <r>    -6.5321    82.9176   118.4047 </r>
       <r>    -6.4384    87.2707   126.5825 </r>
       <r>    -6.3447    84.3129   134.4832 </r>
       <r>    -6.2510    74.3037   141.4459 </r>
       <r>    -6.1573    69.8617   147.9924 </r>
       <r>    -6.0636    69.0568   154.4634 </r>
       <r>    -5.9699    72.1789   161.2271 </r>
       <r>    -5.8762    77.6259   168.5011 </r>
       <r>    -5.7825    80.9402   176.0857 </r>
       <r>    -5.6888    86.3800   184.1800 </r>
       <r>    -5.5951    88.8112   192.5022 </r>
       <r>    -5.5014    91.6123   201.0869 </r>
       <r>    -5.4077    90.4073   209.5586 </r>
       <r>    -5.3140    86.1852   217.6347 </r>
       <r>    -5.2202    85.1996   225.6184 </r>
       <r>    -5.1265    86.0418   233.6811 </r>
       <r>    -5.0328    86.9003   241.8242 </r>
       <r>    -4.9391    86.7402   249.9523 </r>
       <r>    -4.8454    91.8911   258.5631 </r>
       <r>    -4.7517    99.3521   267.8730 </r>
       <r>    -4.6580    98.3304   277.0872 </r>
       <r>    -4.5643    94.5426   285.9464 </r>
       <r>    -4.4706    99.1663   295.2389 </r>
       <r>    -4.3769   103.2985   304.9186 </r>
       <r>    -4.2832   110.1056   315.2362 </r>
       <r>    -4.1895   113.8055   325.9005 </r>
       <r>    -4.0958   112.1179   336.4067 </r>
       <r>    -4.0021   109.8381   346.6992 </r>
       <r>    -3.9084   103.5830   356.4056 </r>
       <r>    -3.8147    95.0816   365.3153 </r>
       <r>    -3.7209    85.0234   373.2826 </r>
       <r>    -3.6272    90.0233   381.7183 </r>
       <r>    -3.5335    96.4350   390.7549 </r>
       <r>    -3.4398    94.4284   399.6034 </r>
       <r>    -3.3461    91.1441   408.1442 </r>
       <r>    -3.2524    81.9805   415.8263 </r>
       <r>    -3.1587    76.1139   422.9586 </r>
       <r>    -3.0650    78.9064   430.3527 </r>
       <r>    -2.9713    79.5744   437.8093 </r>
       <r>    -2.8776    77.8752   445.1067 </r>
       <r>    -2.7839    80.7312   452.6717 </r>
       <r>    -2.6902    81.5360   460.3122 </r>
       <r>    -2.5965    86.7517   468.4413 </r>
       <r>    -2.5028    87.9221   476.6802 </r>
       <r>    -2.4091    85.9339   484.7327 </r>
       <r>    -2.3153    89.3162   493.1022 </r>
       <r>    -2.2216    90.6358   501.5954 </r>
       <r>    -2.1279    87.1072   509.7579 </r>
       <r>    -2.0342    82.2979   517.4697 </r>
       <r>    -1.9405    69.8349   524.0137 </r>
       <r>    -1.8468    53.2221   529.0009 </r>
       <r>    -1.7531    43.5382   533.0807 </r>
       <r>    -1.6594    44.3706   537.2385 </r>
       <r>    -1.5657    44.1129   541.3722 </r>
       <r>    -1.4720    40.2009   545.1393 </r>
       <r>    -1.3783    36.0923   548.5213 </r>
       <r>    -1.2846    34.6365   551.7670 </r>
       <r>    -1.1909    33.5266   554.9086 </r>
       <r>    -1.0972    34.0185   558.0964 </r>
       <r>    -1.0035    38.6054   561.7140 </r>
       <r>    -0.9098    42.9022   565.7342 </r>
       <r>    -0.8160    41.1483   569.5900 </r>
       <r>    -0.7223    34.3911   572.8127 </r>
       <r>    -0.6286    29.9660   575.6207 </r>
       <r>    -0.5349    28.6989   578.3100 </r>
       <r>    -0.4412    22.5178   580.4200 </r>
       <r>    -0.3475    14.3056   581.7605 </r>
       <r>    -0.2538    12.3561   582.9184 </r>
       <r>    -0.1601    10.7263   583.9235 </r>
       <r>    -0.0664     8.3461   584.7056 </r>
       <r>     0.0273    12.5318   585.8799 </r>
       <r>     0.1210    17.2972   587.5007 </r>
       <r>     0.2147    17.0792   589.1012 </r>
       <r>     0.3084    18.7790   590.8609 </r>
       <r>     0.4021    18.5734   592.6013 </r>
       <r>     0.4958    16.3310   594.1316 </r>
       <r>     0.5895    16.1241   595.6426 </r>
       <r>     0.6833    16.3531   597.1750 </r>
       <r>     0.7770    11.6326   598.2650 </r>
       <r>     0.8707    10.3829   599.2379 </r>
       <r>     0.9644    10.1512   600.1892 </r>
       <r>     1.0581     7.5913   600.9005 </r>
       <r>     1.1518     9.0933   601.7526 </r>
       <r>     1.2455    12.3207   602.9072 </r>
       <r>     1.3392    13.9459   604.2140 </r>
       <r>     1.4329    13.4359   605.4730 </r>
       <r>     1.5266    17.3062   607.0947 </r>
       <r>     1.6203    21.6495   609.1234 </r>
       <r>     1.7140    22.6281   611.2438 </r>
       <r>     1.8077    19.3623   613.0582 </r>
       <r>     1.9014    14.7987   614.4449 </r>
       <r>     1.9951    14.9224   615.8432 </r>
       <r>     2.0888    14.5282   617.2046 </r>
       <r>     2.1826    11.1192   618.2465 </r>
       <r>     2.2763    11.5482   619.3287 </r>
       <r>     2.3700    11.9602   620.4494 </r>
       <r>     2.4637     5.2161   620.9382 </r>
       <r>     2.5574     1.3423   621.0640 </r>
       <r>     2.6511     4.8870   621.5219 </r>
       <r>     2.7448     9.9821   622.4573 </r>
       <r>     2.8385    11.6489   623.5489 </r>
       <r>     2.9322    16.4660   625.0919 </r>
       <r>     3.0259    19.7961   626.9469 </r>
       <r>     3.1196    16.4902   628.4921 </r>
       <r>     3.2133    11.7191   629.5903 </r>
       <r>     3.3070     9.9654   630.5241 </r>
       <r>     3.4007    11.8533   631.6348 </r>
       <r>     3.4944    14.7801   633.0198 </r>
       <r>     3.5881    16.1601   634.5341 </r>
       <r>     3.6819    15.9005   636.0241 </r>
       <r>     3.7756    18.1618   637.7260 </r>
       <r>     3.8693    24.1203   639.9862 </r>
       <r>     3.9630    26.0245   642.4248 </r>
       <r>     4.0567    21.9620   644.4828 </r>
       <r>     4.1504    18.5391   646.2200 </r>
       <r>     4.2441    22.1820   648.2986 </r>
       <r>     4.3378    25.1283   650.6533 </r>
       <r>     4.4315    21.8200   652.6980 </r>
       <r>     4.5252    20.8031   654.6474 </r>
       <r>     4.6189    21.6213   656.6734 </r>
       <r>     4.7126    25.3465   659.0486 </r>
       <r>     4.8063    29.9312   661.8533 </r>
       <r>     4.9000    32.1494   664.8659 </r>
       <r>     4.9937    31.9038   667.8555 </r>
       <r>     5.0874    28.7215   670.5469 </r>
       <r>     5.1812    13.2519   671.7887 </r>
       <r>     5.2749     2.1497   671.9901 </r>
       <r>     5.3686     0.1043   671.9999 </r>
       <r>     5.4623     0.0013   672.0000 </r>
       <r>     5.5560     0.0000   672.0000 </r>
       <r>     5.6497     0.0000   672.0000 </r>
       <r>     5.7434     0.0000   672.0000 </r>
       <r>     5.8371     0.0000   672.0000 </r>
       <r>     5.9308     0.0000   672.0000 </r>
       <r>     6.0245     0.0000   672.0000 </r>
       <r>     6.1182     0.0000   672.0000 </r>
       <r>     6.2119     0.0000   672.0000 </r>
       <r>     6.3056     0.0000   672.0000 </r>
       <r>     6.3993     0.0000   672.0000 </r>
      </set>
     </set>
    </array>
   </total>
  </dos>
 </calculation>
 <structure name="finalpos" >
  <crystal>
   <varray name="basis" >
    <v>      11.00258152       0.00000000       0.00000000 </v>
    <v>       5.50129076       9.52851510       0.00000000 </v>
    <v>       0.00000000       0.00000000      26.19178509 </v>
   </varray>
   <i name="volume">   2745.90128299 </i>
   <varray name="rec_basis" >
    <v>       0.09088776      -0.05247407       0.00000000 </v>
    <v>       0.00000000       0.10494815       0.00000000 </v>
    <v>       0.00000000       0.00000000       0.03817991 </v>
   </varray>
  </crystal>
  <varray name="positions" >
   <v>       0.08333333       0.08333333       0.38179910 </v>
   <v>       0.33333333       0.83333333       0.38179910 </v>
   <v>       0.91799322       0.16743694       0.47742499 </v>
   <v>       0.83333333       0.83333333       0.38179910 </v>
   <v>       0.83333333       0.58333333       0.38179910 </v>
   <v>       0.08333333       0.33333333       0.38179910 </v>
   <v>       0.91828697       0.42083351       0.47782116 </v>
   <v>       0.00122834       0.24755284       0.57593700 </v>
   <v>       0.83333333       0.33333333       0.38179910 </v>
   <v>       0.08333333       0.58333333       0.38179910 </v>
   <v>       0.66295734       0.16978780       0.47869293 </v>
   <v>       0.91826873       0.91371993       0.47884639 </v>
   <v>       0.83333333       0.08333333       0.38179910 </v>
   <v>       0.58333333       0.83333333       0.38179910 </v>
   <v>       0.33333333       0.08333333       0.38179910 </v>
   <v>       0.16994044       0.16606676       0.48164052 </v>
   <v>       0.58333333       0.58333333       0.38179910 </v>
   <v>       0.58333333       0.33333333       0.38179910 </v>
   <v>       0.33333333       0.33333333       0.38179910 </v>
   <v>       0.41467825       0.16739707       0.48187130 </v>
   <v>       0.22701883       0.26026324       0.59819627 </v>
   <v>       0.58333333       0.08333333       0.38179910 </v>
   <v>       0.33333333       0.58333333       0.38179910 </v>
   <v>       0.16746704       0.66472345       0.47967756 </v>
   <v>       0.33735060       0.05411586       0.62085549 </v>
   <v>       0.33435951       0.60681557       0.61465002 </v>
   <v>       0.06402343       0.58207478       0.61949860 </v>
   <v>       0.37003515       0.31936513       0.62471298 </v>
   <v>       0.82497068       0.84061115       0.61393770 </v>
   <v>       0.58683821       0.82853757       0.61075494 </v>
   <v>       0.83685252       0.09685767       0.61378654 </v>
   <v>       0.60414647       0.57118637       0.61102909 </v>
   <v>       0.00670026       0.75587268       0.57844441 </v>
   <v>       0.24653010       0.75890188       0.56490063 </v>
   <v>       0.41495396       0.41991342       0.48047938 </v>
   <v>       0.50564658       0.24883770       0.56900779 </v>
   <v>       0.16955672       0.91541195       0.47820993 </v>
   <v>       0.24785517      -0.00496207       0.56893505 </v>
   <v>       0.41876085       0.66653013       0.47658421 </v>
   <v>       0.50524303       0.49281509       0.57118058 </v>
   <v>       0.50168779       0.00669265       0.57082535 </v>
   <v>       0.41855047       0.91415287       0.47768331 </v>
   <v>       0.49647563       0.74903080       0.56794166 </v>
   <v>       0.08333333       0.83333333       0.38179910 </v>
   <v>       0.00303202       0.49664978       0.56677412 </v>
   <v>       0.74401281       0.01087230       0.57038259 </v>
   <v>       0.91502211       0.66954580       0.47861325 </v>
   <v>       0.66405319       0.42009015       0.47791520 </v>
   <v>       0.75103817       0.25835553       0.56597597 </v>
   <v>       0.66578136       0.66949702       0.47554101 </v>
   <v>       0.76314843       0.49777127       0.56403941 </v>
   <v>       0.00565951      -0.00079459       0.56858355 </v>
   <v>       0.66511680       0.91731304       0.47851939 </v>
   <v>       0.25073606       0.49943493       0.58321933 </v>
   <v>       0.75530162       0.74478180       0.56655748 </v>
   <v>       0.16912341       0.41781333       0.47965068 </v>
  </varray>
  <varray name="selective"  type="logical" >
   <v type="logical" >  F  F  F </v>
   <v type="logical" >  F  F  F </v>
   <v type="logical" >  T  T  T </v>
   <v type="logical" >  F  F  F </v>
   <v type="logical" >  F  F  F </v>
   <v type="logical" >  F  F  F </v>
   <v type="logical" >  T  T  T </v>
   <v type="logical" >  T  T  T </v>
   <v type="logical" >  F  F  F </v>
   <v type="logical" >  F  F  F </v>
   <v type="logical" >  T  T  T </v>
   <v type="logical" >  T  T  T </v>
   <v type="logical" >  F  F  F </v>
   <v type="logical" >  F  F  F </v>
   <v type="logical" >  F  F  F </v>
   <v type="logical" >  T  T  T </v>
   <v type="logical" >  F  F  F </v>
   <v type="logical" >  F  F  F </v>
   <v type="logical" >  F  F  F </v>
   <v type="logical" >  T  T  T </v>
   <v type="logical" >  T  T  T </v>
   <v type="logical" >  F  F  F </v>
   <v type="logical" >  F  F  F </v>
   <v type="logical" >  T  T  T </v>
   <v type="logical" >  T  T  T </v>
   <v type="logical" >  T  T  T </v>
   <v type="logical" >  T  T  T </v>
   <v type="logical" >  T  T  T </v>
   <v type="logical" >  T  T  T </v>
   <v type="logical" >  T  T  T </v>
   <v type="logical" >  T  T  T </v>
   <v type="logical" >  T  T  T </v>
   <v type="logical" >  T  T  T </v>
   <v type="logical" >  T  T  T </v>
   <v type="logical" >  T  T  T </v>
   <v type="logical" >  T  T  T </v>
   <v type="logical" >  T  T  T </v>
   <v type="logical" >  T  T  T </v>
   <v type="logical" >  T  T  T </v>
   <v type="logical" >  T  T  T </v>
   <v type="logical" >  T  T  T </v>
   <v type="logical" >  T  T  T </v>
   <v type="logical" >  T  T  T </v>
   <v type="logical" >  F  F  F </v>
   <v type="logical" >  T  T  T </v>
   <v type="logical" >  T  T  T </v>
   <v type="logical" >  T  T  T </v>
   <v type="logical" >  T  T  T </v>
   <v type="logical" >  T  T  T </v>
   <v type="logical" >  T  T  T </v>
   <v type="logical" >  T  T  T </v>
   <v type="logical" >  T  T  T </v>
   <v type="logical" >  T  T  T </v>
   <v type="logical" >  T  T  T </v>
   <v type="logical" >  T  T  T </v>
   <v type="logical" >  T  T  T </v>
  </varray>
  <nose>
   <v>      -3.00000000       0.00000000       0.00010000       0.00010000 </v>
  </nose>
 </structure>
</modeling>
