unknown system                          
           1
    11.002582    0.000000    0.000000
     5.501291    9.528515    0.000000
     0.000000    0.000000   26.191785
   Au   O    Pd
  24   8  24
Direct configuration=     1
   0.08333333  0.08333333  0.38179910
   0.33333333  0.83333333  0.38179910
   0.91666667  0.16666667  0.46754708
   0.83333333  0.83333333  0.38179910
   0.83333333  0.58333333  0.38179910
   0.08333333  0.33333333  0.38179910
   0.91666667  0.41666667  0.46754708
   0.00000000  0.25000000  0.55329505
   0.83333333  0.33333333  0.38179910
   0.08333333  0.58333333  0.38179910
   0.66666667  0.16666667  0.46754708
   0.91666667  0.91666667  0.46754708
   0.83333333  0.08333333  0.38179910
   0.58333333  0.83333333  0.38179910
   0.33333333  0.08333333  0.38179910
   0.16666667  0.16666667  0.46754708
   0.58333333  0.58333333  0.38179910
   0.58333333  0.33333333  0.38179910
   0.33333333  0.33333333  0.38179910
   0.41666667  0.16666667  0.46754708
   0.25000000  0.25000000  0.55329505
   0.58333333  0.08333333  0.38179910
   0.33333333  0.58333333  0.38179910
   0.16666667  0.66666667  0.46754708
   0.33333333  0.08333333  0.61820090
   0.33333333  0.58333333  0.61820090
   0.08333333  0.58333333  0.61820090
   0.33333333  0.33333333  0.61820090
   0.83333333  0.83333333  0.61820090
   0.58333333  0.83333333  0.61820090
   0.83333333  0.08333333  0.61820090
   0.58333333  0.58333333  0.61820090
   0.00000000  0.75000000  0.55329505
   0.25000000  0.75000000  0.55329505
   0.41666667  0.41666667  0.46754708
   0.50000000  0.25000000  0.55329505
   0.16666667  0.91666667  0.46754708
   0.25000000  0.00000000  0.55329505
   0.41666667  0.66666667  0.46754708
   0.50000000  0.50000000  0.55329505
   0.50000000  0.00000000  0.55329505
   0.41666667  0.91666667  0.46754708
   0.50000000  0.75000000  0.55329505
   0.08333333  0.83333333  0.38179910
   0.00000000  0.50000000  0.55329505
   0.75000000  0.00000000  0.55329505
   0.91666667  0.66666667  0.46754708
   0.66666667  0.41666667  0.46754708
   0.75000000  0.25000000  0.55329505
   0.66666667  0.66666667  0.46754708
   0.75000000  0.50000000  0.55329505
   0.00000000  0.00000000  0.55329505
   0.66666667  0.91666667  0.46754708
   0.25000000  0.50000000  0.55329505
   0.75000000  0.75000000  0.55329505
   0.16666667  0.41666667  0.46754708
Direct configuration=     2
   0.08333333  0.08333333  0.38179910
   0.33333333  0.83333333  0.38179910
   0.91633285  0.16620342  0.46833096
   0.83333333  0.83333333  0.38179910
   0.83333333  0.58333333  0.38179910
   0.08333333  0.33333333  0.38179910
   0.91494526  0.41995544  0.46891691
  -0.00088681  0.25012800  0.55538912
   0.83333333  0.33333333  0.38179910
   0.08333333  0.58333333  0.38179910
   0.66526740  0.16743657  0.46911699
   0.91756374  0.91494787  0.46834006
   0.83333333  0.08333333  0.38179910
   0.58333333  0.83333333  0.38179910
   0.33333333  0.08333333  0.38179910
   0.16830087  0.16502128  0.46822863
   0.58333333  0.58333333  0.38179910
   0.58333333  0.33333333  0.38179910
   0.33333333  0.33333333  0.38179910
   0.41760951  0.16594859  0.46847842
   0.24933086  0.25051917  0.55644770
   0.58333333  0.08333333  0.38179910
   0.33333333  0.58333333  0.38179910
   0.16697864  0.66649199  0.46852342
   0.33345851  0.08171908  0.61466136
   0.33338536  0.58458832  0.61402444
   0.08203305  0.58353711  0.61413252
   0.33524409  0.33295456  0.61474918
   0.83355011  0.83257766  0.61403717
   0.58359934  0.83298713  0.61411705
   0.83354634  0.08422223  0.61379164
   0.58412855  0.58264563  0.61395078
  -0.00043265  0.74896636  0.55704065
   0.25078242  0.74956468  0.55533163
   0.41665476  0.41763238  0.46853595
   0.49961449  0.25067429  0.55563352
   0.16794703  0.91552050  0.46904756
   0.25065951 -0.00085669  0.55535114
   0.41736118  0.66713543  0.46830597
   0.49976140  0.50072085  0.55643945
   0.50015976 -0.00108117  0.55659757
   0.41758332  0.91493674  0.46831113
   0.50100361  0.74921212  0.55640880
   0.08333333  0.83333333  0.38179910
  -0.00046183  0.50197286  0.55545867
   0.75050225  0.00008907  0.55678777
   0.91561972  0.66699490  0.46839653
   0.66526313  0.41781606  0.46880822
   0.75063379  0.24896557  0.55559893
   0.66627470  0.66739276  0.46841412
   0.74824021  0.50106232  0.55532446
  -0.00086293  0.00059359  0.55567601
   0.66646810  0.91574007  0.46866225
   0.24992768  0.50047458  0.55744640
   0.74958813  0.75076968  0.55642372
   0.16680173  0.41745785  0.46835538
Direct configuration=     3
   0.08333333  0.08333333  0.38179910
   0.33333333  0.83333333  0.38179910
   0.91568642  0.16530635  0.46984894
   0.83333333  0.83333333  0.38179910
   0.83333333  0.58333333  0.38179910
   0.08333333  0.33333333  0.38179910
   0.91161178  0.42632413  0.47156960
  -0.00260411  0.25037588  0.55944426
   0.83333333  0.33333333  0.38179910
   0.08333333  0.58333333  0.38179910
   0.66255773  0.16892748  0.47215712
   0.91930092  0.91161942  0.46987568
   0.83333333  0.08333333  0.38179910
   0.58333333  0.83333333  0.38179910
   0.33333333  0.08333333  0.38179910
   0.17146550  0.16183500  0.46954846
   0.58333333  0.58333333  0.38179910
   0.58333333  0.33333333  0.38179910
   0.33333333  0.33333333  0.38179910
   0.41943531  0.16455804  0.47028195
   0.24803507  0.25152453  0.56255279
   0.58333333  0.08333333  0.38179910
   0.33333333  0.58333333  0.38179910
   0.16758277  0.66615374  0.47041411
   0.33370090  0.07859308  0.60780707
   0.33348611  0.58701860  0.60593676
   0.07951505  0.58393172  0.60625412
   0.33894426  0.33222107  0.60806494
   0.83396989  0.83111430  0.60597413
   0.58411446  0.83231672  0.60620870
   0.83395883  0.08594356  0.60525315
   0.58566847  0.58131390  0.60572046
  -0.00127048  0.74696473  0.56429396
   0.25229758  0.74872170  0.55927546
   0.41663171  0.41950247  0.47045091
   0.49886794  0.25198004  0.56016194
   0.17042645  0.91330097  0.47195325
   0.25193663 -0.00251567  0.55933275
   0.41870610  0.66804317  0.46977558
   0.49929934  0.50211678  0.56252857
   0.50046914 -0.00317486  0.56299287
   0.41935840  0.91158675  0.46979070
   0.50294710  0.74768640  0.56243854
   0.08333333  0.83333333  0.38179910
  -0.00135615  0.50579330  0.55964850
   0.75147485  0.00026155  0.56355140
   0.91359231  0.66763051  0.47004150
   0.66254519  0.42004185  0.47125042
   0.75186113  0.24696241  0.56006037
   0.66551566  0.66879885  0.47009314
   0.74483240  0.50311951  0.55925441
  -0.00253400  0.00174307  0.56028672
   0.66608358  0.91394571  0.47082178
   0.24978763  0.50139359  0.56548545
   0.74879055  0.75226016  0.56248237
   0.16706329  0.41898996  0.46992065
Direct configuration=     4
   0.08333333  0.08333333  0.38179910
   0.33333333  0.83333333  0.38179910
   0.91584008  0.16551959  0.46948811
   0.83333333  0.83333333  0.38179910
   0.83333333  0.58333333  0.38179910
   0.08333333  0.33333333  0.38179910
   0.91240416  0.42481026  0.47093904
  -0.00219590  0.25031696  0.55848033
   0.83333333  0.33333333  0.38179910
   0.08333333  0.58333333  0.38179910
   0.66320183  0.16857308  0.47143446
   0.91888798  0.91241061  0.46951065
   0.83333333  0.08333333  0.38179910
   0.58333333  0.83333333  0.38179910
   0.33333333  0.08333333  0.38179910
   0.17071325  0.16259240  0.46923473
   0.58333333  0.58333333  0.38179910
   0.58333333  0.33333333  0.38179910
   0.33333333  0.33333333  0.38179910
   0.41900131  0.16488858  0.46985324
   0.24834308  0.25128555  0.56110158
   0.58333333  0.08333333  0.38179910
   0.33333333  0.58333333  0.38179910
   0.16743917  0.66623415  0.46996468
   0.33364328  0.07933614  0.60943637
   0.33346216  0.58644091  0.60785924
   0.08011359  0.58383792  0.60812685
   0.33806471  0.33239543  0.60965382
   0.83387011  0.83146215  0.60789075
   0.58399201  0.83247608  0.60808856
   0.83386078  0.08553439  0.60728280
   0.58530243  0.58163046  0.60767685
  -0.00107133  0.74744053  0.56256981
   0.25193742  0.74892208  0.55833799
   0.41663719  0.41905794  0.46999571
   0.49904540  0.25166965  0.55908551
   0.16983708  0.91382856  0.47126255
   0.25163305 -0.00212132  0.55838630
   0.41838641  0.66782740  0.46942624
   0.49940917  0.50178496  0.56108115
   0.50039560 -0.00267718  0.56147267
   0.41893645  0.91238306  0.46943900
   0.50248512  0.74804907  0.56100524
   0.08333333  0.83333333  0.38179910
  -0.00114357  0.50488516  0.55865255
   0.75124366  0.00022055  0.56194365
   0.91407423  0.66747942  0.46965048
   0.66319126  0.41951277  0.47066990
   0.75156939  0.24743858  0.55899986
   0.66569609  0.66846461  0.46969403
   0.74564245  0.50263050  0.55832024
  -0.00213678  0.00146983  0.55919073
   0.66617498  0.91437224  0.47030845
   0.24982092  0.50117513  0.56357452
   0.74898014  0.75190587  0.56104220
   0.16700111  0.41862577  0.46954858
Direct configuration=     5
   0.08333333  0.08333333  0.38179910
   0.33333333  0.83333333  0.38179910
   0.91579277  0.16545394  0.46959920
   0.83333333  0.83333333  0.38179910
   0.83333333  0.58333333  0.38179910
   0.08333333  0.33333333  0.38179910
   0.91216020  0.42527635  0.47113318
  -0.00232158  0.25033510  0.55877710
   0.83333333  0.33333333  0.38179910
   0.08333333  0.58333333  0.38179910
   0.66300352  0.16868220  0.47165696
   0.91901512  0.91216702  0.46962304
   0.83333333  0.08333333  0.38179910
   0.58333333  0.83333333  0.38179910
   0.33333333  0.08333333  0.38179910
   0.17094486  0.16235921  0.46933132
   0.58333333  0.58333333  0.38179910
   0.58333333  0.33333333  0.38179910
   0.33333333  0.33333333  0.38179910
   0.41913493  0.16478682  0.46998523
   0.24824825  0.25135912  0.56154838
   0.58333333  0.08333333  0.38179910
   0.33333333  0.58333333  0.38179910
   0.16748338  0.66620939  0.47010305
   0.33366102  0.07910737  0.60893474
   0.33346953  0.58661877  0.60726735
   0.07992931  0.58386680  0.60755027
   0.33833551  0.33234175  0.60916463
   0.83390083  0.83135505  0.60730066
   0.58402971  0.83242701  0.60750978
   0.83389097  0.08566037  0.60665791
   0.58541512  0.58153300  0.60707451
  -0.00113264  0.74729404  0.56310064
   0.25204831  0.74886038  0.55862662
   0.41663550  0.41919480  0.47013586
   0.49899076  0.25176521  0.55941692
   0.17001854  0.91366612  0.47147520
   0.25172652 -0.00224274  0.55867769
   0.41848484  0.66789383  0.46953380
   0.49937536  0.50188712  0.56152679
   0.50041824 -0.00283041  0.56194071
   0.41906636  0.91213789  0.46954728
   0.50262735  0.74793741  0.56144652
   0.08333333  0.83333333  0.38179910
  -0.00120902  0.50516476  0.55895919
   0.75131484  0.00023317  0.56243865
   0.91392586  0.66752594  0.46977087
   0.66299235  0.41967566  0.47084863
   0.75165921  0.24729197  0.55932637
   0.66564054  0.66856752  0.46981691
   0.74539305  0.50278106  0.55860785
  -0.00225908  0.00155395  0.55952817
   0.66614684  0.91424092  0.47046649
   0.24981067  0.50124239  0.56416286
   0.74892177  0.75201495  0.56148560
   0.16702025  0.41873790  0.46966314
Direct configuration=     6
   0.08333333  0.08333333  0.38179910
   0.33333333  0.83333333  0.38179910
   0.91581617  0.16592868  0.47095801
   0.83333333  0.83333333  0.38179910
   0.83333333  0.58333333  0.38179910
   0.08333333  0.33333333  0.38179910
   0.91251772  0.42441585  0.47312013
  -0.00263658  0.25167900  0.56028677
   0.83333333  0.33333333  0.38179910
   0.08333333  0.58333333  0.38179910
   0.66319437  0.16826999  0.47353939
   0.91871865  0.91178904  0.47142387
   0.83333333  0.08333333  0.38179910
   0.58333333  0.83333333  0.38179910
   0.33333333  0.08333333  0.38179910
   0.17061087  0.16311403  0.47120972
   0.58333333  0.58333333  0.38179910
   0.58333333  0.33333333  0.38179910
   0.33333333  0.33333333  0.38179910
   0.41872640  0.16458596  0.47201699
   0.24083881  0.25419616  0.56176616
   0.58333333  0.08333333  0.38179910
   0.33333333  0.58333333  0.38179910
   0.16776720  0.66579499  0.47192546
   0.33289061  0.07519577  0.60822340
   0.33302845  0.59027723  0.60591433
   0.07738420  0.58293800  0.60714691
   0.34341882  0.33036194  0.60875291
   0.83286107  0.83182030  0.60650223
   0.58396172  0.83173090  0.60638269
   0.83459919  0.08769770  0.60608918
   0.58765579  0.57951125  0.60595680
   0.00218045  0.75129057  0.56389711
   0.24889751  0.75465470  0.55931916
   0.41606182  0.42017930  0.47181207
   0.50325649  0.24970379  0.56054461
   0.17024510  0.91313412  0.47342320
   0.24890613 -0.00439231  0.55975018
   0.41896817  0.66749779  0.47089974
   0.50220425  0.49664879  0.56255536
   0.50245366  0.00043560  0.56273720
   0.41988232  0.91154521  0.47099130
   0.49802858  0.75090734  0.56248697
   0.08333333  0.83333333  0.38179910
  -0.00476824  0.50190195  0.55942968
   0.74601813  0.00301070  0.56307018
   0.91364911  0.66871419  0.47125273
   0.66270603  0.41979245  0.47249571
   0.74913271  0.25166450  0.56006017
   0.66472317  0.66945226  0.47117953
   0.75155383  0.49952261  0.55931682
   0.00375077 -0.00172119  0.56025192
   0.66633159  0.91407974  0.47219077
   0.25024451  0.50165916  0.56473328
   0.75047612  0.74758089  0.56226460
   0.16760743  0.41811072  0.47141524
Direct configuration=     7
   0.08333333  0.08333333  0.38179910
   0.33333333  0.83333333  0.38179910
   0.91583588  0.16632871  0.47210298
   0.83333333  0.83333333  0.38179910
   0.83333333  0.58333333  0.38179910
   0.08333333  0.33333333  0.38179910
   0.91281897  0.42369077  0.47479438
  -0.00290200  0.25281141  0.56155885
   0.83333333  0.33333333  0.38179910
   0.08333333  0.58333333  0.38179910
   0.66335519  0.16792266  0.47512558
   0.91846884  0.91147055  0.47294130
   0.83333333  0.08333333  0.38179910
   0.58333333  0.83333333  0.38179910
   0.33333333  0.08333333  0.38179910
   0.17032945  0.16375006  0.47279251
   0.58333333  0.58333333  0.38179910
   0.58333333  0.33333333  0.38179910
   0.33333333  0.33333333  0.38179910
   0.41838216  0.16441672  0.47372900
   0.23459543  0.25658671  0.56194967
   0.58333333  0.08333333  0.38179910
   0.33333333  0.58333333  0.38179910
   0.16800635  0.66544581  0.47346107
   0.33224145  0.07189977  0.60762401
   0.33265678  0.59335995  0.60477425
   0.07523962  0.58215536  0.60680702
   0.34770215  0.32869370  0.60840598
   0.83198494  0.83221233  0.60582945
   0.58390443  0.83114433  0.60543297
   0.83519595  0.08941441  0.60560996
   0.58954383  0.57780767  0.60501499
   0.00497215  0.75465814  0.56456824
   0.24624256  0.75953714  0.55990271
   0.41557842  0.42100886  0.47322449
   0.50685090  0.24796679  0.56149483
   0.17043601  0.91268584  0.47506463
   0.24652960 -0.00620360  0.56065389
   0.41937544  0.66716407  0.47205071
   0.50458794  0.49223485  0.56342207
   0.50416876  0.00318761  0.56340834
   0.42056986  0.91104579  0.47220807
   0.49415355  0.75340987  0.56336368
   0.08333333  0.83333333  0.38179910
  -0.00776734  0.49915263  0.55982613
   0.74155500  0.00535112  0.56360233
   0.91341592  0.66971543  0.47250138
   0.66246477  0.41989086  0.47388359
   0.74700382  0.25534890  0.56067849
   0.66395017  0.67019776  0.47232771
   0.75674505  0.49677696  0.55991421
   0.00881481 -0.00448091  0.56086176
   0.66648726  0.91394393  0.47364369
   0.25061006  0.50201034  0.56521392
   0.75178585  0.74384465  0.56292101
   0.16810220  0.41758225  0.47289160
Direct configuration=     8
   0.08333333  0.08333333  0.38179910
   0.33333333  0.83333333  0.38179910
   0.91605683  0.16614637  0.47308483
   0.83333333  0.83333333  0.38179910
   0.83333333  0.58333333  0.38179910
   0.08333333  0.33333333  0.38179910
   0.91322272  0.42271455  0.47435953
  -0.00437565  0.24947159  0.56358880
   0.83333333  0.33333333  0.38179910
   0.08333333  0.58333333  0.38179910
   0.66408591  0.16757697  0.47550930
   0.91775550  0.91282153  0.47409905
   0.83333333  0.08333333  0.38179910
   0.58333333  0.83333333  0.38179910
   0.33333333  0.08333333  0.38179910
   0.16982801  0.16330137  0.47354367
   0.58333333  0.58333333  0.38179910
   0.58333333  0.33333333  0.38179910
   0.33333333  0.33333333  0.38179910
   0.41810283  0.16465735  0.47505417
   0.23521320  0.25670901  0.56323994
   0.58333333  0.08333333  0.38179910
   0.33333333  0.58333333  0.38179910
   0.16824242  0.66506603  0.47443804
   0.33018141  0.06998609  0.60768419
   0.33154461  0.59786315  0.60524772
   0.07221714  0.58139659  0.60669677
   0.35128228  0.32639876  0.60865092
   0.83202084  0.83326643  0.60619970
   0.58353149  0.83169681  0.60652857
   0.83699064  0.09013137  0.60570805
   0.59315232  0.57583744  0.60532051
   0.00570530  0.75576990  0.56573606
   0.24689568  0.75989403  0.56070081
   0.41567892  0.42045024  0.47431848
   0.50778962  0.24680276  0.56267329
   0.17009174  0.91322734  0.47495208
   0.24634330 -0.00568689  0.56190029
   0.41925925  0.66668559  0.47321808
   0.50586590  0.48974688  0.56356634
   0.50309564  0.00676224  0.56364037
   0.41997824  0.91210982  0.47330585
   0.49038079  0.75346136  0.56321515
   0.08333333  0.83333333  0.38179910
  -0.00922393  0.50168285  0.56111671
   0.74106733  0.00702831  0.56399450
   0.91391138  0.66929701  0.47358896
   0.66275764  0.41990007  0.47464445
   0.74874897  0.25653041  0.56134866
   0.66395520  0.66987793  0.47325769
   0.75747420  0.49701159  0.56108811
   0.00637711 -0.00199153  0.56206067
   0.66654961  0.91409874  0.47465883
   0.24962140  0.50149371  0.56510335
   0.75509467  0.73868175  0.56241174
   0.16775611  0.41794200  0.47397516
Direct configuration=     9
   0.08333333  0.08333333  0.38179910
   0.33333333  0.83333333  0.38179910
   0.91607575  0.16613076  0.47316889
   0.83333333  0.83333333  0.38179910
   0.83333333  0.58333333  0.38179910
   0.08333333  0.33333333  0.38179910
   0.91325729  0.42263097  0.47432230
  -0.00450181  0.24918567  0.56376258
   0.83333333  0.33333333  0.38179910
   0.08333333  0.58333333  0.38179910
   0.66414847  0.16754737  0.47554215
   0.91769443  0.91293718  0.47419816
   0.83333333  0.08333333  0.38179910
   0.58333333  0.83333333  0.38179910
   0.33333333  0.08333333  0.38179910
   0.16978508  0.16326296  0.47360798
   0.58333333  0.58333333  0.38179910
   0.58333333  0.33333333  0.38179910
   0.33333333  0.33333333  0.38179910
   0.41807892  0.16467795  0.47516762
   0.23526608  0.25671948  0.56335040
   0.58333333  0.08333333  0.38179910
   0.33333333  0.58333333  0.38179910
   0.16826263  0.66503352  0.47452167
   0.33000505  0.06982227  0.60768934
   0.33144940  0.59824866  0.60528826
   0.07195839  0.58133164  0.60668733
   0.35158877  0.32620230  0.60867189
   0.83202392  0.83335667  0.60623139
   0.58349956  0.83174411  0.60662236
   0.83714428  0.09019274  0.60571644
   0.59346123  0.57566877  0.60534667
   0.00576807  0.75586507  0.56583604
   0.24695159  0.75992458  0.56076913
   0.41568752  0.42040241  0.47441214
   0.50786998  0.24670311  0.56277418
   0.17006227  0.91327369  0.47494245
   0.24632735 -0.00564266  0.56200699
   0.41924931  0.66664463  0.47331802
   0.50597531  0.48953389  0.56357869
   0.50300377  0.00706826  0.56366023
   0.41992759  0.91220091  0.47339983
   0.49005781  0.75346577  0.56320243
   0.08333333  0.83333333  0.38179910
  -0.00934863  0.50189945  0.56122720
   0.74102558  0.00717190  0.56402807
   0.91395379  0.66926119  0.47368207
   0.66278271  0.41990086  0.47470959
   0.74889837  0.25663156  0.56140604
   0.66395563  0.66985055  0.47333731
   0.75753662  0.49703168  0.56118861
   0.00616842 -0.00177842  0.56216331
   0.66655495  0.91411199  0.47474573
   0.24953676  0.50144948  0.56509389
   0.75537793  0.73823977  0.56236814
   0.16772648  0.41797279  0.47406792
Direct configuration=    10
   0.08333333  0.08333333  0.38179910
   0.33333333  0.83333333  0.38179910
   0.91633058  0.16599275  0.47352434
   0.83333333  0.83333333  0.38179910
   0.83333333  0.58333333  0.38179910
   0.08333333  0.33333333  0.38179910
   0.91383591  0.42182429  0.47400117
  -0.00418444  0.24771888  0.56550764
   0.83333333  0.33333333  0.38179910
   0.08333333  0.58333333  0.38179910
   0.66434312  0.16784763  0.47535123
   0.91759627  0.91362184  0.47473606
   0.83333333  0.08333333  0.38179910
   0.58333333  0.83333333  0.38179910
   0.33333333  0.08333333  0.38179910
   0.16922986  0.16314220  0.47404216
   0.58333333  0.58333333  0.38179910
   0.58333333  0.33333333  0.38179910
   0.33333333  0.33333333  0.38179910
   0.41772647  0.16531681  0.47558405
   0.23584644  0.25660065  0.56471957
   0.58333333  0.08333333  0.38179910
   0.33333333  0.58333333  0.38179910
   0.16790610  0.66549754  0.47485132
   0.32919210  0.06990806  0.60875996
   0.33101459  0.59914025  0.60602401
   0.07125997  0.58129542  0.60742507
   0.35241498  0.32563781  0.60975892
   0.83130721  0.83392474  0.60650926
   0.58355611  0.83162296  0.60643357
   0.83753447  0.09081258  0.60683288
   0.59430694  0.57499297  0.60601526
   0.00553009  0.75616925  0.56697896
   0.24663603  0.76037537  0.56114005
   0.41621655  0.41924388  0.47489094
   0.50944115  0.24625049  0.56336463
   0.16956447  0.91374964  0.47450017
   0.24520810 -0.00541083  0.56239617
   0.41887093  0.66644823  0.47388597
   0.50544403  0.49030864  0.56417145
   0.50313890  0.00584490  0.56445818
   0.41919947  0.91314757  0.47401337
   0.49088746  0.75302736  0.56382190
   0.08333333  0.83333333  0.38179910
  -0.00925846  0.50105120  0.56175260
   0.74253359  0.00691982  0.56444693
   0.91460194  0.66862413  0.47413931
   0.66332610  0.41974281  0.47488262
   0.74987932  0.25666094  0.56192708
   0.66416916  0.66922325  0.47377697
   0.75806171  0.49710386  0.56174549
   0.00495639 -0.00075278  0.56288005
   0.66656335  0.91414731  0.47521556
   0.24931832  0.50183118  0.56561591
   0.75389568  0.73977707  0.56294321
   0.16710457  0.41811949  0.47460707
Direct configuration=    11
   0.08333333  0.08333333  0.38179910
   0.33333333  0.83333333  0.38179910
   0.91670964  0.16578744  0.47405308
   0.83333333  0.83333333  0.38179910
   0.83333333  0.58333333  0.38179910
   0.08333333  0.33333333  0.38179910
   0.91469664  0.42062432  0.47352348
  -0.00371233  0.24553698  0.56810346
   0.83333333  0.33333333  0.38179910
   0.08333333  0.58333333  0.38179910
   0.66463266  0.16829427  0.47506723
   0.91745025  0.91464029  0.47553621
   0.83333333  0.08333333  0.38179910
   0.58333333  0.83333333  0.38179910
   0.33333333  0.08333333  0.38179910
   0.16840394  0.16296255  0.47468802
   0.58333333  0.58333333  0.38179910
   0.58333333  0.33333333  0.38179910
   0.33333333  0.33333333  0.38179910
   0.41720220  0.16626714  0.47620350
   0.23670973  0.25642389  0.56675624
   0.58333333  0.08333333  0.38179910
   0.33333333  0.58333333  0.38179910
   0.16737577  0.66618779  0.47534168
   0.32798281  0.07003569  0.61035253
   0.33036780  0.60046652  0.60711845
   0.07022103  0.58124154  0.60852247
   0.35364398  0.32479812  0.61137592
   0.83024109  0.83476975  0.60692259
   0.58364022  0.83144275  0.60615274
   0.83811490  0.09173459  0.60849361
   0.59556496  0.57398769  0.60700980
   0.00517609  0.75662171  0.56867909
   0.24616663  0.76104592  0.56169179
   0.41700349  0.41752054  0.47560318
   0.51177829  0.24557722  0.56424293
   0.16882397  0.91445762  0.47384227
   0.24354319 -0.00506597  0.56297509
   0.41830808  0.66615607  0.47473081
   0.50465374  0.49146110  0.56505319
   0.50333989  0.00402513  0.56564515
   0.41811636  0.91455576  0.47492603
   0.49212160  0.75237521  0.56474338
   0.08333333  0.83333333  0.38179910
  -0.00912433  0.49978941  0.56253414
   0.74477679  0.00654484  0.56506998
   0.91556608  0.66767650  0.47481946
   0.66413441  0.41950771  0.47513999
   0.75133852  0.25670465  0.56270214
   0.66448678  0.66829012  0.47443097
   0.75884280  0.49721124  0.56257386
   0.00315347  0.00077288  0.56394622
   0.66657584  0.91419985  0.47591443
   0.24899338  0.50239897  0.56639244
   0.75169079  0.74206385  0.56379864
   0.16617946  0.41833769  0.47540906
Direct configuration=    12
   0.08333333  0.08333333  0.38179910
   0.33333333  0.83333333  0.38179910
   0.91681782  0.16608199  0.47439823
   0.83333333  0.83333333  0.38179910
   0.83333333  0.58333333  0.38179910
   0.08333333  0.33333333  0.38179910
   0.91506892  0.42002593  0.47392354
  -0.00257663  0.24611956  0.56969271
   0.83333333  0.33333333  0.38179910
   0.08333333  0.58333333  0.38179910
   0.66471810  0.16842356  0.47513295
   0.91750596  0.91437157  0.47585474
   0.83333333  0.08333333  0.38179910
   0.58333333  0.83333333  0.38179910
   0.33333333  0.08333333  0.38179910
   0.16818653  0.16353738  0.47534271
   0.58333333  0.58333333  0.38179910
   0.58333333  0.33333333  0.38179910
   0.33333333  0.33333333  0.38179910
   0.41678118  0.16657157  0.47668075
   0.23715018  0.25595533  0.56813089
   0.58333333  0.08333333  0.38179910
   0.33333333  0.58333333  0.38179910
   0.16720056  0.66626127  0.47558053
   0.32730969  0.06988441  0.61134629
   0.32978325  0.60069621  0.60777903
   0.07037920  0.58070010  0.60939999
   0.35478972  0.32466926  0.61212789
   0.82930651  0.83537368  0.60787686
   0.58329690  0.83125121  0.60705579
   0.83733380  0.09275560  0.60992603
   0.59578972  0.57341855  0.60788211
   0.00546070  0.75616866  0.56964341
   0.24536517  0.76163313  0.56194913
   0.41696886  0.41726099  0.47597604
   0.51209416  0.24561815  0.56503760
   0.16859137  0.91443075  0.47382463
   0.24334700 -0.00472044  0.56342248
   0.41812943  0.66611276  0.47506839
   0.50424195  0.49251173  0.56579963
   0.50239804  0.00507148  0.56621321
   0.41792438  0.91467813  0.47535109
   0.49241293  0.75135067  0.56518661
   0.08333333  0.83333333  0.38179910
  -0.00905699  0.49887802  0.56285754
   0.74513165  0.00734730  0.56536680
   0.91563486  0.66764443  0.47527299
   0.66433908  0.41947521  0.47540273
   0.75087601  0.25692129  0.56317131
   0.66451565  0.66813329  0.47469239
   0.75975696  0.49670623  0.56278176
   0.00378983 -0.00016934  0.56440463
   0.66651809  0.91430526  0.47619695
   0.24945884  0.50233478  0.56751931
   0.75235550  0.74225761  0.56382579
   0.16615721  0.41805013  0.47591982
Direct configuration=    13
   0.08333333  0.08333333  0.38179910
   0.33333333  0.83333333  0.38179910
   0.91697672  0.16651465  0.47490522
   0.83333333  0.83333333  0.38179910
   0.83333333  0.58333333  0.38179910
   0.08333333  0.33333333  0.38179910
   0.91561576  0.41914695  0.47451119
  -0.00090839  0.24697532  0.57202716
   0.83333333  0.33333333  0.38179910
   0.08333333  0.58333333  0.38179910
   0.66484361  0.16861346  0.47522950
   0.91758779  0.91397686  0.47632264
   0.83333333  0.08333333  0.38179910
   0.58333333  0.83333333  0.38179910
   0.33333333  0.08333333  0.38179910
   0.16786716  0.16438174  0.47630439
   0.58333333  0.58333333  0.38179910
   0.58333333  0.33333333  0.38179910
   0.33333333  0.33333333  0.38179910
   0.41616275  0.16701875  0.47738178
   0.23779716  0.25526706  0.57015010
   0.58333333  0.08333333  0.38179910
   0.33333333  0.58333333  0.38179910
   0.16694321  0.66636920  0.47593137
   0.32632095  0.06966221  0.61280601
   0.32892460  0.60103359  0.60874935
   0.07061153  0.57990479  0.61068896
   0.35647270  0.32447997  0.61323247
   0.82793372  0.83626079  0.60927859
   0.58279260  0.83096985  0.60838228
   0.83618646  0.09425536  0.61203011
   0.59611988  0.57258254  0.60916344
   0.00587876  0.75550318  0.57105989
   0.24418791  0.76249568  0.56232712
   0.41691799  0.41687974  0.47652374
   0.51255814  0.24567826  0.56620488
   0.16824971  0.91439128  0.47379872
   0.24305882 -0.00421290  0.56407965
   0.41786702  0.66604914  0.47556427
   0.50363706  0.49405500  0.56689606
   0.50101456  0.00660847  0.56704763
   0.41764237  0.91485788  0.47597546
   0.49284086  0.74984572  0.56583767
   0.08333333  0.83333333  0.38179910
  -0.00895807  0.49753928  0.56333258
   0.74565290  0.00852603  0.56580279
   0.91573590  0.66759733  0.47593916
   0.66463971  0.41942748  0.47578866
   0.75019662  0.25723953  0.56386048
   0.66455807  0.66790293  0.47507638
   0.76109976  0.49596444  0.56308715
   0.00472458 -0.00155335  0.56507798
   0.66643327  0.91446011  0.47661193
   0.25014255  0.50224051  0.56917458
   0.75333190  0.74254223  0.56386568
   0.16612453  0.41762772  0.47667007
Direct configuration=    14
   0.08333333  0.08333333  0.38179910
   0.33333333  0.83333333  0.38179910
   0.91711821  0.16675777  0.47565731
   0.83333333  0.83333333  0.38179910
   0.83333333  0.58333333  0.38179910
   0.08333333  0.33333333  0.38179910
   0.91555533  0.41922639  0.47545934
  -0.00062168  0.24765561  0.57374091
   0.83333333  0.33333333  0.38179910
   0.08333333  0.58333333  0.38179910
   0.66469138  0.16848440  0.47575976
   0.91760758  0.91325447  0.47658210
   0.83333333  0.08333333  0.38179910
   0.58333333  0.83333333  0.38179910
   0.33333333  0.08333333  0.38179910
   0.16811444  0.16505510  0.47722547
   0.58333333  0.58333333  0.38179910
   0.58333333  0.33333333  0.38179910
   0.33333333  0.33333333  0.38179910
   0.41604593  0.16679870  0.47806271
   0.23798262  0.25574845  0.57174512
   0.58333333  0.08333333  0.38179910
   0.33333333  0.58333333  0.38179910
   0.16724421  0.66538825  0.47627054
   0.32627849  0.06840904  0.61391111
   0.32804932  0.60236089  0.60953954
   0.07080199  0.57827868  0.61151854
   0.35778026  0.32491174  0.61422605
   0.82705367  0.83702675  0.61012709
   0.58287496  0.83054578  0.60909012
   0.83545020  0.09544162  0.61268627
   0.59748671  0.57180988  0.60992878
   0.00526692  0.75486429  0.57246127
   0.24382714  0.76190160  0.56273030
   0.41630786  0.41776905  0.47703814
   0.51232659  0.24634063  0.56697382
   0.16831183  0.91441168  0.47436443
   0.24414792 -0.00429927  0.56473308
   0.41794191  0.66603950  0.47571493
   0.50361361  0.49412664  0.56775714
   0.50051962  0.00696341  0.56809685
   0.41794484  0.91412598  0.47633784
   0.49366317  0.74925540  0.56670076
   0.08333333  0.83333333  0.38179910
  -0.00731937  0.49791180  0.56401771