  48  48   0   0
  0.5349325E+02  0.1100258E-08  0.1100258E-08  0.2449179E-08  0.3500000E-15
  1.000000000000000E-004
  CAR 
 unknown system                          
      6.36406299     -9.74386198  301     -1.09910102      1.00000000
     -9.744  0.0000E+00  0.0000E+00
     -9.690  0.0000E+00  0.0000E+00
     -9.636  0.0000E+00  0.0000E+00
     -9.583  0.0000E+00  0.0000E+00
     -9.529  0.0000E+00  0.0000E+00
     -9.475  0.0000E+00  0.0000E+00
     -9.422  0.0000E+00  0.0000E+00
     -9.368  0.0000E+00  0.0000E+00
     -9.314  0.7582E-17  0.4071E-18
     -9.261  0.3203E-14  0.1724E-15
     -9.207  0.7078E-12  0.3818E-13
     -9.153  0.8898E-10  0.4816E-11
     -9.100  0.6375E-08  0.3471E-09
     -9.046  0.2608E-06  0.1435E-07
     -8.992  0.6107E-05  0.3422E-06
     -8.938  0.8205E-04  0.4748E-05
     -8.885  0.6343E-03  0.3880E-04
     -8.831  0.2830E-02  0.1907E-03
     -8.777  0.7335E-02  0.5846E-03
     -8.724  0.1133E-01  0.1193E-02
     -8.670  0.1170E-01  0.1821E-02
     -8.616  0.1114E-01  0.2420E-02
     -8.563  0.1178E-01  0.3052E-02
     -8.509  0.1007E-01  0.3592E-02
     -8.455  0.5461E-02  0.3886E-02
     -8.402  0.1759E-02  0.3980E-02
     -8.348  0.3330E-03  0.3998E-02
     -8.294  0.6348E-04  0.4001E-02
     -8.240  0.2444E-03  0.4015E-02
     -8.187  0.1277E-02  0.4083E-02
     -8.133  0.4060E-02  0.4301E-02
     -8.079  0.8006E-02  0.4731E-02
     -8.026  0.1040E-01  0.5289E-02
     -7.972  0.1057E-01  0.5857E-02
     -7.918  0.1187E-01  0.6494E-02
     -7.865  0.1563E-01  0.7334E-02
     -7.811  0.1904E-01  0.8356E-02
     -7.757  0.2087E-01  0.9476E-02
     -7.704  0.2056E-01  0.1058E-01
     -7.650  0.1708E-01  0.1150E-01
     -7.596  0.1469E-01  0.1229E-01
     -7.542  0.1806E-01  0.1326E-01
     -7.489  0.2191E-01  0.1443E-01
     -7.435  0.1867E-01  0.1543E-01
     -7.381  0.1281E-01  0.1612E-01
     -7.328  0.1305E-01  0.1682E-01
     -7.274  0.1933E-01  0.1786E-01
     -7.220  0.2698E-01  0.1931E-01
     -7.167  0.3287E-01  0.2107E-01
     -7.113  0.3790E-01  0.2311E-01
     -7.059  0.4590E-01  0.2557E-01
     -7.006  0.5498E-01  0.2853E-01
     -6.952  0.6105E-01  0.3180E-01
     -6.898  0.6555E-01  0.3532E-01
     -6.844  0.7050E-01  0.3911E-01
     -6.791  0.7457E-01  0.4311E-01
     -6.737  0.7548E-01  0.4717E-01
     -6.683  0.7345E-01  0.5111E-01
     -6.630  0.7165E-01  0.5496E-01
     -6.576  0.7174E-01  0.5881E-01
     -6.522  0.7463E-01  0.6282E-01
     -6.469  0.8502E-01  0.6738E-01
     -6.415  0.1050E+00  0.7302E-01
     -6.361  0.1281E+00  0.7990E-01
     -6.308  0.1451E+00  0.8769E-01
     -6.254  0.1504E+00  0.9576E-01
     -6.200  0.1475E+00  0.1037E+00
     -6.146  0.1457E+00  0.1115E+00
     -6.093  0.1484E+00  0.1195E+00
     -6.039  0.1537E+00  0.1277E+00
     -5.985  0.1600E+00  0.1363E+00
     -5.932  0.1629E+00  0.1451E+00
     -5.878  0.1601E+00  0.1537E+00
     -5.824  0.1546E+00  0.1620E+00
     -5.771  0.1494E+00  0.1700E+00
     -5.717  0.1460E+00  0.1778E+00
     -5.663  0.1468E+00  0.1857E+00
     -5.609  0.1491E+00  0.1937E+00
     -5.556  0.1477E+00  0.2016E+00
     -5.502  0.1435E+00  0.2093E+00
     -5.448  0.1402E+00  0.2169E+00
     -5.395  0.1412E+00  0.2245E+00
     -5.341  0.1494E+00  0.2325E+00
     -5.287  0.1618E+00  0.2412E+00
     -5.234  0.1731E+00  0.2505E+00
     -5.180  0.1813E+00  0.2602E+00
     -5.126  0.1865E+00  0.2702E+00
     -5.073  0.1865E+00  0.2802E+00
     -5.019  0.1813E+00  0.2900E+00
     -4.965  0.1753E+00  0.2994E+00
     -4.911  0.1724E+00  0.3086E+00
     -4.858  0.1739E+00  0.3180E+00
     -4.804  0.1774E+00  0.3275E+00
     -4.750  0.1771E+00  0.3370E+00
     -4.697  0.1703E+00  0.3461E+00
     -4.643  0.1626E+00  0.3549E+00
     -4.589  0.1621E+00  0.3636E+00
     -4.536  0.1689E+00  0.3726E+00
     -4.482  0.1754E+00  0.3821E+00
     -4.428  0.1764E+00  0.3915E+00
     -4.375  0.1729E+00  0.4008E+00
     -4.321  0.1705E+00  0.4100E+00
     -4.267  0.1737E+00  0.4193E+00
     -4.213  0.1795E+00  0.4289E+00
     -4.160  0.1811E+00  0.4387E+00
     -4.106  0.1786E+00  0.4482E+00
     -4.052  0.1764E+00  0.4577E+00
     -3.999  0.1754E+00  0.4671E+00
     -3.945  0.1766E+00  0.4766E+00
     -3.891  0.1828E+00  0.4864E+00
     -3.838  0.1929E+00  0.4968E+00
     -3.784  0.2035E+00  0.5077E+00
     -3.730  0.2118E+00  0.5191E+00
     -3.677  0.2149E+00  0.5306E+00
     -3.623  0.2123E+00  0.5420E+00
     -3.569  0.2073E+00  0.5532E+00
     -3.515  0.2027E+00  0.5640E+00
     -3.462  0.1991E+00  0.5747E+00
     -3.408  0.1955E+00  0.5852E+00
     -3.354  0.1916E+00  0.5955E+00
     -3.301  0.1888E+00  0.6057E+00
     -3.247  0.1876E+00  0.6157E+00
     -3.193  0.1861E+00  0.6257E+00
     -3.140  0.1838E+00  0.6356E+00
     -3.086  0.1833E+00  0.6454E+00
     -3.032  0.1842E+00  0.6553E+00
     -2.979  0.1842E+00  0.6652E+00
     -2.925  0.1852E+00  0.6752E+00
     -2.871  0.1879E+00  0.6852E+00
     -2.817  0.1898E+00  0.6954E+00
     -2.764  0.1892E+00  0.7056E+00
     -2.710  0.1859E+00  0.7156E+00
     -2.656  0.1817E+00  0.7253E+00
     -2.603  0.1799E+00  0.7350E+00
     -2.549  0.1817E+00  0.7448E+00
     -2.495  0.1840E+00  0.7546E+00
     -2.442  0.1831E+00  0.7645E+00
     -2.388  0.1810E+00  0.7742E+00
     -2.334  0.1806E+00  0.7839E+00
     -2.281  0.1804E+00  0.7936E+00
     -2.227  0.1793E+00  0.8032E+00
     -2.173  0.1787E+00  0.8128E+00
     -2.119  0.1804E+00  0.8225E+00
     -2.066  0.1833E+00  0.8323E+00
     -2.012  0.1842E+00  0.8422E+00
     -1.958  0.1841E+00  0.8521E+00
     -1.905  0.1869E+00  0.8621E+00
     -1.851  0.1916E+00  0.8724E+00
     -1.797  0.1928E+00  0.8828E+00
     -1.744  0.1919E+00  0.8931E+00
     -1.690  0.1943E+00  0.9035E+00
     -1.636  0.1989E+00  0.9142E+00
     -1.583  0.2006E+00  0.9249E+00
     -1.529  0.1995E+00  0.9357E+00
     -1.475  0.1981E+00  0.9463E+00
     -1.421  0.1961E+00  0.9568E+00
     -1.368  0.1918E+00  0.9671E+00
     -1.314  0.1846E+00  0.9770E+00
     -1.260  0.1736E+00  0.9864E+00
     -1.207  0.1572E+00  0.9948E+00
     -1.153  0.1353E+00  0.1002E+01
     -1.099  0.1103E+00  0.1008E+01
     -1.046  0.8586E-01  0.1013E+01
     -0.992  0.6308E-01  0.1016E+01
     -0.938  0.4295E-01  0.1018E+01
     -0.885  0.2828E-01  0.1020E+01
     -0.831  0.2056E-01  0.1021E+01
     -0.777  0.1877E-01  0.1022E+01
     -0.723  0.1844E-01  0.1023E+01
     -0.670  0.1666E-01  0.1024E+01
     -0.616  0.1849E-01  0.1025E+01
     -0.562  0.2880E-01  0.1026E+01
     -0.509  0.4266E-01  0.1029E+01
     -0.455  0.5027E-01  0.1031E+01
     -0.401  0.4523E-01  0.1034E+01
     -0.348  0.3249E-01  0.1036E+01
     -0.294  0.2752E-01  0.1037E+01
     -0.240  0.3601E-01  0.1039E+01
     -0.186  0.4422E-01  0.1041E+01
     -0.133  0.4035E-01  0.1043E+01
     -0.079  0.2939E-01  0.1045E+01
     -0.025  0.2175E-01  0.1046E+01
      0.028  0.2212E-01  0.1047E+01
      0.082  0.2712E-01  0.1049E+01
      0.136  0.3121E-01  0.1051E+01
      0.189  0.3251E-01  0.1052E+01
      0.243  0.3296E-01  0.1054E+01
      0.297  0.3641E-01  0.1056E+01
      0.350  0.4259E-01  0.1058E+01
      0.404  0.4541E-01  0.1061E+01
      0.458  0.4227E-01  0.1063E+01
      0.512  0.3842E-01  0.1065E+01
      0.565  0.3857E-01  0.1067E+01
      0.619  0.4230E-01  0.1069E+01
      0.673  0.4569E-01  0.1072E+01
      0.726  0.4403E-01  0.1074E+01
      0.780  0.3680E-01  0.1076E+01
      0.834  0.2783E-01  0.1078E+01
      0.887  0.2051E-01  0.1079E+01
      0.941  0.1698E-01  0.1080E+01
      0.995  0.1744E-01  0.1081E+01
      1.048  0.1905E-01  0.1082E+01
      1.102  0.1984E-01  0.1083E+01
      1.156  0.2017E-01  0.1084E+01
      1.210  0.1945E-01  0.1085E+01
      1.263  0.1758E-01  0.1086E+01
      1.317  0.1600E-01  0.1087E+01
      1.371  0.1445E-01  0.1087E+01
      1.424  0.1430E-01  0.1088E+01
      1.478  0.2015E-01  0.1089E+01
      1.532  0.3021E-01  0.1091E+01
      1.585  0.3611E-01  0.1093E+01
      1.639  0.3567E-01  0.1095E+01
      1.693  0.3476E-01  0.1097E+01
      1.746  0.3802E-01  0.1099E+01
      1.800  0.4042E-01  0.1101E+01
      1.854  0.3377E-01  0.1103E+01
      1.908  0.2175E-01  0.1104E+01
      1.961  0.1479E-01  0.1105E+01
      2.015  0.1392E-01  0.1105E+01
      2.069  0.1516E-01  0.1106E+01
      2.122  0.2051E-01  0.1107E+01
      2.176  0.3039E-01  0.1109E+01
      2.230  0.3908E-01  0.1111E+01
      2.283  0.4375E-01  0.1113E+01
      2.337  0.4565E-01  0.1116E+01
      2.391  0.4592E-01  0.1118E+01
      2.444  0.4569E-01  0.1121E+01
      2.498  0.4572E-01  0.1123E+01
      2.552  0.4610E-01  0.1126E+01
      2.606  0.4668E-01  0.1128E+01
      2.659  0.4766E-01  0.1131E+01
      2.713  0.4676E-01  0.1133E+01
      2.767  0.3993E-01  0.1135E+01
      2.820  0.2792E-01  0.1137E+01
      2.874  0.1685E-01  0.1138E+01
      2.928  0.1238E-01  0.1138E+01
      2.981  0.1349E-01  0.1139E+01
      3.035  0.1481E-01  0.1140E+01
      3.089  0.1587E-01  0.1141E+01
      3.142  0.1934E-01  0.1142E+01
      3.196  0.2343E-01  0.1143E+01
      3.250  0.2379E-01  0.1144E+01
      3.304  0.1925E-01  0.1145E+01
      3.357  0.1434E-01  0.1146E+01
      3.411  0.1456E-01  0.1147E+01
      3.465  0.1963E-01  0.1148E+01
      3.518  0.2586E-01  0.1149E+01
      3.572  0.3088E-01  0.1151E+01
      3.626  0.3415E-01  0.1153E+01
      3.679  0.3588E-01  0.1155E+01
      3.733  0.3600E-01  0.1157E+01
      3.787  0.3413E-01  0.1159E+01
      3.840  0.2929E-01  0.1160E+01
      3.894  0.2360E-01  0.1161E+01
      3.948  0.2261E-01  0.1163E+01
      4.002  0.2592E-01  0.1164E+01
      4.055  0.2772E-01  0.1166E+01
      4.109  0.2675E-01  0.1167E+01
      4.163  0.2607E-01  0.1168E+01
      4.216  0.2573E-01  0.1170E+01
      4.270  0.2254E-01  0.1171E+01
      4.324  0.1763E-01  0.1172E+01
      4.377  0.1769E-01  0.1173E+01
      4.431  0.2437E-01  0.1174E+01
      4.485  0.3294E-01  0.1176E+01
      4.538  0.4281E-01  0.1178E+01
      4.592  0.5363E-01  0.1181E+01
      4.646  0.5857E-01  0.1184E+01
      4.700  0.5388E-01  0.1187E+01
      4.753  0.4508E-01  0.1190E+01
      4.807  0.4217E-01  0.1192E+01
      4.861  0.4774E-01  0.1194E+01
      4.914  0.5402E-01  0.1197E+01
      4.968  0.5761E-01  0.1200E+01
      5.022  0.6296E-01  0.1204E+01
      5.075  0.6891E-01  0.1207E+01
      5.129  0.6867E-01  0.1211E+01
      5.183  0.6280E-01  0.1215E+01
      5.237  0.5617E-01  0.1218E+01
      5.290  0.4784E-01  0.1220E+01
      5.344  0.3574E-01  0.1222E+01
      5.398  0.2206E-01  0.1223E+01
      5.451  0.1045E-01  0.1224E+01
      5.505  0.3434E-02  0.1224E+01
      5.559  0.7165E-03  0.1224E+01
      5.612  0.9009E-04  0.1224E+01
      5.666  0.6644E-05  0.1224E+01
      5.720  0.2834E-06  0.1224E+01
      5.773  0.6940E-08  0.1224E+01
      5.827  0.9712E-10  0.1224E+01
      5.881  0.7743E-12  0.1224E+01
      5.935  0.3507E-14  0.1224E+01
      5.988  0.9649E-17  0.1224E+01
      6.042  0.0000E+00  0.1224E+01
      6.096  0.0000E+00  0.1224E+01
      6.149  0.0000E+00  0.1224E+01
      6.203  0.0000E+00  0.1224E+01
      6.257  0.0000E+00  0.1224E+01
      6.310  0.0000E+00  0.1224E+01
      6.364  0.0000E+00  0.1224E+01
