unknown system                          
           1
    11.002582    0.000000    0.000000
     5.501291    9.528515    0.000000
     0.000000    0.000000   24.491785
   Au   Pd
  24  24
Direct configuration=     1
   0.08333333  0.08333333  0.40830017
   0.83333333  0.83333333  0.40830017
   0.66666667  0.66666667  0.50000000
   0.75000000  0.25000000  0.59169983
   0.66666667  0.41666667  0.50000000
   0.75000000  0.00000000  0.59169983
   0.50000000  0.75000000  0.59169983
   0.50000000  0.50000000  0.59169983
   0.41666667  0.66666667  0.50000000
   0.58333333  0.58333333  0.40830017
   0.41666667  0.41666667  0.50000000
   0.66666667  0.91666667  0.50000000
   0.16666667  0.91666667  0.50000000
   0.16666667  0.66666667  0.50000000
   0.25000000  0.25000000  0.59169983
   0.25000000  0.75000000  0.59169983
   0.75000000  0.75000000  0.59169983
   0.08333333  0.58333333  0.40830017
   0.08333333  0.83333333  0.40830017
   0.91666667  0.91666667  0.50000000
   0.91666667  0.66666667  0.50000000
   0.33333333  0.08333333  0.40830017
   0.91666667  0.41666667  0.50000000
   0.25000000  0.00000000  0.59169983
   0.08333333  0.33333333  0.40830017
   0.00000000  0.00000000  0.59169983
   0.83333333  0.33333333  0.40830017
   0.00000000  0.25000000  0.59169983
   0.66666667  0.16666667  0.50000000
   0.75000000  0.50000000  0.59169983
   0.83333333  0.08333333  0.40830017
   0.91666667  0.16666667  0.50000000
   0.83333333  0.58333333  0.40830017
   0.41666667  0.91666667  0.50000000
   0.16666667  0.41666667  0.50000000
   0.33333333  0.33333333  0.40830017
   0.50000000  0.25000000  0.59169983
   0.58333333  0.33333333  0.40830017
   0.50000000  0.00000000  0.59169983
   0.41666667  0.16666667  0.50000000
   0.58333333  0.08333333  0.40830017
   0.00000000  0.75000000  0.59169983
   0.33333333  0.83333333  0.40830017
   0.25000000  0.50000000  0.59169983
   0.16666667  0.16666667  0.50000000
   0.33333333  0.58333333  0.40830017
   0.58333333  0.83333333  0.40830017
   0.00000000  0.50000000  0.59169983
Direct configuration=     2
   0.08242531  0.08446056  0.40642957
   0.83170449  0.83419466  0.40576079
   0.66657863  0.66715046  0.49959138
   0.75094907  0.24942661  0.59362530
   0.66843361  0.41430558  0.49958045
   0.74961826  0.00075794  0.59385112
   0.50045752  0.75052619  0.59400155
   0.50000207  0.49914309  0.59428504
   0.41603941  0.66784133  0.49914869
   0.58330703  0.58343995  0.40584350
   0.41639928  0.41434141  0.49959641
   0.66333313  0.91936242  0.49956644
   0.16656259  0.91855056  0.49998705
   0.16717434  0.66479469  0.50038946
   0.25008089  0.25064127  0.59319379
   0.24855044  0.75000359  0.59428902
   0.75071674  0.74935922  0.59423446
   0.08432191  0.58137592  0.40604262
   0.08405582  0.83345366  0.40567901
   0.91595213  0.91905293  0.50038548
   0.91799742  0.66467767  0.50037040
   0.33407375  0.08336408  0.40681396
   0.91846106  0.41484900  0.50000423
   0.24951688  0.00118920  0.59353001
   0.08307866  0.33368827  0.40739350
  -0.00018506  0.00047722  0.59288143
   0.83362791  0.33279564  0.40717283
  -0.00034438  0.25023307  0.59261185
   0.66615254  0.16692045  0.49947417
   0.75094505  0.49950055  0.59317874
   0.83215890  0.08458661  0.40727205
   0.91655823  0.16688342  0.49995358
   0.83339120  0.58287948  0.40686999
   0.41656887  0.91767944  0.49968401
   0.16726558  0.41546002  0.50007537
   0.33367500  0.33314446  0.40748046
   0.49956989  0.24989483  0.59269602
   0.58360143  0.33236650  0.40721763
   0.49963131  0.00070056  0.59269911
   0.41663291  0.16681315  0.49990831
   0.58332632  0.08388700  0.40738005
   0.00053556  0.74937367  0.59311592
   0.33395382  0.83305477  0.40702056
   0.24943918  0.49970334  0.59289574
   0.16654289  0.16761209  0.49999611
   0.33372631  0.58286330  0.40688269
   0.58298957  0.83349423  0.40709436
   0.00044653  0.49972597  0.59284581
Direct configuration=     3
   0.07970126  0.08784224  0.40081776
   0.82681796  0.83677864  0.39814266
   0.66631451  0.66860186  0.49836552
   0.75379629  0.24770644  0.59940169
   0.67373443  0.40722233  0.49832178
   0.74847302  0.00303175  0.60030500
   0.50183009  0.75210474  0.60090671
   0.50000829  0.49657234  0.60204066
   0.41415762  0.67136531  0.49659476
   0.58322812  0.58375980  0.39847348
   0.41559712  0.40736564  0.49838564
   0.65333253  0.92744967  0.49826574
   0.16625035  0.92420222  0.49994821
   0.16869736  0.65917875  0.50155784
   0.25032356  0.25256509  0.59767566
   0.24420175  0.75001434  0.60205657
   0.75286698  0.74743688  0.60183834
   0.08728765  0.57550367  0.39926997
   0.08622329  0.83381464  0.39781551
   0.91380854  0.92621173  0.50154194
   0.92198967  0.65871067  0.50148159
   0.33629500  0.08345632  0.40235531
   0.92384424  0.40939598  0.50001692
   0.24806750  0.00475679  0.59902055
   0.08231465  0.33475306  0.40467350
  -0.00074022  0.00190886  0.59642623
   0.83451163  0.33118256  0.40379082
  -0.00137753  0.25093230  0.59534790
   0.66461015  0.16768180  0.49789669
   0.75378020  0.49800222  0.59761548
   0.82863558  0.08834645  0.40418770
   0.91623292  0.16753369  0.49981432
   0.83356478  0.58151792  0.40257945
   0.41627549  0.92071776  0.49873602
   0.16906234  0.41184009  0.50030149
   0.33469999  0.33257785  0.40502135
   0.49827956  0.24957932  0.59568457
   0.58440572  0.32946599  0.40397002
   0.49852526  0.00280222  0.59569695
   0.41653165  0.16725259  0.49963323
   0.58330528  0.08554799  0.40461968
   0.00214222  0.74749469  0.59736417
   0.33581528  0.83221909  0.40318173
   0.24775670  0.49881335  0.59648345
   0.16617157  0.17044838  0.49998445
   0.33490522  0.58145319  0.40263027
   0.58195829  0.83397692  0.40347693
   0.00178613  0.49890388  0.59628374
Direct configuration=     4
   0.08066537  0.08711531  0.39931071
   0.82894232  0.83562965  0.39695656
   0.66703026  0.66726036  0.49880451
   0.75258078  0.24880932  0.60080376
   0.66995781  0.41142285  0.49883617
   0.74839793  0.00176300  0.60173811
   0.50086466  0.75131493  0.60206739
   0.49980069  0.49752263  0.60311436
   0.41533796  0.66891327  0.49736144
   0.58409058  0.58234408  0.39658770
   0.41722948  0.41075786  0.49904770
   0.65941886  0.92337047  0.49875038
   0.16660648  0.92268306  0.49989380
   0.16827104  0.66222088  0.50104495
   0.25007726  0.25240533  0.59907716
   0.24610292  0.75001099  0.60361229
   0.75299062  0.74835024  0.60325984
   0.08607238  0.57794617  0.39771961
   0.08509770  0.83329979  0.39646309
   0.91402129  0.92231440  0.50110207
   0.91906129  0.66287988  0.50094547
   0.33534906  0.08399513  0.40095106
   0.92111195  0.41158891  0.50004568
   0.24844621  0.00387020  0.60036999
   0.08269231  0.33388630  0.40361411
   0.00014117  0.00130626  0.59754277
   0.83370301  0.33241097  0.40248458
  -0.00092708  0.25117810  0.59630058
   0.66527572  0.16699608  0.49875314
   0.75299512  0.49832365  0.59807405
   0.82977676  0.08680557  0.40318358
   0.91747744  0.16690077  0.49982597
   0.83374302  0.58168884  0.40177722
   0.41412129  0.92079505  0.49917535
   0.16916113  0.41119759  0.50027521
   0.33487395  0.33190112  0.40364365
   0.49894526  0.24999835  0.59644495
   0.58377979  0.33093913  0.40260989
   0.49921497  0.00226609  0.59658795
   0.41354230  0.16766096  0.49982295
   0.58290076  0.08588776  0.40306787
   0.00055226  0.74844097  0.59816962
   0.33476675  0.83357449  0.40183307
   0.24866383  0.49866918  0.59761113
   0.16848157  0.16842385  0.49989617
   0.33483085  0.58111983  0.40171831
   0.58217996  0.83340607  0.40217791
   0.00158297  0.49843429  0.59754617
Direct configuration=     5
   0.08118071  0.08672674  0.39850514
   0.83007786  0.83501549  0.39632255
   0.66741285  0.66654329  0.49903917
   0.75193105  0.24939884  0.60155322
   0.66793908  0.41366816  0.49911113
   0.74835778  0.00108482  0.60250416
   0.50034860  0.75089275  0.60268782
   0.49968971  0.49803059  0.60368828
   0.41596889  0.66760257  0.49777125
   0.58455159  0.58158733  0.39557969
   0.41810204  0.41257111  0.49940159
   0.66267220  0.92119000  0.49900943
   0.16679684  0.92187102  0.49986471
   0.16804315  0.66384701  0.50077080
   0.24994560  0.25231993  0.59982631
   0.24711916  0.75000920  0.60444387
   0.75305672  0.74883846  0.60401968
   0.08542277  0.57925176  0.39689088
   0.08449603  0.83302458  0.39574018
   0.91413501  0.92023115  0.50086695
   0.91749598  0.66510847  0.50065889
   0.33484342  0.08428315  0.40020045
   0.91965146  0.41276111  0.50006105
   0.24864865  0.00339629  0.60109131
   0.08289419  0.33342298  0.40304782
   0.00061230  0.00098415  0.59813959
   0.83327078  0.33306760  0.40178635
  -0.00068630  0.25130950  0.59680982
   0.66563148  0.16662955  0.49921094
   0.75257547  0.49849546  0.59831918
   0.83038676  0.08598192  0.40264684
   0.91814268  0.16656246  0.49983219
   0.83383830  0.58178020  0.40134840
   0.41296980  0.92083636  0.49941018
   0.16921393  0.41085415  0.50026116
   0.33496694  0.33153939  0.40290723
   0.49930110  0.25022233  0.59685140
   0.58344521  0.33172658  0.40188285
   0.49958364  0.00197950  0.59706422
   0.41194439  0.16787925  0.49992437
   0.58268452  0.08606939  0.40223837
  -0.00029762  0.74894679  0.59860017
   0.33420628  0.83429899  0.40111216
   0.24914873  0.49859212  0.59821392
   0.16971634  0.16734168  0.49984898
   0.33479109  0.58094163  0.40123084
   0.58229845  0.83310094  0.40148354
   0.00147438  0.49818328  0.59822099
Direct configuration=     6
   0.08114435  0.08605604  0.39807234
   0.83042154  0.83473429  0.39594525
   0.66588743  0.66762430  0.49921898
   0.75185134  0.24925987  0.60185192
   0.66788819  0.41380143  0.49927948
   0.74873324  0.00125833  0.60299115
   0.50059722  0.75057478  0.60290564
   0.49957373  0.49862680  0.60405885
   0.41638102  0.66800816  0.49803985
   0.58416077  0.58199699  0.39492164
   0.41762885  0.41307143  0.49961679
   0.66238297  0.92051326  0.49900148
   0.16629386  0.92021366  0.49977658
   0.16730267  0.66481107  0.50056885
   0.25017282  0.25187653  0.60039218
   0.24751279  0.74991632  0.60490698
   0.75213033  0.74870247  0.60447378
   0.08514882  0.57970153  0.39656237
   0.08433426  0.83304216  0.39533638
   0.91528162  0.91955780  0.50063402
   0.91800983  0.66511166  0.50039213
   0.33496540  0.08391236  0.39963744
   0.91949998  0.41325799  0.49997522
   0.24898122  0.00280218  0.60156135
   0.08270465  0.33379570  0.40283947
   0.00050640  0.00060563  0.59821284
   0.83310684  0.33312328  0.40158280
  -0.00058938  0.25128952  0.59693062
   0.66591447  0.16648674  0.49956796
   0.75181723  0.49925112  0.59828178
   0.83097777  0.08541261  0.40258596
   0.91768263  0.16660521  0.49980828
   0.83397133  0.58203202  0.40127442
   0.41509309  0.91892413  0.49954376
   0.16798743  0.41355358  0.50020339
   0.33474496  0.33214709  0.40264646
   0.49958011  0.25035213  0.59693917
   0.58354433  0.33190369  0.40168201
   0.49994114  0.00123798  0.59717610
   0.41357371  0.16698124  0.49989242
   0.58305481  0.08540773  0.40212000
   0.00023606  0.74898828  0.59856713
   0.33394490  0.83391100  0.40097170
   0.24911926  0.49936004  0.59829227
   0.16879740  0.16721210  0.49982907
   0.33447402  0.58131240  0.40109764
   0.58259903  0.83292022  0.40148457
   0.00093357  0.49875514  0.59834952
Direct configuration=     7
   0.08113248  0.08583706  0.39793103
   0.83053374  0.83464248  0.39582207
   0.66538939  0.66797725  0.49927769
   0.75182531  0.24921449  0.60194945
   0.66787157  0.41384494  0.49933444
   0.74885582  0.00131498  0.60315015
   0.50067840  0.75047097  0.60297675
   0.49953586  0.49882146  0.60417984
   0.41651557  0.66814058  0.49812755
   0.58403316  0.58213075  0.39470679
   0.41747436  0.41323479  0.49968706
   0.66228854  0.92029231  0.49899889
   0.16612964  0.91967254  0.49974780
   0.16706091  0.66512583  0.50050292
   0.25024701  0.25173177  0.60057694
   0.24764130  0.74988600  0.60505818
   0.75182788  0.74865807  0.60462203
   0.08505938  0.57984837  0.39645512
   0.08428145  0.83304790  0.39520455
   0.91565598  0.91933795  0.50055797
   0.91817759  0.66511270  0.50030504
   0.33500523  0.08379130  0.39945362
   0.91945052  0.41342022  0.49994719
   0.24908981  0.00260820  0.60171482
   0.08264277  0.33391739  0.40277144
   0.00047182  0.00048205  0.59823675
   0.83305331  0.33314146  0.40151635
  -0.00055774  0.25128300  0.59697006
   0.66600687  0.16644012  0.49968453
   0.75156966  0.49949784  0.59826957
   0.83117073  0.08522674  0.40256608
   0.91753243  0.16661917  0.49980047
   0.83401476  0.58211423  0.40125027
   0.41578633  0.91829981  0.49958737
   0.16758698  0.41443492  0.50018453
   0.33467249  0.33234550  0.40256131
   0.49967120  0.25039450  0.59696783
   0.58357670  0.33196152  0.40161643
   0.50005785  0.00099587  0.59721263
   0.41410567  0.16668805  0.49988199
   0.58317571  0.08519170  0.40208135
   0.00041031  0.74900183  0.59855635
   0.33385956  0.83378432  0.40092584
   0.24910964  0.49961075  0.59831785
   0.16849737  0.16716980  0.49982257
   0.33437050  0.58143346  0.40105415
   0.58269716  0.83286122  0.40148491
   0.00075699  0.49894185  0.59839149
Direct configuration=     8
   0.08109292  0.08571646  0.39775829
   0.83030505  0.83473921  0.39554670
   0.66569978  0.66782286  0.49929150
   0.75203577  0.24927685  0.60206977
   0.66827691  0.41341515  0.49933288
   0.74919268  0.00108339  0.60340202
   0.50062625  0.75050907  0.60321526
   0.49960264  0.49881186  0.60448683
   0.41628218  0.66823082  0.49819208
   0.58377049  0.58251097  0.39433286
   0.41691767  0.41320723  0.49970192
   0.66252082  0.92032808  0.49897652
   0.16657113  0.91949229  0.49970531
   0.16753671  0.66492481  0.50037492
   0.25045714  0.25174113  0.60067728
   0.24756674  0.75002387  0.60538057
   0.75179702  0.74869978  0.60487825
   0.08514468  0.57977653  0.39620343
   0.08437433  0.83300921  0.39482731
   0.91503243  0.91992272  0.50042805
   0.91775077  0.66508891  0.50019904
   0.33501721  0.08361357  0.39927911
   0.91943764  0.41366099  0.49986961
   0.24910374  0.00239212  0.60184890
   0.08263912  0.33397756  0.40279615
   0.00044207  0.00034797  0.59814616
   0.83305610  0.33309266  0.40156237
  -0.00063595  0.25128892  0.59688686
   0.66628394  0.16609935  0.49982628
   0.75145269  0.49949302  0.59813976
   0.83111319  0.08517451  0.40268192
   0.91714688  0.16675252  0.49976333
   0.83382453  0.58224401  0.40133011
   0.41558894  0.91829358  0.49961616
   0.16760962  0.41495022  0.50017960
   0.33460458  0.33265523  0.40263723
   0.49956055  0.25050499  0.59697142
   0.58373987  0.33177648  0.40176699
   0.50022597  0.00078699  0.59724287
   0.41433261  0.16677423  0.49978533
   0.58352420  0.08480966  0.40223210
   0.00052638  0.74895583  0.59840734
   0.33387935  0.83338951  0.40103495
   0.24896169  0.49985959  0.59822942
   0.16846107  0.16692411  0.49977714
   0.33429051  0.58169717  0.40113305
   0.58280354  0.83273563  0.40156661
   0.00045582  0.49941837  0.59830843
Direct configuration=     9
   0.08106512  0.08563169  0.39763688
   0.83014431  0.83480720  0.39535315
   0.66591794  0.66771434  0.49930120
   0.75218370  0.24932068  0.60215433
   0.66856182  0.41311305  0.49933178
   0.74942946  0.00092061  0.60357906
   0.50058959  0.75053585  0.60338290
   0.49964957  0.49880511  0.60470261
   0.41611813  0.66829425  0.49823744
   0.58358586  0.58277823  0.39407003
   0.41652638  0.41318787  0.49971237
   0.66268409  0.92035322  0.49896080
   0.16688145  0.91936559  0.49967544
   0.16787115  0.66478352  0.50028495
   0.25060484  0.25174771  0.60074782
   0.24751433  0.75012079  0.60560718
   0.75177534  0.74872910  0.60505833
   0.08520464  0.57972602  0.39602652
   0.08443961  0.83298202  0.39456216
   0.91459415  0.92033375  0.50033672
   0.91745077  0.66507219  0.50012453
   0.33502563  0.08348865  0.39915645
   0.91942858  0.41383022  0.49981508
   0.24911353  0.00224024  0.60194315
   0.08263655  0.33401986  0.40281351
   0.00042116  0.00025374  0.59808248
   0.83305807  0.33305836  0.40159472
  -0.00069093  0.25129308  0.59682838
   0.66647870  0.16585982  0.49992592
   0.75137047  0.49948963  0.59804851
   0.83107275  0.08513780  0.40276334
   0.91687589  0.16684625  0.49973722
   0.83369082  0.58233524  0.40138624
   0.41545019  0.91828920  0.49963639
   0.16762554  0.41531242  0.50017614
   0.33455685  0.33287293  0.40269058
   0.49948278  0.25058265  0.59697394
   0.58385455  0.33164642  0.40187282
   0.50034413  0.00064017  0.59726413
   0.41449213  0.16683481  0.49971739
   0.58376914  0.08454112  0.40233806
   0.00060797  0.74892350  0.59830260
   0.33389327  0.83311200  0.40111164
   0.24885770  0.50003449  0.59816726
   0.16843555  0.16675141  0.49974522
   0.33423428  0.58188253  0.40118851
   0.58287831  0.83264736  0.40162404
   0.00024413  0.49975331  0.59825006
Direct configuration=    10
   0.08106013  0.08560587  0.39748068
   0.83013669  0.83475159  0.39499943
   0.66586204  0.66755303  0.49931569
   0.75230591  0.24934403  0.60228925
   0.66832539  0.41304562  0.49930692
   0.74960293  0.00078349  0.60385870
   0.50055185  0.75055075  0.60366846
   0.49968405  0.49871646  0.60506569
   0.41654707  0.66781519  0.49835669
   0.58347374  0.58287875  0.39369476
   0.41676929  0.41296007  0.49974979
   0.66270842  0.92037252  0.49900912
   0.16678985  0.91960960  0.49964265
   0.16759724  0.66514525  0.50013923
   0.25060325  0.25184542  0.60073082
   0.24739188  0.75015900  0.60597639
   0.75185587  0.74882062  0.60532328
   0.08517109  0.57977148  0.39573326
   0.08435758  0.83296397  0.39411253
   0.91458231  0.92034650  0.50021736
   0.91733841  0.66537066  0.50001472
   0.33503986  0.08338744  0.39903843
   0.91977326  0.41360453  0.49975473
   0.24901779  0.00231549  0.60204740
   0.08272861  0.33394162  0.40289039
   0.00046343  0.00017221  0.59791570
   0.83301531  0.33309547  0.40165020
  -0.00057553  0.25131096  0.59666451
   0.66629641  0.16595179  0.50013046
   0.75135399  0.49948466  0.59791029
   0.83101876  0.08511572  0.40286124
   0.91695766  0.16680791  0.49969902
   0.83351618  0.58238378  0.40142786
   0.41529306  0.91856208  0.49967595
   0.16756376  0.41522073  0.50018850
   0.33462249  0.33288458  0.40277935
   0.49951445  0.25060305  0.59697219
   0.58397117  0.33154251  0.40212838
   0.50046633  0.00059193  0.59726039
   0.41434179  0.16686605  0.49962238
   0.58387218  0.08438460  0.40252786
   0.00063510  0.74890384  0.59804105
   0.33392642  0.83293015  0.40123127
   0.24873133  0.50022213  0.59807978
   0.16847767  0.16680237  0.49969039
   0.33430795  0.58196963  0.40127190
   0.58279869  0.83258615  0.40173953
   0.00015686  0.49994874  0.59811541
Direct configuration=    11
   0.08105308  0.08556934  0.39725971
   0.83012591  0.83467292  0.39449905
   0.66578296  0.66732485  0.49933620
   0.75247880  0.24937707  0.60248009
   0.66799094  0.41295023  0.49927175
   0.74984833  0.00058953  0.60425428
   0.50049846  0.75057183  0.60407242
   0.49973283  0.49859107  0.60557930
   0.41715384  0.66713751  0.49852538
   0.58331512  0.58302094  0.39316392
   0.41711290  0.41263783  0.49980271
   0.66274285  0.92039982  0.49907748
   0.16666027  0.91995478  0.49959626
   0.16720977  0.66565694  0.49993310
   0.25060099  0.25198363  0.60070678
   0.24721867  0.75021305  0.60649867
   0.75196978  0.74895008  0.60569808
   0.08512363  0.57983579  0.39531841
   0.08424154  0.83293844  0.39347649
   0.91456558  0.92036453  0.50004852
   0.91717948  0.66579289  0.49985939
   0.33505999  0.08324428  0.39887147
   0.92026086  0.41328526  0.49966935
   0.24888236  0.00242195  0.60219485
   0.08285884  0.33383096  0.40299915
   0.00052322  0.00005689  0.59767977
   0.83295482  0.33314798  0.40172868
  -0.00041229  0.25133626  0.59643270
   0.66603855  0.16608188  0.50041981
   0.75133069  0.49947763  0.59771477
   0.83094240  0.08508449  0.40299973
   0.91707334  0.16675366  0.49964499
   0.83326913  0.58245245  0.40148675
   0.41507077  0.91894808  0.49973191
   0.16747637  0.41509103  0.50020598
   0.33471535  0.33290105  0.40290492
   0.49955924  0.25063190  0.59696971
   0.58413612  0.33139553  0.40248990
   0.50063920  0.00052368  0.59725509
   0.41412913  0.16691025  0.49948798
   0.58401792  0.08416319  0.40279634
   0.00067347  0.74887603  0.59767106
   0.33397332  0.83267290  0.40140050
   0.24855258  0.50048757  0.59795605
   0.16853725  0.16687446  0.49961282
   0.33441216  0.58209283  0.40138987
   0.58268606  0.83249957  0.40190290
   0.00003342  0.50022518  0.59792494
Direct configuration=    12
   0.08105064  0.08555669  0.39718325
   0.83012218  0.83464569  0.39432589
   0.66575559  0.66724589  0.49934329
   0.75253862  0.24938850  0.60254614
   0.66787520  0.41291722  0.49925958
   0.74993325  0.00052240  0.60439117
   0.50047998  0.75057912  0.60421221
   0.49974971  0.49854767  0.60575704
   0.41736382  0.66690299  0.49858376
   0.58326023  0.58307015  0.39298021
   0.41723181  0.41252632  0.49982102
   0.66275476  0.92040927  0.49910114
   0.16661543  0.92007423  0.49958021
   0.16707568  0.66583401  0.49986177
   0.25060021  0.25203146  0.60069846
   0.24715873  0.75023176  0.60667941
   0.75200920  0.74899488  0.60582778
   0.08510721  0.57985804  0.39517484
   0.08420139  0.83292960  0.39325639
   0.91455979  0.92037078  0.49999009
   0.91712448  0.66593901  0.49980564
   0.33506695  0.08319473  0.39881369
   0.92042959  0.41317477  0.49963981
   0.24883550  0.00245879  0.60224588
   0.08290391  0.33379266  0.40303678
   0.00054391  0.00001698  0.59759813
   0.83293388  0.33316615  0.40175584
  -0.00035580  0.25134501  0.59635249
   0.66594932  0.16612690  0.50051994
   0.75132262  0.49947520  0.59764711
   0.83091597  0.08507368  0.40304765
   0.91711337  0.16673489  0.49962629
   0.83318363  0.58247622  0.40150713
   0.41499385  0.91908166  0.49975127
   0.16744612  0.41504614  0.50021202
   0.33474748  0.33290675  0.40294838
   0.49957474  0.25064189  0.59696885
   0.58419321  0.33134467  0.40261500
   0.50069902  0.00050006  0.59725326
   0.41405554  0.16692554  0.49944148
   0.58406836  0.08408657  0.40288925
   0.00068675  0.74886641  0.59754302
   0.33398955  0.83258388  0.40145907
   0.24849072  0.50057942  0.59791323
   0.16855787  0.16689940  0.49958598
   0.33444823  0.58213546  0.40143069
   0.58264708  0.83246961  0.40195944
  -0.00000930  0.50032085  0.59785903
