  48  48   0   0
  0.5349325E+02  0.1100258E-08  0.1100258E-08  0.2449179E-08  0.3500000E-15
  1.000000000000000E-004
  CAR 
 unknown system                          
      6.34621319     -9.95259725  301     -1.09382192      1.00000000
     -9.953  0.0000E+00  0.0000E+00
     -9.898  0.0000E+00  0.0000E+00
     -9.844  0.0000E+00  0.0000E+00
     -9.790  0.0000E+00  0.0000E+00
     -9.735  0.0000E+00  0.0000E+00
     -9.681  0.0000E+00  0.0000E+00
     -9.627  0.0000E+00  0.0000E+00
     -9.572  0.0000E+00  0.0000E+00
     -9.518  0.9536E-17  0.5181E-18
     -9.464  0.3830E-14  0.2086E-15
     -9.409  0.8567E-12  0.4675E-13
     -9.355  0.1081E-09  0.5922E-11
     -9.301  0.7723E-08  0.4255E-09
     -9.246  0.3129E-06  0.1743E-07
     -9.192  0.7214E-05  0.4093E-06
     -9.138  0.9488E-04  0.5564E-05
     -9.083  0.7138E-03  0.4435E-04
     -9.029  0.3080E-02  0.2117E-03
     -8.975  0.7645E-02  0.6270E-03
     -8.920  0.1103E-01  0.1227E-02
     -8.866  0.9921E-02  0.1766E-02
     -8.812  0.7832E-02  0.2191E-02
     -8.757  0.8872E-02  0.2673E-02
     -8.703  0.1021E-01  0.3228E-02
     -8.649  0.8198E-02  0.3673E-02
     -8.594  0.4293E-02  0.3907E-02
     -8.540  0.1621E-02  0.3995E-02
     -8.486  0.1228E-02  0.4061E-02
     -8.431  0.2495E-02  0.4197E-02
     -8.377  0.3821E-02  0.4404E-02
     -8.323  0.4177E-02  0.4631E-02
     -8.268  0.5171E-02  0.4912E-02
     -8.214  0.7955E-02  0.5344E-02
     -8.160  0.1116E-01  0.5951E-02
     -8.105  0.1474E-01  0.6752E-02
     -8.051  0.1771E-01  0.7714E-02
     -7.997  0.1684E-01  0.8629E-02
     -7.942  0.1284E-01  0.9326E-02
     -7.888  0.8203E-02  0.9772E-02
     -7.834  0.5232E-02  0.1006E-01
     -7.779  0.6514E-02  0.1041E-01
     -7.725  0.1075E-01  0.1099E-01
     -7.671  0.1297E-01  0.1170E-01
     -7.616  0.1159E-01  0.1233E-01
     -7.562  0.1023E-01  0.1288E-01
     -7.508  0.1186E-01  0.1353E-01
     -7.453  0.1683E-01  0.1444E-01
     -7.399  0.2558E-01  0.1583E-01
     -7.345  0.3609E-01  0.1779E-01
     -7.290  0.4439E-01  0.2021E-01
     -7.236  0.5117E-01  0.2299E-01
     -7.182  0.5786E-01  0.2613E-01
     -7.127  0.6139E-01  0.2946E-01
     -7.073  0.6050E-01  0.3275E-01
     -7.019  0.5848E-01  0.3593E-01
     -6.964  0.5727E-01  0.3904E-01
     -6.910  0.5524E-01  0.4204E-01
     -6.856  0.5226E-01  0.4488E-01
     -6.801  0.5226E-01  0.4772E-01
     -6.747  0.5758E-01  0.5085E-01
     -6.693  0.6700E-01  0.5449E-01
     -6.639  0.7822E-01  0.5874E-01
     -6.584  0.8670E-01  0.6345E-01
     -6.530  0.8989E-01  0.6833E-01
     -6.476  0.9448E-01  0.7346E-01
     -6.421  0.1066E+00  0.7926E-01
     -6.367  0.1244E+00  0.8602E-01
     -6.313  0.1440E+00  0.9384E-01
     -6.258  0.1608E+00  0.1026E+00
     -6.204  0.1685E+00  0.1117E+00
     -6.150  0.1681E+00  0.1209E+00
     -6.095  0.1672E+00  0.1299E+00
     -6.041  0.1664E+00  0.1390E+00
     -5.987  0.1614E+00  0.1478E+00
     -5.932  0.1559E+00  0.1562E+00
     -5.878  0.1543E+00  0.1646E+00
     -5.824  0.1557E+00  0.1731E+00
     -5.769  0.1572E+00  0.1816E+00
     -5.715  0.1525E+00  0.1899E+00
     -5.661  0.1392E+00  0.1975E+00
     -5.606  0.1260E+00  0.2043E+00
     -5.552  0.1193E+00  0.2108E+00
     -5.498  0.1157E+00  0.2171E+00
     -5.443  0.1141E+00  0.2233E+00
     -5.389  0.1183E+00  0.2297E+00
     -5.335  0.1272E+00  0.2366E+00
     -5.280  0.1379E+00  0.2441E+00
     -5.226  0.1480E+00  0.2521E+00
     -5.172  0.1555E+00  0.2606E+00
     -5.117  0.1626E+00  0.2694E+00
     -5.063  0.1703E+00  0.2787E+00
     -5.009  0.1739E+00  0.2881E+00
     -4.954  0.1713E+00  0.2974E+00
     -4.900  0.1686E+00  0.3066E+00
     -4.846  0.1705E+00  0.3158E+00
     -4.791  0.1749E+00  0.3253E+00
     -4.737  0.1765E+00  0.3349E+00
     -4.683  0.1725E+00  0.3443E+00
     -4.628  0.1646E+00  0.3533E+00
     -4.574  0.1578E+00  0.3618E+00
     -4.520  0.1558E+00  0.3703E+00
     -4.465  0.1592E+00  0.3789E+00
     -4.411  0.1668E+00  0.3880E+00
     -4.357  0.1741E+00  0.3975E+00
     -4.302  0.1760E+00  0.4070E+00
     -4.248  0.1740E+00  0.4165E+00
     -4.194  0.1721E+00  0.4258E+00
     -4.139  0.1718E+00  0.4352E+00
     -4.085  0.1747E+00  0.4447E+00
     -4.031  0.1818E+00  0.4545E+00
     -3.976  0.1900E+00  0.4649E+00
     -3.922  0.1943E+00  0.4754E+00
     -3.868  0.1932E+00  0.4859E+00
     -3.813  0.1912E+00  0.4963E+00
     -3.759  0.1927E+00  0.5068E+00
     -3.705  0.1958E+00  0.5174E+00
     -3.650  0.1978E+00  0.5281E+00
     -3.596  0.1988E+00  0.5389E+00
     -3.542  0.1988E+00  0.5497E+00
     -3.487  0.1969E+00  0.5604E+00
     -3.433  0.1950E+00  0.5710E+00
     -3.379  0.1951E+00  0.5816E+00
     -3.324  0.1943E+00  0.5922E+00
     -3.270  0.1909E+00  0.6026E+00
     -3.216  0.1879E+00  0.6128E+00
     -3.161  0.1865E+00  0.6229E+00
     -3.107  0.1844E+00  0.6329E+00
     -3.053  0.1821E+00  0.6428E+00
     -2.998  0.1824E+00  0.6527E+00
     -2.944  0.1853E+00  0.6628E+00
     -2.890  0.1886E+00  0.6731E+00
     -2.835  0.1921E+00  0.6835E+00
     -2.781  0.1968E+00  0.6942E+00
     -2.727  0.2021E+00  0.7052E+00
     -2.672  0.2055E+00  0.7163E+00
     -2.618  0.2051E+00  0.7275E+00
     -2.564  0.1993E+00  0.7383E+00
     -2.509  0.1892E+00  0.7486E+00
     -2.455  0.1805E+00  0.7584E+00
     -2.401  0.1752E+00  0.7679E+00
     -2.346  0.1705E+00  0.7772E+00
     -2.292  0.1640E+00  0.7861E+00
     -2.238  0.1603E+00  0.7948E+00
     -2.183  0.1655E+00  0.8038E+00
     -2.129  0.1804E+00  0.8136E+00
     -2.075  0.1967E+00  0.8243E+00
     -2.021  0.2047E+00  0.8354E+00
     -1.966  0.2039E+00  0.8465E+00
     -1.912  0.2014E+00  0.8574E+00
     -1.858  0.2042E+00  0.8685E+00
     -1.803  0.2128E+00  0.8801E+00
     -1.749  0.2212E+00  0.8921E+00
     -1.695  0.2242E+00  0.9043E+00
     -1.640  0.2218E+00  0.9163E+00
     -1.586  0.2155E+00  0.9280E+00
     -1.532  0.2053E+00  0.9392E+00
     -1.477  0.1931E+00  0.9497E+00
     -1.423  0.1829E+00  0.9596E+00
     -1.369  0.1770E+00  0.9692E+00
     -1.314  0.1724E+00  0.9786E+00
     -1.260  0.1637E+00  0.9875E+00
     -1.206  0.1479E+00  0.9955E+00
     -1.151  0.1250E+00  0.1002E+01
     -1.097  0.9996E-01  0.1008E+01
     -1.043  0.7743E-01  0.1012E+01
     -0.988  0.5618E-01  0.1015E+01
     -0.934  0.3642E-01  0.1017E+01
     -0.880  0.2314E-01  0.1018E+01
     -0.825  0.1891E-01  0.1019E+01
     -0.771  0.2027E-01  0.1020E+01
     -0.717  0.2245E-01  0.1022E+01
     -0.662  0.2485E-01  0.1023E+01
     -0.608  0.2935E-01  0.1025E+01
     -0.554  0.3670E-01  0.1027E+01
     -0.499  0.4492E-01  0.1029E+01
     -0.445  0.4876E-01  0.1032E+01
     -0.391  0.4719E-01  0.1034E+01
     -0.336  0.4463E-01  0.1037E+01
     -0.282  0.4286E-01  0.1039E+01
     -0.228  0.4103E-01  0.1041E+01
     -0.173  0.3757E-01  0.1043E+01
     -0.119  0.3114E-01  0.1045E+01
     -0.065  0.2211E-01  0.1046E+01
     -0.010  0.1417E-01  0.1047E+01
      0.044  0.1212E-01  0.1048E+01
      0.098  0.1683E-01  0.1048E+01
      0.153  0.2448E-01  0.1050E+01
      0.207  0.2874E-01  0.1051E+01
      0.261  0.2859E-01  0.1053E+01
      0.316  0.3088E-01  0.1055E+01
      0.370  0.3853E-01  0.1057E+01
      0.424  0.4470E-01  0.1059E+01
      0.479  0.4454E-01  0.1061E+01
      0.533  0.4306E-01  0.1064E+01
      0.587  0.4509E-01  0.1066E+01
      0.642  0.4775E-01  0.1069E+01
      0.696  0.4765E-01  0.1071E+01
      0.750  0.4621E-01  0.1074E+01
      0.805  0.4480E-01  0.1076E+01
      0.859  0.4049E-01  0.1079E+01
      0.913  0.3223E-01  0.1080E+01
      0.968  0.2422E-01  0.1082E+01
      1.022  0.1979E-01  0.1083E+01
      1.076  0.1843E-01  0.1084E+01
      1.131  0.1807E-01  0.1085E+01
      1.185  0.1668E-01  0.1086E+01
      1.239  0.1328E-01  0.1086E+01
      1.294  0.1019E-01  0.1087E+01
      1.348  0.9710E-02  0.1087E+01
      1.402  0.1108E-01  0.1088E+01
      1.457  0.1533E-01  0.1089E+01
      1.511  0.2442E-01  0.1090E+01
      1.565  0.3473E-01  0.1092E+01
      1.620  0.3854E-01  0.1094E+01
      1.674  0.3369E-01  0.1096E+01
      1.728  0.2721E-01  0.1097E+01
      1.783  0.2539E-01  0.1099E+01
      1.837  0.2690E-01  0.1100E+01
      1.891  0.2861E-01  0.1102E+01
      1.946  0.2937E-01  0.1103E+01
      2.000  0.2921E-01  0.1105E+01
      2.054  0.3067E-01  0.1107E+01
      2.109  0.3535E-01  0.1109E+01
      2.163  0.4005E-01  0.1111E+01
      2.217  0.4254E-01  0.1113E+01
      2.272  0.4449E-01  0.1116E+01
      2.326  0.4627E-01  0.1118E+01
      2.380  0.4663E-01  0.1121E+01
      2.434  0.4487E-01  0.1123E+01
      2.489  0.4314E-01  0.1125E+01
      2.543  0.4304E-01  0.1128E+01
      2.597  0.4213E-01  0.1130E+01
      2.652  0.3935E-01  0.1132E+01
      2.706  0.3382E-01  0.1134E+01
      2.760  0.2605E-01  0.1135E+01
      2.815  0.2034E-01  0.1137E+01
      2.869  0.1754E-01  0.1137E+01
      2.923  0.1575E-01  0.1138E+01
      2.978  0.1415E-01  0.1139E+01
      3.032  0.1116E-01  0.1140E+01
      3.086  0.8232E-02  0.1140E+01
      3.141  0.8955E-02  0.1141E+01
      3.195  0.1279E-01  0.1141E+01
      3.249  0.1716E-01  0.1142E+01
      3.304  0.2026E-01  0.1143E+01
      3.358  0.2092E-01  0.1144E+01
      3.412  0.2148E-01  0.1146E+01
      3.467  0.2701E-01  0.1147E+01
      3.521  0.3808E-01  0.1149E+01
      3.575  0.4885E-01  0.1152E+01
      3.630  0.5121E-01  0.1155E+01
      3.684  0.4180E-01  0.1157E+01
      3.738  0.2900E-01  0.1158E+01
      3.793  0.2237E-01  0.1160E+01
      3.847  0.2139E-01  0.1161E+01
      3.901  0.2210E-01  0.1162E+01
      3.956  0.2443E-01  0.1163E+01
      4.010  0.2896E-01  0.1165E+01
      4.064  0.2985E-01  0.1167E+01
      4.119  0.2501E-01  0.1168E+01
      4.173  0.2264E-01  0.1169E+01
      4.227  0.2306E-01  0.1170E+01
      4.282  0.1883E-01  0.1171E+01
      4.336  0.1386E-01  0.1172E+01
      4.390  0.1718E-01  0.1173E+01
      4.445  0.2581E-01  0.1175E+01
      4.499  0.3078E-01  0.1176E+01
      4.553  0.3405E-01  0.1178E+01
      4.608  0.4303E-01  0.1180E+01
      4.662  0.5312E-01  0.1183E+01
      4.716  0.5553E-01  0.1186E+01
      4.771  0.5445E-01  0.1189E+01
      4.825  0.5609E-01  0.1192E+01
      4.879  0.5875E-01  0.1195E+01
      4.934  0.6030E-01  0.1199E+01
      4.988  0.6061E-01  0.1202E+01
      5.042  0.6281E-01  0.1205E+01
      5.097  0.6710E-01  0.1209E+01
      5.151  0.6711E-01  0.1213E+01
      5.205  0.6272E-01  0.1216E+01
      5.260  0.5641E-01  0.1219E+01
      5.314  0.4445E-01  0.1222E+01
      5.368  0.2711E-01  0.1223E+01
      5.423  0.1184E-01  0.1224E+01
      5.477  0.3512E-02  0.1224E+01
      5.531  0.6750E-03  0.1224E+01
      5.586  0.8073E-04  0.1224E+01
      5.640  0.5824E-05  0.1224E+01
      5.694  0.2478E-06  0.1224E+01
      5.749  0.6121E-08  0.1224E+01
      5.803  0.8681E-10  0.1224E+01
      5.857  0.7009E-12  0.1224E+01
      5.912  0.3206E-14  0.1224E+01
      5.966  0.8174E-17  0.1224E+01
      6.020  0.0000E+00  0.1224E+01
      6.075  0.0000E+00  0.1224E+01
      6.129  0.0000E+00  0.1224E+01
      6.183  0.0000E+00  0.1224E+01
      6.238  0.0000E+00  0.1224E+01
      6.292  0.0000E+00  0.1224E+01
      6.346  0.0000E+00  0.1224E+01
