       N       E                     dE             d eps       ncg     rms          rms(c)
DAV:   1     0.320072467154E+04    0.32007E+04   -0.18977E+05  3672   0.112E+03
DAV:   2     0.148057620595E+02   -0.31859E+04   -0.29291E+04  4404   0.263E+02
DAV:   3    -0.199196573994E+03   -0.21400E+03   -0.19899E+03  4140   0.651E+01
DAV:   4    -0.204944768960E+03   -0.57482E+01   -0.56846E+01  4284   0.108E+01
DAV:   5    -0.205126891268E+03   -0.18212E+00   -0.18157E+00  4500   0.194E+00    0.629E+01
RMM:   6    -0.198409599080E+03    0.67173E+01   -0.90870E+01  3679   0.150E+01    0.560E+01
RMM:   7    -0.205259293093E+03   -0.68497E+01   -0.52566E+01  3684   0.119E+01    0.410E+01
RMM:   8    -0.231864524496E+03   -0.26605E+02   -0.87429E+01  3678   0.141E+01    0.482E+01
RMM:   9    -0.209725321176E+03    0.22139E+02   -0.57187E+01  3681   0.116E+01    0.370E+01
RMM:  10    -0.195169240377E+03    0.14556E+02   -0.24851E+01  3686   0.831E+00    0.204E+01
RMM:  11    -0.189367520113E+03    0.58017E+01   -0.10728E+01  3682   0.532E+00    0.888E+00
RMM:  12    -0.187940639176E+03    0.14269E+01   -0.49953E+00  3681   0.336E+00    0.758E+00
RMM:  13    -0.187799855345E+03    0.14078E+00   -0.12077E+00  3684   0.174E+00    0.555E+00
RMM:  14    -0.188020423304E+03   -0.22057E+00   -0.62254E-01  3680   0.126E+00    0.636E+00
RMM:  15    -0.187767401836E+03    0.25302E+00   -0.31444E-01  3684   0.876E-01    0.424E+00
RMM:  16    -0.187596978875E+03    0.17042E+00   -0.16263E-01  3680   0.628E-01    0.233E+00
RMM:  17    -0.187553702166E+03    0.43277E-01   -0.10177E-01  3679   0.485E-01    0.177E+00
RMM:  18    -0.187517473454E+03    0.36229E-01   -0.30769E-02  3685   0.263E-01    0.910E-01
RMM:  19    -0.187510358322E+03    0.71151E-02   -0.86390E-03  3684   0.134E-01    0.637E-01
RMM:  20    -0.187508009796E+03    0.23485E-02   -0.43634E-03  3683   0.999E-02    0.454E-01
RMM:  21    -0.187506673001E+03    0.13368E-02   -0.18395E-03  3685   0.622E-02    0.384E-01
RMM:  22    -0.187505048773E+03    0.16242E-02   -0.13630E-03  3681   0.517E-02    0.258E-01
RMM:  23    -0.187504591107E+03    0.45767E-03   -0.94441E-04  3685   0.450E-02    0.148E-01
RMM:  24    -0.187504543789E+03    0.47319E-04   -0.69714E-04  3681   0.371E-02    0.918E-02
RMM:  25    -0.187504785912E+03   -0.24212E-03   -0.16462E-04  3679   0.171E-02    0.464E-02
RMM:  26    -0.187505108131E+03   -0.32222E-03   -0.58522E-05  3677   0.108E-02    0.370E-02
RMM:  27    -0.187505798089E+03   -0.68996E-03   -0.53904E-05  3672   0.101E-02    0.317E-02
RMM:  28    -0.187506600228E+03   -0.80214E-03   -0.61713E-05  3675   0.113E-02    0.229E-02
RMM:  29    -0.187507083873E+03   -0.48365E-03   -0.31621E-05  3667   0.721E-03    0.221E-02
RMM:  30    -0.187507645873E+03   -0.56200E-03   -0.30266E-05  3463   0.734E-03    0.192E-02
RMM:  31    -0.187507912391E+03   -0.26652E-03   -0.16337E-05  3143   0.561E-03    0.757E-03
RMM:  32    -0.187508118477E+03   -0.20609E-03   -0.99345E-06  2876   0.416E-03    0.685E-03
RMM:  33    -0.187508179610E+03   -0.61133E-04   -0.22386E-06  2361   0.197E-03    0.420E-03
RMM:  34    -0.187508264165E+03   -0.84555E-04   -0.18447E-06  2308   0.186E-03    0.366E-03
RMM:  35    -0.187508296505E+03   -0.32340E-04   -0.77050E-07  2156   0.126E-03    0.347E-03
RMM:  36    -0.187508317438E+03   -0.20934E-04   -0.53876E-07  2130   0.114E-03    0.140E-03
RMM:  37    -0.187508326436E+03   -0.89978E-05   -0.19109E-07  1575   0.652E-04    0.137E-03
RMM:  38    -0.187508335291E+03   -0.88551E-05   -0.23373E-07  2099   0.744E-04    0.805E-04
RMM:  39    -0.187508336548E+03   -0.12567E-05   -0.63084E-08   920   0.352E-04    0.576E-04
RMM:  40    -0.187508337201E+03   -0.65270E-06   -0.19967E-08   644   0.362E-04
   1 F= -.18750834E+03 E0= -.18738327E+03  d E =-.187508E+03
       N       E                     dE             d eps       ncg     rms          rms(c)
DAV:   1    -0.188693605865E+03   -0.11853E+01   -0.41377E+02  3684   0.313E+01    0.412E+00
RMM:   2    -0.189114657464E+03   -0.42105E+00   -0.43924E+00  3681   0.452E+00    0.233E+00
RMM:   3    -0.189150622991E+03   -0.35966E-01   -0.30829E-01  3702   0.982E-01    0.271E+00
RMM:   4    -0.189124741726E+03    0.25881E-01   -0.13307E-01  3687   0.610E-01    0.202E+00
RMM:   5    -0.189222931781E+03   -0.98190E-01   -0.99209E-02  3688   0.465E-01    0.358E+00
RMM:   6    -0.189097526489E+03    0.12541E+00   -0.62021E-02  3686   0.383E-01    0.981E-01
RMM:   7    -0.189089425551E+03    0.81009E-02   -0.16917E-02  3683   0.207E-01    0.489E-01
RMM:   8    -0.189087595987E+03    0.18296E-02   -0.53701E-03  3684   0.114E-01    0.320E-01
RMM:   9    -0.189086613811E+03    0.98218E-03   -0.18028E-03  3687   0.671E-02    0.145E-01
RMM:  10    -0.189086594521E+03    0.19289E-04   -0.67520E-04  3689   0.407E-02    0.126E-01
RMM:  11    -0.189086438963E+03    0.15556E-03   -0.22137E-04  3686   0.238E-02    0.507E-02
RMM:  12    -0.189086443129E+03   -0.41660E-05   -0.57413E-05  3684   0.120E-02    0.410E-02
RMM:  13    -0.189086428797E+03    0.14332E-04   -0.29797E-05  3672   0.906E-03    0.162E-02
RMM:  14    -0.189086428655E+03    0.14165E-06   -0.83006E-06  3212   0.462E-03
   2 F= -.18908643E+03 E0= -.18896404E+03  d E =-.157809E+01
       N       E                     dE             d eps       ncg     rms          rms(c)
DAV:   1    -0.187345371101E+03    0.17411E+01   -0.38976E+03  3672   0.987E+01    0.959E+00
RMM:   2    -0.191086704468E+03   -0.37413E+01   -0.39030E+01  3681   0.136E+01    0.538E+00
RMM:   3    -0.191235510539E+03   -0.14881E+00   -0.20266E+00  3712   0.250E+00    0.685E+00
RMM:   4    -0.191162469229E+03    0.73041E-01   -0.62482E-01  3685   0.130E+00    0.583E+00
RMM:   5    -0.191376611831E+03   -0.21414E+00   -0.59074E-01  3687   0.114E+00    0.703E+00
RMM:   6    -0.190928382717E+03    0.44823E+00   -0.49646E-01  3683   0.111E+00    0.327E+00
RMM:   7    -0.190881210158E+03    0.47173E-01   -0.21171E-01  3683   0.731E-01    0.209E+00
RMM:   8    -0.190827906923E+03    0.53303E-01   -0.55104E-02  3681   0.377E-01    0.804E-01
RMM:   9    -0.190820902576E+03    0.70043E-02   -0.17433E-02  3682   0.207E-01    0.447E-01
RMM:  10    -0.190818826781E+03    0.20758E-02   -0.59964E-03  3684   0.117E-01    0.242E-01
RMM:  11    -0.190818868167E+03   -0.41386E-04   -0.17627E-03  3687   0.657E-02    0.226E-01
RMM:  12    -0.190818529208E+03    0.33896E-03   -0.75930E-04  3685   0.448E-02    0.124E-01
RMM:  13    -0.190818451999E+03    0.77209E-04   -0.29474E-04  3684   0.278E-02    0.659E-02
RMM:  14    -0.190818415204E+03    0.36795E-04   -0.86252E-05  3683   0.149E-02    0.226E-02
RMM:  15    -0.190818425094E+03   -0.98902E-05   -0.18702E-05  3674   0.675E-03    0.200E-02
RMM:  16    -0.190818428227E+03   -0.31322E-05   -0.61401E-06  2979   0.403E-03    0.111E-02
RMM:  17    -0.190818439829E+03   -0.11602E-04   -0.19411E-06  2202   0.237E-03    0.644E-03
RMM:  18    -0.190818445122E+03   -0.52934E-05   -0.93690E-07  2092   0.174E-03    0.247E-03
RMM:  19    -0.190818451369E+03   -0.62470E-05   -0.27867E-07  1943   0.803E-04    0.170E-03
RMM:  20    -0.190818456802E+03   -0.54330E-05   -0.16707E-07  1494   0.609E-04    0.114E-03
RMM:  21    -0.190818467274E+03   -0.10472E-04   -0.36767E-07  1937   0.681E-04    0.120E-03
RMM:  22    -0.190818473667E+03   -0.63928E-05   -0.28154E-07  1485   0.594E-04    0.114E-03
RMM:  23    -0.190818479059E+03   -0.53924E-05   -0.34954E-07  1753   0.620E-04    0.531E-04
RMM:  24    -0.190818481194E+03   -0.21349E-05   -0.14504E-07  1226   0.449E-04    0.578E-04
RMM:  25    -0.190818482393E+03   -0.11989E-05   -0.80177E-08   924   0.400E-04    0.334E-04
RMM:  26    -0.190818483193E+03   -0.80035E-06   -0.77302E-08  1000   0.429E-04
   3 F= -.19081848E+03 E0= -.19070644E+03  d E =-.331015E+01
       N       E                     dE             d eps       ncg     rms          rms(c)
DAV:   1    -0.190991371677E+03   -0.17289E+00   -0.33120E+02  3672   0.282E+01    0.270E+00
RMM:   2    -0.191344450753E+03   -0.35308E+00   -0.37451E+00  3686   0.412E+00    0.157E+00
RMM:   3    -0.191425069559E+03   -0.80619E-01   -0.23165E-01  3705   0.840E-01    0.307E+00
RMM:   4    -0.191358858160E+03    0.66211E-01   -0.65791E-02  3688   0.410E-01    0.186E+00
RMM:   5    -0.191337205648E+03    0.21653E-01   -0.46876E-02  3684   0.340E-01    0.112E+00
RMM:   6    -0.191329927038E+03    0.72786E-02   -0.37084E-02  3686   0.309E-01    0.655E-01
RMM:   7    -0.191327997698E+03    0.19293E-02   -0.12071E-02  3684   0.173E-01    0.529E-01
RMM:   8    -0.191325192479E+03    0.28052E-02   -0.38601E-03  3683   0.101E-01    0.243E-01
RMM:   9    -0.191324376731E+03    0.81575E-03   -0.13728E-03  3682   0.590E-02    0.752E-02
RMM:  10    -0.191324333814E+03    0.42916E-04   -0.29617E-04  3687   0.260E-02    0.475E-02
RMM:  11    -0.191324317009E+03    0.16806E-04   -0.83388E-05  3687   0.143E-02    0.283E-02
RMM:  12    -0.191324317404E+03   -0.39508E-06   -0.24806E-05  3682   0.805E-03    0.179E-02
RMM:  13    -0.191324316327E+03    0.10766E-05   -0.81795E-06  3203   0.473E-03    0.946E-03
RMM:  14    -0.191324317526E+03   -0.11989E-05   -0.21098E-06  2173   0.248E-03    0.558E-03
RMM:  15    -0.191324318291E+03   -0.76471E-06   -0.77917E-07  1990   0.163E-03
   4 F= -.19132432E+03 E0= -.19121629E+03  d E =-.505835E+00
       N       E                     dE             d eps       ncg     rms          rms(c)
DAV:   1    -0.191300898674E+03    0.23419E-01   -0.79634E+01  3720   0.138E+01    0.121E+00
RMM:   2    -0.191387044546E+03   -0.86146E-01   -0.91429E-01  3686   0.203E+00    0.728E-01
RMM:   3    -0.191405840941E+03   -0.18796E-01   -0.57880E-02  3706   0.419E-01    0.147E+00
RMM:   4    -0.191390029188E+03    0.15812E-01   -0.14854E-02  3687   0.196E-01    0.885E-01
RMM:   5    -0.191384587277E+03    0.54419E-02   -0.89324E-03  3685   0.149E-01    0.512E-01
RMM:   6    -0.191384876835E+03   -0.28956E-03   -0.10318E-02  3686   0.160E-01    0.491E-01
RMM:   7    -0.191382872353E+03    0.20045E-02   -0.42574E-03  3683   0.103E-01    0.226E-01
RMM:   8    -0.191382383742E+03    0.48861E-03   -0.10293E-03  3682   0.513E-02    0.129E-01
RMM:   9    -0.191382132793E+03    0.25095E-03   -0.38225E-04  3683   0.312E-02    0.375E-02
RMM:  10    -0.191382124644E+03    0.81495E-05   -0.90940E-05  3685   0.144E-02    0.298E-02
RMM:  11    -0.191382116329E+03    0.83144E-05   -0.25466E-05  3680   0.783E-03    0.136E-02
RMM:  12    -0.191382118910E+03   -0.25809E-05   -0.93677E-06  3671   0.480E-03    0.130E-02
RMM:  13    -0.191382118365E+03    0.54520E-06   -0.30094E-06  2485   0.296E-03
   5 F= -.19138212E+03 E0= -.19127589E+03  d E =-.563635E+00
       N       E                     dE             d eps       ncg     rms          rms(c)
DAV:   1    -0.191390427131E+03   -0.83082E-02   -0.33911E+01  3708   0.899E+00    0.744E-01
RMM:   2    -0.191425574209E+03   -0.35147E-01   -0.37701E-01  3686   0.131E+00    0.437E-01
RMM:   3    -0.191428638852E+03   -0.30646E-02   -0.20233E-02  3703   0.252E-01    0.645E-01
RMM:   4    -0.191427748146E+03    0.89071E-03   -0.51895E-03  3686   0.117E-01    0.615E-01
RMM:   5    -0.191425273789E+03    0.24744E-02   -0.39462E-03  3686   0.968E-02    0.366E-01
RMM:   6    -0.191424293450E+03    0.98034E-03   -0.36809E-03  3683   0.979E-02    0.166E-01
RMM:   7    -0.191424130516E+03    0.16293E-03   -0.93738E-04  3682   0.486E-02    0.125E-01
RMM:   8    -0.191423965568E+03    0.16495E-03   -0.30999E-04  3683   0.281E-02    0.741E-02
RMM:   9    -0.191423902468E+03    0.63099E-04   -0.11535E-04  3682   0.173E-02    0.299E-02
RMM:  10    -0.191423892507E+03    0.99617E-05   -0.28298E-05  3681   0.790E-03    0.138E-02
RMM:  11    -0.191423891755E+03    0.75122E-06   -0.89306E-06  3664   0.466E-03
   6 F= -.19142389E+03 E0= -.19131869E+03  d E =-.417734E-01
       N       E                     dE             d eps       ncg     rms          rms(c)
DAV:   1    -0.191423865273E+03    0.27234E-04   -0.67192E-01  3744   0.126E+00    0.101E-01
RMM:   2    -0.191424557276E+03   -0.69200E-03   -0.74739E-03  3686   0.184E-01    0.608E-02
RMM:   3    -0.191424590197E+03   -0.32921E-04   -0.40593E-04  3704   0.358E-02    0.766E-02
RMM:   4    -0.191424587323E+03    0.28740E-05   -0.10079E-04  3686   0.167E-02    0.805E-02
RMM:   5    -0.191424559401E+03    0.27922E-04   -0.62997E-05  3686   0.120E-02    0.620E-02
RMM:   6    -0.191424531160E+03    0.28241E-04   -0.78283E-05  3683   0.141E-02    0.277E-02
RMM:   7    -0.191424528334E+03    0.28256E-05   -0.21767E-05  3672   0.743E-03    0.214E-02
RMM:   8    -0.191424523771E+03    0.45634E-05   -0.66212E-06  3273   0.422E-03    0.879E-03
RMM:   9    -0.191424522740E+03    0.10302E-05   -0.28161E-06  2278   0.282E-03    0.446E-03
RMM:  10    -0.191424522482E+03    0.25811E-06   -0.85662E-07  1952   0.170E-03
   7 F= -.19142452E+03 E0= -.19131949E+03  d E =-.424041E-01
       N       E                     dE             d eps       ncg     rms          rms(c)
DAV:   1    -0.191428272198E+03   -0.37495E-02   -0.55594E+00  3684   0.361E+00    0.207E-01
RMM:   2    -0.191433971493E+03   -0.56993E-02   -0.60248E-02  3686   0.528E-01    0.165E-01
RMM:   3    -0.191433981780E+03   -0.10286E-04   -0.31227E-03  3733   0.102E-01    0.139E-01
RMM:   4    -0.191434146579E+03   -0.16480E-03   -0.56897E-04  3675   0.402E-02    0.211E-01
RMM:   5    -0.191433940819E+03    0.20576E-03   -0.36804E-04  3687   0.291E-02    0.169E-01
RMM:   6    -0.191433677136E+03    0.26368E-03   -0.74552E-04  3682   0.426E-02    0.670E-02
RMM:   7    -0.191433690896E+03   -0.13760E-04   -0.23229E-04  3686   0.242E-02    0.551E-02
RMM:   8    -0.191433664944E+03    0.25951E-04   -0.46407E-05  3681   0.110E-02    0.327E-02
RMM:   9    -0.191433649659E+03    0.15285E-04   -0.24541E-05  3678   0.770E-03    0.205E-02
RMM:  10    -0.191433643143E+03    0.65163E-05   -0.13229E-05  3672   0.553E-03    0.934E-03
RMM:  11    -0.191433642070E+03    0.10730E-05   -0.78201E-06  3671   0.415E-03    0.537E-03
RMM:  12    -0.191433641901E+03    0.16912E-06   -0.20187E-06  2000   0.232E-03
   8 F= -.19143364E+03 E0= -.19132872E+03  d E =-.911942E-02
       N       E                     dE             d eps       ncg     rms          rms(c)
DAV:   1    -0.191430021776E+03    0.36203E-02   -0.76851E+00  3672   0.424E+00    0.240E-01
RMM:   2    -0.191437898997E+03   -0.78772E-02   -0.83174E-02  3686   0.621E-01    0.192E-01
RMM:   3    -0.191437940131E+03   -0.41134E-04   -0.43083E-03  3733   0.120E-01    0.171E-01
RMM:   4    -0.191438233690E+03   -0.29356E-03   -0.75696E-04  3674   0.460E-02    0.264E-01
RMM:   5    -0.191437759509E+03    0.47418E-03   -0.51995E-04  3687   0.349E-02    0.175E-01
RMM:   6    -0.191437481987E+03    0.27752E-03   -0.10606E-03  3682   0.509E-02    0.758E-02
RMM:   7    -0.191437497897E+03   -0.15910E-04   -0.32367E-04  3685   0.285E-02    0.606E-02
RMM:   8    -0.191437466345E+03    0.31552E-04   -0.61057E-05  3687   0.126E-02    0.392E-02
RMM:   9    -0.191437444629E+03    0.21716E-04   -0.33387E-05  3680   0.898E-03    0.245E-02
RMM:  10    -0.191437435840E+03    0.87887E-05   -0.17369E-05  3672   0.635E-03    0.116E-02
RMM:  11    -0.191437434116E+03    0.17248E-05   -0.11608E-05  3672   0.505E-03    0.660E-03
RMM:  12    -0.191437433849E+03    0.26639E-06   -0.30428E-06  2165   0.283E-03
   9 F= -.19143743E+03 E0= -.19133263E+03  d E =-.129114E-01
       N       E                     dE             d eps       ncg     rms          rms(c)
DAV:   1    -0.191440309496E+03   -0.28754E-02   -0.41970E+00  3672   0.313E+00    0.149E-01
RMM:   2    -0.191444634587E+03   -0.43251E-02   -0.44737E-02  3683   0.459E-01    0.157E-01
RMM:   3    -0.191444631049E+03    0.35380E-05   -0.25406E-03  3878   0.914E-02    0.131E-01
RMM:   4    -0.191444635019E+03   -0.39703E-05   -0.28710E-04  3675   0.284E-02    0.158E-01
RMM:   5    -0.191444511609E+03    0.12341E-03   -0.15124E-04  3687   0.190E-02    0.132E-01
RMM:   6    -0.191444379334E+03    0.13227E-03   -0.56160E-04  3682   0.365E-02    0.101E-01
RMM:   7    -0.191444364910E+03    0.14424E-04   -0.48139E-04  3686   0.339E-02    0.701E-02
RMM:   8    -0.191444342753E+03    0.22157E-04   -0.95017E-05  3686   0.155E-02    0.399E-02
RMM:   9    -0.191444327716E+03    0.15037E-04   -0.16963E-05  3672   0.667E-03    0.310E-02
RMM:  10    -0.191444311775E+03    0.15941E-04   -0.24495E-05  3679   0.751E-03    0.163E-02
RMM:  11    -0.191444307756E+03    0.40191E-05   -0.17874E-05  3672   0.626E-03    0.834E-03
RMM:  12    -0.191444307351E+03    0.40457E-06   -0.10162E-05  3672   0.470E-03    0.348E-03
RMM:  13    -0.191444307421E+03   -0.69609E-07   -0.53843E-07  1944   0.133E-03
  10 F= -.19144431E+03 E0= -.19133934E+03  d E =-.687357E-02
       N       E                     dE             d eps       ncg     rms          rms(c)
DAV:   1    -0.191428443445E+03    0.15864E-01   -0.26458E+01  3672   0.785E+00    0.371E-01
RMM:   2    -0.191455830707E+03   -0.27387E-01   -0.28125E-01  3683   0.115E+00    0.390E-01
RMM:   3    -0.191455880659E+03   -0.49952E-04   -0.15930E-02  3862   0.229E-01    0.329E-01
RMM:   4    -0.191455892044E+03   -0.11385E-04   -0.17959E-03  3674   0.712E-02    0.396E-01
RMM:   5    -0.191455044894E+03    0.84715E-03   -0.92017E-04  3688   0.471E-02    0.322E-01
RMM:   6    -0.191454134868E+03    0.91003E-03   -0.36075E-03  3683   0.923E-02    0.245E-01
RMM:   7    -0.191454018325E+03    0.11654E-03   -0.29766E-03  3685   0.843E-02    0.172E-01
RMM:   8    -0.191453885281E+03    0.13304E-03   -0.56298E-04  3685   0.379E-02    0.102E-01
RMM:   9    -0.191453788339E+03    0.96943E-04   -0.10700E-04  3686   0.167E-02    0.783E-02
RMM:  10    -0.191453686545E+03    0.10179E-03   -0.15798E-04  3681   0.190E-02    0.410E-02
RMM:  11    -0.191453660953E+03    0.25591E-04   -0.10740E-04  3684   0.153E-02    0.211E-02
RMM:  12    -0.191453658080E+03    0.28740E-05   -0.68999E-05  3684   0.122E-02    0.912E-03
RMM:  13    -0.191453658221E+03   -0.14127E-06   -0.36855E-06  2554   0.336E-03
  11 F= -.19145366E+03 E0= -.19134823E+03  d E =-.162244E-01
       N       E                     dE             d eps       ncg     rms          rms(c)
DAV:   1    -0.191451711044E+03    0.19470E-02   -0.27082E+00  3696   0.251E+00    0.117E-01
RMM:   2    -0.191454492462E+03   -0.27814E-02   -0.28771E-02  3684   0.368E-01    0.126E-01
RMM:   3    -0.191454489653E+03    0.28089E-05   -0.16360E-03  3889   0.733E-02    0.109E-01
RMM:   4    -0.191454492549E+03   -0.28961E-05   -0.17712E-04  3673   0.222E-02    0.129E-01
RMM:   5    -0.191454391501E+03    0.10105E-03   -0.91555E-05  3689   0.150E-02    0.995E-02
RMM:   6    -0.191454310066E+03    0.81434E-04   -0.38741E-04  3682   0.303E-02    0.754E-02
RMM:   7    -0.191454314055E+03   -0.39892E-05   -0.32218E-04  3685   0.277E-02    0.577E-02
RMM:   8    -0.191454298365E+03    0.15690E-04   -0.58684E-05  3685   0.122E-02    0.336E-02
RMM:   9    -0.191454288211E+03    0.10155E-04   -0.10913E-05  3604   0.535E-03    0.260E-02
RMM:  10    -0.191454277256E+03    0.10955E-04   -0.16532E-05  3672   0.618E-03    0.139E-02
RMM:  11    -0.191454274432E+03    0.28239E-05   -0.12725E-05  3672   0.528E-03    0.704E-03
RMM:  12    -0.191454274260E+03    0.17142E-06   -0.73443E-06  3651   0.400E-03
  12 F= -.19145427E+03 E0= -.19134869E+03  d E =-.168404E-01
       N       E                     dE             d eps       ncg     rms          rms(c)
DAV:   1    -0.191452709105E+03    0.15653E-02   -0.91353E+00  3672   0.464E+00    0.217E-01
RMM:   2    -0.191462257056E+03   -0.95480E-02   -0.98140E-02  3684   0.680E-01    0.233E-01
RMM:   3    -0.191462161011E+03    0.96044E-04   -0.57278E-03  3755   0.137E-01    0.188E-01
RMM:   4    -0.191461879794E+03    0.28122E-03   -0.54568E-04  3673   0.415E-02    0.156E-01
RMM:   5    -0.191462113264E+03   -0.23347E-03   -0.39473E-04  3687   0.310E-02    0.240E-01
RMM:   6    -0.191461779209E+03    0.33406E-03   -0.80731E-04  3684   0.428E-02    0.191E-01
RMM:   7    -0.191461539510E+03    0.23970E-03   -0.10021E-03  3680   0.489E-02    0.906E-02
RMM:   8    -0.191461522991E+03    0.16519E-04   -0.21209E-04  3680   0.232E-02    0.539E-02
RMM:   9    -0.191461500852E+03    0.22138E-04   -0.30771E-05  3682   0.900E-03    0.412E-02
RMM:  10    -0.191461473730E+03    0.27122E-04   -0.39934E-05  3680   0.965E-03    0.232E-02
RMM:  11    -0.191461466205E+03    0.75251E-05   -0.27622E-05  3676   0.788E-03    0.127E-02
RMM:  12    -0.191461465095E+03    0.11106E-05   -0.21913E-05  3677   0.691E-03    0.531E-03
RMM:  13    -0.191461465207E+03   -0.11227E-06   -0.13921E-06  1979   0.208E-03
  13 F= -.19146147E+03 E0= -.19135533E+03  d E =-.719095E-02
       N       E                     dE             d eps       ncg     rms          rms(c)
DAV:   1    -0.191449523121E+03    0.11942E-01   -0.17300E+01  3672   0.639E+00    0.298E-01
RMM:   2    -0.191467631272E+03   -0.18108E-01   -0.18572E-01  3684   0.936E-01    0.318E-01
RMM:   3    -0.191467475157E+03    0.15612E-03   -0.10805E-02  3754   0.188E-01    0.258E-01
RMM:   4    -0.191466968543E+03    0.50661E-03   -0.10336E-03  3673   0.570E-02    0.220E-01
RMM:   5    -0.191467373608E+03   -0.40506E-03   -0.59863E-04  3689   0.379E-02    0.324E-01
RMM:   6    -0.191466548615E+03    0.82499E-03   -0.16583E-03  3682   0.619E-02    0.226E-01
RMM:   7    -0.191466266691E+03    0.28192E-03   -0.19277E-03  3682   0.678E-02    0.125E-01
RMM:   8    -0.191466224681E+03    0.42010E-04   -0.38946E-04  3682   0.314E-02    0.751E-02
RMM:   9    -0.191466181655E+03    0.43026E-04   -0.58342E-05  3685   0.124E-02    0.571E-02
RMM:  10    -0.191466130487E+03    0.51168E-04   -0.74664E-05  3679   0.132E-02    0.325E-02
RMM:  11    -0.191466115649E+03    0.14838E-04   -0.52532E-05  3682   0.109E-02    0.177E-02
RMM:  12    -0.191466113287E+03    0.23619E-05   -0.43337E-05  3680   0.970E-03    0.750E-03
RMM:  13    -0.191466113466E+03   -0.17943E-06   -0.28359E-06  2295   0.291E-03
  14 F= -.19146611E+03 E0= -.19135919E+03  d E =-.118392E-01
       N       E                     dE             d eps       ncg     rms          rms(c)
DAV:   1    -0.191465290977E+03    0.82231E-03   -0.10790E+00  3720   0.160E+00    0.737E-02
RMM:   2    -0.191466406915E+03   -0.11159E-02   -0.11557E-02  3684   0.234E-01    0.803E-02
RMM:   3    -0.191466389709E+03    0.17206E-04   -0.67199E-04  3757   0.469E-02    0.649E-02
RMM:   4    -0.191466361605E+03    0.28104E-04   -0.62909E-05  3672   0.140E-02    0.572E-02
RMM:   5    -0.191466379605E+03   -0.17999E-04   -0.31584E-05  3683   0.872E-03    0.764E-02
RMM:   6    -0.191466336875E+03    0.42729E-04   -0.10947E-04  3683   0.160E-02    0.542E-02
RMM:   7    -0.191466327071E+03    0.98045E-05   -0.12688E-04  3680   0.174E-02    0.324E-02
RMM:   8    -0.191466324610E+03    0.24611E-05   -0.26072E-05  3672   0.811E-03    0.192E-02
RMM:   9    -0.191466321941E+03    0.26691E-05   -0.35883E-06  2709   0.314E-03    0.147E-02
RMM:  10    -0.191466318575E+03    0.33652E-05   -0.46995E-06  3116   0.344E-03    0.851E-03
RMM:  11    -0.191466317574E+03    0.10009E-05   -0.32661E-06  2103   0.301E-03    0.496E-03
RMM:  12    -0.191466317490E+03    0.84634E-07   -0.34614E-06  2139   0.316E-03
  15 F= -.19146632E+03 E0= -.19135920E+03  d E =-.120432E-01
       N       E                     dE             d eps       ncg     rms          rms(c)
DAV:   1    -0.191461707550E+03    0.46100E-02   -0.94401E+00  3672   0.475E+00    0.231E-01
RMM:   2    -0.191471718791E+03   -0.10011E-01   -0.10327E-01  3685   0.693E-01    0.233E-01
RMM:   3    -0.191471706216E+03    0.12576E-04   -0.60148E-03  3731   0.137E-01    0.213E-01
RMM:   4    -0.191471583602E+03    0.12261E-03   -0.68328E-04  3674   0.447E-02    0.221E-01
RMM:   5    -0.191471214805E+03    0.36880E-03   -0.22954E-04  3688   0.242E-02    0.145E-01
RMM:   6    -0.191471012968E+03    0.20184E-03   -0.12801E-03  3681   0.550E-02    0.118E-01
RMM:   7    -0.191470959297E+03    0.53671E-04   -0.84497E-04  3684   0.448E-02    0.669E-02
RMM:   8    -0.191470952806E+03    0.64917E-05   -0.10183E-04  3688   0.162E-02    0.551E-02
RMM:   9    -0.191470926207E+03    0.26599E-04   -0.26909E-05  3675   0.850E-03    0.360E-02
RMM:  10    -0.191470909517E+03    0.16689E-04   -0.23612E-05  3679   0.742E-03    0.230E-02
RMM:  11    -0.191470901983E+03    0.75342E-05   -0.23984E-05  3678   0.733E-03    0.112E-02
RMM:  12    -0.191470901471E+03    0.51257E-06   -0.17629E-05  3674   0.622E-03    0.553E-03
RMM:  13    -0.191470901579E+03   -0.10801E-06   -0.14929E-06  1999   0.211E-03
  16 F= -.19147090E+03 E0= -.19136324E+03  d E =-.458409E-02
       N       E                     dE             d eps       ncg     rms          rms(c)
DAV:   1    -0.191470326659E+03    0.57481E-03   -0.99222E-01  3684   0.154E+00    0.746E-02
RMM:   2    -0.191471367787E+03   -0.10411E-02   -0.10821E-02  3685   0.225E-01    0.755E-02
RMM:   3    -0.191471359049E+03    0.87380E-05   -0.62752E-04  3731   0.444E-02    0.671E-02
RMM:   4    -0.191471345867E+03    0.13182E-04   -0.69216E-05  3674   0.143E-02    0.697E-02
RMM:   5    -0.191471312383E+03    0.33484E-04   -0.22818E-05  3682   0.762E-03    0.480E-02
RMM:   6    -0.191471298705E+03    0.13678E-04   -0.13383E-04  3686   0.178E-02    0.392E-02
RMM:   7    -0.191471295126E+03    0.35785E-05   -0.90986E-05  3679   0.147E-02    0.230E-02
RMM:   8    -0.191471294678E+03    0.44773E-06   -0.11738E-05  3640   0.547E-03    0.185E-02
RMM:   9    -0.191471291668E+03    0.30109E-05   -0.28481E-06  2381   0.286E-03    0.118E-02
RMM:  10    -0.191471289770E+03    0.18977E-05   -0.25386E-06  2013   0.268E-03    0.765E-03
RMM:  11    -0.191471288990E+03    0.78030E-06   -0.28449E-06  2045   0.290E-03
  17 F= -.19147129E+03 E0= -.19136345E+03  d E =-.497150E-02
       N       E                     dE             d eps       ncg     rms          rms(c)
DAV:   1    -0.191468818443E+03    0.24713E-02   -0.61312E+00  3672   0.382E+00    0.190E-01
RMM:   2    -0.191475519982E+03   -0.67015E-02   -0.68664E-02  3685   0.561E-01    0.206E-01
RMM:   3    -0.191475477451E+03    0.42532E-04   -0.41627E-03  3726   0.113E-01    0.178E-01
RMM:   4    -0.191475401546E+03    0.75905E-04   -0.47041E-04  3673   0.369E-02    0.185E-01
RMM:   5    -0.191475148407E+03    0.25314E-03   -0.15975E-04  3687   0.202E-02    0.123E-01
RMM:   6    -0.191475102634E+03    0.45772E-04   -0.61000E-04  3683   0.381E-02    0.135E-01
RMM:   7    -0.191474983286E+03    0.11935E-03   -0.81400E-04  3683   0.437E-02    0.586E-02
RMM:   8    -0.191474990205E+03   -0.69194E-05   -0.11303E-04  3680   0.168E-02    0.484E-02
RMM:   9    -0.191474965978E+03    0.24227E-04   -0.18950E-05  3677   0.720E-03    0.300E-02
RMM:  10    -0.191474955098E+03    0.10881E-04   -0.15176E-05  3672   0.598E-03    0.210E-02
RMM:  11    -0.191474947413E+03    0.76843E-05   -0.28006E-05  3675   0.782E-03    0.679E-03
RMM:  12    -0.191474947826E+03   -0.41266E-06   -0.80611E-06  3620   0.421E-03
  18 F= -.19147495E+03 E0= -.19136683E+03  d E =-.365884E-02
       N       E                     dE             d eps       ncg     rms          rms(c)
DAV:   1    -0.191473383197E+03    0.15642E-02   -0.25083E+00  3672   0.245E+00    0.121E-01
RMM:   2    -0.191476103410E+03   -0.27202E-02   -0.27968E-02  3685   0.359E-01    0.132E-01
RMM:   3    -0.191476070713E+03    0.32697E-04   -0.16869E-03  3728   0.719E-02    0.110E-01
RMM:   4    -0.191476038975E+03    0.31738E-04   -0.18383E-04  3673   0.233E-02    0.114E-01
RMM:   5    -0.191475951291E+03    0.87684E-04   -0.61579E-05  3684   0.125E-02    0.808E-02
RMM:   6    -0.191475937036E+03    0.14255E-04   -0.26713E-04  3683   0.252E-02    0.870E-02
RMM:   7    -0.191475893143E+03    0.43892E-04   -0.33473E-04  3683   0.280E-02    0.381E-02
RMM:   8    -0.191475895935E+03   -0.27913E-05   -0.44906E-05  3677   0.106E-02    0.315E-02
RMM:   9    -0.191475885631E+03    0.10304E-04   -0.79244E-06  3266   0.467E-03    0.195E-02
RMM:  10    -0.191475881069E+03    0.45616E-05   -0.63923E-06  3312   0.395E-03    0.136E-02
RMM:  11    -0.191475877871E+03    0.31981E-05   -0.11742E-05  3672   0.513E-03    0.449E-03
RMM:  12    -0.191475878023E+03   -0.15195E-06   -0.31776E-06  2287   0.282E-03
  19 F= -.19147588E+03 E0= -.19136758E+03  d E =-.458903E-02
       N       E                     dE             d eps       ncg     rms          rms(c)
DAV:   1    -0.191472535092E+03    0.33428E-02   -0.62354E+00  3672   0.386E+00    0.193E-01
RMM:   2    -0.191479415451E+03   -0.68804E-02   -0.70142E-02  3685   0.567E-01    0.217E-01
RMM:   3    -0.191479286592E+03    0.12886E-03   -0.43369E-03  3731   0.115E-01    0.163E-01
RMM:   4    -0.191479071079E+03    0.21551E-03   -0.42681E-04  3674   0.366E-02    0.137E-01
RMM:   5    -0.191479097730E+03   -0.26651E-04   -0.16255E-04  3686   0.202E-02    0.159E-01
RMM:   6    -0.191479087217E+03    0.10512E-04   -0.51597E-04  3681   0.343E-02    0.174E-01
RMM:   7    -0.191478822170E+03    0.26505E-03   -0.92958E-04  3685   0.466E-02    0.531E-02
RMM:   8    -0.191478840366E+03   -0.18196E-04   -0.11521E-04  3679   0.170E-02    0.486E-02
RMM:   9    -0.191478816381E+03    0.23985E-04   -0.18031E-05  3679   0.704E-03    0.300E-02
RMM:  10    -0.191478804394E+03    0.11987E-04   -0.18965E-05  3672   0.662E-03    0.205E-02
RMM:  11    -0.191478796931E+03    0.74634E-05   -0.28119E-05  3678   0.782E-03    0.596E-03
RMM:  12    -0.191478797430E+03   -0.49923E-06   -0.72075E-06  3536   0.400E-03
  20 F= -.19147880E+03 E0= -.19137037E+03  d E =-.291941E-02
       N       E                     dE             d eps       ncg     rms          rms(c)
DAV:   1    -0.191478207452E+03    0.58948E-03   -0.93150E-01  3684   0.149E+00    0.735E-02
RMM:   2    -0.191479222649E+03   -0.10152E-02   -0.10414E-02  3685   0.219E-01    0.841E-02
RMM:   3    -0.191479198783E+03    0.23866E-04   -0.63899E-04  3731   0.442E-02    0.635E-02
RMM:   4    -0.191479173099E+03    0.25684E-04   -0.62924E-05  3673   0.140E-02    0.575E-02
RMM:   5    -0.191479169323E+03    0.37754E-05   -0.21028E-05  3678   0.728E-03    0.576E-02
RMM:   6    -0.191479170828E+03   -0.15051E-05   -0.83481E-05  3683   0.139E-02    0.638E-02
RMM:   7    -0.191479141526E+03    0.29302E-04   -0.14777E-04  3678   0.186E-02    0.212E-02
RMM:   8    -0.191479144490E+03   -0.29637E-05   -0.17776E-05  3672   0.667E-03    0.194E-02
RMM:   9    -0.191479140671E+03    0.38191E-05   -0.26647E-06  2350   0.279E-03    0.121E-02
RMM:  10    -0.191479138740E+03    0.19304E-05   -0.29180E-06  2216   0.282E-03    0.841E-03
RMM:  11    -0.191479137562E+03    0.11781E-05   -0.51490E-06  3045   0.361E-03    0.243E-03
RMM:  12    -0.191479137643E+03   -0.80632E-07   -0.12597E-06  1939   0.195E-03
  21 F= -.19147914E+03 E0= -.19137066E+03  d E =-.325962E-02
       N       E                     dE             d eps       ncg     rms          rms(c)
DAV:   1    -0.191477995732E+03    0.11418E-02   -0.21358E+00  3672   0.226E+00    0.116E-01
RMM:   2    -0.191480330829E+03   -0.23351E-02   -0.23945E-02  3683   0.332E-01    0.125E-01
RMM:   3    -0.191480292098E+03    0.38731E-04   -0.14884E-03  3732   0.676E-02    0.973E-02
RMM:   4    -0.191480232530E+03    0.59569E-04   -0.15373E-04  3675   0.218E-02    0.890E-02
RMM:   5    -0.191480223433E+03    0.90965E-05   -0.55284E-05  3685   0.116E-02    0.897E-02
RMM:   6    -0.191480201866E+03    0.21568E-04   -0.26115E-04  3680   0.248E-02    0.843E-02
RMM:   7    -0.191480150767E+03    0.51099E-04   -0.22921E-04  3685   0.233E-02    0.336E-02
RMM:   8    -0.191480154949E+03   -0.41824E-05   -0.34039E-05  3675   0.922E-03    0.289E-02
RMM:   9    -0.191480146264E+03    0.86849E-05   -0.67144E-06  3147   0.432E-03    0.171E-02
RMM:  10    -0.191480142453E+03    0.38111E-05   -0.63033E-06  3424   0.390E-03    0.117E-02
RMM:  11    -0.191480140040E+03    0.24130E-05   -0.87273E-06  3670   0.443E-03    0.394E-03
RMM:  12    -0.191480139990E+03    0.49811E-07   -0.21495E-06  1995   0.237E-03
  22 F= -.19148014E+03 E0= -.19137157E+03  d E =-.100235E-02
       N       E                     dE             d eps       ncg     rms          rms(c)
DAV:   1    -0.191480068526E+03    0.71514E-04   -0.14479E-01  3720   0.588E-01    0.298E-02
RMM:   2    -0.191480225745E+03   -0.15722E-03   -0.16155E-03  3684   0.864E-02    0.332E-02
RMM:   3    -0.191480221396E+03    0.43490E-05   -0.99771E-05  3733   0.175E-02    0.258E-02
RMM:   4    -0.191480218798E+03    0.25975E-05   -0.10180E-05  3635   0.557E-03    0.256E-02
RMM:   5    -0.191480216258E+03    0.25405E-05   -0.33295E-06  2533   0.298E-03    0.216E-02
RMM:   6    -0.191480217211E+03   -0.95338E-06   -0.19835E-05  3672   0.694E-03    0.220E-02
RMM:   7    -0.191480214480E+03    0.27316E-05   -0.16703E-05  3673   0.630E-03    0.897E-03
RMM:   8    -0.191480214753E+03   -0.27279E-06   -0.20922E-06  2191   0.244E-03
  23 F= -.19148021E+03 E0= -.19137164E+03  d E =-.107711E-02
       N       E                     dE             d eps       ncg     rms          rms(c)
DAV:   1    -0.191479530647E+03    0.68383E-03   -0.57841E-01  3672   0.118E+00    0.629E-02
RMM:   2    -0.191480162794E+03   -0.63215E-03   -0.65700E-03  3683   0.173E-01    0.633E-02
RMM:   3    -0.191480158631E+03    0.41626E-05   -0.41525E-04  3728   0.356E-02    0.522E-02
RMM:   4    -0.191480143989E+03    0.14642E-04   -0.46668E-05  3675   0.120E-02    0.476E-02
RMM:   5    -0.191480138861E+03    0.51282E-05   -0.15600E-05  3663   0.618E-03    0.441E-02
RMM:   6    -0.191480134996E+03    0.38643E-05   -0.66589E-05  3687   0.125E-02    0.378E-02
RMM:   7    -0.191480126959E+03    0.80371E-05   -0.52045E-05  3677   0.112E-02    0.157E-02
RMM:   8    -0.191480128359E+03   -0.13999E-05   -0.74547E-06  3218   0.437E-03    0.148E-02
RMM:   9    -0.191480126157E+03    0.22022E-05   -0.17892E-06  2101   0.238E-03    0.850E-03
RMM:  10    -0.191480125277E+03    0.87966E-06   -0.13388E-06  1945   0.196E-03
  24 F= -.19148013E+03 E0= -.19137149E+03  d E =-.987634E-03
       N       E                     dE             d eps       ncg     rms          rms(c)
DAV:   1    -0.191479853256E+03    0.27290E-03   -0.37302E-01  3672   0.944E-01    0.481E-02
RMM:   2    -0.191480253918E+03   -0.40066E-03   -0.41477E-03  3683   0.138E-01    0.521E-02
RMM:   3    -0.191480246474E+03    0.74437E-05   -0.25687E-04  3732   0.281E-02    0.426E-02
RMM:   4    -0.191480241254E+03    0.52199E-05   -0.28437E-05  3675   0.917E-03    0.444E-02
RMM:   5    -0.191480229787E+03    0.11468E-04   -0.95237E-06  3501   0.492E-03    0.323E-02
RMM:   6    -0.191480230438E+03   -0.65100E-06   -0.48528E-05  3684   0.107E-02    0.338E-02
RMM:   7    -0.191480222735E+03    0.77029E-05   -0.39377E-05  3674   0.966E-03    0.146E-02
RMM:   8    -0.191480223429E+03   -0.69439E-06   -0.60575E-06  3031   0.395E-03
  25 F= -.19148022E+03 E0= -.19137160E+03  d E =-.108579E-02
       N       E                     dE             d eps       ncg     rms          rms(c)
DAV:   1    -0.191479606735E+03    0.61600E-03   -0.10761E+00  3672   0.160E+00    0.822E-02
RMM:   2    -0.191480792487E+03   -0.11858E-02   -0.12162E-02  3682   0.236E-01    0.945E-02
RMM:   3    -0.191480764048E+03    0.28438E-04   -0.77902E-04  3742   0.488E-02    0.735E-02
RMM:   4    -0.191480740656E+03    0.23392E-04   -0.82156E-05  3677   0.156E-02    0.732E-02
RMM:   5    -0.191480708767E+03    0.31889E-04   -0.24646E-05  3675   0.790E-03    0.537E-02
RMM:   6    -0.191480709909E+03   -0.11417E-05   -0.10302E-04  3682   0.157E-02    0.615E-02
RMM:   7    -0.191480686191E+03    0.23718E-04   -0.15820E-04  3676   0.193E-02    0.254E-02
RMM:   8    -0.191480686474E+03   -0.28312E-06   -0.20608E-05  3672   0.720E-03    0.203E-02
RMM:   9    -0.191480681903E+03    0.45716E-05   -0.35323E-06  2672   0.316E-03    0.117E-02
RMM:  10    -0.191480680295E+03    0.16079E-05   -0.27320E-06  2141   0.275E-03    0.839E-03
RMM:  11    -0.191480679242E+03    0.10532E-05   -0.50866E-06  3095   0.357E-03    0.256E-03
RMM:  12    -0.191480679283E+03   -0.41189E-07   -0.10071E-06  1932   0.176E-03
  26 F= -.19148068E+03 E0= -.19137196E+03  d E =-.455854E-03
