unknown system                          
           1
    11.002582    0.000000    0.000000
     5.501291    9.528515    0.000000
     0.000000    0.000000   24.491785
   Au   Pd
  24  24
Direct configuration=     1
   0.33333333  0.33333333  0.40830017
   0.41666667  0.41666667  0.50000000
   0.41666667  0.16666667  0.50000000
   0.50000000  0.75000000  0.59169983
   0.66666667  0.91666667  0.50000000
   0.16666667  0.91666667  0.50000000
   0.33333333  0.83333333  0.40830017
   0.16666667  0.66666667  0.50000000
   0.75000000  0.00000000  0.59169983
   0.50000000  0.50000000  0.59169983
   0.66666667  0.41666667  0.50000000
   0.16666667  0.16666667  0.50000000
   0.41666667  0.66666667  0.50000000
   0.00000000  0.75000000  0.59169983
   0.83333333  0.83333333  0.40830017
   0.75000000  0.50000000  0.59169983
   0.66666667  0.66666667  0.50000000
   0.91666667  0.41666667  0.50000000
   0.33333333  0.08333333  0.40830017
   0.08333333  0.58333333  0.40830017
   0.00000000  0.50000000  0.59169983
   0.08333333  0.83333333  0.40830017
   0.75000000  0.25000000  0.59169983
   0.91666667  0.66666667  0.50000000
   0.83333333  0.08333333  0.40830017
   0.66666667  0.16666667  0.50000000
   0.83333333  0.58333333  0.40830017
   0.83333333  0.33333333  0.40830017
   0.41666667  0.91666667  0.50000000
   0.58333333  0.83333333  0.40830017
   0.08333333  0.08333333  0.40830017
   0.25000000  0.75000000  0.59169983
   0.50000000  0.25000000  0.59169983
   0.58333333  0.33333333  0.40830017
   0.50000000  0.00000000  0.59169983
   0.58333333  0.08333333  0.40830017
   0.25000000  0.50000000  0.59169983
   0.33333333  0.58333333  0.40830017
   0.25000000  0.25000000  0.59169983
   0.16666667  0.41666667  0.50000000
   0.25000000  0.00000000  0.59169983
   0.91666667  0.91666667  0.50000000
   0.00000000  0.25000000  0.59169983
   0.08333333  0.33333333  0.40830017
   0.00000000  0.00000000  0.59169983
   0.91666667  0.16666667  0.50000000
   0.58333333  0.58333333  0.40830017
   0.75000000  0.75000000  0.59169983
Direct configuration=     2
   0.33353747  0.33360192  0.40608576
   0.41678003  0.41563495  0.49998711
   0.41734359  0.16627384  0.50078388
   0.49892506  0.75212807  0.59395023
   0.66550519  0.91767531  0.49996909
   0.16528208  0.91844081  0.50073340
   0.33439176  0.83288673  0.40605548
   0.16729311  0.66599203  0.50045979
   0.74959433  0.00034575  0.59353827
   0.49841333  0.49998076  0.59430285
   0.66771626  0.41461683  0.49873369
   0.16589589  0.16699875  0.50043603
   0.41624872  0.66724280  0.49957722
   0.00045498  0.75052513  0.59383402
   0.83210370  0.83443958  0.40612041
   0.75085024  0.49988788  0.59435595
   0.66613036  0.66796972  0.49918022
   0.91801459  0.41489879  0.49921409
   0.33349010  0.08288602  0.40607547
   0.08360082  0.58198610  0.40603774
   0.00141248  0.49887047  0.59392982
   0.08270371  0.83453563  0.40604624
   0.75110034  0.24856910  0.59362532
   0.91636663  0.66658415  0.49995010
   0.83267791  0.08445915  0.40762412
   0.66759063  0.16629053  0.49949751
   0.83290602  0.58277511  0.40692552
   0.83360178  0.33283795  0.40728062
   0.41677888  0.91704132  0.50030262
   0.58340645  0.83300733  0.40706699
   0.08209044  0.08433452  0.40708663
   0.24953792  0.75060862  0.59311495
   0.49922791  0.24985077  0.59287616
   0.58407870  0.33296396  0.40716827
   0.49939116  0.00030148  0.59284996
   0.58410903  0.08346837  0.40707943
   0.25030155  0.49925314  0.59295423
   0.33437755  0.58276369  0.40682750
   0.25050121  0.24968247  0.59286771
   0.16688786  0.41612665  0.50024971
   0.24990334  0.00025134  0.59278523
   0.91610790  0.91870995  0.50002642
   0.00080561  0.24902782  0.59286655
   0.08245714  0.33360607  0.40708358
   0.00057664  0.00023600  0.59260411
   0.91637759  0.16584898  0.49970207
   0.58371233  0.58298402  0.40693244
   0.74943968  0.75059963  0.59324547
Direct configuration=     3
   0.33414987  0.33440767  0.39944252
   0.41712011  0.41253980  0.49994845
   0.41937436  0.16509537  0.50313553
   0.49570025  0.75851228  0.60070143
   0.66202075  0.92070126  0.49987638
   0.16112833  0.92376325  0.50293359
   0.33756705  0.83154692  0.39932143
   0.16917244  0.66396810  0.50183916
   0.74837734  0.00138301  0.59905360
   0.49365334  0.49992305  0.60211192
   0.67086504  0.40846731  0.49493475
   0.16358356  0.16799501  0.50174414
   0.41499489  0.66897120  0.49830886
   0.00181994  0.75210050  0.60023660
   0.82841482  0.83775831  0.39958111
   0.75340095  0.49955151  0.60232432
   0.66452145  0.67187888  0.49672090
   0.92205834  0.40959516  0.49685634
   0.33396041  0.08154407  0.39940138
   0.08440327  0.57794442  0.39925046
   0.00564991  0.49548189  0.60061980
   0.08081482  0.83814252  0.39928447
   0.75440135  0.24427640  0.59940177
   0.91546653  0.66633658  0.49980041
   0.83071163  0.08783660  0.40559596
   0.67036254  0.16516213  0.49799004
   0.83162408  0.58110045  0.40280158
   0.83440712  0.33135179  0.40422198
   0.41711551  0.91816529  0.50121047
   0.58362580  0.83202932  0.40336744
   0.07836175  0.08733808  0.40344600
   0.24815169  0.75243449  0.59736031
   0.49691164  0.24940309  0.59640517
   0.58631480  0.33185583  0.40377258
   0.49756462  0.00120592  0.59630033
   0.58643611  0.08387349  0.40341721
   0.25120621  0.49701258  0.59671742
   0.33751019  0.58105477  0.40240948
   0.25200486  0.24872988  0.59637136
   0.16755143  0.41450660  0.50099885
   0.24961334  0.00100534  0.59604144
   0.91443158  0.92483979  0.50010569
   0.00322245  0.24611129  0.59636670
   0.07982856  0.33442426  0.40343383
   0.00230656  0.00094401  0.59531695
   0.91551038  0.16339591  0.49880829
   0.58484932  0.58193609  0.40282924
   0.74775871  0.75239851  0.59788239
Direct configuration=     4
   0.33504005  0.33251294  0.39803583
   0.41814063  0.41305010  0.49988860
   0.41737757  0.16609781  0.50213544
   0.49692797  0.75562738  0.60205317
   0.66527650  0.91973245  0.49990016
   0.16381933  0.92041035  0.50186488
   0.33587847  0.83221834  0.39794540
   0.16675731  0.66580108  0.50130128
   0.74817893  0.00076406  0.60031104
   0.49574076  0.50016043  0.60343296
   0.66949969  0.41187703  0.49648556
   0.16674511  0.16655765  0.50111200
   0.41594358  0.66851890  0.49873807
   0.00107777  0.75194974  0.60148642
   0.82985161  0.83631435  0.39828417
   0.75200927  0.49973166  0.60329954
   0.66528009  0.66846825  0.49771978
   0.91860576  0.41292930  0.49788994
   0.33350423  0.08282821  0.39829243
   0.08340188  0.58015384  0.39802306
   0.00464301  0.49615014  0.60197108
   0.08163429  0.83698691  0.39817273
   0.75288227  0.24688664  0.60049176
   0.91641993  0.66718107  0.49991170
   0.83094511  0.08737091  0.40433037
   0.66956394  0.16474127  0.49874316
   0.83171585  0.58160229  0.40154932
   0.83487485  0.33137344  0.40219635
   0.41476359  0.91868885  0.50079103
   0.58360410  0.83286057  0.40201026
   0.07978481  0.08660573  0.40264844
   0.24914632  0.75204555  0.59834077
   0.49794955  0.24945878  0.59762285
   0.58497894  0.33215717  0.40199431
   0.49783353  0.00157956  0.59778514
   0.58466105  0.08488120  0.40247877
   0.25079304  0.49731441  0.59779980
   0.33665973  0.58164424  0.40158083
   0.25198087  0.24803796  0.59769019
   0.16733181  0.41503689  0.50068388
   0.24934467  0.00185746  0.59742860
   0.91469770  0.92110782  0.50010098
   0.00260368  0.24710972  0.59733857
   0.08157869  0.33285364  0.40214581
   0.00212327  0.00067140  0.59673462
   0.91474635  0.16494408  0.49925612
   0.58507233  0.58149085  0.40147098
   0.74861019  0.75165756  0.59853187
Direct configuration=     5
   0.33547712  0.33158264  0.39734515
   0.41864170  0.41330066  0.49985921
   0.41639716  0.16659001  0.50164441
   0.49753078  0.75421090  0.60271687
   0.66687505  0.91925677  0.49991183
   0.16514061  0.91876409  0.50134016
   0.33504938  0.83254800  0.39726978
   0.16557150  0.66670107  0.50103719
   0.74808151  0.00046016  0.60092843
   0.49676568  0.50027698  0.60408158
   0.66882931  0.41355119  0.49724700
   0.16829742  0.16585192  0.50080162
   0.41640938  0.66829683  0.49894881
   0.00071337  0.75187572  0.60210008
   0.83055707  0.83560538  0.39764738
   0.75132596  0.49982011  0.60377837
   0.66565258  0.66679365  0.49821022
   0.91691056  0.41456634  0.49839743
   0.33328025  0.08345871  0.39774794
   0.08291021  0.58123866  0.39742041
   0.00414863  0.49647825  0.60263455
   0.08203664  0.83641951  0.39762686
   0.75213640  0.24816826  0.60102694
   0.91688804  0.66759571  0.49996634
   0.83105976  0.08714225  0.40370897
   0.66917183  0.16453463  0.49911294
   0.83176091  0.58184869  0.40093447
   0.83510450  0.33138407  0.40120177
   0.41360881  0.91894591  0.50058509
   0.58359345  0.83326870  0.40134390
   0.08048352  0.08624616  0.40225684
   0.24963468  0.75185459  0.59882217
   0.49845916  0.24948612  0.59822073
   0.58432304  0.33230513  0.40112119
   0.49796556  0.00176301  0.59851417
   0.58378951  0.08537599  0.40201800
   0.25059018  0.49746260  0.59833124
   0.33624215  0.58193367  0.40117397
   0.25196909  0.24769822  0.59833773
   0.16722398  0.41529726  0.50052923
   0.24921276  0.00227585  0.59810969
   0.91482837  0.91927544  0.50009867
   0.00229986  0.24759995  0.59781575
   0.08243800  0.33208247  0.40151339
   0.00203327  0.00053755  0.59743069
   0.91437121  0.16570423  0.49947600
   0.58518182  0.58127223  0.40080408
   0.74902827  0.75129376  0.59885076
Direct configuration=     6
   0.33466869  0.33251435  0.39689300
   0.41831711  0.41433976  0.49984666
   0.41712467  0.16622396  0.50126342
   0.49808097  0.75367098  0.60302357
   0.66595423  0.91829203  0.49985734
   0.16438943  0.91851019  0.50091186
   0.33485351  0.83272241  0.39686015
   0.16607931  0.66642479  0.50078057
   0.74830077  0.00069578  0.60138953
   0.49703797  0.50033689  0.60450077
   0.66797258  0.41353133  0.49765587
   0.16637079  0.16699676  0.50050669
   0.41632922  0.66765296  0.49915440
   0.00092083  0.75140493  0.60250742
   0.83069936  0.83546850  0.39722501
   0.75105333  0.50010609  0.60413365
   0.66541855  0.66804531  0.49867019
   0.91788674  0.41455098  0.49875105
   0.33344538  0.08307423  0.39729084
   0.08323678  0.58124120  0.39709280
   0.00339402  0.49692903  0.60296733
   0.08219593  0.83606423  0.39729144
   0.75164549  0.24858927  0.60133399
   0.91695726  0.66683706  0.49996116
   0.83128948  0.08660555  0.40347071
   0.66891453  0.16528340  0.49954710
   0.83209204  0.58193680  0.40073548
   0.83474876  0.33186882  0.40079556
   0.41562366  0.91757298  0.50039069
   0.58352190  0.83337750  0.40129580
   0.08107301  0.08563083  0.40219705
   0.24984357  0.75151289  0.59891624
   0.49859712  0.24987399  0.59843420
   0.58435308  0.33276813  0.40081969
   0.49839850  0.00121909  0.59870610
   0.58389847  0.08476995  0.40185213
   0.25078881  0.49787901  0.59839383
   0.33559252  0.58199021  0.40116034
   0.25198386  0.24777366  0.59870201
   0.16650607  0.41626450  0.50027719
   0.24918615  0.00204059  0.59845360
   0.91573423  0.91875257  0.50008845
   0.00203388  0.24825919  0.59785768
   0.08243676  0.33247897  0.40138190
   0.00183975  0.00042343  0.59762844
   0.91495098  0.16547149  0.49972151
   0.58504726  0.58135791  0.40050232
   0.74921271  0.75066552  0.59880327
Direct configuration=     7
   0.33455484  0.33264556  0.39682933
   0.41827140  0.41448608  0.49984490
   0.41722711  0.16617241  0.50120977
   0.49815845  0.75359495  0.60306676
   0.66582456  0.91815618  0.49984967
   0.16428365  0.91847443  0.50085155
   0.33482593  0.83274697  0.39680247
   0.16615082  0.66638588  0.50074444
   0.74833164  0.00072896  0.60145446
   0.49707632  0.50034533  0.60455980
   0.66785193  0.41352853  0.49771345
   0.16609949  0.16715797  0.50046516
   0.41631793  0.66756229  0.49918335
   0.00095004  0.75133863  0.60256478
   0.83071940  0.83544922  0.39716553
   0.75101494  0.50014636  0.60418368
   0.66538560  0.66822157  0.49873497
   0.91802420  0.41454881  0.49880085
   0.33346863  0.08302009  0.39722647
   0.08328277  0.58124155  0.39704666
   0.00328775  0.49699251  0.60301419
   0.08221836  0.83601420  0.39724420
   0.75157636  0.24864856  0.60137723
   0.91696701  0.66673022  0.49996043
   0.83132183  0.08652997  0.40343716
   0.66887830  0.16538884  0.49960824
   0.83213867  0.58194921  0.40070746
   0.83469867  0.33193709  0.40073835
   0.41590738  0.91737965  0.50036331
   0.58351182  0.83339282  0.40128902
   0.08115602  0.08554419  0.40218863
   0.24987298  0.75146477  0.59892949
   0.49861654  0.24992861  0.59846426
   0.58435731  0.33283333  0.40077724
   0.49845947  0.00114250  0.59873313
   0.58391381  0.08468461  0.40182877
   0.25081678  0.49793765  0.59840264
   0.33550104  0.58199817  0.40115842
   0.25198594  0.24778428  0.59875331
   0.16640497  0.41640070  0.50024170
   0.24918240  0.00200746  0.59850202
   0.91586179  0.91867894  0.50008701
   0.00199643  0.24835203  0.59786359
   0.08243658  0.33253481  0.40136339
   0.00181249  0.00040735  0.59765628
   0.91503262  0.16543872  0.49975608
   0.58502831  0.58136998  0.40045983
   0.74923868  0.75057705  0.59879658
Direct configuration=     8
   0.33434911  0.33302912  0.39658298
   0.41769559  0.41452674  0.49983933
   0.41713246  0.16636484  0.50109315
   0.49809997  0.75375896  0.60325235
   0.66577709  0.91820705  0.49982781
   0.16432444  0.91873027  0.50072137
   0.33512106  0.83247159  0.39660018
   0.16632199  0.66608124  0.50066843
   0.74856604  0.00071045  0.60165298
   0.49693018  0.50042304  0.60492630
   0.66833866  0.41331280  0.49774526
   0.16600897  0.16696826  0.50041032
   0.41628027  0.66767513  0.49926531
   0.00114475  0.75108818  0.60275480
   0.83066754  0.83548122  0.39695372
   0.75105049  0.50015004  0.60445271
   0.66546600  0.66801449  0.49885622
   0.91774795  0.41462375  0.49886324
   0.33352680  0.08288656  0.39692778
   0.08330279  0.58123739  0.39680670
   0.00324091  0.49713612  0.60322218
   0.08214208  0.83592358  0.39696877
   0.75164871  0.24860083  0.60158849
   0.91696258  0.66660774  0.49989922
   0.83132233  0.08639418  0.40351370
   0.66911859  0.16523922  0.49983192
   0.83222988  0.58196807  0.40077748
   0.83445631  0.33220594  0.40083054
   0.41595231  0.91715247  0.50030417
   0.58356426  0.83309823  0.40133562
   0.08117734  0.08538245  0.40217962
   0.24985390  0.75144499  0.59884769
   0.49836028  0.25013564  0.59844475
   0.58455155  0.33295876  0.40079614
   0.49864359  0.00089977  0.59865897
   0.58411853  0.08447683  0.40183494
   0.25089152  0.49808880  0.59828240
   0.33527027  0.58211926  0.40118339
   0.25213790  0.24787492  0.59871467
   0.16668293  0.41653144  0.50013374
   0.24920837  0.00173747  0.59840117
   0.91561280  0.91877303  0.50008402
   0.00191198  0.24858587  0.59784717
   0.08214008  0.33293496  0.40136499
   0.00177988  0.00036441  0.59763450
   0.91489942  0.16549182  0.49985099
   0.58488978  0.58161509  0.40051985
   0.74937975  0.75051694  0.59874798
Direct configuration=     9
   0.33410723  0.33348006  0.39629336
   0.41701865  0.41457455  0.49983279
   0.41702119  0.16659106  0.50095605
   0.49803121  0.75395179  0.60347053
   0.66572127  0.91826685  0.49980212
   0.16437240  0.91903105  0.50056833
   0.33546803  0.83214784  0.39636236
   0.16652323  0.66572309  0.50057908
   0.74884161  0.00068870  0.60188637
   0.49675837  0.50051440  0.60535716
   0.66891086  0.41305918  0.49778267
   0.16590256  0.16674522  0.50034586
   0.41623600  0.66780779  0.49936166
   0.00137367  0.75079375  0.60297819
   0.83060658  0.83551884  0.39670470
   0.75109228  0.50015438  0.60476899
   0.66556053  0.66777104  0.49899877
   0.91742319  0.41471186  0.49893659
   0.33359517  0.08272958  0.39657662
   0.08332633  0.58123250  0.39652460
   0.00318583  0.49730495  0.60346669
   0.08205240  0.83581704  0.39664495
   0.75173377  0.24854473  0.60183685
   0.91695738  0.66646373  0.49982726
   0.83132292  0.08623454  0.40360369
   0.66940108  0.16506332  0.50009489
   0.83233712  0.58199026  0.40085980
   0.83417139  0.33252202  0.40093891
   0.41600512  0.91688538  0.50023463
   0.58362590  0.83275190  0.40139040
   0.08120242  0.08519232  0.40216903
   0.24983147  0.75142173  0.59875153
   0.49805902  0.25037902  0.59842181
   0.58477991  0.33310623  0.40081836
   0.49886006  0.00061441  0.59857179
   0.58435919  0.08423256  0.40184219
   0.25097939  0.49826649  0.59814103
   0.33499896  0.58226162  0.40121274
   0.25231654  0.24798148  0.59866924
   0.16700971  0.41668515  0.50000683
   0.24923890  0.00142007  0.59828259
   0.91532008  0.91888366  0.50008050
   0.00181269  0.24886079  0.59782787
   0.08179150  0.33340538  0.40136688
   0.00174154  0.00031393  0.59760889
   0.91474282  0.16555425  0.49996257
   0.58472691  0.58190325  0.40059041
   0.74954560  0.75044626  0.59869085
Direct configuration=    10
   0.33421812  0.33344510  0.39604042
   0.41727277  0.41443678  0.49979490
   0.41688123  0.16652995  0.50083272
   0.49801178  0.75399383  0.60365414
   0.66574472  0.91835584  0.49978940
   0.16432746  0.91898821  0.50043774
   0.33559032  0.83195447  0.39616761
   0.16627955  0.66602440  0.50049885
   0.74893882  0.00061827  0.60204921
   0.49675070  0.50056606  0.60570410
   0.66877439  0.41299140  0.49783780
   0.16605183  0.16677619  0.50029753
   0.41632560  0.66769289  0.49943750
   0.00151643  0.75068160  0.60311727
   0.83054512  0.83549474  0.39652411
   0.75104704  0.50017116  0.60504588
   0.66557664  0.66757475  0.49910856
   0.91751790  0.41466101  0.49900953
   0.33358351  0.08278880  0.39631171
   0.08317259  0.58141073  0.39627754
   0.00334028  0.49728817  0.60364164
   0.08201798  0.83577941  0.39639944
   0.75173573  0.24859097  0.60206290
   0.91701620  0.66648004  0.49976616
   0.83131741  0.08622603  0.40372342
   0.66937361  0.16508807  0.50029172
   0.83232545  0.58205904  0.40094927
   0.83409041  0.33262087  0.40106129
   0.41588933  0.91695751  0.50017391
   0.58371675  0.83255309  0.40144211
   0.08114826  0.08517274  0.40215316
   0.24976594  0.75147597  0.59863926
   0.49795270  0.25042610  0.59838213
   0.58485601  0.33314132  0.40092152
   0.49896787  0.00057884  0.59845162
   0.58436345  0.08428896  0.40188486
   0.25095305  0.49836183  0.59804810
   0.33495585  0.58237453  0.40123676
   0.25238355  0.24799667  0.59854879
   0.16691693  0.41653465  0.49990941
   0.24920861  0.00134994  0.59813523
   0.91530809  0.91876728  0.50008244
   0.00187111  0.24894983  0.59780758
   0.08162923  0.33352038  0.40139557
   0.00179934  0.00024322  0.59754699
   0.91467620  0.16549942  0.50004192
   0.58463914  0.58203175  0.40071620
   0.74965498  0.75048721  0.59865006
Direct configuration=    11
   0.33449646  0.33335737  0.39540550
   0.41791067  0.41409097  0.49969980
   0.41652991  0.16637655  0.50052313
   0.49796299  0.75409936  0.60411502
   0.66580357  0.91857921  0.49975747
   0.16421465  0.91888066  0.50010993
   0.33589728  0.83146906  0.39567874
   0.16566788  0.66678074  0.50029744
   0.74918283  0.00044149  0.60245797
   0.49673146  0.50069572  0.60657498
   0.66843181  0.41282126  0.49797619
   0.16642653  0.16685391  0.50017621
   0.41655051  0.66740447  0.49962789
   0.00187480  0.75040009  0.60346639
   0.83039085  0.83543424  0.39607080
   0.75093349  0.50021329  0.60574094
   0.66561708  0.66708200  0.49938415
   0.91775565  0.41453338  0.49919264
   0.33355422  0.08293745  0.39564673
   0.08278667  0.58185811  0.39565738
   0.00372798  0.49724604  0.60408082
   0.08193159  0.83568495  0.39578314
   0.75174063  0.24870704  0.60263033
   0.91716386  0.66652096  0.49961277
   0.83130359  0.08620469  0.40402395
   0.66930467  0.16515019  0.50078580
   0.83229615  0.58223170  0.40117387
   0.83388713  0.33286903  0.40136849
   0.41559867  0.91713855  0.50002147
   0.58394481  0.83205402  0.40157191
   0.08101232  0.08512359  0.40211334
   0.24960146  0.75161212  0.59835743
   0.49768580  0.25054428  0.59828253
   0.58504706  0.33322939  0.40118049
   0.49923850  0.00048956  0.59814997
   0.58437414  0.08443053  0.40199199
   0.25088695  0.49860117  0.59781482
   0.33484762  0.58265795  0.40129707
   0.25255176  0.24803478  0.59824643
   0.16668404  0.41615687  0.49966488
   0.24913257  0.00117390  0.59776531
   0.91527801  0.91847514  0.50008734
   0.00201775  0.24917333  0.59775666
   0.08122191  0.33380907  0.40146758
   0.00194441  0.00006574  0.59739161
   0.91450896  0.16536179  0.50024109
   0.58441881  0.58235431  0.40103194
   0.74992955  0.75058999  0.59854767
Direct configuration=    12
   0.33458551  0.33332930  0.39520238
   0.41811475  0.41398034  0.49966937
   0.41641751  0.16632748  0.50042409
   0.49794738  0.75413312  0.60426246
   0.66582240  0.91865067  0.49974725
   0.16417856  0.91884626  0.50000506
   0.33599548  0.83131377  0.39552235
   0.16547220  0.66702270  0.50023301
   0.74926089  0.00038494  0.60258874
   0.49672531  0.50073721  0.60685358
   0.66832221  0.41276683  0.49802046
   0.16654640  0.16687877  0.50013740
   0.41662246  0.66731220  0.49968880
   0.00198945  0.75031003  0.60357808
   0.83034149  0.83541489  0.39592578
   0.75089717  0.50022677  0.60596330
   0.66563002  0.66692436  0.49947231
   0.91783171  0.41449255  0.49925121
   0.33354485  0.08298501  0.39543399
   0.08266321  0.58200123  0.39545898
   0.00385201  0.49723257  0.60422132
   0.08190395  0.83565473  0.39558598
   0.75174220  0.24874417  0.60281186
   0.91721110  0.66653406  0.49956369
   0.83129917  0.08619786  0.40412010
   0.66928261  0.16517006  0.50094387
   0.83228677  0.58228694  0.40124572
   0.83382210  0.33294842  0.40146677
   0.41550568  0.91719647  0.49997271
   0.58401777  0.83189435  0.40161343
   0.08096883  0.08510786  0.40210059
   0.24954884  0.75165567  0.59826727
   0.49760042  0.25058208  0.59825067
   0.58510817  0.33325757  0.40126334
   0.49932508  0.00046100  0.59805346
   0.58437756  0.08447582  0.40202626
   0.25086581  0.49867774  0.59774019
   0.33481299  0.58274862  0.40131636
   0.25260557  0.24804698  0.59814970
   0.16660953  0.41603601  0.49958665
   0.24910825  0.00111758  0.59764697
   0.91526838  0.91838168  0.50008890
   0.00206466  0.24924483  0.59774036
   0.08109161  0.33390142  0.40149061
   0.00199083  0.00000897  0.59734190
   0.91445546  0.16531775  0.50030481
   0.58434832  0.58245750  0.40113296
   0.75001738  0.75062288  0.59851492
Direct configuration=    13
   0.33469638  0.33324674  0.39482058
   0.41802351  0.41406141  0.49961736
   0.41656930  0.16623533  0.50017758
   0.49806822  0.75404480  0.60447360
   0.66592873  0.91838789  0.49970971
   0.16411773  0.91870754  0.49971143
   0.33561410  0.83171584  0.39525579
   0.16543959  0.66691880  0.50005347
   0.74923492  0.00039695  0.60276625
   0.49678344  0.50073913  0.60727542
   0.66819796  0.41278669  0.49833415
   0.16644917  0.16678581  0.49997992
   0.41648587  0.66724165  0.49983268
   0.00187030  0.75047950  0.60366190
   0.83010040  0.83558031  0.39571302
   0.75099756  0.50034792  0.60636001
   0.66562283  0.66710927  0.49971383
   0.91784987  0.41439360  0.49948680
   0.33344578  0.08301632  0.39513334
   0.08275120  0.58193920  0.39514674
   0.00400568  0.49709822  0.60439521
   0.08187747  0.83586059  0.39527305
   0.75173902  0.24879696  0.60315263
   0.91717096  0.66655266  0.49951833
   0.83130045  0.08622352  0.40434851
   0.66906236  0.16506192  0.50122118
   0.83211359  0.58234350  0.40139635
   0.83394425  0.33284204  0.40165985
   0.41555110  0.91706025  0.49980294
   0.58390041  0.83218323  0.40172606
   0.08096257  0.08520805  0.40208022
   0.24970728  0.75165499  0.59811205
   0.49782848  0.25048430  0.59820203
   0.58496405  0.33314753  0.40143918
   0.49930485  0.00062355  0.59785234
   0.58423281  0.08471040  0.40212148
   0.25098547  0.49860069  0.59754461
   0.33489292  0.58261039  0.40135195
   0.25258689  0.24794419  0.59792443
   0.16652987  0.41631619  0.49940963
   0.24910523  0.00134493  0.59739704
   0.91529301  0.91831047  0.50010641
   0.00218599  0.24913397  0.59773018
   0.08131569  0.33364611  0.40148557
   0.00201671  0.00005039  0.59722856
   0.91459907  0.16527056  0.50045292
   0.58443650  0.58228414  0.40136201
   0.75014047  0.75050158  0.59848166
Direct configuration=    14
   0.33484893  0.33313314  0.39429525
   0.41789796  0.41417297  0.49954578
   0.41677815  0.16610854  0.49983840
   0.49823449  0.75392328  0.60476412
   0.66607504  0.91802632  0.49965806
   0.16403403  0.91851668  0.49930739
   0.33508934  0.83226908  0.39488901
   0.16539473  0.66677583  0.49980644
   0.74919919  0.00041347  0.60301051
   0.49686343  0.50074177  0.60785584
   0.66802700  0.41281402  0.49876579
   0.16631538  0.16665790  0.49976324
   0.41629793  0.66714457  0.50003067
   0.00170636  0.75071270  0.60377724
   0.82976866  0.83580792  0.39542029
   0.75113571  0.50051461  0.60690587
   0.66561294  0.66736370  0.50004614
   0.91787485  0.41425745  0.49981096
   0.33330945  0.08305941  0.39471965
   0.08287228  0.58185385  0.39471712
   0.00421714  0.49691335  0.60463446
   0.08184103  0.83614385  0.39484247
   0.75173465  0.24886959  0.60362152
   0.91711574  0.66657825  0.49945591
   0.83130221  0.08625882  0.40466279
   0.66875931  0.16491313  0.50160276
   0.83187529  0.58242132  0.40160362
   0.83411232  0.33269568  0.40192553
   0.41561360  0.91687282  0.49956935
   0.58373893  0.83258071  0.40188102
   0.08095396  0.08534590  0.40205219
   0.24992529  0.75165404  0.59789847
   0.49814229  0.25034974  0.59813511
   0.58476573  0.33299612  0.40168113
   0.49927701  0.00084721  0.59757561
   0.58403365  0.08503318  0.40225251
   0.25115013  0.49849468  0.59727550
   0.33500289  0.58242020  0.40140093
   0.25256118  0.24780277  0.59761446
   0.16642025  0.41670170  0.49916606
   0.24910108  0.00165775  0.59705316
   0.91532689  0.91821248  0.50013051
   0.00235294  0.24898143  0.59771616
   0.08162403  0.33329480  0.40147862
   0.00205232  0.00010738  0.59707261
   0.91479666  0.16520562  0.50065671
   0.58455782  0.58204559  0.40167719
   0.75030983  0.75033467  0.59843590
Direct configuration=    15
   0.33488702  0.33310477  0.39416407
   0.41786661  0.41420082  0.49952791
   0.41683030  0.16607688  0.49975370
   0.49827600  0.75389294  0.60483667
   0.66611157  0.91793603  0.49964517
   0.16401313  0.91846902  0.49920650
   0.33495830  0.83240722  0.39479743
   0.16538353  0.66674013  0.49974475
   0.74919026  0.00041760  0.60307150
   0.49688340  0.50074243  0.60800077
   0.66798432  0.41282085  0.49887357
   0.16628198  0.16662596  0.49970914
   0.41625100  0.66712032  0.50008010
   0.00166542  0.75077093  0.60380604
   0.82968582  0.83586476  0.39534719
   0.75117020  0.50055623  0.60704217
   0.66561047  0.66742723  0.50012911
   0.91788109  0.41422345  0.49989190
   0.33327541  0.08307016  0.39461635
   0.08290251  0.58183254  0.39460984
   0.00426994  0.49686719  0.60469421
   0.08183193  0.83621458  0.39473495
   0.75173356  0.24888773  0.60373860
   0.91710196  0.66658464  0.49944033
   0.83130265  0.08626764  0.40474126
   0.66868364  0.16487598  0.50169804
   0.83181579  0.58244076  0.40165537
   0.83415428  0.33265913  0.40199187
   0.41562920  0.91682602  0.49951102
   0.58369861  0.83267996  0.40191972
   0.08095180  0.08538032  0.40204519
   0.24997972  0.75165381  0.59784514
   0.49822064  0.25031615  0.59811840
   0.58471622  0.33295831  0.40174154
   0.49927006  0.00090306  0.59750651
   0.58398392  0.08511378  0.40228523
   0.25119124  0.49846821  0.59720830
   0.33503036  0.58237271  0.40141316
   0.25255476  0.24776745  0.59753706
   0.16639288  0.41679796  0.49910523
   0.24910004  0.00173587  0.59696729
   0.91533535  0.91818801  0.50013653
   0.00239463  0.24894334  0.59771266
   0.08170102  0.33320708  0.40147689
   0.00206121  0.00012161  0.59703367
   0.91484600  0.16518940  0.50070759
   0.58458812  0.58198603  0.40175589
   0.75035212  0.75029299  0.59842447
Direct configuration=    16
   0.33452173  0.33318143  0.39386336
   0.41744419  0.41420825  0.49953768
   0.41651030  0.16634570  0.49949708
   0.49824546  0.75415760  0.60491860
   0.66633790  0.91777708  0.49964169
   0.16415480  0.91815107  0.49893347
   0.33496296  0.83245781  0.39460922
   0.16534070  0.66650591  0.49953062
   0.74915422  0.00042949  0.60314396
   0.49695716  0.50063693  0.60823704
   0.66823654  0.41282056  0.49941341
   0.16641743  0.16655192  0.49942553
   0.41629722  0.66730790  0.50016906
   0.00173988  0.75081429  0.60365898
   0.82990808  0.83594934  0.39525952
   0.75149930  0.50037820  0.60739552
   0.66535574  0.66732425  0.50037455
   0.91754726  0.41458333  0.50014019
   0.33329071  0.08314019  0.39443357
   0.08289017  0.58165717  0.39442608
   0.00434701  0.49687688  0.60471076
   0.08155073  0.83628218  0.39449792
   0.75189024  0.24896314  0.60402844
   0.91726632  0.66639015  0.49942915
   0.83119601  0.08633066  0.40501939
   0.66898928  0.16467361  0.50187340
   0.83188977  0.58231334  0.40184945
   0.83424632  0.33250801  0.40226762
   0.41560531  0.91657474  0.49929669
   0.58319320  0.83306946  0.40197811
   0.08070874  0.08571132  0.40191900
   0.25015719  0.75164434  0.59773666
   0.49832016  0.25036977  0.59810206
   0.58474701  0.33281815  0.40197947
   0.49915742  0.00089245  0.59733502
   0.58397102  0.08517076  0.40230443
   0.25128000  0.49836387  0.59702774
   0.33510530  0.58242310  0.40137131
   0.25264258  0.24776748  0.59721114
   0.16651314  0.41680345  0.49889231
   0.24943812  0.00161556  0.59668183
   0.91525254  0.91823796  0.50016704
   0.00229678  0.24882896  0.59782019
   0.08191257  0.33322143  0.40144703
   0.00215813  0.00015943  0.59694405
   0.91450881  0.16537065  0.50085843
   0.58446098  0.58200299  0.40210731
   0.75038357  0.75023776  0.59853489
Direct configuration=    17
   0.33440332  0.33320627  0.39376588
   0.41730726  0.41421065  0.49954085
   0.41640657  0.16643284  0.49941389
   0.49823556  0.75424340  0.60494515