  56  56   0   0
  0.4903395E+02  0.1100258E-08  0.1100258E-08  0.2619179E-08  0.3500000E-15
  1.000000000000000E-004
  CAR 
 unknown system                          
      6.47935611    -21.84005878  301     -1.46698243      1.00000000
    -21.840  0.0000E+00  0.0000E+00
    -21.746  0.0000E+00  0.0000E+00
    -21.651  0.0000E+00  0.0000E+00
    -21.557  0.0000E+00  0.0000E+00
    -21.462  0.0000E+00  0.0000E+00
    -21.368  0.0000E+00  0.0000E+00
    -21.274  0.0000E+00  0.0000E+00
    -21.179  0.0000E+00  0.0000E+00
    -21.085  0.1071E-14  0.1011E-15
    -20.990  0.1231E-10  0.1162E-11
    -20.896  0.2479E-07  0.2341E-08
    -20.802  0.8928E-05  0.8452E-06
    -20.707  0.5945E-03  0.5696E-04
    -20.613  0.7706E-02  0.7844E-03
    -20.518  0.2070E-01  0.2739E-02
    -20.424  0.1294E-01  0.3961E-02
    -20.330  0.1187E-01  0.5081E-02
    -20.235  0.2575E-01  0.7512E-02
    -20.141  0.2854E-01  0.1021E-01
    -20.046  0.2651E-01  0.1271E-01
    -19.952  0.4006E-01  0.1649E-01
    -19.858  0.5092E-01  0.2130E-01
    -19.763  0.2501E-01  0.2366E-01
    -19.669  0.4015E-02  0.2404E-01
    -19.575  0.7159E-02  0.2471E-01
    -19.480  0.2066E-01  0.2666E-01
    -19.386  0.1741E-01  0.2831E-01
    -19.291  0.2033E-01  0.3023E-01
    -19.197  0.1585E-01  0.3172E-01
    -19.103  0.2843E-02  0.3199E-01
    -19.008  0.1028E-03  0.3200E-01
    -18.914  0.7055E-06  0.3200E-01
    -18.819  0.8791E-09  0.3200E-01
    -18.725  0.1938E-12  0.3200E-01
    -18.631  0.9409E-17  0.3200E-01
    -18.536  0.0000E+00  0.3200E-01
    -18.442  0.0000E+00  0.3200E-01
    -18.347  0.0000E+00  0.3200E-01
    -18.253  0.0000E+00  0.3200E-01
    -18.159  0.0000E+00  0.3200E-01
    -18.064  0.0000E+00  0.3200E-01
    -17.970  0.0000E+00  0.3200E-01
    -17.875  0.0000E+00  0.3200E-01
    -17.781  0.0000E+00  0.3200E-01
    -17.687  0.0000E+00  0.3200E-01
    -17.592  0.0000E+00  0.3200E-01
    -17.498  0.0000E+00  0.3200E-01
    -17.403  0.0000E+00  0.3200E-01
    -17.309  0.0000E+00  0.3200E-01
    -17.215  0.0000E+00  0.3200E-01
    -17.120  0.0000E+00  0.3200E-01
    -17.026  0.0000E+00  0.3200E-01
    -16.931  0.0000E+00  0.3200E-01
    -16.837  0.0000E+00  0.3200E-01
    -16.743  0.0000E+00  0.3200E-01
    -16.648  0.0000E+00  0.3200E-01
    -16.554  0.0000E+00  0.3200E-01
    -16.459  0.0000E+00  0.3200E-01
    -16.365  0.0000E+00  0.3200E-01
    -16.271  0.0000E+00  0.3200E-01
    -16.176  0.0000E+00  0.3200E-01
    -16.082  0.0000E+00  0.3200E-01
    -15.987  0.0000E+00  0.3200E-01
    -15.893  0.0000E+00  0.3200E-01
    -15.799  0.0000E+00  0.3200E-01
    -15.704  0.0000E+00  0.3200E-01
    -15.610  0.0000E+00  0.3200E-01
    -15.515  0.0000E+00  0.3200E-01
    -15.421  0.0000E+00  0.3200E-01
    -15.327  0.0000E+00  0.3200E-01
    -15.232  0.0000E+00  0.3200E-01
    -15.138  0.0000E+00  0.3200E-01
    -15.043  0.0000E+00  0.3200E-01
    -14.949  0.0000E+00  0.3200E-01
    -14.855  0.0000E+00  0.3200E-01
    -14.760  0.0000E+00  0.3200E-01
    -14.666  0.0000E+00  0.3200E-01
    -14.571  0.0000E+00  0.3200E-01
    -14.477  0.0000E+00  0.3200E-01
    -14.383  0.0000E+00  0.3200E-01
    -14.288  0.0000E+00  0.3200E-01
    -14.194  0.0000E+00  0.3200E-01
    -14.099  0.0000E+00  0.3200E-01
    -14.005  0.0000E+00  0.3200E-01
    -13.911  0.0000E+00  0.3200E-01
    -13.816  0.0000E+00  0.3200E-01
    -13.722  0.0000E+00  0.3200E-01
    -13.627  0.0000E+00  0.3200E-01
    -13.533  0.0000E+00  0.3200E-01
    -13.439  0.0000E+00  0.3200E-01
    -13.344  0.0000E+00  0.3200E-01
    -13.250  0.0000E+00  0.3200E-01
    -13.155  0.0000E+00  0.3200E-01
    -13.061  0.0000E+00  0.3200E-01
    -12.967  0.0000E+00  0.3200E-01
    -12.872  0.0000E+00  0.3200E-01
    -12.778  0.0000E+00  0.3200E-01
    -12.683  0.0000E+00  0.3200E-01
    -12.589  0.0000E+00  0.3200E-01
    -12.495  0.0000E+00  0.3200E-01
    -12.400  0.0000E+00  0.3200E-01
    -12.306  0.0000E+00  0.3200E-01
    -12.211  0.0000E+00  0.3200E-01
    -12.117  0.0000E+00  0.3200E-01
    -12.023  0.0000E+00  0.3200E-01
    -11.928  0.0000E+00  0.3200E-01
    -11.834  0.0000E+00  0.3200E-01
    -11.739  0.0000E+00  0.3200E-01
    -11.645  0.0000E+00  0.3200E-01
    -11.551  0.0000E+00  0.3200E-01
    -11.456  0.0000E+00  0.3200E-01
    -11.362  0.0000E+00  0.3200E-01
    -11.267  0.0000E+00  0.3200E-01
    -11.173  0.0000E+00  0.3200E-01
    -11.079  0.0000E+00  0.3200E-01
    -10.984  0.0000E+00  0.3200E-01
    -10.890  0.0000E+00  0.3200E-01
    -10.795  0.0000E+00  0.3200E-01
    -10.701  0.0000E+00  0.3200E-01
    -10.607  0.0000E+00  0.3200E-01
    -10.512  0.0000E+00  0.3200E-01
    -10.418  0.0000E+00  0.3200E-01
    -10.323  0.0000E+00  0.3200E-01
    -10.229  0.0000E+00  0.3200E-01
    -10.135  0.0000E+00  0.3200E-01
    -10.040  0.0000E+00  0.3200E-01
     -9.946  0.0000E+00  0.3200E-01
     -9.852  0.0000E+00  0.3200E-01
     -9.757  0.7841E-18  0.3200E-01
     -9.663  0.2337E-13  0.3200E-01
     -9.568  0.1368E-09  0.3200E-01
     -9.474  0.1417E-06  0.3200E-01
     -9.380  0.2661E-04  0.3200E-01
     -9.285  0.9443E-03  0.3209E-01
     -9.191  0.6749E-02  0.3273E-01
     -9.096  0.1148E-01  0.3381E-01
     -9.002  0.1109E-01  0.3486E-01
     -8.908  0.9537E-02  0.3576E-01
     -8.813  0.2568E-02  0.3600E-01
     -8.719  0.2925E-02  0.3628E-01
     -8.624  0.1383E-01  0.3758E-01
     -8.530  0.3298E-01  0.4070E-01
     -8.436  0.4387E-01  0.4484E-01
     -8.341  0.2696E-01  0.4738E-01
     -8.247  0.8740E-02  0.4821E-01
     -8.152  0.1450E-01  0.4958E-01
     -8.058  0.2480E-01  0.5192E-01
     -7.964  0.4336E-01  0.5601E-01
     -7.869  0.7554E-01  0.6314E-01
     -7.775  0.8197E-01  0.7088E-01
     -7.680  0.7546E-01  0.7800E-01
     -7.586  0.7256E-01  0.8485E-01
     -7.492  0.7450E-01  0.9189E-01
     -7.397  0.8796E-01  0.1002E+00
     -7.303  0.1029E+00  0.1099E+00
     -7.208  0.1157E+00  0.1208E+00
     -7.114  0.1339E+00  0.1335E+00
     -7.020  0.1471E+00  0.1473E+00
     -6.925  0.1480E+00  0.1613E+00
     -6.831  0.1508E+00  0.1755E+00
     -6.736  0.1568E+00  0.1904E+00
     -6.642  0.1536E+00  0.2049E+00
     -6.548  0.1567E+00  0.2196E+00
     -6.453  0.1720E+00  0.2359E+00
     -6.359  0.1814E+00  0.2530E+00
     -6.264  0.1784E+00  0.2699E+00
     -6.170  0.1734E+00  0.2862E+00
     -6.076  0.1644E+00  0.3018E+00
     -5.981  0.1563E+00  0.3165E+00
     -5.887  0.1532E+00  0.3310E+00
     -5.792  0.1497E+00  0.3451E+00
     -5.698  0.1473E+00  0.3590E+00
     -5.604  0.1560E+00  0.3737E+00
     -5.509  0.1704E+00  0.3898E+00
     -5.415  0.1751E+00  0.4063E+00
     -5.320  0.1762E+00  0.4230E+00
     -5.226  0.1806E+00  0.4400E+00
     -5.132  0.1853E+00  0.4575E+00
     -5.037  0.1811E+00  0.4746E+00
     -4.943  0.1705E+00  0.4907E+00
     -4.848  0.1753E+00  0.5073E+00
     -4.754  0.1860E+00  0.5248E+00
     -4.660  0.1852E+00  0.5423E+00
     -4.565  0.1720E+00  0.5585E+00
     -4.471  0.1733E+00  0.5749E+00
     -4.376  0.1876E+00  0.5926E+00
     -4.282  0.1891E+00  0.6105E+00
     -4.188  0.1897E+00  0.6284E+00
     -4.093  0.1884E+00  0.6462E+00
     -3.999  0.1909E+00  0.6642E+00
     -3.904  0.1946E+00  0.6825E+00
     -3.810  0.1946E+00  0.7009E+00
     -3.716  0.1917E+00  0.7190E+00
     -3.621  0.1825E+00  0.7362E+00
     -3.527  0.1804E+00  0.7533E+00
     -3.432  0.1856E+00  0.7708E+00
     -3.338  0.1847E+00  0.7882E+00
     -3.244  0.1904E+00  0.8062E+00
     -3.149  0.1895E+00  0.8241E+00
     -3.055  0.1868E+00  0.8417E+00
     -2.960  0.1780E+00  0.8585E+00
     -2.866  0.1652E+00  0.8741E+00
     -2.772  0.1644E+00  0.8896E+00
     -2.677  0.1720E+00  0.9059E+00
     -2.583  0.1807E+00  0.9229E+00
     -2.488  0.1958E+00  0.9414E+00
     -2.394  0.1968E+00  0.9600E+00
     -2.300  0.1848E+00  0.9774E+00
     -2.205  0.1829E+00  0.9947E+00
     -2.111  0.1817E+00  0.1012E+01
     -2.016  0.1745E+00  0.1028E+01
     -1.922  0.1624E+00  0.1044E+01
     -1.828  0.1515E+00  0.1058E+01
     -1.733  0.1432E+00  0.1071E+01
     -1.639  0.1361E+00  0.1084E+01
     -1.544  0.1228E+00  0.1096E+01
     -1.450  0.1021E+00  0.1106E+01
     -1.356  0.7857E-01  0.1113E+01
     -1.261  0.5487E-01  0.1118E+01
     -1.167  0.4202E-01  0.1122E+01
     -1.072  0.4372E-01  0.1126E+01
     -0.978  0.4368E-01  0.1130E+01
     -0.884  0.4907E-01  0.1135E+01
     -0.789  0.5815E-01  0.1140E+01
     -0.695  0.5977E-01  0.1146E+01
     -0.600  0.6223E-01  0.1152E+01
     -0.506  0.5360E-01  0.1157E+01
     -0.412  0.4452E-01  0.1161E+01
     -0.317  0.3011E-01  0.1164E+01
     -0.223  0.2169E-01  0.1166E+01
     -0.129  0.2170E-01  0.1168E+01
     -0.034  0.2340E-01  0.1170E+01
      0.060  0.2314E-01  0.1173E+01
      0.155  0.2222E-01  0.1175E+01
      0.249  0.2606E-01  0.1177E+01
      0.343  0.2828E-01  0.1180E+01
      0.438  0.3826E-01  0.1183E+01
      0.532  0.4355E-01  0.1188E+01
      0.627  0.3879E-01  0.1191E+01
      0.721  0.3512E-01  0.1195E+01
      0.815  0.2386E-01  0.1197E+01
      0.910  0.2157E-01  0.1199E+01
      1.004  0.2635E-01  0.1201E+01
      1.099  0.2433E-01  0.1204E+01
      1.193  0.2085E-01  0.1206E+01
      1.287  0.2131E-01  0.1208E+01
      1.382  0.2108E-01  0.1210E+01
      1.476  0.2630E-01  0.1212E+01
      1.571  0.2724E-01  0.1215E+01
      1.665  0.3219E-01  0.1218E+01
      1.759  0.3795E-01  0.1221E+01
      1.854  0.3214E-01  0.1224E+01
      1.948  0.3626E-01  0.1228E+01
      2.043  0.3698E-01  0.1231E+01
      2.137  0.2955E-01  0.1234E+01
      2.231  0.2956E-01  0.1237E+01
      2.326  0.2813E-01  0.1239E+01
      2.420  0.2870E-01  0.1242E+01
      2.515  0.2796E-01  0.1245E+01
      2.609  0.2418E-01  0.1247E+01
      2.703  0.2100E-01  0.1249E+01
      2.798  0.2000E-01  0.1251E+01
      2.892  0.2493E-01  0.1253E+01
      2.987  0.2435E-01  0.1256E+01
      3.081  0.2511E-01  0.1258E+01
      3.175  0.3157E-01  0.1261E+01
      3.270  0.3628E-01  0.1264E+01
      3.364  0.3736E-01  0.1268E+01
      3.459  0.3467E-01  0.1271E+01
      3.553  0.3133E-01  0.1274E+01
      3.647  0.3268E-01  0.1277E+01
      3.742  0.3170E-01  0.1280E+01
      3.836  0.3130E-01  0.1283E+01
      3.931  0.3210E-01  0.1286E+01
      4.025  0.3475E-01  0.1289E+01
      4.119  0.3317E-01  0.1293E+01
      4.214  0.3621E-01  0.1296E+01
      4.308  0.3709E-01  0.1300E+01
      4.403  0.3880E-01  0.1303E+01
      4.497  0.4545E-01  0.1307E+01
      4.591  0.4378E-01  0.1312E+01
      4.686  0.4578E-01  0.1316E+01
      4.780  0.5322E-01  0.1321E+01
      4.875  0.5539E-01  0.1326E+01
      4.969  0.5125E-01  0.1331E+01
      5.063  0.5553E-01  0.1336E+01
      5.158  0.5130E-01  0.1341E+01
      5.252  0.2541E-01  0.1343E+01
      5.347  0.5076E-02  0.1344E+01
      5.441  0.2932E-03  0.1344E+01
      5.535  0.3818E-05  0.1344E+01
      5.630  0.9814E-08  0.1344E+01
      5.724  0.4657E-11  0.1344E+01
      5.819  0.3936E-15  0.1344E+01
      5.913  0.0000E+00  0.1344E+01
      6.007  0.0000E+00  0.1344E+01
      6.102  0.0000E+00  0.1344E+01
      6.196  0.0000E+00  0.1344E+01
      6.291  0.0000E+00  0.1344E+01
      6.385  0.0000E+00  0.1344E+01
      6.479  0.0000E+00  0.1344E+01
