  56  56   0   0
  0.4903395E+02  0.1100258E-08  0.1100258E-08  0.2619179E-08  0.3500000E-15
  1.000000000000000E-004
  CAR 
 unknown system                          
      6.40520329    -21.32944244  301     -1.42429649      1.00000000
    -21.329  0.0000E+00  0.0000E+00
    -21.237  0.0000E+00  0.0000E+00
    -21.145  0.0000E+00  0.0000E+00
    -21.052  0.0000E+00  0.0000E+00
    -20.960  0.0000E+00  0.0000E+00
    -20.867  0.0000E+00  0.0000E+00
    -20.775  0.0000E+00  0.0000E+00
    -20.682  0.0000E+00  0.0000E+00
    -20.590  0.3014E-14  0.2786E-15
    -20.497  0.2454E-10  0.2269E-11
    -20.405  0.3788E-07  0.3504E-08
    -20.313  0.1140E-04  0.1057E-05
    -20.220  0.7049E-03  0.6622E-04
    -20.128  0.9809E-02  0.9730E-03
    -20.035  0.3522E-01  0.4229E-02
    -19.943  0.4251E-01  0.8159E-02
    -19.850  0.3011E-01  0.1094E-01
    -19.758  0.1957E-01  0.1275E-01
    -19.665  0.3524E-01  0.1601E-01
    -19.573  0.3418E-01  0.1917E-01
    -19.480  0.1211E-01  0.2029E-01
    -19.388  0.1889E-01  0.2204E-01
    -19.296  0.3433E-01  0.2521E-01
    -19.203  0.4402E-01  0.2928E-01
    -19.111  0.2528E-01  0.3162E-01
    -19.018  0.4006E-02  0.3199E-01
    -18.926  0.1500E-03  0.3200E-01
    -18.833  0.1209E-05  0.3200E-01
    -18.741  0.1963E-08  0.3200E-01
    -18.648  0.6153E-12  0.3200E-01
    -18.556  0.3763E-16  0.3200E-01
    -18.464  0.0000E+00  0.3200E-01
    -18.371  0.0000E+00  0.3200E-01
    -18.279  0.0000E+00  0.3200E-01
    -18.186  0.0000E+00  0.3200E-01
    -18.094  0.0000E+00  0.3200E-01
    -18.001  0.0000E+00  0.3200E-01
    -17.909  0.0000E+00  0.3200E-01
    -17.816  0.0000E+00  0.3200E-01
    -17.724  0.0000E+00  0.3200E-01
    -17.631  0.0000E+00  0.3200E-01
    -17.539  0.0000E+00  0.3200E-01
    -17.447  0.0000E+00  0.3200E-01
    -17.354  0.0000E+00  0.3200E-01
    -17.262  0.0000E+00  0.3200E-01
    -17.169  0.0000E+00  0.3200E-01
    -17.077  0.0000E+00  0.3200E-01
    -16.984  0.0000E+00  0.3200E-01
    -16.892  0.0000E+00  0.3200E-01
    -16.799  0.0000E+00  0.3200E-01
    -16.707  0.0000E+00  0.3200E-01
    -16.615  0.0000E+00  0.3200E-01
    -16.522  0.0000E+00  0.3200E-01
    -16.430  0.0000E+00  0.3200E-01
    -16.337  0.0000E+00  0.3200E-01
    -16.245  0.0000E+00  0.3200E-01
    -16.152  0.0000E+00  0.3200E-01
    -16.060  0.0000E+00  0.3200E-01
    -15.967  0.0000E+00  0.3200E-01
    -15.875  0.0000E+00  0.3200E-01
    -15.783  0.0000E+00  0.3200E-01
    -15.690  0.0000E+00  0.3200E-01
    -15.598  0.0000E+00  0.3200E-01
    -15.505  0.0000E+00  0.3200E-01
    -15.413  0.0000E+00  0.3200E-01
    -15.320  0.0000E+00  0.3200E-01
    -15.228  0.0000E+00  0.3200E-01
    -15.135  0.0000E+00  0.3200E-01
    -15.043  0.0000E+00  0.3200E-01
    -14.950  0.0000E+00  0.3200E-01
    -14.858  0.0000E+00  0.3200E-01
    -14.766  0.0000E+00  0.3200E-01
    -14.673  0.0000E+00  0.3200E-01
    -14.581  0.0000E+00  0.3200E-01
    -14.488  0.0000E+00  0.3200E-01
    -14.396  0.0000E+00  0.3200E-01
    -14.303  0.0000E+00  0.3200E-01
    -14.211  0.0000E+00  0.3200E-01
    -14.118  0.0000E+00  0.3200E-01
    -14.026  0.0000E+00  0.3200E-01
    -13.934  0.0000E+00  0.3200E-01
    -13.841  0.0000E+00  0.3200E-01
    -13.749  0.0000E+00  0.3200E-01
    -13.656  0.0000E+00  0.3200E-01
    -13.564  0.0000E+00  0.3200E-01
    -13.471  0.0000E+00  0.3200E-01
    -13.379  0.0000E+00  0.3200E-01
    -13.286  0.0000E+00  0.3200E-01
    -13.194  0.0000E+00  0.3200E-01
    -13.101  0.0000E+00  0.3200E-01
    -13.009  0.0000E+00  0.3200E-01
    -12.917  0.0000E+00  0.3200E-01
    -12.824  0.0000E+00  0.3200E-01
    -12.732  0.0000E+00  0.3200E-01
    -12.639  0.0000E+00  0.3200E-01
    -12.547  0.0000E+00  0.3200E-01
    -12.454  0.0000E+00  0.3200E-01
    -12.362  0.0000E+00  0.3200E-01
    -12.269  0.0000E+00  0.3200E-01
    -12.177  0.0000E+00  0.3200E-01
    -12.085  0.0000E+00  0.3200E-01
    -11.992  0.0000E+00  0.3200E-01
    -11.900  0.0000E+00  0.3200E-01
    -11.807  0.0000E+00  0.3200E-01
    -11.715  0.0000E+00  0.3200E-01
    -11.622  0.0000E+00  0.3200E-01
    -11.530  0.0000E+00  0.3200E-01
    -11.437  0.0000E+00  0.3200E-01
    -11.345  0.0000E+00  0.3200E-01
    -11.253  0.0000E+00  0.3200E-01
    -11.160  0.0000E+00  0.3200E-01
    -11.068  0.0000E+00  0.3200E-01
    -10.975  0.0000E+00  0.3200E-01
    -10.883  0.0000E+00  0.3200E-01
    -10.790  0.0000E+00  0.3200E-01
    -10.698  0.0000E+00  0.3200E-01
    -10.605  0.0000E+00  0.3200E-01
    -10.513  0.0000E+00  0.3200E-01
    -10.420  0.0000E+00  0.3200E-01
    -10.328  0.0000E+00  0.3200E-01
    -10.236  0.0000E+00  0.3200E-01
    -10.143  0.0000E+00  0.3200E-01
    -10.051  0.0000E+00  0.3200E-01
     -9.958  0.0000E+00  0.3200E-01
     -9.866  0.0000E+00  0.3200E-01
     -9.773  0.0000E+00  0.3200E-01
     -9.681  0.3325E-14  0.3200E-01
     -9.588  0.2242E-10  0.3200E-01
     -9.496  0.2907E-07  0.3200E-01
     -9.404  0.7407E-05  0.3200E-01
     -9.311  0.3831E-03  0.3204E-01
     -9.219  0.4240E-02  0.3243E-01
     -9.126  0.1125E-01  0.3347E-01
     -9.034  0.1183E-01  0.3456E-01
     -8.941  0.1072E-01  0.3555E-01
     -8.849  0.4509E-02  0.3597E-01
     -8.756  0.2309E-02  0.3618E-01
     -8.664  0.6692E-02  0.3680E-01
     -8.572  0.1346E-01  0.3805E-01
     -8.479  0.1747E-01  0.3966E-01
     -8.387  0.1977E-01  0.4149E-01
     -8.294  0.2112E-01  0.4344E-01
     -8.202  0.2453E-01  0.4571E-01
     -8.109  0.3822E-01  0.4924E-01
     -8.017  0.4669E-01  0.5356E-01
     -7.924  0.5186E-01  0.5835E-01
     -7.832  0.5521E-01  0.6346E-01
     -7.739  0.6443E-01  0.6941E-01
     -7.647  0.6999E-01  0.7589E-01
     -7.555  0.6509E-01  0.8190E-01
     -7.462  0.6819E-01  0.8821E-01
     -7.370  0.7739E-01  0.9536E-01
     -7.277  0.8954E-01  0.1036E+00
     -7.185  0.1031E+00  0.1132E+00
     -7.092  0.1144E+00  0.1237E+00
     -7.000  0.1139E+00  0.1343E+00
     -6.907  0.1185E+00  0.1452E+00
     -6.815  0.1343E+00  0.1576E+00
     -6.723  0.1441E+00  0.1710E+00
     -6.630  0.1595E+00  0.1857E+00
     -6.538  0.1679E+00  0.2012E+00
     -6.445  0.1660E+00  0.2166E+00
     -6.353  0.1650E+00  0.2318E+00
     -6.260  0.1575E+00  0.2464E+00
     -6.168  0.1544E+00  0.2607E+00
     -6.075  0.1575E+00  0.2752E+00
     -5.983  0.1639E+00  0.2904E+00
     -5.890  0.1802E+00  0.3070E+00
     -5.798  0.1840E+00  0.3240E+00
     -5.706  0.1732E+00  0.3400E+00
     -5.613  0.1728E+00  0.3560E+00
     -5.521  0.1776E+00  0.3724E+00
     -5.428  0.1789E+00  0.3890E+00
     -5.336  0.1763E+00  0.4053E+00
     -5.243  0.1797E+00  0.4219E+00
     -5.151  0.1806E+00  0.4386E+00
     -5.058  0.1732E+00  0.4546E+00
     -4.966  0.1722E+00  0.4705E+00
     -4.874  0.1771E+00  0.4869E+00
     -4.781  0.1771E+00  0.5033E+00
     -4.689  0.1767E+00  0.5196E+00
     -4.596  0.1762E+00  0.5359E+00
     -4.504  0.1805E+00  0.5526E+00
     -4.411  0.1799E+00  0.5692E+00
     -4.319  0.1736E+00  0.5852E+00
     -4.226  0.1768E+00  0.6016E+00
     -4.134  0.1846E+00  0.6187E+00
     -4.042  0.1826E+00  0.6355E+00
     -3.949  0.1828E+00  0.6524E+00
     -3.857  0.1883E+00  0.6698E+00
     -3.764  0.1863E+00  0.6871E+00
     -3.672  0.1896E+00  0.7046E+00
     -3.579  0.1976E+00  0.7229E+00
     -3.487  0.1963E+00  0.7410E+00
     -3.394  0.1849E+00  0.7581E+00
     -3.302  0.1815E+00  0.7749E+00
     -3.209  0.1959E+00  0.7930E+00
     -3.117  0.1996E+00  0.8114E+00
     -3.025  0.1951E+00  0.8295E+00
     -2.932  0.1907E+00  0.8471E+00
     -2.840  0.1868E+00  0.8644E+00
     -2.747  0.1852E+00  0.8815E+00
     -2.655  0.1846E+00  0.8986E+00
     -2.562  0.1842E+00  0.9156E+00
     -2.470  0.1866E+00  0.9328E+00
     -2.377  0.1935E+00  0.9507E+00
     -2.285  0.1907E+00  0.9684E+00
     -2.193  0.1893E+00  0.9859E+00
     -2.100  0.1829E+00  0.1003E+01
     -2.008  0.1763E+00  0.1019E+01
     -1.915  0.1738E+00  0.1035E+01
     -1.823  0.1701E+00  0.1051E+01
     -1.730  0.1645E+00  0.1066E+01
     -1.638  0.1503E+00  0.1080E+01
     -1.545  0.1276E+00  0.1092E+01
     -1.453  0.1048E+00  0.1101E+01
     -1.360  0.8264E-01  0.1109E+01
     -1.268  0.7079E-01  0.1116E+01
     -1.176  0.6619E-01  0.1122E+01
     -1.083  0.5533E-01  0.1127E+01
     -0.991  0.4386E-01  0.1131E+01
     -0.898  0.4188E-01  0.1135E+01
     -0.806  0.3861E-01  0.1138E+01
     -0.713  0.4310E-01  0.1142E+01
     -0.621  0.4475E-01  0.1146E+01
     -0.528  0.4408E-01  0.1151E+01
     -0.436  0.4347E-01  0.1155E+01
     -0.344  0.4030E-01  0.1158E+01
     -0.251  0.3951E-01  0.1162E+01
     -0.159  0.3855E-01  0.1166E+01
     -0.066  0.3056E-01  0.1168E+01
      0.026  0.2448E-01  0.1171E+01
      0.119  0.2703E-01  0.1173E+01
      0.211  0.3257E-01  0.1176E+01
      0.304  0.2782E-01  0.1179E+01
      0.396  0.2562E-01  0.1181E+01
      0.488  0.3053E-01  0.1184E+01
      0.581  0.3571E-01  0.1187E+01
      0.673  0.3724E-01  0.1191E+01
      0.766  0.3337E-01  0.1194E+01
      0.858  0.3440E-01  0.1197E+01
      0.951  0.3380E-01  0.1200E+01
      1.043  0.2681E-01  0.1202E+01
      1.136  0.2420E-01  0.1205E+01
      1.228  0.2738E-01  0.1207E+01
      1.321  0.2569E-01  0.1210E+01
      1.413  0.2184E-01  0.1212E+01
      1.505  0.2255E-01  0.1214E+01
      1.598  0.2421E-01  0.1216E+01
      1.690  0.2949E-01  0.1219E+01
      1.783  0.3234E-01  0.1222E+01
      1.875  0.3711E-01  0.1225E+01
      1.968  0.3956E-01  0.1229E+01
      2.060  0.3240E-01  0.1232E+01
      2.153  0.3511E-01  0.1235E+01
      2.245  0.3916E-01  0.1239E+01
      2.337  0.3445E-01  0.1242E+01
      2.430  0.2238E-01  0.1244E+01
      2.522  0.2004E-01  0.1246E+01
      2.615  0.2514E-01  0.1248E+01
      2.707  0.2213E-01  0.1250E+01
      2.800  0.2678E-01  0.1253E+01
      2.892  0.3040E-01  0.1255E+01
      2.985  0.2146E-01  0.1257E+01
      3.077  0.2220E-01  0.1259E+01
      3.169  0.2940E-01  0.1262E+01
      3.262  0.2969E-01  0.1265E+01
      3.354  0.2912E-01  0.1268E+01
      3.447  0.2945E-01  0.1270E+01
      3.539  0.3153E-01  0.1273E+01
      3.632  0.3223E-01  0.1276E+01
      3.724  0.3341E-01  0.1279E+01
      3.817  0.3602E-01  0.1283E+01
      3.909  0.3720E-01  0.1286E+01
      4.002  0.3641E-01  0.1289E+01
      4.094  0.3786E-01  0.1293E+01
      4.186  0.3479E-01  0.1296E+01
      4.279  0.2827E-01  0.1299E+01
      4.371  0.2914E-01  0.1301E+01
      4.464  0.3785E-01  0.1305E+01
      4.556  0.4650E-01  0.1309E+01
      4.649  0.4771E-01  0.1314E+01
      4.741  0.4921E-01  0.1318E+01
      4.834  0.5415E-01  0.1323E+01
      4.926  0.6054E-01  0.1329E+01
      5.018  0.6736E-01  0.1335E+01
      5.111  0.5861E-01  0.1340E+01
      5.203  0.3086E-01  0.1343E+01
      5.296  0.6838E-02  0.1344E+01
      5.388  0.4409E-03  0.1344E+01
      5.481  0.6638E-05  0.1344E+01
      5.573  0.2090E-07  0.1344E+01
      5.666  0.1302E-10  0.1344E+01
      5.758  0.1556E-14  0.1344E+01
      5.851  0.0000E+00  0.1344E+01
      5.943  0.0000E+00  0.1344E+01
      6.035  0.0000E+00  0.1344E+01
      6.128  0.0000E+00  0.1344E+01
      6.220  0.0000E+00  0.1344E+01
      6.313  0.0000E+00  0.1344E+01
      6.405  0.0000E+00  0.1344E+01
