<?xml version="1.0" encoding="ISO-8859-1"?>
<modeling>
 <generator>
  <i name="program" type="string">vasp </i>
  <i name="version" type="string">5.4.1  </i>
  <i name="subversion" type="string">24Jun15 (build Mar 14 2019 10:18:33) complex                          parallel </i>
  <i name="platform" type="string">INTEL-19.0.2+OPENMPI-3.1.3 </i>
  <i name="date" type="string">2023 01 24 </i>
  <i name="time" type="string">11:01:51 </i>
 </generator>
 <incar>
  <i type="int" name="ISTART">     0</i>
  <i type="string" name="PREC">normal</i>
  <i type="string" name="ALGO"> Fast</i>
  <i type="int" name="NELM">   500</i>
  <i type="int" name="IBRION">     2</i>
  <i type="int" name="NFREE">     2</i>
  <i name="EDIFF">      0.00000100</i>
  <i name="EDIFFG">     -0.02000000</i>
  <i type="int" name="NSW">   500</i>
  <i type="int" name="ISIF">     0</i>
  <i type="int" name="ISYM">     2</i>
  <i name="ENCUT">    400.00000000</i>
  <i name="POTIM">      0.35000000</i>
  <i type="string" name="LREAL"> Auto</i>
  <i type="logical" name="LPLANE"> T  </i>
  <i type="int" name="ISMEAR">     0</i>
  <i name="SIGMA">      0.10000000</i>
  <i type="int" name="NWRITE">     1</i>
  <i type="logical" name="LWAVE"> F  </i>
  <i type="logical" name="LCHARG"> F  </i>
  <i type="logical" name="LVTOT"> F  </i>
  <i type="logical" name="LORBIT"> F  </i>
  <i type="logical" name="LAECHG"> F  </i>
  <v type="int" name="KPOINT_BSE">    -1     0     0     0</v>
  <i type="int" name="NELM">   500</i>
  <i type="string" name="GGA"> PE          ! optPBE-vdW XC-functional</i>
  <i type="int" name="VOSKOWN">     1</i>
  <i type="logical" name="LDIPOL"> T  </i>
  <i type="logical" name="LMONO"> F  </i>
  <i type="int" name="IDIPOL">     3</i>
  <v name="DIPOL">      0.00000000      0.00000000      0.50000000</v>
 </incar>
 <kpoints>
  <generation param="Monkhorst-Pack">
   <v type="int" name="divisions">       2        2        1 </v>
   <v name="usershift">      0.00000000       0.00000000       0.00000000 </v>
   <v name="genvec1">      0.50000000       0.00000000       0.00000000 </v>
   <v name="genvec2">      0.00000000       0.50000000       0.00000000 </v>
   <v name="genvec3">      0.00000000       0.00000000       1.00000000 </v>
   <v name="shift">      0.50000000       0.50000000       0.00000000 </v>
  </generation>
  <varray name="kpointlist" >
   <v>       0.25000000       0.25000000       0.00000000 </v>
   <v>       0.00000000       0.25000000       0.00000000 </v>
   <v>      -0.25000000       0.00000000       0.00000000 </v>
   <v>      -0.25000000       0.25000000       0.00000000 </v>
   <v>       0.50000000      -0.25000000       0.00000000 </v>
   <v>      -0.25000000       0.50000000       0.00000000 </v>
  </varray>
  <varray name="weights" >
   <v>       0.16666667 </v>
   <v>       0.16666667 </v>
   <v>       0.16666667 </v>
   <v>       0.16666667 </v>
   <v>       0.16666667 </v>
   <v>       0.16666667 </v>
  </varray>
 </kpoints>
 <parameters>
  <separator name="general" >
   <i type="string" name="SYSTEM">unknown system</i>
   <i type="logical" name="LCOMPAT"> F  </i>
  </separator>
  <separator name="electronic" >
   <i type="string" name="PREC">normal</i>
   <i name="ENMAX">    400.00000000</i>
   <i name="ENAUG">    605.39200000</i>
   <i name="EDIFF">      0.00000100</i>
   <i type="int" name="IALGO">    68</i>
   <i type="int" name="IWAVPR">    11</i>
   <i type="int" name="NBANDS">   336</i>
   <i name="NELECT">    552.00000000</i>
   <i type="int" name="TURBO">     0</i>
   <i type="int" name="IRESTART">     0</i>
   <i type="int" name="NREBOOT">     0</i>
   <i type="int" name="NMIN">     0</i>
   <i name="EREF">      0.00000000</i>
   <separator name="electronic smearing" >
    <i type="int" name="ISMEAR">     0</i>
    <i name="SIGMA">      0.10000000</i>
    <i name="KSPACING">      0.50000000</i>
    <i type="logical" name="KGAMMA"> T  </i>
   </separator>
   <separator name="electronic projectors" >
    <i type="logical" name="LREAL"> T  </i>
    <v name="ROPT">     -0.00050000     -0.00050000     -0.00050000</v>
    <i type="int" name="LMAXPAW">  -100</i>
    <i type="int" name="LMAXMIX">     2</i>
    <i type="logical" name="NLSPLINE"> F  </i>
   </separator>
   <separator name="electronic startup" >
    <i type="int" name="ISTART">     0</i>
    <i type="int" name="ICHARG">     2</i>
    <i type="int" name="INIWAV">     1</i>
   </separator>
   <separator name="electronic spin" >
    <i type="int" name="ISPIN">     1</i>
    <i type="logical" name="LNONCOLLINEAR"> F  </i>
    <v name="MAGMOM">      1.00000000      1.00000000      1.00000000      1.00000000      1.00000000      1.00000000      1.00000000      1.00000000      1.00000000      1.00000000      1.00000000      1.00000000      1.00000000      1.00000000      1.00000000      1.00000000      1.00000000      1.00000000      1.00000000      1.00000000
      1.00000000      1.00000000      1.00000000      1.00000000      1.00000000      1.00000000      1.00000000      1.00000000      1.00000000      1.00000000      1.00000000      1.00000000      1.00000000      1.00000000      1.00000000      1.00000000      1.00000000      1.00000000      1.00000000      1.00000000
      1.00000000      1.00000000      1.00000000      1.00000000      1.00000000      1.00000000      1.00000000      1.00000000      1.00000000      1.00000000      1.00000000      1.00000000      1.00000000      1.00000000      1.00000000      1.00000000</v>
    <i name="NUPDOWN">     -1.00000000</i>
    <i type="logical" name="LSORBIT"> F  </i>
    <v name="SAXIS">      0.00000000      0.00000000      1.00000000</v>
    <i type="logical" name="LSPIRAL"> F  </i>
    <v name="QSPIRAL">      0.00000000      0.00000000      0.00000000</v>
    <i type="logical" name="LZEROZ"> F  </i>
   </separator>
   <separator name="electronic exchange-correlation" >
    <i type="logical" name="LASPH"> F  </i>
    <i type="logical" name="LMETAGGA"> F  </i>
   </separator>
   <separator name="electronic convergence" >
    <i type="int" name="NELM">   500</i>
    <i type="int" name="NELMDL">    -5</i>
    <i type="int" name="NELMIN">     2</i>
    <i name="ENINI">    400.00000000</i>
    <separator name="electronic convergence detail" >
     <i type="logical" name="LDIAG"> T  </i>
     <i type="logical" name="LSUBROT"> F  </i>
     <i name="WEIMIN">      0.00100000</i>
     <i name="EBREAK">      0.00000000</i>
     <i name="DEPER">      0.30000000</i>
     <i type="int" name="NRMM">     4</i>
     <i name="TIME">      0.40000000</i>
    </separator>
   </separator>
   <separator name="electronic mixer" >
    <i name="AMIX">      0.40000000</i>
    <i name="BMIX">      1.00000000</i>
    <i name="AMIN">      0.10000000</i>
    <i name="AMIX_MAG">      1.60000000</i>
    <i name="BMIX_MAG">      1.00000000</i>
    <separator name="electronic mixer details" >
     <i type="int" name="IMIX">     4</i>
     <i type="logical" name="MIXFIRST"> F  </i>
     <i type="int" name="MAXMIX">   -45</i>
     <i name="WC">    100.00000000</i>
     <i type="int" name="INIMIX">     1</i>
     <i type="int" name="MIXPRE">     1</i>
     <i type="int" name="MREMOVE">     5</i>
    </separator>
   </separator>
   <separator name="electronic dipolcorrection" >
    <i type="logical" name="LDIPOL"> T  </i>
    <i type="logical" name="LMONO"> F  </i>
    <i type="int" name="IDIPOL">     3</i>
    <i name="EPSILON">      1.00000000</i>
    <v name="DIPOL">      0.00000000      0.00000000      0.50000000</v>
    <i name="EFIELD">      0.00000000</i>
   </separator>
  </separator>
  <separator name="grids" >
   <i type="int" name="NGX">    54</i>
   <i type="int" name="NGY">    54</i>
   <i type="int" name="NGZ">   128</i>
   <i type="int" name="NGXF">   108</i>
   <i type="int" name="NGYF">   108</i>
   <i type="int" name="NGZF">   256</i>
   <i type="logical" name="ADDGRID"> F  </i>
  </separator>
  <separator name="ionic" >
   <i type="int" name="NSW">   500</i>
   <i type="int" name="IBRION">     2</i>
   <i type="int" name="ISIF">     0</i>
   <i name="PSTRESS">      0.00000000</i>
   <i name="EDIFFG">     -0.02000000</i>
   <i type="int" name="NFREE">     2</i>
   <i name="POTIM">      0.35000000</i>
   <i name="SMASS">     -3.00000000</i>
   <i name="SCALEE">      1.00000000</i>
  </separator>
  <separator name="ionic md" >
   <i name="TEBEG">      0.00010000</i>
   <i name="TEEND">      0.00010000</i>
   <i type="int" name="NBLOCK">     1</i>
   <i type="int" name="KBLOCK">   500</i>
   <i type="int" name="NPACO">   256</i>
   <i name="APACO">     16.00000000</i>
  </separator>
  <separator name="symmetry" >
   <i type="int" name="ISYM">     2</i>
   <i name="SYMPREC">      0.00001000</i>
  </separator>
  <separator name="dos" >
   <i type="logical" name="LORBIT"> F  </i>
   <v name="RWIGS">     -1.00000000     -1.00000000     -1.00000000</v>
   <i type="int" name="NEDOS">   301</i>
   <i name="EMIN">     10.00000000</i>
   <i name="EMAX">    -10.00000000</i>
   <i name="EFERMI">      0.00000000</i>
  </separator>
  <separator name="writing" >
   <i type="int" name="NWRITE">     1</i>
   <i type="logical" name="LWAVE"> F  </i>
   <i type="logical" name="LCHARG"> F  </i>
   <i type="logical" name="LPARD"> F  </i>
   <i type="logical" name="LVTOT"> F  </i>
   <i type="logical" name="LVHAR"> F  </i>
   <i type="logical" name="LELF"> F  </i>
   <i type="logical" name="LOPTICS"> F  </i>
   <v name="STM">      0.00000000      0.00000000      0.00000000      0.00000000      0.00000000      0.00000000      0.00000000</v>
  </separator>
  <separator name="performance" >
   <i type="int" name="NPAR">     6</i>
   <i type="int" name="NSIM">     4</i>
   <i type="int" name="NBLK">    -1</i>
   <i type="logical" name="LPLANE"> T  </i>
   <i type="logical" name="LSCALAPACK"> T  </i>
   <i type="logical" name="LSCAAWARE"> F  </i>
   <i type="logical" name="LSCALU"> F  </i>
   <i type="logical" name="LASYNC"> F  </i>
   <i type="logical" name="LORBITALREAL"> F  </i>
  </separator>
  <separator name="miscellaneous" >
   <i type="int" name="IDIOT">     3</i>
   <i type="logical" name="LMUSIC"> F  </i>
   <v name="POMASS">    196.96600000     16.00000000    106.42000000</v>
   <v name="DARWINR">      0.00000000      0.00000000      0.00000000</v>
   <v name="DARWINV">      1.00000000      1.00000000      1.00000000</v>
   <i type="logical" name="LCORR"> T  </i>
  </separator>
  <i type="logical" name="GGA_COMPAT"> T  </i>
  <i type="logical" name="LBERRY"> F  </i>
  <i type="int" name="ICORELEVEL">     0</i>
  <i type="logical" name="LDAU"> F  </i>
  <i type="int" name="I_CONSTRAINED_M">     0</i>
  <separator name="electronic exchange-correlation" >
   <i type="string" name="GGA">PE</i>
   <i type="int" name="VOSKOWN">     1</i>
   <i type="logical" name="LHFCALC"> F  </i>
   <i type="string" name="PRECFOCK"></i>
   <i type="logical" name="LSYMGRAD"> F  </i>
   <i type="logical" name="LHFONE"> F  </i>
   <i type="logical" name="LRHFCALC"> F  </i>
   <i type="logical" name="LTHOMAS"> F  </i>
   <i type="logical" name="LMODELHF"> F  </i>
   <i name="ENCUT4O">     -1.00000000</i>
   <i type="int" name="EXXOEP">     0</i>
   <i type="int" name="FOURORBIT">     0</i>
   <i name="AEXX">      0.00000000</i>
   <i name="HFALPHA">      0.00000000</i>
   <i name="MCALPHA">      0.00000000</i>
   <i name="ALDAX">      1.00000000</i>
   <i name="AGGAX">      1.00000000</i>
   <i name="ALDAC">      1.00000000</i>
   <i name="AGGAC">      1.00000000</i>
   <i type="int" name="NKREDX">     1</i>
   <i type="int" name="NKREDY">     1</i>
   <i type="int" name="NKREDZ">     1</i>
   <i type="logical" name="SHIFTRED"> F  </i>
   <i type="logical" name="ODDONLY"> F  </i>
   <i type="logical" name="EVENONLY"> F  </i>
   <i type="int" name="LMAXFOCK">     0</i>
   <i type="int" name="NMAXFOCKAE">     0</i>
   <i type="logical" name="LFOCKAEDFT"> F  </i>
   <i name="HFSCREEN">      0.00000000</i>
   <i name="HFSCREENC">      0.00000000</i>
   <i type="int" name="NBANDSGWLOW">     0</i>
  </separator>
  <separator name="vdW DFT" >
   <i type="logical" name="LUSE_VDW"> F  </i>
   <i name="Zab_VDW">     -0.84910000</i>
   <i name="PARAM1">      0.12340000</i>
   <i name="PARAM2">      1.00000000</i>
   <i name="PARAM3">      0.00000000</i>
  </separator>
  <separator name="model GW" >
   <i type="int" name="MODEL_GW">     0</i>
   <i name="MODEL_EPS0">     29.42037089</i>
   <i name="MODEL_ALPHA">      1.00000000</i>
  </separator>
  <separator name="linear response parameters" >
   <i type="logical" name="LEPSILON"> F  </i>
   <i type="logical" name="LRPA"> F  </i>
   <i type="logical" name="LNABLA"> F  </i>
   <i type="logical" name="LVEL"> F  </i>
   <i type="int" name="KINTER">     0</i>
   <i name="CSHIFT">      0.10000000</i>
   <i name="OMEGAMAX">     -1.00000000</i>
   <i name="DEG_THRESHOLD">      0.00200000</i>
  </separator>
  <separator name="orbital magnetization" >
   <i type="logical" name="NUCIND"> F  </i>
   <v name="MAGPOS">      0.00000000      0.00000000      0.00000000</v>
   <i type="logical" name="LNICSALL"> T  </i>
   <i type="logical" name="ORBITALMAG"> F  </i>
   <i type="logical" name="LMAGBLOCH"> F  </i>
   <i type="logical" name="LCHIMAG"> F  </i>
   <i type="logical" name="LGAUGE"> T  </i>
   <i type="int" name="MAGATOM">     0</i>
   <v name="MAGDIPOL">      0.00000000      0.00000000      0.00000000</v>
   <v name="AVECCONST">      0.00000000      0.00000000      0.00000000</v>
  </separator>
  <separator name="response functions" >
   <i type="logical" name="LADDER"> F  </i>
   <i type="logical" name="LFXC"> F  </i>
   <i type="logical" name="LHARTREE"> T  </i>
   <i type="int" name="IBSE">     0</i>
   <v type="int" name="KPOINT">    -1     0     0     0</v>
   <i type="logical" name="LTCTE"> F  </i>
   <i type="logical" name="LTETE"> F  </i>
   <i type="logical" name="LTRIPLET"> F  </i>
   <i type="logical" name="LFXCEPS"> F  </i>
   <i type="logical" name="LFXHEG"> F  </i>
   <i type="int" name="NATURALO">     0</i>
   <i type="logical" name="L2ORDER"> F  </i>
   <i type="logical" name="LUSEW"> F  </i>
   <i name="ENCUTGW">     -2.00000000</i>
   <i name="ENCUTGWSOFT">     -2.00000000</i>
   <i name="ENCUTLF">     -1.00000000</i>
   <i type="int" name="LMAXMP2">    -1</i>
   <i name="SCISSOR">      0.00000000</i>
   <i type="int" name="NOMEGA">     0</i>
   <i type="int" name="NOMEGAR">     0</i>
   <i type="int" name="NBANDSGW">    -1</i>
   <i type="int" name="NBANDSO">    -1</i>
   <i type="int" name="NBANDSV">    -1</i>
   <i type="int" name="NELM">   500</i>
   <i type="int" name="NELMHF">     1</i>
   <i type="int" name="DIM">     3</i>
   <i type="int" name="ANTIRES">     0</i>
   <i name="OMEGAMAX">    -30.00000000</i>
   <i name="OMEGAMIN">    -30.00000000</i>
   <i name="OMEGATL">   -200.00000000</i>
   <i type="int" name="OMEGAGRID">     0</i>
   <i name="CSHIFT">     -0.10000000</i>
   <i type="logical" name="SELFENERGY"> F  </i>
   <i type="logical" name="LSPECTRAL"> F  </i>
   <i type="logical" name="LSPECTRALGW"> F  </i>
   <i type="logical" name="LSINGLES"> F  </i>
   <i type="logical" name="LFERMIGW"> F  </i>
   <i type="logical" name="ODDONLYGW"> F  </i>
   <i type="logical" name="EVENONLYGW"> F  </i>
   <i type="int" name="NKREDLFX">     1</i>
   <i type="int" name="NKREDLFY">     1</i>
   <i type="int" name="NKREDLFZ">     1</i>
   <i type="int" name="MAXMEM">  1800</i>
   <i type="int" name="TELESCOPE">     0</i>
   <i type="int" name="TAUPAR">     1</i>
   <i type="int" name="OMEGAPAR">    -1</i>
   <i name="LAMBDA">      1.00000000</i>
  </separator>
  <separator name="External order field" >
   <i name="OFIELD_KAPPA">      0.00000000</i>
   <v name="OFIELD_K">      0.00000000      0.00000000      0.00000000</v>
   <i name="OFIELD_Q6_NEAR">      0.00000000</i>
   <i name="OFIELD_Q6_FAR">      0.00000000</i>
   <i name="OFIELD_A">      0.00000000</i>
  </separator>
 </parameters>
 <atominfo>
  <atoms>      56 </atoms>
  <types>       3 </types>
  <array name="atoms" >
   <dimension dim="1">ion</dimension>
   <field type="string">element</field>
   <field type="int">atomtype</field>
   <set>
    <rc><c>Au</c><c>   1</c></rc>
    <rc><c>Au</c><c>   1</c></rc>
    <rc><c>Au</c><c>   1</c></rc>
    <rc><c>Au</c><c>   1</c></rc>
    <rc><c>Au</c><c>   1</c></rc>
    <rc><c>Au</c><c>   1</c></rc>
    <rc><c>Au</c><c>   1</c></rc>
    <rc><c>Au</c><c>   1</c></rc>
    <rc><c>Au</c><c>   1</c></rc>
    <rc><c>Au</c><c>   1</c></rc>
    <rc><c>Au</c><c>   1</c></rc>
    <rc><c>Au</c><c>   1</c></rc>
    <rc><c>Au</c><c>   1</c></rc>
    <rc><c>Au</c><c>   1</c></rc>
    <rc><c>Au</c><c>   1</c></rc>
    <rc><c>Au</c><c>   1</c></rc>
    <rc><c>Au</c><c>   1</c></rc>
    <rc><c>Au</c><c>   1</c></rc>
    <rc><c>Au</c><c>   1</c></rc>
    <rc><c>Au</c><c>   1</c></rc>
    <rc><c>Au</c><c>   1</c></rc>
    <rc><c>Au</c><c>   1</c></rc>
    <rc><c>Au</c><c>   1</c></rc>
    <rc><c>Au</c><c>   1</c></rc>
    <rc><c>O </c><c>   2</c></rc>
    <rc><c>O </c><c>   2</c></rc>
    <rc><c>O </c><c>   2</c></rc>
    <rc><c>O </c><c>   2</c></rc>
    <rc><c>O </c><c>   2</c></rc>
    <rc><c>O </c><c>   2</c></rc>
    <rc><c>O </c><c>   2</c></rc>
    <rc><c>O </c><c>   2</c></rc>
    <rc><c>Pd</c><c>   3</c></rc>
    <rc><c>Pd</c><c>   3</c></rc>
    <rc><c>Pd</c><c>   3</c></rc>
    <rc><c>Pd</c><c>   3</c></rc>
    <rc><c>Pd</c><c>   3</c></rc>
    <rc><c>Pd</c><c>   3</c></rc>
    <rc><c>Pd</c><c>   3</c></rc>
    <rc><c>Pd</c><c>   3</c></rc>
    <rc><c>Pd</c><c>   3</c></rc>
    <rc><c>Pd</c><c>   3</c></rc>
    <rc><c>Pd</c><c>   3</c></rc>
    <rc><c>Pd</c><c>   3</c></rc>
    <rc><c>Pd</c><c>   3</c></rc>
    <rc><c>Pd</c><c>   3</c></rc>
    <rc><c>Pd</c><c>   3</c></rc>
    <rc><c>Pd</c><c>   3</c></rc>
    <rc><c>Pd</c><c>   3</c></rc>
    <rc><c>Pd</c><c>   3</c></rc>
    <rc><c>Pd</c><c>   3</c></rc>
    <rc><c>Pd</c><c>   3</c></rc>
    <rc><c>Pd</c><c>   3</c></rc>
    <rc><c>Pd</c><c>   3</c></rc>
    <rc><c>Pd</c><c>   3</c></rc>
    <rc><c>Pd</c><c>   3</c></rc>
   </set>
  </array>
  <array name="atomtypes" >
   <dimension dim="1">type</dimension>
   <field type="int">atomspertype</field>
   <field type="string">element</field>
   <field>mass</field>
   <field>valence</field>
   <field type="string">pseudopotential</field>
   <set>
    <rc><c>  24</c><c>Au</c><c>    196.96600000</c><c>     11.00000000</c><c>  PAW_PBE Au 04Oct2007                  </c></rc>
    <rc><c>   8</c><c>O </c><c>     16.00000000</c><c>      6.00000000</c><c>  PAW_PBE O 08Apr2002                   </c></rc>
    <rc><c>  24</c><c>Pd</c><c>    106.42000000</c><c>     10.00000000</c><c>  PAW_PBE Pd 04Jan2005                  </c></rc>
   </set>
  </array>
 </atominfo>
 <structure name="initialpos" >
  <crystal>
   <varray name="basis" >
    <v>      11.00258152       0.00000000       0.00000000 </v>
    <v>       5.50129076       9.52851510       0.00000000 </v>
    <v>       0.00000000       0.00000000      26.19178509 </v>
   </varray>
   <i name="volume">   2745.90128299 </i>
   <varray name="rec_basis" >
    <v>       0.09088776      -0.05247407       0.00000000 </v>
    <v>       0.00000000       0.10494815       0.00000000 </v>
    <v>       0.00000000       0.00000000       0.03817991 </v>
   </varray>
  </crystal>
  <varray name="positions" >
   <v>       0.33333333       0.83333333       0.38179910 </v>
   <v>       0.58333333       0.08333333       0.38179910 </v>
   <v>       0.22438663       0.26460280       0.60417433 </v>
   <v>       0.83333333       0.33333333       0.38179910 </v>
   <v>       0.99156534       0.00504193       0.56676427 </v>
   <v>       0.74869553       0.00087891       0.57210504 </v>
   <v>       0.50190989       0.75441622       0.56133409 </v>
   <v>       0.58333333       0.83333333       0.38179910 </v>
   <v>       0.74337882       0.50648091       0.56142612 </v>
   <v>       0.66790530       0.91493883       0.47690033 </v>
   <v>       0.08333333       0.58333333       0.38179910 </v>
   <v>       0.00114705       0.49891608       0.57320247 </v>
   <v>       0.51091101       0.48949816       0.56596173 </v>
   <v>       0.33333333       0.58333333       0.38179910 </v>
   <v>       0.92098443       0.91186554       0.47589998 </v>
   <v>       0.50178704       0.24188153       0.56725046 </v>
   <v>       0.41561627       0.41325928       0.47712280 </v>
   <v>       0.51846421       0.98650903       0.58763104 </v>
   <v>       0.16368592       0.16628278       0.47224669 </v>
   <v>       0.25610880       0.99620550       0.56113846 </v>
   <v>       0.41400016       0.16219272       0.47965108 </v>
   <v>       0.33333333       0.33333333       0.38179910 </v>
   <v>       0.16573263       0.41573556       0.48644011 </v>
   <v>       0.41947406       0.66389547       0.47483717 </v>
   <v>       0.37086241       0.31323902       0.63351316 </v>
   <v>       0.09803259       0.82659405       0.61631341 </v>
   <v>       0.33979012       0.06042715       0.63082683 </v>
   <v>       0.07408622       0.09076633       0.61810515 </v>
   <v>       0.06336479       0.61106280       0.62744163 </v>
   <v>       0.82365315       0.32522720       0.60930158 </v>
   <v>       0.80566733       0.61750191       0.61696237 </v>
   <v>       0.34781008       0.59772426       0.62037366 </v>
   <v>       0.16655257       0.66455126       0.47429563 </v>
   <v>       0.16736941       0.91252824       0.47336322 </v>
   <v>       0.26067530       0.74645447       0.56690733 </v>
   <v>       0.75328069       0.75635347       0.56227069 </v>
   <v>       0.33333333       0.08333333       0.38179910 </v>
   <v>       0.83333333       0.83333333       0.38179910 </v>
   <v>       0.58333333       0.33333333       0.38179910 </v>
   <v>       0.99799807       0.75185995       0.57223614 </v>
   <v>       0.08333333       0.83333333       0.38179910 </v>
   <v>       0.58333333       0.58333333       0.38179910 </v>
   <v>       0.25378243       0.49417757       0.59370388 </v>
   <v>       0.74985399       0.24554663       0.55910468 </v>
   <v>       0.00907089       0.24838651       0.56965302 </v>
   <v>       0.92099732       0.41376481       0.47545374 </v>
   <v>       0.41681268       0.91562300       0.47309373 </v>
   <v>       0.08333333       0.33333333       0.38179910 </v>
   <v>       0.67318412       0.66304407       0.47165049 </v>
   <v>       0.83333333       0.08333333       0.38179910 </v>
   <v>       0.66620452       0.16498316       0.47512704 </v>
   <v>       0.83333333       0.58333333       0.38179910 </v>
   <v>       0.91735406       0.16368400       0.47153152 </v>
   <v>       0.66842234       0.41306002       0.47216996 </v>
   <v>       0.91934966       0.66347274       0.47373226 </v>
   <v>       0.08333333       0.08333333       0.38179910 </v>
  </varray>
  <varray name="selective"  type="logical" >
   <v type="logical" >  F  F  F </v>
   <v type="logical" >  F  F  F </v>
   <v type="logical" >  T  T  T </v>
   <v type="logical" >  F  F  F </v>
   <v type="logical" >  T  T  T </v>
   <v type="logical" >  T  T  T </v>
   <v type="logical" >  T  T  T </v>
   <v type="logical" >  F  F  F </v>
   <v type="logical" >  T  T  T </v>
   <v type="logical" >  T  T  T </v>
   <v type="logical" >  F  F  F </v>
   <v type="logical" >  T  T  T </v>
   <v type="logical" >  T  T  T </v>
   <v type="logical" >  F  F  F </v>
   <v type="logical" >  T  T  T </v>
   <v type="logical" >  T  T  T </v>
   <v type="logical" >  T  T  T </v>
   <v type="logical" >  T  T  T </v>
   <v type="logical" >  T  T  T </v>
   <v type="logical" >  T  T  T </v>
   <v type="logical" >  T  T  T </v>
   <v type="logical" >  F  F  F </v>
   <v type="logical" >  T  T  T </v>
   <v type="logical" >  T  T  T </v>
   <v type="logical" >  T  T  T </v>
   <v type="logical" >  T  T  T </v>
   <v type="logical" >  T  T  T </v>
   <v type="logical" >  T  T  T </v>
   <v type="logical" >  T  T  T </v>
   <v type="logical" >  T  T  T </v>
   <v type="logical" >  T  T  T </v>
   <v type="logical" >  T  T  T </v>
   <v type="logical" >  T  T  T </v>
   <v type="logical" >  T  T  T </v>
   <v type="logical" >  T  T  T </v>
   <v type="logical" >  T  T  T </v>
   <v type="logical" >  F  F  F </v>
   <v type="logical" >  F  F  F </v>
   <v type="logical" >  F  F  F </v>
   <v type="logical" >  T  T  T </v>
   <v type="logical" >  F  F  F </v>
   <v type="logical" >  F  F  F </v>
   <v type="logical" >  T  T  T </v>
   <v type="logical" >  T  T  T </v>
   <v type="logical" >  T  T  T </v>
   <v type="logical" >  T  T  T </v>
   <v type="logical" >  T  T  T </v>
   <v type="logical" >  F  F  F </v>
   <v type="logical" >  T  T  T </v>
   <v type="logical" >  F  F  F </v>
   <v type="logical" >  T  T  T </v>
   <v type="logical" >  F  F  F </v>
   <v type="logical" >  T  T  T </v>
   <v type="logical" >  T  T  T </v>
   <v type="logical" >  T  T  T </v>
   <v type="logical" >  F  F  F </v>
  </varray>
  <nose>
   <v>      -3.00000000       0.00000000       0.00010000       0.00010000 </v>
  </nose>
 </structure>
 <calculation>
  <scstep>
   <time name="dav">    8.55    8.67</time>
   <time name="total">    8.62    8.73</time>
   <dipole>
    <v name="dipole">      0.00000000       0.00000000       0.00009582 </v>
    <i name="Tr[quadrupol]"> -11108.22269370 </i>
    <i name="Echarged">      0.00000000 </i>
    <i name="Edipol_quadrupol">      0.00000000 </i>
    <i name="Eion">      0.00000000 </i>
   </dipole>
   <energy>
    <i name="alphaZ">    862.57744964 </i>
    <i name="ewald"> 240116.39647119 </i>
    <i name="hartreedc">-285729.54159880 </i>
    <i name="XCdc">   -114.63741218 </i>
    <i name="pawpsdc">  43112.45544455 </i>
    <i name="pawaedc"> -41079.41300390 </i>
    <i name="eentropy">     -0.15008831 </i>
    <i name="bandstr">   1346.32370774 </i>
    <i name="atom">  45117.89144060 </i>
    <i name="e_fr_energy">   3631.90241053 </i>
    <i name="e_wo_entrp">   3632.05249884 </i>
    <i name="e_0_energy">   3631.97745468 </i>
   </energy>
  </scstep>
  <scstep>
   <time name="dav">    9.92    9.95</time>
   <time name="total">    9.92    9.95</time>
   <dipole>
    <v name="dipole">      0.00000000       0.00000000       0.00009582 </v>
    <i name="Tr[quadrupol]"> -11108.22269370 </i>
    <i name="Echarged">      0.00000000 </i>
    <i name="Edipol_quadrupol">      0.00000000 </i>
    <i name="Eion">      0.00000000 </i>
   </dipole>
   <energy>
    <i name="e_fr_energy">     53.34552648 </i>
    <i name="e_wo_entrp">     53.49002200 </i>
    <i name="e_0_energy">     53.41777424 </i>
   </energy>
  </scstep>
  <scstep>
   <time name="dav">    9.65    9.68</time>
   <time name="total">    9.65    9.69</time>
   <dipole>
    <v name="dipole">      0.00000000       0.00000000       0.00009582 </v>
    <i name="Tr[quadrupol]"> -11108.22269370 </i>
    <i name="Echarged">      0.00000000 </i>
    <i name="Edipol_quadrupol">      0.00000000 </i>
    <i name="Eion">      0.00000000 </i>
   </dipole>
   <energy>
    <i name="e_fr_energy">   -251.79158483 </i>
    <i name="e_wo_entrp">   -251.52270149 </i>
    <i name="e_0_energy">   -251.65714316 </i>
   </energy>
  </scstep>
  <scstep>
   <time name="dav">    9.48    9.50</time>
   <time name="total">    9.48    9.51</time>
   <dipole>
    <v name="dipole">      0.00000000       0.00000000       0.00009582 </v>
    <i name="Tr[quadrupol]"> -11108.22269370 </i>
    <i name="Echarged">      0.00000000 </i>
    <i name="Edipol_quadrupol">      0.00000000 </i>
    <i name="Eion">      0.00000000 </i>
   </dipole>
   <energy>
    <i name="e_fr_energy">   -262.97199022 </i>
    <i name="e_wo_entrp">   -262.68190417 </i>
    <i name="e_0_energy">   -262.82694720 </i>
   </energy>
  </scstep>
  <scstep>
   <time name="dav">    9.64    9.75</time>
   <time name="total">    9.93   10.04</time>
   <dipole>
    <v name="dipole">      0.00000000       0.00000000       0.00009582 </v>
    <i name="Tr[quadrupol]"> -11108.22269370 </i>
    <i name="Echarged">      0.00000000 </i>
    <i name="Edipol_quadrupol">      0.00000000 </i>
    <i name="Eion">      0.00000000 </i>
   </dipole>
   <energy>
    <i name="e_fr_energy">   -263.27550850 </i>
    <i name="e_wo_entrp">   -262.98459055 </i>
    <i name="e_0_energy">   -263.13004953 </i>
   </energy>
  </scstep>
  <scstep>
   <time name="diag">    1.55    1.56</time>
   <time name="diis">    4.20    4.21</time>
   <time name="orth">    0.40    0.40</time>
   <time name="total">    6.50    6.52</time>
   <dipole>
    <v name="dipole">      0.00000000       0.00000000      -0.21761121 </v>
    <i name="Tr[quadrupol]"> -11103.80365600 </i>
    <i name="Echarged">      0.00000000 </i>
    <i name="Edipol_quadrupol">      0.00000000 </i>
    <i name="Eion">      0.00000000 </i>
   </dipole>
   <energy>
    <i name="e_fr_energy">   -252.89351399 </i>
    <i name="e_wo_entrp">   -252.55702009 </i>
    <i name="e_0_energy">   -252.72526704 </i>
   </energy>
  </scstep>
  <scstep>
   <time name="diag">    1.55    1.55</time>
   <time name="diis">    4.23    4.24</time>
   <time name="orth">    0.40    0.40</time>
   <time name="total">    6.51    6.54</time>
   <dipole>
    <v name="dipole">      0.00000000       0.00000000       1.38919330 </v>
    <i name="Tr[quadrupol]"> -11106.81095974 </i>
    <i name="Echarged">      0.00000000 </i>
    <i name="Edipol_quadrupol">      0.00000000 </i>
    <i name="Eion">      0.00000000 </i>
   </dipole>
   <energy>
    <i name="e_fr_energy">   -246.58865751 </i>
    <i name="e_wo_entrp">   -246.40394674 </i>
    <i name="e_0_energy">   -246.49630212 </i>
   </energy>
  </scstep>
  <scstep>
   <time name="diag">    1.55    1.55</time>
   <time name="diis">    4.16    4.17</time>
   <time name="orth">    0.40    0.40</time>
   <time name="total">    6.45    6.47</time>
   <dipole>
    <v name="dipole">      0.00000000       0.00000000      -2.87611052 </v>
    <i name="Tr[quadrupol]"> -11106.09974316 </i>
    <i name="Echarged">      0.00000000 </i>
    <i name="Edipol_quadrupol">      0.00000000 </i>
    <i name="Eion">      0.00000000 </i>
   </dipole>
   <energy>
    <i name="e_fr_energy">   -330.86560735 </i>
    <i name="e_wo_entrp">   -330.58923004 </i>
    <i name="e_0_energy">   -330.72741869 </i>
   </energy>
  </scstep>
  <scstep>
   <time name="diag">    1.54    1.55</time>
   <time name="diis">    4.27    4.28</time>
   <time name="orth">    0.40    0.40</time>
   <time name="total">    6.56    6.58</time>
   <dipole>
    <v name="dipole">      0.00000000       0.00000000       0.23416086 </v>
    <i name="Tr[quadrupol]"> -11111.81427000 </i>
    <i name="Echarged">      0.00000000 </i>
    <i name="Edipol_quadrupol">      0.00000000 </i>
    <i name="Eion">      0.00000000 </i>
   </dipole>
   <energy>
    <i name="e_fr_energy">   -285.26278585 </i>
    <i name="e_wo_entrp">   -285.04841995 </i>
    <i name="e_0_energy">   -285.15560290 </i>
   </energy>
  </scstep>
  <scstep>
   <time name="diag">    1.56    1.56</time>
   <time name="diis">    4.22    4.23</time>
   <time name="orth">    0.40    0.40</time>
   <time name="total">    6.51    6.53</time>
   <dipole>
    <v name="dipole">      0.00000000       0.00000000       0.43649751 </v>
    <i name="Tr[quadrupol]"> -11107.67519182 </i>
    <i name="Echarged">      0.00000000 </i>
    <i name="Edipol_quadrupol">      0.00000000 </i>
    <i name="Eion">      0.00000000 </i>
   </dipole>
   <energy>
    <i name="e_fr_energy">   -252.78191827 </i>
    <i name="e_wo_entrp">   -252.64340427 </i>
    <i name="e_0_energy">   -252.71266127 </i>
   </energy>
  </scstep>
  <scstep>
   <time name="diag">    1.55    1.55</time>
   <time name="diis">    4.14    4.25</time>
   <time name="orth">    0.40    0.40</time>
   <time name="total">    6.42    6.54</time>
   <dipole>
    <v name="dipole">      0.00000000       0.00000000       0.31774096 </v>
    <i name="Tr[quadrupol]"> -11108.26031001 </i>
    <i name="Echarged">      0.00000000 </i>
    <i name="Edipol_quadrupol">      0.00000000 </i>
    <i name="Eion">      0.00000000 </i>
   </dipole>
   <energy>
    <i name="e_fr_energy">   -234.89845648 </i>
    <i name="e_wo_entrp">   -234.63478072 </i>
    <i name="e_0_energy">   -234.76661860 </i>
   </energy>
  </scstep>
  <scstep>
   <time name="diag">    1.54    1.55</time>
   <time name="diis">    4.28    4.29</time>
   <time name="orth">    0.40    0.40</time>
   <time name="total">    6.57    6.58</time>
   <dipole>
    <v name="dipole">      0.00000000       0.00000000       0.60632364 </v>
    <i name="Tr[quadrupol]"> -11107.33448295 </i>
    <i name="Echarged">      0.00000000 </i>
    <i name="Edipol_quadrupol">      0.00000000 </i>
    <i name="Eion">      0.00000000 </i>
   </dipole>
   <energy>
    <i name="e_fr_energy">   -232.21570135 </i>
    <i name="e_wo_entrp">   -232.02255737 </i>
    <i name="e_0_energy">   -232.11912936 </i>
   </energy>
  </scstep>
  <scstep>
   <time name="diag">    1.54    1.55</time>
   <time name="diis">    4.28    4.29</time>
   <time name="orth">    0.39    0.39</time>
   <time name="total">    6.56    6.58</time>
   <dipole>
    <v name="dipole">      0.00000000       0.00000000       0.56577668 </v>
    <i name="Tr[quadrupol]"> -11107.68448964 </i>
    <i name="Echarged">      0.00000000 </i>
    <i name="Edipol_quadrupol">      0.00000000 </i>
    <i name="Eion">      0.00000000 </i>
   </dipole>
   <energy>
    <i name="e_fr_energy">   -230.11422218 </i>
    <i name="e_wo_entrp">   -229.88944358 </i>
    <i name="e_0_energy">   -230.00183288 </i>
   </energy>
  </scstep>
  <scstep>
   <time name="diag">    1.55    1.55</time>
   <time name="diis">    4.25    4.26</time>
   <time name="orth">    0.39    0.40</time>
   <time name="total">    6.53    6.55</time>
   <dipole>
    <v name="dipole">      0.00000000       0.00000000       0.52102814 </v>
    <i name="Tr[quadrupol]"> -11107.51380292 </i>
    <i name="Echarged">      0.00000000 </i>
    <i name="Edipol_quadrupol">      0.00000000 </i>
    <i name="Eion">      0.00000000 </i>
   </dipole>
   <energy>
    <i name="e_fr_energy">   -229.64594346 </i>
    <i name="e_wo_entrp">   -229.40825728 </i>
    <i name="e_0_energy">   -229.52710037 </i>
   </energy>
  </scstep>
  <scstep>
   <time name="diag">    1.55    1.55</time>
   <time name="diis">    4.31    4.32</time>
   <time name="orth">    0.39    0.39</time>
   <time name="total">    6.59    6.61</time>
   <dipole>
    <v name="dipole">      0.00000000       0.00000000       0.47835343 </v>
    <i name="Tr[quadrupol]"> -11107.61922644 </i>
    <i name="Echarged">      0.00000000 </i>
    <i name="Edipol_quadrupol">      0.00000000 </i>
    <i name="Eion">      0.00000000 </i>
   </dipole>
   <energy>
    <i name="e_fr_energy">   -229.47761967 </i>
    <i name="e_wo_entrp">   -229.20294741 </i>
    <i name="e_0_energy">   -229.34028354 </i>
   </energy>
  </scstep>
  <scstep>
   <time name="diag">    1.56    1.57</time>
   <time name="diis">    4.15    4.16</time>
   <time name="orth">    0.39    0.39</time>
   <time name="total">    6.45    6.47</time>
   <dipole>
    <v name="dipole">      0.00000000       0.00000000       0.50221391 </v>
    <i name="Tr[quadrupol]"> -11107.64227914 </i>
    <i name="Echarged">      0.00000000 </i>
    <i name="Edipol_quadrupol">      0.00000000 </i>
    <i name="Eion">      0.00000000 </i>
   </dipole>
   <energy>
    <i name="e_fr_energy">   -229.33922159 </i>
    <i name="e_wo_entrp">   -229.07651486 </i>
    <i name="e_0_energy">   -229.20786822 </i>
   </energy>
  </scstep>
  <scstep>
   <time name="diag">    1.54    1.55</time>
   <time name="diis">    4.10    4.18</time>
   <time name="orth">    0.39    0.40</time>
   <time name="total">    6.37    6.48</time>
   <dipole>
    <v name="dipole">      0.00000000       0.00000000       0.53821097 </v>
    <i name="Tr[quadrupol]"> -11107.68067604 </i>
    <i name="Echarged">      0.00000000 </i>
    <i name="Edipol_quadrupol">      0.00000000 </i>
    <i name="Eion">      0.00000000 </i>
   </dipole>
   <energy>
    <i name="e_fr_energy">   -229.20994577 </i>
    <i name="e_wo_entrp">   -228.95854959 </i>
    <i name="e_0_energy">   -229.08424768 </i>
   </energy>
  </scstep>
  <scstep>
   <time name="diag">    1.55    1.56</time>
   <time name="diis">    4.24    4.26</time>
   <time name="orth">    0.39    0.39</time>
   <time name="total">    6.53    6.56</time>
   <dipole>
    <v name="dipole">      0.00000000       0.00000000       0.54027307 </v>
    <i name="Tr[quadrupol]"> -11107.80050185 </i>
    <i name="Echarged">      0.00000000 </i>
    <i name="Edipol_quadrupol">      0.00000000 </i>
    <i name="Eion">      0.00000000 </i>
   </dipole>
   <energy>
    <i name="e_fr_energy">   -229.14368303 </i>
    <i name="e_wo_entrp">   -228.87535542 </i>
    <i name="e_0_energy">   -229.00951922 </i>
   </energy>
  </scstep>
  <scstep>
   <time name="diag">    1.55    1.55</time>
   <time name="diis">    4.28    4.29</time>
   <time name="orth">    0.39    0.39</time>
   <time name="total">    6.56    6.58</time>
   <dipole>
    <v name="dipole">      0.00000000       0.00000000       0.55230171 </v>
    <i name="Tr[quadrupol]"> -11107.89066630 </i>
    <i name="Echarged">      0.00000000 </i>
    <i name="Edipol_quadrupol">      0.00000000 </i>
    <i name="Eion">      0.00000000 </i>
   </dipole>
   <energy>
    <i name="e_fr_energy">   -229.09700399 </i>
    <i name="e_wo_entrp">   -228.83065522 </i>
    <i name="e_0_energy">   -228.96382960 </i>
   </energy>
  </scstep>
  <scstep>
   <time name="diag">    1.55    1.55</time>
   <time name="diis">    4.19    4.21</time>
   <time name="orth">    0.39    0.39</time>
   <time name="total">    6.48    6.50</time>
   <dipole>
    <v name="dipole">      0.00000000       0.00000000       0.55993911 </v>
    <i name="Tr[quadrupol]"> -11107.95423268 </i>
    <i name="Echarged">      0.00000000 </i>
    <i name="Edipol_quadrupol">      0.00000000 </i>
    <i name="Eion">      0.00000000 </i>
   </dipole>
   <energy>
    <i name="e_fr_energy">   -229.09628215 </i>
    <i name="e_wo_entrp">   -228.82782027 </i>
    <i name="e_0_energy">   -228.96205121 </i>
   </energy>
  </scstep>
  <scstep>
   <time name="diag">    1.54    1.54</time>
   <time name="diis">    4.25    4.26</time>
   <time name="orth">    0.39    0.39</time>
   <time name="total">    6.53    6.55</time>
   <dipole>
    <v name="dipole">      0.00000000       0.00000000       0.56700430 </v>
    <i name="Tr[quadrupol]"> -11108.02167536 </i>
    <i name="Echarged">      0.00000000 </i>
    <i name="Edipol_quadrupol">      0.00000000 </i>
    <i name="Eion">      0.00000000 </i>
   </dipole>
   <energy>
    <i name="e_fr_energy">   -229.09254869 </i>
    <i name="e_wo_entrp">   -228.82322586 </i>
    <i name="e_0_energy">   -228.95788728 </i>
   </energy>
  </scstep>
  <scstep>
   <time name="diag">    1.55    1.55</time>
   <time name="diis">    4.29    4.30</time>
   <time name="orth">    0.39    0.39</time>
   <time name="total">    6.56    6.59</time>
   <dipole>
    <v name="dipole">      0.00000000       0.00000000       0.57988124 </v>
    <i name="Tr[quadrupol]"> -11108.12864652 </i>
    <i name="Echarged">      0.00000000 </i>
    <i name="Edipol_quadrupol">      0.00000000 </i>
    <i name="Eion">      0.00000000 </i>
   </dipole>
   <energy>
    <i name="e_fr_energy">   -229.09197726 </i>
    <i name="e_wo_entrp">   -228.82502143 </i>
    <i name="e_0_energy">   -228.95849934 </i>
   </energy>
  </scstep>
  <scstep>
   <time name="diag">    1.54    1.55</time>
   <time name="diis">    4.27    4.30</time>
   <time name="orth">    0.38    0.42</time>
   <time name="total">    6.55    6.65</time>
   <dipole>
    <v name="dipole">      0.00000000       0.00000000       0.59466743 </v>
    <i name="Tr[quadrupol]"> -11108.23068189 </i>
    <i name="Echarged">      0.00000000 </i>
    <i name="Edipol_quadrupol">      0.00000000 </i>
    <i name="Eion">      0.00000000 </i>
   </dipole>
   <energy>
    <i name="e_fr_energy">   -229.08966260 </i>
    <i name="e_wo_entrp">   -228.82304818 </i>
    <i name="e_0_energy">   -228.95635539 </i>
   </energy>
  </scstep>
  <scstep>
   <time name="diag">    1.54    1.55</time>
   <time name="diis">    4.19    4.20</time>
   <time name="orth">    0.39    0.39</time>
   <time name="total">    6.47    6.49</time>
   <dipole>
    <v name="dipole">      0.00000000       0.00000000       0.60221053 </v>
    <i name="Tr[quadrupol]"> -11108.26873674 </i>
    <i name="Echarged">      0.00000000 </i>
    <i name="Edipol_quadrupol">      0.00000000 </i>
    <i name="Eion">      0.00000000 </i>
   </dipole>
   <energy>
    <i name="e_fr_energy">   -229.08953404 </i>
    <i name="e_wo_entrp">   -228.82398997 </i>
    <i name="e_0_energy">   -228.95676201 </i>
   </energy>
  </scstep>
  <scstep>
   <time name="diag">    1.53    1.54</time>
   <time name="diis">    4.19    4.20</time>
   <time name="orth">    0.39    0.39</time>
   <time name="total">    6.46    6.48</time>
   <dipole>
    <v name="dipole">      0.00000000       0.00000000       0.61022830 </v>
    <i name="Tr[quadrupol]"> -11108.30980114 </i>
    <i name="Echarged">      0.00000000 </i>
    <i name="Edipol_quadrupol">      0.00000000 </i>
    <i name="Eion">      0.00000000 </i>
   </dipole>
   <energy>
    <i name="e_fr_energy">   -229.08979920 </i>
    <i name="e_wo_entrp">   -228.82506696 </i>
    <i name="e_0_energy">   -228.95743308 </i>
   </energy>
  </scstep>
  <scstep>
   <time name="diag">    1.55    1.55</time>
   <time name="diis">    4.26    4.28</time>
   <time name="orth">    0.39    0.39</time>
   <time name="total">    6.54    6.57</time>
   <dipole>
    <v name="dipole">      0.00000000       0.00000000       0.61426088 </v>
    <i name="Tr[quadrupol]"> -11108.34131463 </i>
    <i name="Echarged">      0.00000000 </i>
    <i name="Edipol_quadrupol">      0.00000000 </i>
    <i name="Eion">      0.00000000 </i>
   </dipole>
   <energy>
    <i name="e_fr_energy">   -229.08992655 </i>
    <i name="e_wo_entrp">   -228.82452158 </i>
    <i name="e_0_energy">   -228.95722406 </i>
   </energy>
  </scstep>
  <scstep>
   <time name="diag">    1.54    1.55</time>
   <time name="diis">    4.27    4.28</time>
   <time name="orth">    0.39    0.39</time>
   <time name="total">    6.55    6.57</time>
   <dipole>
    <v name="dipole">      0.00000000       0.00000000       0.62124823 </v>
    <i name="Tr[quadrupol]"> -11108.39815309 </i>
    <i name="Echarged">      0.00000000 </i>
    <i name="Edipol_quadrupol">      0.00000000 </i>
    <i name="Eion">      0.00000000 </i>
   </dipole>
   <energy>
    <i name="e_fr_energy">   -229.09024291 </i>
    <i name="e_wo_entrp">   -228.82439196 </i>
    <i name="e_0_energy">   -228.95731743 </i>
   </energy>
  </scstep>
  <scstep>
   <time name="diag">    1.54    1.55</time>
   <time name="diis">    4.24    4.25</time>
   <time name="orth">    0.39    0.39</time>
   <time name="total">    6.52    6.54</time>
   <dipole>
    <v name="dipole">      0.00000000       0.00000000       0.62748198 </v>
    <i name="Tr[quadrupol]"> -11108.43377715 </i>
    <i name="Echarged">      0.00000000 </i>
    <i name="Edipol_quadrupol">      0.00000000 </i>
    <i name="Eion">      0.00000000 </i>
   </dipole>
   <energy>
    <i name="e_fr_energy">   -229.09043133 </i>
    <i name="e_wo_entrp">   -228.82469594 </i>
    <i name="e_0_energy">   -228.95756364 </i>
   </energy>
  </scstep>
  <scstep>
   <time name="diag">    1.54    1.55</time>
   <time name="diis">    4.20    4.21</time>
   <time name="orth">    0.39    0.39</time>
   <time name="total">    6.48    6.50</time>
   <dipole>
    <v name="dipole">      0.00000000       0.00000000       0.63214437 </v>
    <i name="Tr[quadrupol]"> -11108.46337054 </i>
    <i name="Echarged">      0.00000000 </i>
    <i name="Edipol_quadrupol">      0.00000000 </i>
    <i name="Eion">      0.00000000 </i>
   </dipole>
   <energy>
    <i name="e_fr_energy">   -229.09061281 </i>
    <i name="e_wo_entrp">   -228.82482317 </i>
    <i name="e_0_energy">   -228.95771799 </i>
   </energy>
  </scstep>
  <scstep>
   <time name="diag">    1.52    1.60</time>
   <time name="diis">    4.10    4.11</time>
   <time name="orth">    0.39    0.39</time>
   <time name="total">    6.36    6.46</time>
   <dipole>
    <v name="dipole">      0.00000000       0.00000000       0.63746088 </v>
    <i name="Tr[quadrupol]"> -11108.49301122 </i>
    <i name="Echarged">      0.00000000 </i>
    <i name="Edipol_quadrupol">      0.00000000 </i>
    <i name="Eion">      0.00000000 </i>
   </dipole>
   <energy>
    <i name="e_fr_energy">   -229.09082028 </i>
    <i name="e_wo_entrp">   -228.82513223 </i>
    <i name="e_0_energy">   -228.95797626 </i>
   </energy>
  </scstep>
  <scstep>
   <time name="diag">    1.55    1.55</time>
   <time name="diis">    4.21    4.22</time>
   <time name="orth">    0.39    0.39</time>
   <time name="total">    6.49    6.51</time>
   <dipole>
    <v name="dipole">      0.00000000       0.00000000       0.64771077 </v>
    <i name="Tr[quadrupol]"> -11108.55046904 </i>
    <i name="Echarged">      0.00000000 </i>
    <i name="Edipol_quadrupol">      0.00000000 </i>
    <i name="Eion">      0.00000000 </i>
   </dipole>
   <energy>
    <i name="e_fr_energy">   -229.09121725 </i>
    <i name="e_wo_entrp">   -228.82547605 </i>
    <i name="e_0_energy">   -228.95834665 </i>
   </energy>
  </scstep>
  <scstep>
   <time name="diag">    1.54    1.54</time>
   <time name="diis">    4.22    4.23</time>
   <time name="orth">    0.40    0.40</time>
   <time name="total">    6.50    6.52</time>
   <dipole>
    <v name="dipole">      0.00000000       0.00000000       0.65656398 </v>
    <i name="Tr[quadrupol]"> -11108.59833720 </i>
    <i name="Echarged">      0.00000000 </i>
    <i name="Edipol_quadrupol">      0.00000000 </i>
    <i name="Eion">      0.00000000 </i>
   </dipole>
   <energy>
    <i name="e_fr_energy">   -229.09150591 </i>
    <i name="e_wo_entrp">   -228.82569269 </i>
    <i name="e_0_energy">   -228.95859930 </i>
   </energy>
  </scstep>
  <scstep>
   <time name="diag">    1.54    1.55</time>
   <time name="diis">    3.56    3.56</time>
   <time name="orth">    0.39    0.39</time>
   <time name="total">    5.84    5.86</time>
   <dipole>
    <v name="dipole">      0.00000000       0.00000000       0.66206110 </v>
    <i name="Tr[quadrupol]"> -11108.62461277 </i>
    <i name="Echarged">      0.00000000 </i>
    <i name="Edipol_quadrupol">      0.00000000 </i>
    <i name="Eion">      0.00000000 </i>
   </dipole>
   <energy>
    <i name="e_fr_energy">   -229.09163922 </i>
    <i name="e_wo_entrp">   -228.82581818 </i>
    <i name="e_0_energy">   -228.95872870 </i>
   </energy>
  </scstep>
  <scstep>
   <time name="diag">    1.54    1.54</time>
   <time name="diis">    3.18    3.19</time>
   <time name="orth">    0.39    0.39</time>
   <time name="total">    5.46    5.47</time>
   <dipole>
    <v name="dipole">      0.00000000       0.00000000       0.66690500 </v>
    <i name="Tr[quadrupol]"> -11108.64478120 </i>
    <i name="Echarged">      0.00000000 </i>
    <i name="Edipol_quadrupol">      0.00000000 </i>
    <i name="Eion">      0.00000000 </i>
   </dipole>
   <energy>
    <i name="e_fr_energy">   -229.09174097 </i>
    <i name="e_wo_entrp">   -228.82588965 </i>
    <i name="e_0_energy">   -228.95881531 </i>
   </energy>
  </scstep>
  <scstep>
   <time name="diag">    1.54    1.54</time>
   <time name="diis">    3.03    3.04</time>
   <time name="orth">    0.39    0.39</time>
   <time name="total">    5.30    5.32</time>
   <dipole>
    <v name="dipole">      0.00000000       0.00000000       0.67121158 </v>
    <i name="Tr[quadrupol]"> -11108.66128796 </i>
    <i name="Echarged">      0.00000000 </i>
    <i name="Edipol_quadrupol">      0.00000000 </i>
    <i name="Eion">      0.00000000 </i>
   </dipole>
   <energy>
    <i name="e_fr_energy">   -229.09181281 </i>
    <i name="e_wo_entrp">   -228.82594546 </i>
    <i name="e_0_energy">   -228.95887913 </i>
   </energy>
  </scstep>
  <scstep>
   <time name="diag">    1.55    1.55</time>
   <time name="diis">    2.83    2.92</time>
   <time name="orth">    0.38    0.40</time>
   <time name="total">    5.11    5.23</time>
   <dipole>
    <v name="dipole">      0.00000000       0.00000000       0.67555419 </v>
    <i name="Tr[quadrupol]"> -11108.67600055 </i>
    <i name="Echarged">      0.00000000 </i>
    <i name="Edipol_quadrupol">      0.00000000 </i>
    <i name="Eion">      0.00000000 </i>
   </dipole>
   <energy>
    <i name="e_fr_energy">   -229.09186813 </i>
    <i name="e_wo_entrp">   -228.82603995 </i>
    <i name="e_0_energy">   -228.95895404 </i>
   </energy>
  </scstep>
  <scstep>
   <time name="diag">    1.54    1.54</time>
   <time name="diis">    2.57    2.59</time>
   <time name="orth">    0.39    0.39</time>
   <time name="total">    4.84    4.87</time>
   <dipole>
    <v name="dipole">      0.00000000       0.00000000       0.67690682 </v>
    <i name="Tr[quadrupol]"> -11108.67993854 </i>
    <i name="Echarged">      0.00000000 </i>
    <i name="Edipol_quadrupol">      0.00000000 </i>
    <i name="Eion">      0.00000000 </i>
   </dipole>
   <energy>
    <i name="e_fr_energy">   -229.09188489 </i>
    <i name="e_wo_entrp">   -228.82605670 </i>
    <i name="e_0_energy">   -228.95897080 </i>
   </energy>
  </scstep>
  <scstep>
   <time name="diag">    1.52    1.55</time>
   <time name="diis">    2.54    2.55</time>
   <time name="orth">    0.39    0.39</time>
   <time name="total">    4.80    4.83</time>
   <dipole>
    <v name="dipole">      0.00000000       0.00000000       0.67908350 </v>
    <i name="Tr[quadrupol]"> -11108.68471165 </i>
    <i name="Echarged">      0.00000000 </i>
    <i name="Edipol_quadrupol">      0.00000000 </i>
    <i name="Eion">      0.00000000 </i>
   </dipole>
   <energy>
    <i name="e_fr_energy">   -229.09191764 </i>
    <i name="e_wo_entrp">   -228.82609305 </i>
    <i name="e_0_energy">   -228.95900534 </i>
   </energy>
  </scstep>
  <scstep>
   <time name="diag">    1.54    1.54</time>
   <time name="diis">    2.58    2.59</time>
   <time name="orth">    0.39    0.39</time>
   <time name="total">    4.86    4.87</time>
   <dipole>
    <v name="dipole">      0.00000000       0.00000000       0.68147908 </v>
    <i name="Tr[quadrupol]"> -11108.68959243 </i>
    <i name="Echarged">      0.00000000 </i>
    <i name="Edipol_quadrupol">      0.00000000 </i>
    <i name="Eion">      0.00000000 </i>
   </dipole>
   <energy>
    <i name="e_fr_energy">   -229.09194984 </i>
    <i name="e_wo_entrp">   -228.82611076 </i>
    <i name="e_0_energy">   -228.95903030 </i>
   </energy>
  </scstep>
  <scstep>
   <time name="diag">    1.54    1.55</time>
   <time name="diis">    2.58    2.59</time>
   <time name="orth">    0.39    0.39</time>
   <time name="total">    4.86    4.87</time>
   <dipole>
    <v name="dipole">      0.00000000       0.00000000       0.68356270 </v>
    <i name="Tr[quadrupol]"> -11108.69314593 </i>
    <i name="Echarged">      0.00000000 </i>
    <i name="Edipol_quadrupol">      0.00000000 </i>
    <i name="Eion">      0.00000000 </i>
   </dipole>
   <energy>
    <i name="e_fr_energy">   -229.09197302 </i>
    <i name="e_wo_entrp">   -228.82612948 </i>
    <i name="e_0_energy">   -228.95905125 </i>
   </energy>
  </scstep>
  <scstep>
   <time name="diag">    1.54    1.54</time>
   <time name="diis">    2.37    2.37</time>
   <time name="orth">    0.39    0.39</time>
   <time name="total">    4.65    4.66</time>
   <dipole>
    <v name="dipole">      0.00000000       0.00000000       0.68446027 </v>
    <i name="Tr[quadrupol]"> -11108.69452398 </i>
    <i name="Echarged">      0.00000000 </i>
    <i name="Edipol_quadrupol">      0.00000000 </i>
    <i name="Eion">      0.00000000 </i>
   </dipole>
   <energy>
    <i name="e_fr_energy">   -229.09198086 </i>
    <i name="e_wo_entrp">   -228.82613689 </i>
    <i name="e_0_energy">   -228.95905888 </i>
   </energy>
  </scstep>
  <scstep>
   <time name="diag">    1.54    1.55</time>
   <time name="diis">    2.14    2.15</time>
   <time name="orth">    0.39    0.39</time>
   <time name="total">    4.42    4.43</time>
   <dipole>
    <v name="dipole">      0.00000000       0.00000000       0.68505498 </v>
    <i name="Tr[quadrupol]"> -11108.69535262 </i>
    <i name="Echarged">      0.00000000 </i>
    <i name="Edipol_quadrupol">      0.00000000 </i>
    <i name="Eion">      0.00000000 </i>
   </dipole>
   <energy>
    <i name="e_fr_energy">   -229.09198555 </i>
    <i name="e_wo_entrp">   -228.82614406 </i>
    <i name="e_0_energy">   -228.95906481 </i>
   </energy>
  </scstep>
  <scstep>
   <time name="diag">    1.54    1.54</time>
   <time name="diis">    2.02    2.03</time>
   <time name="orth">    0.39    0.39</time>
   <time name="total">    4.30    4.31</time>
   <dipole>
    <v name="dipole">      0.00000000       0.00000000       0.68536779 </v>
    <i name="Tr[quadrupol]"> -11108.69580867 </i>
    <i name="Echarged">      0.00000000 </i>
    <i name="Edipol_quadrupol">      0.00000000 </i>
    <i name="Eion">      0.00000000 </i>
   </dipole>
   <energy>
    <i name="e_fr_energy">   -229.09198771 </i>
    <i name="e_wo_entrp">   -228.82614671 </i>
    <i name="e_0_energy">   -228.95906721 </i>
   </energy>
  </scstep>
  <scstep>
   <time name="diag">    1.54    1.54</time>
   <time name="diis">    2.00    2.01</time>
   <time name="orth">    0.39    0.39</time>
   <time name="total">    4.29    4.30</time>
   <dipole>
    <v name="dipole">      0.00000000       0.00000000       0.68560364 </v>
    <i name="Tr[quadrupol]"> -11108.69624085 </i>
    <i name="Echarged">      0.00000000 </i>
    <i name="Edipol_quadrupol">      0.00000000 </i>
    <i name="Eion">      0.00000000 </i>
   </dipole>
   <energy>
    <i name="e_fr_energy">   -229.09198902 </i>
    <i name="e_wo_entrp">   -228.82614532 </i>
    <i name="e_0_energy">   -228.95906717 </i>
   </energy>
  </scstep>
  <scstep>
   <time name="diag">    1.53    1.55</time>
   <time name="diis">    1.67    1.75</time>
   <time name="orth">    0.39    0.39</time>
   <time name="total">    3.65    3.75</time>
   <dipole>
    <v name="dipole">      0.00000000       0.00000000       0.68571894 </v>
    <i name="Tr[quadrupol]"> -11108.69650348 </i>
    <i name="Echarged">      0.00000000 </i>
    <i name="Edipol_quadrupol">      0.00000000 </i>
    <i name="Eion">      0.00000000 </i>
   </dipole>
   <energy>
    <i name="alphaZ">    869.49035428 </i>
    <i name="ewald"> 240116.39647119 </i>
    <i name="hartreedc">-285299.26072907 </i>
    <i name="XCdc">   -127.29772419 </i>
    <i name="pawpsdc">  52149.80036516 </i>
    <i name="pawaedc"> -50243.25473034 </i>
    <i name="eentropy">     -0.26584508 </i>
    <i name="bandstr">  -2812.59159203 </i>
    <i name="atom">  45117.89144060 </i>
    <i name="e_fr_energy">   -229.09198948 </i>
    <i name="e_wo_entrp">   -228.82614440 </i>
    <i name="e_0_energy">   -228.95906694 </i>
   </energy>
  </scstep>
  <structure>
   <crystal>
    <varray name="basis" >
     <v>      11.00258152       0.00000000       0.00000000 </v>
     <v>       5.50129076       9.52851510       0.00000000 </v>
     <v>       0.00000000       0.00000000      26.19178509 </v>
    </varray>
    <i name="volume">   2745.90128299 </i>
    <varray name="rec_basis" >
     <v>       0.09088776      -0.05247407       0.00000000 </v>
     <v>       0.00000000       0.10494815       0.00000000 </v>
     <v>       0.00000000       0.00000000       0.03817991 </v>
    </varray>
   </crystal>
   <varray name="positions" >
    <v>       0.33333333       0.83333333       0.38179910 </v>
    <v>       0.58333333       0.08333333       0.38179910 </v>
    <v>       0.22438663       0.26460280       0.60417433 </v>
    <v>       0.83333333       0.33333333       0.38179910 </v>
    <v>       0.99156534       0.00504193       0.56676427 </v>
    <v>       0.74869553       0.00087891       0.57210504 </v>
    <v>       0.50190989       0.75441622       0.56133409 </v>
    <v>       0.58333333       0.83333333       0.38179910 </v>
    <v>       0.74337882       0.50648091       0.56142612 </v>
    <v>       0.66790530       0.91493883       0.47690033 </v>
    <v>       0.08333333       0.58333333       0.38179910 </v>
    <v>       0.00114705       0.49891608       0.57320247 </v>
    <v>       0.51091101       0.48949816       0.56596173 </v>
    <v>       0.33333333       0.58333333       0.38179910 </v>
    <v>       0.92098443       0.91186554       0.47589998 </v>
    <v>       0.50178704       0.24188153       0.56725046 </v>
    <v>       0.41561627       0.41325928       0.47712280 </v>
    <v>       0.51846421       0.98650903       0.58763104 </v>
    <v>       0.16368592       0.16628278       0.47224669 </v>
    <v>       0.25610880       0.99620550       0.56113846 </v>
    <v>       0.41400016       0.16219272       0.47965108 </v>
    <v>       0.33333333       0.33333333       0.38179910 </v>
    <v>       0.16573263       0.41573556       0.48644011 </v>
    <v>       0.41947406       0.66389547       0.47483717 </v>
    <v>       0.37086241       0.31323902       0.63351316 </v>
    <v>       0.09803259       0.82659405       0.61631341 </v>
    <v>       0.33979012       0.06042715       0.63082683 </v>
    <v>       0.07408622       0.09076633       0.61810515 </v>
    <v>       0.06336479       0.61106280       0.62744163 </v>
    <v>       0.82365315       0.32522720       0.60930158 </v>
    <v>       0.80566733       0.61750191       0.61696237 </v>
    <v>       0.34781008       0.59772426       0.62037366 </v>
    <v>       0.16655257       0.66455126       0.47429563 </v>
    <v>       0.16736941       0.91252824       0.47336322 </v>
    <v>       0.26067530       0.74645447       0.56690733 </v>
    <v>       0.75328069       0.75635347       0.56227069 </v>
    <v>       0.33333333       0.08333333       0.38179910 </v>
    <v>       0.83333333       0.83333333       0.38179910 </v>
    <v>       0.58333333       0.33333333       0.38179910 </v>
    <v>       0.99799807       0.75185995       0.57223614 </v>
    <v>       0.08333333       0.83333333       0.38179910 </v>
    <v>       0.58333333       0.58333333       0.38179910 </v>
    <v>       0.25378243       0.49417757       0.59370388 </v>
    <v>       0.74985399       0.24554663       0.55910468 </v>
    <v>       0.00907089       0.24838651       0.56965302 </v>
    <v>       0.92099732       0.41376481       0.47545374 </v>
    <v>       0.41681268       0.91562300       0.47309373 </v>
    <v>       0.08333333       0.33333333       0.38179910 </v>
    <v>       0.67318412       0.66304407       0.47165049 </v>
    <v>       0.83333333       0.08333333       0.38179910 </v>
    <v>       0.66620452       0.16498316       0.47512704 </v>
    <v>       0.83333333       0.58333333       0.38179910 </v>
    <v>       0.91735406       0.16368400       0.47153152 </v>
    <v>       0.66842234       0.41306002       0.47216996 </v>
    <v>       0.91934966       0.66347274       0.47373226 </v>
    <v>       0.08333333       0.08333333       0.38179910 </v>
   </varray>
  </structure>
  <varray name="forces" >
   <v>      -0.15410520       0.22153411      -0.37237391 </v>
   <v>       0.27079018       0.04411076      -0.21214713 </v>
   <v>      -0.00430404      -0.64063013       0.25642373 </v>
   <v>       0.03889595       0.05886586      -0.10838603 </v>
   <v>      -0.20107635      -0.23306879      -0.01332664 </v>
   <v>       0.18381894      -0.08996164      -0.11214296 </v>
   <v>       0.25891898      -0.02317931       0.14796494 </v>
   <v>       0.08683328      -0.21601899      -0.25937329 </v>
   <v>       0.12193653       0.09844048      -0.03048808 </v>
   <v>      -0.04751095      -0.11581372      -0.11680361 </v>
   <v>      -0.34586120       0.02380078      -0.05193078 </v>
   <v>      -0.01541913      -0.24164886       0.01473411 </v>
   <v>      -0.18616195      -0.01586291       0.04641296 </v>
   <v>       0.12066481      -0.01880040      -0.28762747 </v>
   <v>      -0.04639879       0.11527965      -0.10311346 </v>
   <v>       0.14476260       0.07437877       0.04257801 </v>
   <v>       0.00801460       0.10210402      -0.19893415 </v>
   <v>      -0.15623117      -0.04807994       0.25383490 </v>
   <v>      -0.01379117      -0.02532877      -0.01648988 </v>
   <v>       0.22431747       0.06412968       0.05677221 </v>
   <v>      -0.00118257      -0.03904137      -0.17797100 </v>
   <v>      -0.22442753      -0.13321878      -0.13309545 </v>
   <v>       0.04885067       0.05070691      -0.10060920 </v>
   <v>      -0.14039994       0.02354539      -0.23831667 </v>
   <v>      -0.02987184       0.04109045       0.00678620 </v>
   <v>       0.01912318      -0.02562445      -0.53286379 </v>
   <v>      -0.17485273       0.21635936      -0.11078793 </v>
   <v>       0.18823606       0.20932684      -0.08004766 </v>
   <v>       0.12903180       0.05739230      -0.31159175 </v>
   <v>      -0.11431930      -0.12520434       0.11940915 </v>
   <v>      -0.08048116       0.18991051      -0.13994153 </v>
   <v>       0.02354615      -0.10455808      -0.07414774 </v>
   <v>       0.04745549      -0.07984788       0.22119697 </v>
   <v>       0.09287516       0.05223740       0.16030348 </v>
   <v>      -0.28313489       0.07042228       0.08001661 </v>
   <v>      -0.19642738      -0.21268795       0.08097998 </v>
   <v>      -0.12834008       0.15376307       0.18713752 </v>
   <v>       0.17355060       0.02624414       0.35306910 </v>
   <v>       0.16428000      -0.03718147       0.20585904 </v>
   <v>       0.07188356       0.08671121       0.20749919 </v>
   <v>      -0.10407889       0.30521773       0.21576086 </v>
   <v>       0.03227890      -0.12710006       0.15020912 </v>
   <v>      -0.07066054       0.30923957       0.48223525 </v>
   <v>       0.14735117       0.04013855       0.00522256 </v>
   <v>       0.12335417       0.24615947      -0.04191302 </v>
   <v>      -0.07966538       0.05412980      -0.08767557 </v>
   <v>       0.05658649       0.03375145      -0.08852480 </v>
   <v>       0.00707794       0.00814671       0.26208553 </v>
   <v>      -0.08617954      -0.03798770      -0.06855184 </v>
   <v>      -0.02981038      -0.18153615       0.29176182 </v>
   <v>       0.01344786      -0.01439421       0.01674929 </v>
   <v>       0.09140036      -0.08898308       0.19597938 </v>
   <v>      -0.02643954       0.07262182       0.05398830 </v>
   <v>       0.09492744       0.03288817      -0.05022744 </v>
   <v>       0.04793432      -0.08956152      -0.04776669 </v>
   <v>      -0.09101297      -0.11732676       0.05219924 </v>
  </varray>
  <energy>
   <i name="e_fr_energy">   -229.09198948 </i>
   <i name="e_wo_entrp">   -228.95906694 </i>
   <i name="e_0_energy">     -0.26584508 </i>
  </energy>
  <time name="totalsc">  288.55  290.26</time>
 </calculation>
 <calculation>
  <scstep>
   <time name="dav">    8.85    8.88</time>
   <time name="total">    9.20    9.23</time>
   <dipole>
    <v name="dipole">      0.00000000       0.00000000       0.68577617 </v>
    <i name="Tr[quadrupol]"> -11107.29383620 </i>
    <i name="Echarged">      0.00000000 </i>
    <i name="Edipol_quadrupol">      0.00000000 </i>
    <i name="Eion">      0.00000000 </i>
   </dipole>
   <energy>
    <i name="alphaZ">    869.49198003 </i>
    <i name="ewald"> 240077.38068720 </i>
    <i name="hartreedc">-285258.64812290 </i>
    <i name="XCdc">   -127.21292049 </i>
    <i name="pawpsdc">  52149.80093629 </i>
    <i name="pawaedc"> -50243.25530442 </i>
    <i name="eentropy">     -0.26101077 </i>
    <i name="bandstr">  -2814.31275335 </i>
    <i name="atom">  45117.89144060 </i>
    <i name="e_fr_energy">   -229.12506782 </i>
    <i name="e_wo_entrp">   -228.86405705 </i>
    <i name="e_0_energy">   -228.99456243 </i>
   </energy>
  </scstep>
  <scstep>
   <time name="diag">    1.55    1.55</time>
   <time name="diis">    4.23    4.24</time>
   <time name="orth">    0.39    0.39</time>
   <time name="total">    6.52    6.53</time>
   <dipole>
    <v name="dipole">      0.00000000       0.00000000       0.61978851 </v>
    <i name="Tr[quadrupol]"> -11107.32729155 </i>
    <i name="Echarged">      0.00000000 </i>
    <i name="Edipol_quadrupol">      0.00000000 </i>
    <i name="Eion">      0.00000000 </i>
   </dipole>
   <energy>
    <i name="e_fr_energy">   -229.25308425 </i>
    <i name="e_wo_entrp">   -228.96673531 </i>
    <i name="e_0_energy">   -229.10990978 </i>
   </energy>
  </scstep>
  <scstep>
   <time name="diag">    1.53    1.54</time>
   <time name="diis">    4.24    4.26</time>
   <time name="orth">    0.39    0.39</time>
   <time name="total">    6.50    6.53</time>
   <dipole>
    <v name="dipole">      0.00000000       0.00000000       0.67792423 </v>
    <i name="Tr[quadrupol]"> -11107.34598419 </i>
    <i name="Echarged">      0.00000000 </i>
    <i name="Edipol_quadrupol">      0.00000000 </i>
    <i name="Eion">      0.00000000 </i>
   </dipole>
   <energy>
    <i name="e_fr_energy">   -229.16438094 </i>
    <i name="e_wo_entrp">   -228.89850863 </i>
    <i name="e_0_energy">   -229.03144478 </i>
   </energy>
  </scstep>
  <scstep>
   <time name="diag">    1.55    1.55</time>
   <time name="diis">    4.22    4.24</time>
   <time name="orth">    0.39    0.39</time>
   <time name="total">    6.50    6.52</time>
   <dipole>
    <v name="dipole">      0.00000000       0.00000000       0.62494136 </v>
    <i name="Tr[quadrupol]"> -11107.30913388 </i>
    <i name="Echarged">      0.00000000 </i>
    <i name="Edipol_quadrupol">      0.00000000 </i>
    <i name="Eion">      0.00000000 </i>
   </dipole>
   <energy>
    <i name="e_fr_energy">   -229.20061230 </i>
    <i name="e_wo_entrp">   -228.92077557 </i>
    <i name="e_0_energy">   -229.06069394 </i>
   </energy>
  </scstep>
  <scstep>
   <time name="diag">    1.55    1.55</time>
   <time name="diis">    4.25    4.27</time>
   <time name="orth">    0.37    0.42</time>
   <time name="total">    6.53    6.61</time>
   <dipole>
    <v name="dipole">      0.00000000       0.00000000       0.66502166 </v>
    <i name="Tr[quadrupol]"> -11107.38410459 </i>
    <i name="Echarged">      0.00000000 </i>
    <i name="Edipol_quadrupol">      0.00000000 </i>
    <i name="Eion">      0.00000000 </i>
   </dipole>
   <energy>
    <i name="e_fr_energy">   -229.16577556 </i>
    <i name="e_wo_entrp">   -228.89525509 </i>
    <i name="e_0_energy">   -229.03051533 </i>
   </energy>
  </scstep>
  <scstep>
   <time name="diag">    1.54    1.56</time>
   <time name="diis">    4.20    4.21</time>
   <time name="orth">    0.39    0.39</time>
   <time name="total">    6.48    6.51</time>
   <dipole>
    <v name="dipole">      0.00000000       0.00000000       0.65428461 </v>
    <i name="Tr[quadrupol]"> -11107.35771272 </i>
    <i name="Echarged">      0.00000000 </i>
    <i name="Edipol_quadrupol">      0.00000000 </i>
    <i name="Eion">      0.00000000 </i>
   </dipole>
   <energy>
    <i name="e_fr_energy">   -229.16307188 </i>
    <i name="e_wo_entrp">   -228.89334208 </i>
    <i name="e_0_energy">   -229.02820698 </i>
   </energy>
  </scstep>
  <scstep>
   <time name="diag">    1.55    1.55</time>
   <time name="diis">    4.21    4.22</time>
   <time name="orth">    0.39    0.39</time>
   <time name="total">    6.48    6.50</time>
   <dipole>
    <v name="dipole">      0.00000000       0.00000000       0.66876498 </v>
    <i name="Tr[quadrupol]"> -11107.38450019 </i>
    <i name="Echarged">      0.00000000 </i>
    <i name="Edipol_quadrupol">      0.00000000 </i>
    <i name="Eion">      0.00000000 </i>
   </dipole>
   <energy>
    <i name="e_fr_energy">   -229.15865616 </i>
    <i name="e_wo_entrp">   -228.89128293 </i>
    <i name="e_0_energy">   -229.02496954 </i>
   </energy>
  </scstep>
  <scstep>
   <time name="diag">    1.55    1.56</time>
   <time name="diis">    4.19    4.20</time>
   <time name="orth">    0.39    0.39</time>
   <time name="total">    6.47    6.49</time>
   <dipole>
    <v name="dipole">      0.00000000       0.00000000       0.66885288 </v>
    <i name="Tr[quadrupol]"> -11107.37246421 </i>
    <i name="Echarged">      0.00000000 </i>
    <i name="Edipol_quadrupol">      0.00000000 </i>
    <i name="Eion">      0.00000000 </i>
   </dipole>
   <energy>
    <i name="e_fr_energy">   -229.15764951 </i>
    <i name="e_wo_entrp">   -228.89294492 </i>
    <i name="e_0_energy">   -229.02529722 </i>
   </energy>
  </scstep>
  <scstep>
   <time name="diag">    1.54    1.54</time>
   <time name="diis">    4.23    4.24</time>
   <time name="orth">    0.39    0.39</time>
   <time name="total">    6.50    6.52</time>
   <dipole>
    <v name="dipole">      0.00000000       0.00000000       0.66884011 </v>
    <i name="Tr[quadrupol]"> -11107.37830566 </i>
    <i name="Echarged">      0.00000000 </i>
    <i name="Edipol_quadrupol">      0.00000000 </i>
    <i name="Eion">      0.00000000 </i>
   </dipole>
   <energy>
    <i name="e_fr_energy">   -229.15751741 </i>
    <i name="e_wo_entrp">   -228.89211593 </i>
    <i name="e_0_energy">   -229.02481667 </i>
   </energy>
  </scstep>
  <scstep>
   <time name="diag">    1.54    1.55</time>
   <time name="diis">    4.23    4.24</time>
   <time name="orth">    0.39    0.39</time>
   <time name="total">    6.51    6.53</time>
   <dipole>
    <v name="dipole">      0.00000000       0.00000000       0.66903733 </v>
    <i name="Tr[quadrupol]"> -11107.37762605 </i>
    <i name="Echarged">      0.00000000 </i>
    <i name="Edipol_quadrupol">      0.00000000 </i>
    <i name="Eion">      0.00000000 </i>
   </dipole>
   <energy>
    <i name="e_fr_energy">   -229.15751084 </i>
    <i name="e_wo_entrp">   -228.89226062 </i>
    <i name="e_0_energy">   -229.02488573 </i>
   </energy>
  </scstep>
  <scstep>
   <time name="diag">    1.54    1.54</time>
   <time name="diis">    4.16    4.17</time>
   <time name="orth">    0.39    0.39</time>
   <time name="total">    6.43    6.45</time>
   <dipole>
    <v name="dipole">      0.00000000       0.00000000       0.66946987 </v>
    <i name="Tr[quadrupol]"> -11107.37510321 </i>
    <i name="Echarged">      0.00000000 </i>
    <i name="Edipol_quadrupol">      0.00000000 </i>
    <i name="Eion">      0.00000000 </i>
   </dipole>
   <energy>
    <i name="e_fr_energy">   -229.15748632 </i>
    <i name="e_wo_entrp">   -228.89257608 </i>
    <i name="e_0_energy">   -229.02503120 </i>
   </energy>
  </scstep>
  <scstep>
   <time name="diag">    1.52    1.61</time>
   <time name="diis">    4.17    4.18</time>
   <time name="orth">    0.39    0.40</time>
   <time name="total">    6.42    6.53</time>
   <dipole>
    <v name="dipole">      0.00000000       0.00000000       0.66945348 </v>
    <i name="Tr[quadrupol]"> -11107.37691323 </i>
    <i name="Echarged">      0.00000000 </i>
    <i name="Edipol_quadrupol">      0.00000000 </i>
    <i name="Eion">      0.00000000 </i>
   </dipole>
   <energy>
    <i name="e_fr_energy">   -229.15748593 </i>
    <i name="e_wo_entrp">   -228.89235050 </i>
    <i name="e_0_energy">   -229.02491822 </i>
   </energy>
  </scstep>
  <scstep>
   <time name="diag">    1.52    1.54</time>
   <time name="diis">    4.15    4.19</time>
   <time name="orth">    0.39    0.39</time>
   <time name="total">    6.41    6.47</time>
   <dipole>
    <v name="dipole">      0.00000000       0.00000000       0.66914732 </v>
    <i name="Tr[quadrupol]"> -11107.37651504 </i>
    <i name="Echarged">      0.00000000 </i>
    <i name="Edipol_quadrupol">      0.00000000 </i>
    <i name="Eion">      0.00000000 </i>
   </dipole>
   <energy>
    <i name="e_fr_energy">   -229.15748609 </i>
    <i name="e_wo_entrp">   -228.89252781 </i>
    <i name="e_0_energy">   -229.02500695 </i>
   </energy>
  </scstep>
  <scstep>
   <time name="diag">    1.55    1.55</time>
   <time name="diis">    2.74    2.74</time>
   <time name="orth">    0.39    0.39</time>
   <time name="total">    5.02    5.03</time>
   <dipole>
    <v name="dipole">      0.00000000       0.00000000       0.66911099 </v>
    <i name="Tr[quadrupol]"> -11107.37812866 </i>
    <i name="Echarged">      0.00000000 </i>
    <i name="Edipol_quadrupol">      0.00000000 </i>
    <i name="Eion">      0.00000000 </i>
   </dipole>
   <energy>
    <i name="e_fr_energy">   -229.15748897 </i>
    <i name="e_wo_entrp">   -228.89243237 </i>
    <i name="e_0_energy">   -229.02496067 </i>
   </energy>
  </scstep>
  <scstep>
   <time name="diag">    1.54    1.54</time>
   <time name="diis">    2.48    2.49</time>
   <time name="orth">    0.39    0.39</time>
   <time name="total">    4.76    4.77</time>
   <dipole>
    <v name="dipole">      0.00000000       0.00000000       0.66906181 </v>
    <i name="Tr[quadrupol]"> -11107.37860713 </i>
    <i name="Echarged">      0.00000000 </i>
    <i name="Edipol_quadrupol">      0.00000000 </i>
    <i name="Eion">      0.00000000 </i>
   </dipole>
   <energy>
    <i name="e_fr_energy">   -229.15749198 </i>
    <i name="e_wo_entrp">   -228.89251095 </i>
    <i name="e_0_energy">   -229.02500147 </i>
   </energy>
  </scstep>
  <scstep>
   <time name="diag">    1.54    1.55</time>
   <time name="diis">    2.50    2.51</time>
   <time name="orth">    0.39    0.39</time>
   <time name="total">    4.78    4.80</time>
   <dipole>
    <v name="dipole">      0.00000000       0.00000000       0.66899278 </v>
    <i name="Tr[quadrupol]"> -11107.37946855 </i>
    <i name="Echarged">      0.00000000 </i>
    <i name="Edipol_quadrupol">      0.00000000 </i>
    <i name="Eion">      0.00000000 </i>
   </dipole>
   <energy>
    <i name="e_fr_energy">   -229.15749543 </i>
    <i name="e_wo_entrp">   -228.89250415 </i>
    <i name="e_0_energy">   -229.02499979 </i>
   </energy>
  </scstep>
  <scstep>
   <time name="diag">    1.53    1.54</time>
   <time name="diis">    2.48    2.49</time>
   <time name="orth">    0.39    0.39</time>
   <time name="total">    4.75    4.76</time>
   <dipole>
    <v name="dipole">      0.00000000       0.00000000       0.66890397 </v>
    <i name="Tr[quadrupol]"> -11107.38049761 </i>
    <i name="Echarged">      0.00000000 </i>
    <i name="Edipol_quadrupol">      0.00000000 </i>
    <i name="Eion">      0.00000000 </i>
   </dipole>
   <energy>
    <i name="e_fr_energy">   -229.15750004 </i>
    <i name="e_wo_entrp">   -228.89251916 </i>
    <i name="e_0_energy">   -229.02500960 </i>
   </energy>
  </scstep>
  <scstep>
   <time name="diag">    1.54    1.55</time>
   <time name="diis">    2.11    2.11</time>
   <time name="orth">    0.39    0.39</time>
   <time name="total">    4.39    4.40</time>
   <dipole>
    <v name="dipole">      0.00000000       0.00000000       0.66887124 </v>
    <i name="Tr[quadrupol]"> -11107.38093092 </i>
    <i name="Echarged">      0.00000000 </i>
    <i name="Edipol_quadrupol">      0.00000000 </i>
    <i name="Eion">      0.00000000 </i>
   </dipole>
   <energy>
    <i name="e_fr_energy">   -229.15750207 </i>
    <i name="e_wo_entrp">   -228.89252478 </i>
    <i name="e_0_energy">   -229.02501342 </i>
   </energy>
  </scstep>
  <scstep>
   <time name="diag">    1.54    1.55</time>
   <time name="diis">    2.05    2.08</time>
   <time name="orth">    0.38    0.41</time>
   <time name="total">    4.32    4.42</time>
   <dipole>
    <v name="dipole">      0.00000000       0.00000000       0.66882519 </v>
    <i name="Tr[quadrupol]"> -11107.38151631 </i>
    <i name="Echarged">      0.00000000 </i>
    <i name="Edipol_quadrupol">      0.00000000 </i>
    <i name="Eion">      0.00000000 </i>
   </dipole>
   <energy>
    <i name="e_fr_energy">   -229.15750481 </i>
    <i name="e_wo_entrp">   -228.89253039 </i>
    <i name="e_0_energy">   -229.02501760 </i>
   </energy>
  </scstep>
  <scstep>
   <time name="diag">    1.54    1.54</time>
   <time name="diis">    2.13    2.13</time>
   <time name="orth">    0.39    0.39</time>
   <time name="total">    4.41    4.42</time>
   <dipole>
    <v name="dipole">      0.00000000       0.00000000       0.66875660 </v>
    <i name="Tr[quadrupol]"> -11107.38214293 </i>
    <i name="Echarged">      0.00000000 </i>
    <i name="Edipol_quadrupol">      0.00000000 </i>
    <i name="Eion">      0.00000000 </i>
   </dipole>
   <energy>
    <i name="e_fr_energy">   -229.15750755 </i>
    <i name="e_wo_entrp">   -228.89253745 </i>
    <i name="e_0_energy">   -229.02502250 </i>
   </energy>
  </scstep>
  <scstep>
   <time name="diag">    1.53    1.53</time>
   <time name="diis">    1.99    1.99</time>
   <time name="orth">    0.39    0.39</time>
   <time name="total">    4.25    4.27</time>
   <dipole>
    <v name="dipole">      0.00000000       0.00000000       0.66868595 </v>
    <i name="Tr[quadrupol]"> -11107.38276822 </i>
    <i name="Echarged">      0.00000000 </i>
    <i name="Edipol_quadrupol">      0.00000000 </i>
    <i name="Eion">      0.00000000 </i>
   </dipole>
   <energy>
    <i name="e_fr_energy">   -229.15750985 </i>
    <i name="e_wo_entrp">   -228.89253791 </i>
    <i name="e_0_energy">   -229.02502388 </i>
   </energy>
  </scstep>
  <scstep>
   <time name="diag">    1.54    1.55</time>
   <time name="diis">    1.96    1.96</time>
   <time name="orth">    0.39    0.39</time>
   <time name="total">    4.24    4.26</time>
   <dipole>
    <v name="dipole">      0.00000000       0.00000000       0.66862319 </v>
    <i name="Tr[quadrupol]"> -11107.38327583 </i>
    <i name="Echarged">      0.00000000 </i>
    <i name="Edipol_quadrupol">      0.00000000 </i>
    <i name="Eion">      0.00000000 </i>
   </dipole>
   <energy>
    <i name="e_fr_energy">   -229.15751148 </i>
    <i name="e_wo_entrp">   -228.89254110 </i>
    <i name="e_0_energy">   -229.02502629 </i>
   </energy>
  </scstep>
  <scstep>
   <time name="diag">    1.54    1.54</time>
   <time name="diis">    2.04    2.04</time>
   <time name="orth">    0.39    0.39</time>
   <time name="total">    4.30    4.32</time>
   <dipole>
    <v name="dipole">      0.00000000       0.00000000       0.66854486 </v>
    <i name="Tr[quadrupol]"> -11107.38386796 </i>
    <i name="Echarged">      0.00000000 </i>
    <i name="Edipol_quadrupol">      0.00000000 </i>
    <i name="Eion">      0.00000000 </i>
   </dipole>
   <energy>
    <i name="e_fr_energy">   -229.15751299 </i>
    <i name="e_wo_entrp">   -228.89253985 </i>
    <i name="e_0_energy">   -229.02502642 </i>
   </energy>
  </scstep>
  <scstep>
   <time name="diag">    1.54    1.55</time>
   <time name="diis">    1.87    1.88</time>
   <time name="orth">    0.39    0.39</time>
   <time name="total">    3.86    3.87</time>
   <dipole>
    <v name="dipole">      0.00000000       0.00000000       0.66849632 </v>
    <i name="Tr[quadrupol]"> -11107.38418665 </i>
    <i name="Echarged">      0.00000000 </i>
    <i name="Edipol_quadrupol">      0.00000000 </i>
    <i name="Eion">      0.00000000 </i>
   </dipole>
   <energy>
    <i name="alphaZ">    869.31810724 </i>
    <i name="ewald"> 240077.38068720 </i>
    <i name="hartreedc">-285263.00230279 </i>
    <i name="XCdc">   -127.13680894 </i>
    <i name="pawpsdc">  52183.32021271 </i>
    <i name="pawaedc"> -50276.97439160 </i>
    <i name="eentropy">     -0.26497331 </i>
    <i name="bandstr">  -2809.68948474 </i>
    <i name="atom">  45117.89144060 </i>
    <i name="e_fr_energy">   -229.15751364 </i>
    <i name="e_wo_entrp">   -228.89254033 </i>
    <i name="e_0_energy">   -229.02502699 </i>
   </energy>
  </scstep>
  <structure>
   <crystal>
    <varray name="basis" >
[...]
       <r>   -19.0182     2.0031    15.9930 </r>
       <r>   -18.9258     0.0750    15.9999 </r>
       <r>   -18.8333     0.0006    16.0000 </r>
       <r>   -18.7409     0.0000    16.0000 </r>
       <r>   -18.6484     0.0000    16.0000 </r>
       <r>   -18.5560     0.0000    16.0000 </r>
       <r>   -18.4635     0.0000    16.0000 </r>
       <r>   -18.3711     0.0000    16.0000 </r>
       <r>   -18.2786     0.0000    16.0000 </r>
       <r>   -18.1862     0.0000    16.0000 </r>
       <r>   -18.0937     0.0000    16.0000 </r>
       <r>   -18.0013     0.0000    16.0000 </r>
       <r>   -17.9088     0.0000    16.0000 </r>
       <r>   -17.8164     0.0000    16.0000 </r>
       <r>   -17.7239     0.0000    16.0000 </r>
       <r>   -17.6315     0.0000    16.0000 </r>
       <r>   -17.5390     0.0000    16.0000 </r>
       <r>   -17.4466     0.0000    16.0000 </r>
       <r>   -17.3541     0.0000    16.0000 </r>
       <r>   -17.2617     0.0000    16.0000 </r>
       <r>   -17.1692     0.0000    16.0000 </r>
       <r>   -17.0768     0.0000    16.0000 </r>
       <r>   -16.9843     0.0000    16.0000 </r>
       <r>   -16.8919     0.0000    16.0000 </r>
       <r>   -16.7995     0.0000    16.0000 </r>
       <r>   -16.7070     0.0000    16.0000 </r>
       <r>   -16.6146     0.0000    16.0000 </r>
       <r>   -16.5221     0.0000    16.0000 </r>
       <r>   -16.4297     0.0000    16.0000 </r>
       <r>   -16.3372     0.0000    16.0000 </r>
       <r>   -16.2448     0.0000    16.0000 </r>
       <r>   -16.1523     0.0000    16.0000 </r>
       <r>   -16.0599     0.0000    16.0000 </r>
       <r>   -15.9674     0.0000    16.0000 </r>
       <r>   -15.8750     0.0000    16.0000 </r>
       <r>   -15.7825     0.0000    16.0000 </r>
       <r>   -15.6901     0.0000    16.0000 </r>
       <r>   -15.5976     0.0000    16.0000 </r>
       <r>   -15.5052     0.0000    16.0000 </r>
       <r>   -15.4127     0.0000    16.0000 </r>
       <r>   -15.3203     0.0000    16.0000 </r>
       <r>   -15.2278     0.0000    16.0000 </r>
       <r>   -15.1354     0.0000    16.0000 </r>
       <r>   -15.0429     0.0000    16.0000 </r>
       <r>   -14.9505     0.0000    16.0000 </r>
       <r>   -14.8580     0.0000    16.0000 </r>
       <r>   -14.7656     0.0000    16.0000 </r>
       <r>   -14.6731     0.0000    16.0000 </r>
       <r>   -14.5807     0.0000    16.0000 </r>
       <r>   -14.4882     0.0000    16.0000 </r>
       <r>   -14.3958     0.0000    16.0000 </r>
       <r>   -14.3033     0.0000    16.0000 </r>
       <r>   -14.2109     0.0000    16.0000 </r>
       <r>   -14.1184     0.0000    16.0000 </r>
       <r>   -14.0260     0.0000    16.0000 </r>
       <r>   -13.9335     0.0000    16.0000 </r>
       <r>   -13.8411     0.0000    16.0000 </r>
       <r>   -13.7486     0.0000    16.0000 </r>
       <r>   -13.6562     0.0000    16.0000 </r>
       <r>   -13.5637     0.0000    16.0000 </r>
       <r>   -13.4713     0.0000    16.0000 </r>
       <r>   -13.3788     0.0000    16.0000 </r>
       <r>   -13.2864     0.0000    16.0000 </r>
       <r>   -13.1939     0.0000    16.0000 </r>
       <r>   -13.1015     0.0000    16.0000 </r>
       <r>   -13.0090     0.0000    16.0000 </r>
       <r>   -12.9166     0.0000    16.0000 </r>
       <r>   -12.8242     0.0000    16.0000 </r>
       <r>   -12.7317     0.0000    16.0000 </r>
       <r>   -12.6393     0.0000    16.0000 </r>
       <r>   -12.5468     0.0000    16.0000 </r>
       <r>   -12.4544     0.0000    16.0000 </r>
       <r>   -12.3619     0.0000    16.0000 </r>
       <r>   -12.2695     0.0000    16.0000 </r>
       <r>   -12.1770     0.0000    16.0000 </r>
       <r>   -12.0846     0.0000    16.0000 </r>
       <r>   -11.9921     0.0000    16.0000 </r>
       <r>   -11.8997     0.0000    16.0000 </r>
       <r>   -11.8072     0.0000    16.0000 </r>
       <r>   -11.7148     0.0000    16.0000 </r>
       <r>   -11.6223     0.0000    16.0000 </r>
       <r>   -11.5299     0.0000    16.0000 </r>
       <r>   -11.4374     0.0000    16.0000 </r>
       <r>   -11.3450     0.0000    16.0000 </r>
       <r>   -11.2525     0.0000    16.0000 </r>
       <r>   -11.1601     0.0000    16.0000 </r>
       <r>   -11.0676     0.0000    16.0000 </r>
       <r>   -10.9752     0.0000    16.0000 </r>
       <r>   -10.8827     0.0000    16.0000 </r>
       <r>   -10.7903     0.0000    16.0000 </r>
       <r>   -10.6978     0.0000    16.0000 </r>
       <r>   -10.6054     0.0000    16.0000 </r>
       <r>   -10.5129     0.0000    16.0000 </r>
       <r>   -10.4205     0.0000    16.0000 </r>
       <r>   -10.3280     0.0000    16.0000 </r>
       <r>   -10.2356     0.0000    16.0000 </r>
       <r>   -10.1431     0.0000    16.0000 </r>
       <r>   -10.0507     0.0000    16.0000 </r>
       <r>    -9.9582     0.0000    16.0000 </r>
       <r>    -9.8658     0.0000    16.0000 </r>
       <r>    -9.7733     0.0000    16.0000 </r>
       <r>    -9.6809     0.0000    16.0000 </r>
       <r>    -9.5884     0.0000    16.0000 </r>
       <r>    -9.4960     0.0000    16.0000 </r>
       <r>    -9.4035     0.0037    16.0003 </r>
       <r>    -9.3111     0.1916    16.0181 </r>
       <r>    -9.2186     2.1199    16.2140 </r>
       <r>    -9.1262     5.6225    16.7338 </r>
       <r>    -9.0337     5.9147    17.2806 </r>
       <r>    -8.9413     5.3603    17.7762 </r>
       <r>    -8.8489     2.2547    17.9846 </r>
       <r>    -8.7564     1.1544    18.0914 </r>
       <r>    -8.6640     3.3460    18.4007 </r>
       <r>    -8.5715     6.7314    19.0230 </r>
       <r>    -8.4791     8.7329    19.8303 </r>
       <r>    -8.3866     9.8869    20.7444 </r>
       <r>    -8.2942    10.5582    21.7205 </r>
       <r>    -8.2017    12.2665    22.8545 </r>
       <r>    -8.1093    19.1105    24.6212 </r>
       <r>    -8.0168    23.3471    26.7796 </r>
       <r>    -7.9244    25.9315    29.1770 </r>
       <r>    -7.8319    27.6048    31.7290 </r>
       <r>    -7.7395    32.2145    34.7072 </r>
       <r>    -7.6470    34.9956    37.9425 </r>
       <r>    -7.5546    32.5452    40.9513 </r>
       <r>    -7.4621    34.0970    44.1035 </r>
       <r>    -7.3697    38.6974    47.6810 </r>
       <r>    -7.2772    44.7692    51.8199 </r>
       <r>    -7.1848    51.5571    56.5863 </r>
       <r>    -7.0923    57.2028    61.8746 </r>
       <r>    -6.9999    56.9533    67.1399 </r>
       <r>    -6.9074    59.2442    72.6169 </r>
       <r>    -6.8150    67.1360    78.8236 </r>
       <r>    -6.7225    72.0297    85.4826 </r>
       <r>    -6.6301    79.7372    92.8542 </r>
       <r>    -6.5376    83.9577   100.6160 </r>
       <r>    -6.4452    82.9819   108.2876 </r>
       <r>    -6.3527    82.4954   115.9142 </r>
       <r>    -6.2603    78.7267   123.1924 </r>
       <r>    -6.1678    77.2139   130.3307 </r>
       <r>    -6.0754    78.7256   137.6088 </r>
       <r>    -5.9829    81.9534   145.1853 </r>
       <r>    -5.8905    90.0799   153.5131 </r>
       <r>    -5.7980    92.0167   162.0199 </r>
       <r>    -5.7056    86.5801   170.0242 </r>
       <r>    -5.6131    86.3850   178.0104 </r>
       <r>    -5.5207    88.7812   186.2181 </r>
       <r>    -5.4282    89.4601   194.4886 </r>
       <r>    -5.3358    88.1566   202.6385 </r>
       <r>    -5.2433    89.8685   210.9468 </r>
       <r>    -5.1509    90.2951   219.2944 </r>
       <r>    -5.0585    86.5777   227.2984 </r>
       <r>    -4.9660    86.0794   235.2564 </r>
       <r>    -4.8736    88.5521   243.4429 </r>
       <r>    -4.7811    88.5496   251.6292 </r>
       <r>    -4.6887    88.3409   259.7962 </r>
       <r>    -4.5962    88.0952   267.9405 </r>
       <r>    -4.5038    90.2524   276.2843 </r>
       <r>    -4.4113    89.9347   284.5986 </r>
       <r>    -4.3189    86.7764   292.6210 </r>
       <r>    -4.2264    88.4136   300.7947 </r>
       <r>    -4.1340    92.2849   309.3264 </r>
       <r>    -4.0415    91.3103   317.7679 </r>
       <r>    -3.9491    91.3994   326.2177 </r>
       <r>    -3.8566    94.1274   334.9196 </r>
       <r>    -3.7642    93.1616   343.5323 </r>
       <r>    -3.6717    94.7801   352.2946 </r>
       <r>    -3.5793    98.7912   361.4277 </r>
       <r>    -3.4868    98.1365   370.5003 </r>
       <r>    -3.3944    92.4517   379.0474 </r>
       <r>    -3.3019    90.7598   387.4380 </r>
       <r>    -3.2095    97.9543   396.4938 </r>
       <r>    -3.1170    99.7754   405.7179 </r>
       <r>    -3.0246    97.5405   414.7354 </r>
       <r>    -2.9321    95.3611   423.5514 </r>
       <r>    -2.8397    93.4208   432.1881 </r>
       <r>    -2.7472    92.5806   440.7470 </r>
       <r>    -2.6548    92.2778   449.2780 </r>
       <r>    -2.5623    92.1131   457.7938 </r>
       <r>    -2.4699    93.3187   466.4210 </r>
       <r>    -2.3774    96.7483   475.3652 </r>
       <r>    -2.2850    95.3580   484.1810 </r>
       <r>    -2.1925    94.6385   492.9302 </r>
       <r>    -2.1001    91.4582   501.3854 </r>
       <r>    -2.0076    88.1553   509.5352 </r>
       <r>    -1.9152    86.8889   517.5680 </r>
       <r>    -1.8227    85.0608   525.4318 </r>
       <r>    -1.7303    82.2374   533.0345 </r>
       <r>    -1.6378    75.1522   539.9823 </r>
       <r>    -1.5454    63.7851   545.8791 </r>
       <r>    -1.4529    52.4043   550.7238 </r>
       <r>    -1.3605    41.3203   554.5439 </r>
       <r>    -1.2680    35.3962   557.8162 </r>
       <r>    -1.1756    33.0938   560.8757 </r>
       <r>    -1.0832    27.6639   563.4332 </r>
       <r>    -0.9907    21.9288   565.4605 </r>
       <r>    -0.8983    20.9382   567.3962 </r>
       <r>    -0.8058    19.3051   569.1809 </r>
       <r>    -0.7134    21.5497   571.1732 </r>
       <r>    -0.6209    22.3748   573.2417 </r>
       <r>    -0.5285    22.0391   575.2792 </r>
       <r>    -0.4360    21.7351   577.2886 </r>
       <r>    -0.3436    20.1504   579.1514 </r>
       <r>    -0.2511    19.7532   580.9776 </r>
       <r>    -0.1587    19.2761   582.7596 </r>
       <r>    -0.0662    15.2788   584.1722 </r>
       <r>     0.0262    12.2409   585.3038 </r>
       <r>     0.1187    13.5164   586.5534 </r>
       <r>     0.2111    16.2829   588.0587 </r>
       <r>     0.3036    13.9119   589.3449 </r>
       <r>     0.3960    12.8091   590.5291 </r>
       <r>     0.4885    15.2628   591.9401 </r>
       <r>     0.5809    17.8562   593.5909 </r>
       <r>     0.6734    18.6211   595.3124 </r>
       <r>     0.7658    16.6853   596.8549 </r>
       <r>     0.8583    17.2001   598.4450 </r>
       <r>     0.9507    16.9021   600.0076 </r>
       <r>     1.0432    13.4058   601.2470 </r>
       <r>     1.1356    12.1000   602.3656 </r>
       <r>     1.2281    13.6881   603.6311 </r>
       <r>     1.3205    12.8470   604.8187 </r>
       <r>     1.4130    10.9220   605.8285 </r>
       <r>     1.5054    11.2728   606.8706 </r>
       <r>     1.5979    12.1070   607.9899 </r>
       <r>     1.6903    14.7428   609.3528 </r>
       <r>     1.7828    16.1712   610.8479 </r>
       <r>     1.8752    18.5564   612.5634 </r>
       <r>     1.9677    19.7812   614.3921 </r>
       <r>     2.0601    16.2012   615.8899 </r>
       <r>     2.1526    17.5558   617.5129 </r>
       <r>     2.2450    19.5782   619.3229 </r>
       <r>     2.3375    17.2229   620.9151 </r>
       <r>     2.4299    11.1905   621.9497 </r>
       <r>     2.5224    10.0208   622.8761 </r>
       <r>     2.6148    12.5706   624.0382 </r>
       <r>     2.7073    11.0637   625.0611 </r>
       <r>     2.7997    13.3915   626.2991 </r>
       <r>     2.8921    15.1986   627.7042 </r>
       <r>     2.9846    10.7317   628.6963 </r>
       <r>     3.0770    11.0988   629.7224 </r>
       <r>     3.1695    14.7001   631.0814 </r>
       <r>     3.2619    14.8475   632.4540 </r>
       <r>     3.3544    14.5624   633.8003 </r>
       <r>     3.4468    14.7274   635.1618 </r>
       <r>     3.5393    15.7664   636.6194 </r>
       <r>     3.6317    16.1163   638.1093 </r>
       <r>     3.7242    16.7031   639.6535 </r>
       <r>     3.8166    18.0103   641.3186 </r>
       <r>     3.9091    18.6002   643.0381 </r>
       <r>     4.0015    18.2032   644.7210 </r>
       <r>     4.0940    18.9281   646.4709 </r>
       <r>     4.1864    17.3973   648.0792 </r>
       <r>     4.2789    14.1333   649.3858 </r>
       <r>     4.3713    14.5686   650.7327 </r>
       <r>     4.4638    18.9267   652.4824 </r>
       <r>     4.5562    23.2512   654.6320 </r>
       <r>     4.6487    23.8550   656.8373 </r>
       <r>     4.7411    24.6050   659.1120 </r>
       <r>     4.8336    27.0771   661.6153 </r>
       <r>     4.9260    30.2688   664.4136 </r>
       <r>     5.0185    33.6825   667.5275 </r>
       <r>     5.1109    29.3034   670.2366 </r>
       <r>     5.2034    15.4319   671.6632 </r>
       <r>     5.2958     3.4189   671.9793 </r>
       <r>     5.3883     0.2204   671.9997 </r>
       <r>     5.4807     0.0033   672.0000 </r>
       <r>     5.5732     0.0000   672.0000 </r>
       <r>     5.6656     0.0000   672.0000 </r>
       <r>     5.7581     0.0000   672.0000 </r>
       <r>     5.8505     0.0000   672.0000 </r>
       <r>     5.9430     0.0000   672.0000 </r>
       <r>     6.0354     0.0000   672.0000 </r>
       <r>     6.1279     0.0000   672.0000 </r>
       <r>     6.2203     0.0000   672.0000 </r>
       <r>     6.3128     0.0000   672.0000 </r>
       <r>     6.4052     0.0000   672.0000 </r>
      </set>
     </set>
    </array>
   </total>
  </dos>
 </calculation>
 <structure name="finalpos" >
  <crystal>
   <varray name="basis" >
    <v>      11.00258152       0.00000000       0.00000000 </v>
    <v>       5.50129076       9.52851510       0.00000000 </v>
    <v>       0.00000000       0.00000000      26.19178509 </v>
   </varray>
   <i name="volume">   2745.90128299 </i>
   <varray name="rec_basis" >
    <v>       0.09088776      -0.05247407       0.00000000 </v>
    <v>       0.00000000       0.10494815       0.00000000 </v>
    <v>       0.00000000       0.00000000       0.03817991 </v>
   </varray>
  </crystal>
  <varray name="positions" >
   <v>       0.33333333       0.83333333       0.38179910 </v>
   <v>       0.58333333       0.08333333       0.38179910 </v>
   <v>       0.22507944       0.28162909       0.61174249 </v>
   <v>       0.83333333       0.33333333       0.38179910 </v>
   <v>       0.99621921       0.00189106       0.56125094 </v>
   <v>       0.76270553      -0.00507799       0.56706932 </v>
   <v>       0.51351437       0.74473970       0.56410577 </v>
   <v>       0.58333333       0.83333333       0.38179910 </v>
   <v>       0.76563914       0.50780033       0.56054903 </v>
   <v>       0.67173874       0.91172439       0.47592363 </v>
   <v>       0.08333333       0.58333333       0.38179910 </v>
   <v>       0.03946580       0.52572510       0.56805710 </v>
   <v>       0.51289056       0.49457312       0.56750036 </v>
   <v>       0.33333333       0.58333333       0.38179910 </v>
   <v>       0.92253093       0.91298437       0.47138520 </v>
   <v>       0.50934102       0.24948507       0.56911567 </v>
   <v>       0.41913074       0.41504922       0.47691658 </v>
   <v>       0.52113570       0.99168143       0.57190561 </v>
   <v>       0.16840796       0.16365768       0.47362219 </v>
   <v>       0.26608777       0.98234087       0.56298344 </v>
   <v>       0.41899782       0.16302179       0.47844183 </v>
   <v>       0.33333333       0.33333333       0.38179910 </v>
   <v>       0.16971570       0.41397388       0.47782272 </v>
   <v>       0.41899609       0.66467324       0.47537816 </v>
   <v>       0.38172116       0.31727301       0.63704050 </v>
   <v>       0.08300413       0.83691372       0.61446648 </v>
   <v>       0.35043445       0.06707834       0.62080892 </v>
   <v>       0.09230864       0.09302510       0.61096549 </v>
   <v>       0.07949266       0.65637615       0.68430402 </v>
   <v>       0.84161227       0.33391202       0.61003907 </v>
   <v>       0.79823848       0.73804215       0.63959836 </v>
   <v>       0.34804739       0.58501245       0.62368548 </v>
   <v>       0.16760114       0.66499452       0.47655436 </v>
   <v>       0.17155669       0.91215377       0.47402015 </v>
   <v>       0.24973838       0.73287297       0.56912132 </v>
   <v>       0.76857846       0.74558210       0.56633264 </v>
   <v>       0.33333333       0.08333333       0.38179910 </v>
   <v>       0.83333333       0.83333333       0.38179910 </v>
   <v>       0.58333333       0.33333333       0.38179910 </v>
   <v>       0.94989751       0.77206310       0.62983204 </v>
   <v>       0.08333333       0.83333333       0.38179910 </v>
   <v>       0.58333333       0.58333333       0.38179910 </v>
   <v>       0.23583144       0.50904903       0.65381269 </v>
   <v>       0.75815748       0.25312930       0.56244124 </v>
   <v>       0.02058131       0.26367849       0.56790370 </v>
   <v>       0.92331797       0.41498461       0.47238339 </v>
   <v>       0.42125171       0.91295603       0.47404248 </v>
   <v>       0.08333333       0.33333333       0.38179910 </v>
   <v>       0.67426130       0.66223207       0.47287944 </v>
   <v>       0.83333333       0.08333333       0.38179910 </v>
   <v>       0.66998413       0.16698659       0.47629419 </v>
   <v>       0.83333333       0.58333333       0.38179910 </v>
   <v>       0.91939587       0.16625245       0.47296988 </v>
   <v>       0.67145389       0.41423904       0.47215588 </v>
   <v>       0.92156727       0.66339770       0.47396620 </v>
   <v>       0.08333333       0.08333333       0.38179910 </v>
  </varray>
  <varray name="selective"  type="logical" >
   <v type="logical" >  F  F  F </v>
   <v type="logical" >  F  F  F </v>
   <v type="logical" >  T  T  T </v>
   <v type="logical" >  F  F  F </v>
   <v type="logical" >  T  T  T </v>
   <v type="logical" >  T  T  T </v>
   <v type="logical" >  T  T  T </v>
   <v type="logical" >  F  F  F </v>
   <v type="logical" >  T  T  T </v>
   <v type="logical" >  T  T  T </v>
   <v type="logical" >  F  F  F </v>
   <v type="logical" >  T  T  T </v>
   <v type="logical" >  T  T  T </v>
   <v type="logical" >  F  F  F </v>
   <v type="logical" >  T  T  T </v>
   <v type="logical" >  T  T  T </v>
   <v type="logical" >  T  T  T </v>
   <v type="logical" >  T  T  T </v>
   <v type="logical" >  T  T  T </v>
   <v type="logical" >  T  T  T </v>
   <v type="logical" >  T  T  T </v>
   <v type="logical" >  F  F  F </v>
   <v type="logical" >  T  T  T </v>
   <v type="logical" >  T  T  T </v>
   <v type="logical" >  T  T  T </v>
   <v type="logical" >  T  T  T </v>
   <v type="logical" >  T  T  T </v>
   <v type="logical" >  T  T  T </v>
   <v type="logical" >  T  T  T </v>
   <v type="logical" >  T  T  T </v>
   <v type="logical" >  T  T  T </v>
   <v type="logical" >  T  T  T </v>
   <v type="logical" >  T  T  T </v>
   <v type="logical" >  T  T  T </v>
   <v type="logical" >  T  T  T </v>
   <v type="logical" >  T  T  T </v>
   <v type="logical" >  F  F  F </v>
   <v type="logical" >  F  F  F </v>
   <v type="logical" >  F  F  F </v>
   <v type="logical" >  T  T  T </v>
   <v type="logical" >  F  F  F </v>
   <v type="logical" >  F  F  F </v>
   <v type="logical" >  T  T  T </v>
   <v type="logical" >  T  T  T </v>
   <v type="logical" >  T  T  T </v>
   <v type="logical" >  T  T  T </v>
   <v type="logical" >  T  T  T </v>
   <v type="logical" >  F  F  F </v>
   <v type="logical" >  T  T  T </v>
   <v type="logical" >  F  F  F </v>
   <v type="logical" >  T  T  T </v>
   <v type="logical" >  F  F  F </v>
   <v type="logical" >  T  T  T </v>
   <v type="logical" >  T  T  T </v>
   <v type="logical" >  T  T  T </v>
   <v type="logical" >  F  F  F </v>
  </varray>
  <nose>
   <v>      -3.00000000       0.00000000       0.00010000       0.00010000 </v>
  </nose>
 </structure>
</modeling>
