  56  56   0   0
  0.4903395E+02  0.1100258E-08  0.1100258E-08  0.2619179E-08  0.3500000E-15
  1.000000000000000E-004
  CAR 
 unknown system                          
      6.40175968    -21.81252936  301     -1.26482912      1.00000000
    -21.813  0.0000E+00  0.0000E+00
    -21.718  0.0000E+00  0.0000E+00
    -21.624  0.0000E+00  0.0000E+00
    -21.530  0.0000E+00  0.0000E+00
    -21.436  0.0000E+00  0.0000E+00
    -21.342  0.0000E+00  0.0000E+00
    -21.248  0.0000E+00  0.0000E+00
    -21.154  0.0000E+00  0.0000E+00
    -21.060  0.6142E-15  0.5777E-16
    -20.966  0.7300E-11  0.6866E-12
    -20.872  0.1556E-07  0.1464E-08
    -20.778  0.6075E-05  0.5728E-06
    -20.684  0.4515E-03  0.4304E-04
    -20.590  0.6922E-02  0.6940E-03
    -20.496  0.2667E-01  0.3202E-02
    -20.402  0.4141E-01  0.7096E-02
    -20.308  0.4733E-01  0.1155E-01
    -20.214  0.6106E-01  0.1729E-01
    -20.120  0.7323E-01  0.2418E-01
    -20.026  0.5880E-01  0.2971E-01
    -19.932  0.2196E-01  0.3177E-01
    -19.838  0.2369E-02  0.3199E-01
    -19.743  0.5795E-04  0.3200E-01
    -19.649  0.2862E-06  0.3200E-01
    -19.555  0.2674E-09  0.3200E-01
    -19.461  0.4550E-13  0.3200E-01
    -19.367  0.0000E+00  0.3200E-01
    -19.273  0.0000E+00  0.3200E-01
    -19.179  0.0000E+00  0.3200E-01
    -19.085  0.0000E+00  0.3200E-01
    -18.991  0.0000E+00  0.3200E-01
    -18.897  0.0000E+00  0.3200E-01
    -18.803  0.0000E+00  0.3200E-01
    -18.709  0.0000E+00  0.3200E-01
    -18.615  0.0000E+00  0.3200E-01
    -18.521  0.0000E+00  0.3200E-01
    -18.427  0.0000E+00  0.3200E-01
    -18.333  0.0000E+00  0.3200E-01
    -18.239  0.0000E+00  0.3200E-01
    -18.145  0.0000E+00  0.3200E-01
    -18.051  0.0000E+00  0.3200E-01
    -17.957  0.0000E+00  0.3200E-01
    -17.863  0.0000E+00  0.3200E-01
    -17.768  0.0000E+00  0.3200E-01
    -17.674  0.0000E+00  0.3200E-01
    -17.580  0.0000E+00  0.3200E-01
    -17.486  0.0000E+00  0.3200E-01
    -17.392  0.0000E+00  0.3200E-01
    -17.298  0.0000E+00  0.3200E-01
    -17.204  0.0000E+00  0.3200E-01
    -17.110  0.0000E+00  0.3200E-01
    -17.016  0.0000E+00  0.3200E-01
    -16.922  0.0000E+00  0.3200E-01
    -16.828  0.0000E+00  0.3200E-01
    -16.734  0.0000E+00  0.3200E-01
    -16.640  0.0000E+00  0.3200E-01
    -16.546  0.0000E+00  0.3200E-01
    -16.452  0.0000E+00  0.3200E-01
    -16.358  0.0000E+00  0.3200E-01
    -16.264  0.0000E+00  0.3200E-01
    -16.170  0.0000E+00  0.3200E-01
    -16.076  0.0000E+00  0.3200E-01
    -15.982  0.0000E+00  0.3200E-01
    -15.888  0.0000E+00  0.3200E-01
    -15.793  0.0000E+00  0.3200E-01
    -15.699  0.0000E+00  0.3200E-01
    -15.605  0.0000E+00  0.3200E-01
    -15.511  0.0000E+00  0.3200E-01
    -15.417  0.0000E+00  0.3200E-01
    -15.323  0.0000E+00  0.3200E-01
    -15.229  0.0000E+00  0.3200E-01
    -15.135  0.0000E+00  0.3200E-01
    -15.041  0.0000E+00  0.3200E-01
    -14.947  0.0000E+00  0.3200E-01
    -14.853  0.0000E+00  0.3200E-01
    -14.759  0.0000E+00  0.3200E-01
    -14.665  0.0000E+00  0.3200E-01
    -14.571  0.0000E+00  0.3200E-01
    -14.477  0.0000E+00  0.3200E-01
    -14.383  0.0000E+00  0.3200E-01
    -14.289  0.0000E+00  0.3200E-01
    -14.195  0.0000E+00  0.3200E-01
    -14.101  0.0000E+00  0.3200E-01
    -14.007  0.0000E+00  0.3200E-01
    -13.913  0.0000E+00  0.3200E-01
    -13.818  0.0000E+00  0.3200E-01
    -13.724  0.0000E+00  0.3200E-01
    -13.630  0.0000E+00  0.3200E-01
    -13.536  0.0000E+00  0.3200E-01
    -13.442  0.0000E+00  0.3200E-01
    -13.348  0.0000E+00  0.3200E-01
    -13.254  0.0000E+00  0.3200E-01
    -13.160  0.0000E+00  0.3200E-01
    -13.066  0.0000E+00  0.3200E-01
    -12.972  0.0000E+00  0.3200E-01
    -12.878  0.0000E+00  0.3200E-01
    -12.784  0.0000E+00  0.3200E-01
    -12.690  0.0000E+00  0.3200E-01
    -12.596  0.0000E+00  0.3200E-01
    -12.502  0.0000E+00  0.3200E-01
    -12.408  0.0000E+00  0.3200E-01
    -12.314  0.0000E+00  0.3200E-01
    -12.220  0.0000E+00  0.3200E-01
    -12.126  0.0000E+00  0.3200E-01
    -12.032  0.0000E+00  0.3200E-01
    -11.938  0.0000E+00  0.3200E-01
    -11.843  0.0000E+00  0.3200E-01
    -11.749  0.0000E+00  0.3200E-01
    -11.655  0.0000E+00  0.3200E-01
    -11.561  0.0000E+00  0.3200E-01
    -11.467  0.0000E+00  0.3200E-01
    -11.373  0.0000E+00  0.3200E-01
    -11.279  0.0000E+00  0.3200E-01
    -11.185  0.0000E+00  0.3200E-01
    -11.091  0.0000E+00  0.3200E-01
    -10.997  0.0000E+00  0.3200E-01
    -10.903  0.0000E+00  0.3200E-01
    -10.809  0.0000E+00  0.3200E-01
    -10.715  0.0000E+00  0.3200E-01
    -10.621  0.0000E+00  0.3200E-01
    -10.527  0.0000E+00  0.3200E-01
    -10.433  0.0000E+00  0.3200E-01
    -10.339  0.0000E+00  0.3200E-01
    -10.245  0.0000E+00  0.3200E-01
    -10.151  0.0000E+00  0.3200E-01
    -10.057  0.7555E-16  0.3200E-01
     -9.963  0.1164E-11  0.3200E-01
     -9.868  0.3178E-08  0.3200E-01
     -9.774  0.1567E-05  0.3200E-01
     -9.680  0.1437E-03  0.3201E-01
     -9.586  0.2573E-02  0.3226E-01
     -9.492  0.9555E-02  0.3315E-01
     -9.398  0.8398E-02  0.3394E-01
     -9.304  0.7271E-02  0.3463E-01
     -9.210  0.1033E-01  0.3560E-01
     -9.116  0.3934E-02  0.3597E-01
     -9.022  0.4068E-03  0.3601E-01
     -8.928  0.1661E-02  0.3616E-01
     -8.834  0.7760E-02  0.3689E-01
     -8.740  0.1431E-01  0.3824E-01
     -8.646  0.2093E-01  0.4021E-01
     -8.552  0.2082E-01  0.4217E-01
     -8.458  0.1241E-01  0.4333E-01
     -8.364  0.7108E-02  0.4400E-01
     -8.270  0.1365E-01  0.4529E-01
     -8.176  0.3547E-01  0.4862E-01
     -8.082  0.4830E-01  0.5317E-01
     -7.988  0.5659E-01  0.5849E-01
     -7.893  0.7644E-01  0.6568E-01
     -7.799  0.9418E-01  0.7453E-01
     -7.705  0.1100E+00  0.8488E-01
     -7.611  0.1106E+00  0.9528E-01
     -7.517  0.1025E+00  0.1049E+00
     -7.423  0.9774E-01  0.1141E+00
     -7.329  0.1114E+00  0.1246E+00
     -7.235  0.1251E+00  0.1364E+00
     -7.141  0.1175E+00  0.1474E+00
     -7.047  0.1247E+00  0.1591E+00
     -6.953  0.1482E+00  0.1731E+00
     -6.859  0.1554E+00  0.1877E+00
     -6.765  0.1456E+00  0.2014E+00
     -6.671  0.1478E+00  0.2153E+00
     -6.577  0.1625E+00  0.2306E+00
     -6.483  0.1758E+00  0.2471E+00
     -6.389  0.1704E+00  0.2631E+00
     -6.295  0.1534E+00  0.2776E+00
     -6.201  0.1315E+00  0.2899E+00
     -6.107  0.1341E+00  0.3026E+00
     -6.013  0.1473E+00  0.3164E+00
     -5.918  0.1584E+00  0.3313E+00
     -5.824  0.1769E+00  0.3479E+00
     -5.730  0.1737E+00  0.3643E+00
     -5.636  0.1621E+00  0.3795E+00
     -5.542  0.1652E+00  0.3951E+00
     -5.448  0.1781E+00  0.4118E+00
     -5.354  0.1785E+00  0.4286E+00
     -5.260  0.1743E+00  0.4450E+00
     -5.166  0.1731E+00  0.4613E+00
     -5.072  0.1744E+00  0.4777E+00
     -4.978  0.1720E+00  0.4938E+00
     -4.884  0.1742E+00  0.5102E+00
     -4.790  0.1878E+00  0.5279E+00
     -4.696  0.1935E+00  0.5461E+00
     -4.602  0.1880E+00  0.5638E+00
     -4.508  0.1987E+00  0.5825E+00
     -4.414  0.2064E+00  0.6019E+00
     -4.320  0.2079E+00  0.6214E+00
     -4.226  0.2158E+00  0.6417E+00
     -4.132  0.2138E+00  0.6618E+00
     -4.038  0.2005E+00  0.6807E+00
     -3.943  0.1990E+00  0.6994E+00
     -3.849  0.1970E+00  0.7179E+00
     -3.755  0.1946E+00  0.7362E+00
     -3.661  0.1922E+00  0.7543E+00
     -3.567  0.1923E+00  0.7724E+00
     -3.473  0.1959E+00  0.7908E+00
     -3.379  0.1904E+00  0.8087E+00
     -3.285  0.1803E+00  0.8257E+00
     -3.191  0.1763E+00  0.8423E+00
     -3.097  0.1677E+00  0.8580E+00
     -3.003  0.1530E+00  0.8724E+00
     -2.909  0.1456E+00  0.8861E+00
     -2.815  0.1541E+00  0.9006E+00
     -2.721  0.1662E+00  0.9162E+00
     -2.627  0.1666E+00  0.9319E+00
     -2.533  0.1634E+00  0.9473E+00
     -2.439  0.1591E+00  0.9622E+00
     -2.345  0.1629E+00  0.9776E+00
     -2.251  0.1700E+00  0.9935E+00
     -2.157  0.1627E+00  0.1009E+01
     -2.063  0.1416E+00  0.1022E+01
     -1.968  0.1260E+00  0.1034E+01
     -1.874  0.1180E+00  0.1045E+01
     -1.780  0.1137E+00  0.1056E+01
     -1.686  0.1184E+00  0.1067E+01
     -1.592  0.1173E+00  0.1078E+01
     -1.498  0.1076E+00  0.1088E+01
     -1.404  0.8883E-01  0.1096E+01
     -1.310  0.5782E-01  0.1102E+01
     -1.216  0.4882E-01  0.1106E+01
     -1.122  0.6132E-01  0.1112E+01
     -1.028  0.6877E-01  0.1119E+01
     -0.934  0.7372E-01  0.1126E+01
     -0.840  0.6518E-01  0.1132E+01
     -0.746  0.5839E-01  0.1137E+01
     -0.652  0.6659E-01  0.1144E+01
     -0.558  0.6681E-01  0.1150E+01
     -0.464  0.6130E-01  0.1156E+01
     -0.370  0.5283E-01  0.1161E+01
     -0.276  0.4073E-01  0.1164E+01
     -0.182  0.3511E-01  0.1168E+01
     -0.088  0.2168E-01  0.1170E+01
      0.007  0.1964E-01  0.1172E+01
      0.101  0.2930E-01  0.1174E+01
      0.195  0.2866E-01  0.1177E+01
      0.289  0.3971E-01  0.1181E+01
      0.383  0.4447E-01  0.1185E+01
      0.477  0.3949E-01  0.1189E+01
      0.571  0.3461E-01  0.1192E+01
      0.665  0.2989E-01  0.1195E+01
      0.759  0.2658E-01  0.1197E+01
      0.853  0.2463E-01  0.1200E+01
      0.947  0.2000E-01  0.1201E+01
      1.041  0.1420E-01  0.1203E+01
      1.135  0.1619E-01  0.1204E+01
      1.229  0.1944E-01  0.1206E+01
      1.323  0.2249E-01  0.1208E+01
      1.417  0.2261E-01  0.1210E+01
      1.511  0.2478E-01  0.1213E+01
      1.605  0.4159E-01  0.1217E+01
      1.699  0.5094E-01  0.1221E+01
      1.793  0.4654E-01  0.1226E+01
      1.887  0.3242E-01  0.1229E+01
      1.982  0.2369E-01  0.1231E+01
      2.076  0.2440E-01  0.1233E+01
      2.170  0.2926E-01  0.1236E+01
      2.264  0.2825E-01  0.1239E+01
      2.358  0.1636E-01  0.1240E+01
      2.452  0.8701E-02  0.1241E+01
      2.546  0.7939E-02  0.1242E+01
      2.640  0.1107E-01  0.1243E+01
      2.734  0.2087E-01  0.1245E+01
      2.828  0.2209E-01  0.1247E+01
      2.922  0.2966E-01  0.1250E+01
      3.016  0.3720E-01  0.1253E+01
      3.110  0.3372E-01  0.1256E+01
      3.204  0.2500E-01  0.1259E+01
      3.298  0.2127E-01  0.1261E+01
      3.392  0.1911E-01  0.1263E+01
      3.486  0.2474E-01  0.1265E+01
      3.580  0.3367E-01  0.1268E+01
      3.674  0.3816E-01  0.1272E+01
      3.768  0.3812E-01  0.1275E+01
      3.862  0.4562E-01  0.1279E+01
      3.957  0.4795E-01  0.1284E+01
      4.051  0.4547E-01  0.1288E+01
      4.145  0.4170E-01  0.1292E+01
      4.239  0.3234E-01  0.1295E+01
      4.333  0.4236E-01  0.1299E+01
      4.427  0.5092E-01  0.1304E+01
      4.521  0.4757E-01  0.1308E+01
      4.615  0.4617E-01  0.1313E+01
      4.709  0.5357E-01  0.1318E+01
      4.803  0.5706E-01  0.1323E+01
      4.897  0.5861E-01  0.1329E+01
      4.991  0.6376E-01  0.1335E+01
      5.085  0.6034E-01  0.1340E+01
      5.179  0.3185E-01  0.1343E+01
      5.273  0.6012E-02  0.1344E+01
      5.367  0.3049E-03  0.1344E+01
      5.461  0.3506E-05  0.1344E+01
      5.555  0.8245E-08  0.1344E+01
      5.649  0.3731E-11  0.1344E+01
      5.743  0.3116E-15  0.1344E+01
      5.837  0.0000E+00  0.1344E+01
      5.932  0.0000E+00  0.1344E+01
      6.026  0.0000E+00  0.1344E+01
      6.120  0.0000E+00  0.1344E+01
      6.214  0.0000E+00  0.1344E+01
      6.308  0.0000E+00  0.1344E+01
      6.402  0.0000E+00  0.1344E+01
