unknown system                          
           1
    11.002582    0.000000    0.000000
     5.501291    9.528515    0.000000
     0.000000    0.000000   26.191785
   Au   O    Pd
  24   8  24
Direct configuration=     1
   0.08333333  0.08333333  0.38179910
   0.33333333  0.83333333  0.38179910
   0.08333333  0.83333333  0.38179910
   0.91666667  0.16666667  0.46754708
   0.83333333  0.83333333  0.38179910
   0.08333333  0.33333333  0.38179910
   0.83333333  0.58333333  0.38179910
   0.66666667  0.41666667  0.46754708
   0.08333333  0.58333333  0.38179910
   0.83333333  0.33333333  0.38179910
   0.66666667  0.16666667  0.46754708
   0.16666667  0.91666667  0.46754708
   0.83333333  0.08333333  0.38179910
   0.58333333  0.58333333  0.38179910
   0.33333333  0.08333333  0.38179910
   0.16666667  0.16666667  0.46754708
   0.25000000  0.00000000  0.55329505
   0.41666667  0.41666667  0.46754708
   0.58333333  0.33333333  0.38179910
   0.41666667  0.16666667  0.46754708
   0.58333333  0.08333333  0.38179910
   0.33333333  0.58333333  0.38179910
   0.16666667  0.66666667  0.46754708
   0.58333333  0.83333333  0.38179910
   0.33333333  0.33333333  0.61820090
   0.33333333  0.58333333  0.61820090
   0.08333333  0.83333333  0.61820090
   0.83333333  0.83333333  0.61820090
   0.83333333  0.58333333  0.61820090
   0.83333333  0.33333333  0.61820090
   0.58333333  0.33333333  0.61820090
   0.83333333  0.08333333  0.61820090
   0.00000000  0.75000000  0.55329505
   0.25000000  0.25000000  0.55329505
   0.50000000  0.25000000  0.55329505
   0.41666667  0.66666667  0.46754708
   0.75000000  0.75000000  0.55329505
   0.50000000  0.50000000  0.55329505
   0.25000000  0.75000000  0.55329505
   0.33333333  0.33333333  0.38179910
   0.50000000  0.75000000  0.55329505
   0.41666667  0.91666667  0.46754708
   0.91666667  0.91666667  0.46754708
   0.75000000  0.00000000  0.55329505
   0.00000000  0.50000000  0.55329505
   0.91666667  0.66666667  0.46754708
   0.75000000  0.25000000  0.55329505
   0.00000000  0.25000000  0.55329505
   0.91666667  0.41666667  0.46754708
   0.66666667  0.66666667  0.46754708
   0.75000000  0.50000000  0.55329505
   0.00000000  0.00000000  0.55329505
   0.66666667  0.91666667  0.46754708
   0.25000000  0.50000000  0.55329505
   0.16666667  0.41666667  0.46754708
   0.50000000  0.00000000  0.55329505
Direct configuration=     2
   0.08333333  0.08333333  0.38179910
   0.33333333  0.83333333  0.38179910
   0.08333333  0.83333333  0.38179910
   0.91663282  0.16643888  0.46890304
   0.83333333  0.83333333  0.38179910
   0.08333333  0.33333333  0.38179910
   0.83333333  0.58333333  0.38179910
   0.66665530  0.41878415  0.46915400
   0.08333333  0.58333333  0.38179910
   0.83333333  0.33333333  0.38179910
   0.66749649  0.16454771  0.46912481
   0.16705445  0.91510476  0.46870443
   0.83333333  0.08333333  0.38179910
   0.58333333  0.58333333  0.38179910
   0.33333333  0.08333333  0.38179910
   0.16611589  0.16894521  0.46886886
   0.25147468 -0.00042184  0.55512017
   0.41522036  0.41734660  0.46807358
   0.58333333  0.33333333  0.38179910
   0.41651987  0.16653022  0.46852869
   0.58333333  0.08333333  0.38179910
   0.33333333  0.58333333  0.38179910
   0.16548304  0.66636732  0.46890857
   0.58333333  0.83333333  0.38179910
   0.33276024  0.33187583  0.61376977
   0.33328667  0.58431068  0.61407460
   0.08431016  0.83291831  0.61402654
   0.83250554  0.83329795  0.61396066
   0.83378245  0.58320350  0.61393032
   0.83453468  0.33323762  0.61403278
   0.58286782  0.33381216  0.61428340
   0.83306982  0.08330199  0.61425695
  -0.00088308  0.75087599  0.55680984
   0.25020311  0.25127469  0.55562448
   0.49925104  0.25040041  0.55738309
   0.41722588  0.66708659  0.46881435
   0.75025379  0.74970382  0.55629834
   0.49949135  0.50031632  0.55694877
   0.25002236  0.74960575  0.55675262
   0.33333333  0.33333333  0.38179910
   0.50042402  0.74997765  0.55373595
   0.41840092  0.91517256  0.46808376
   0.91625042  0.91584666  0.46800918
   0.75051272 -0.00094531  0.55667931
  -0.00154382  0.50044639  0.55520868
   0.91633558  0.66684651  0.46840794
   0.75030428  0.24971808  0.55790860
  -0.00137295  0.25182303  0.55569183
   0.91691336  0.41784502  0.46804921
   0.66698416  0.66731330  0.46881678
   0.75121389  0.50004248  0.55665368
  -0.00047827 -0.00070150  0.55696341
   0.66788132  0.91501551  0.46877398
   0.25013184  0.49937470  0.55688187
   0.16542685  0.41753650  0.46864036
   0.50026948 -0.00064325  0.55398199
Direct configuration=     3
   0.08333333  0.08333333  0.38179910
   0.33333333  0.83333333  0.38179910
   0.08333333  0.83333333  0.38179910
   0.91656666  0.16599362  0.47155358
   0.83333333  0.83333333  0.38179910
   0.08333333  0.33333333  0.38179910
   0.83333333  0.58333333  0.38179910
   0.66663309  0.42292325  0.47229510
   0.08333333  0.58333333  0.38179910
   0.83333333  0.33333333  0.38179910
   0.66911858  0.16040573  0.47220884
   0.16781247  0.91205166  0.47096675
   0.83333333  0.08333333  0.38179910
   0.58333333  0.58333333  0.38179910
   0.33333333  0.08333333  0.38179910
   0.16503928  0.17339915  0.47145259
   0.25435728 -0.00124641  0.55868780
   0.41239323  0.41867569  0.46910275
   0.58333333  0.33333333  0.38179910
   0.41623293  0.16626351  0.47044749
   0.58333333  0.08333333  0.38179910
   0.33333333  0.58333333  0.38179910
   0.16316935  0.66578218  0.47156991
   0.58333333  0.83333333  0.38179910
   0.33163998  0.32902681  0.60510809
   0.33319546  0.58622114  0.60600880
   0.08621958  0.83210705  0.60586679
   0.83088744  0.83322877  0.60567215
   0.83466034  0.58294971  0.60558248
   0.83688299  0.33305053  0.60588524
   0.58195787  0.33474814  0.60662575
   0.83255473  0.08324073  0.60654760
  -0.00260925  0.75258831  0.56368030
   0.25060014  0.25376636  0.56017789
   0.49778702  0.25118312  0.56537410
   0.41831899  0.66790742  0.47129153
   0.75074989  0.74912487  0.56216895
   0.49849708  0.50093463  0.56409079
   0.25006608  0.74883509  0.56351123
   0.33333333  0.33333333  0.38179910
   0.50125288  0.74993395  0.55459779
   0.42179091  0.91225198  0.46913282
   0.91543678  0.91424376  0.46891247
   0.75151496 -0.00279314  0.56329463
  -0.00456156  0.50131895  0.55894930
   0.91568839  0.66719804  0.47009070
   0.75089906  0.24916701  0.56692683
  -0.00405670  0.25538657  0.56037688
   0.91739556  0.42014837  0.46903073
   0.66760478  0.66857731  0.47129870
   0.75358672  0.50012553  0.56321890
  -0.00141317 -0.00207274  0.56413407
   0.67025565  0.91178794  0.47117225
   0.25038954  0.49815240  0.56389313
   0.16300335  0.41923678  0.47077744
   0.50079623 -0.00190063  0.55532477
Direct configuration=     4
   0.08333333  0.08333333  0.38179910
   0.33333333  0.83333333  0.38179910
   0.08333333  0.83333333  0.38179910
   0.91658636  0.16612619  0.47076442
   0.83333333  0.83333333  0.38179910
   0.08333333  0.33333333  0.38179910
   0.83333333  0.58333333  0.38179910
   0.66663970  0.42169090  0.47135988
   0.08333333  0.58333333  0.38179910
   0.83333333  0.33333333  0.38179910
   0.66863563  0.16163895  0.47129062
   0.16758678  0.91296067  0.47029318
   0.83333333  0.08333333  0.38179910
   0.58333333  0.58333333  0.38179910
   0.33333333  0.08333333  0.38179910
   0.16535983  0.17207306  0.47068332
   0.25349903 -0.00100091  0.55762559
   0.41323497  0.41827997  0.46879633
   0.58333333  0.33333333  0.38179910
   0.41631836  0.16634292  0.46987619
   0.58333333  0.08333333  0.38179910
   0.33333333  0.58333333  0.38179910
   0.16385822  0.66595640  0.47077754
   0.58333333  0.83333333  0.38179910
   0.33197352  0.32987506  0.60768697
   0.33322262  0.58565233  0.60841027
   0.08565108  0.83234859  0.60829623
   0.83136920  0.83324937  0.60813993
   0.83439896  0.58302527  0.60806792
   0.83618382  0.33310623  0.60831105
   0.58222879  0.33446947  0.60890570
   0.83270809  0.08325897  0.60884294
  -0.00209531  0.75207850  0.56163473
   0.25048193  0.25302450  0.55882219
   0.49822291  0.25095008  0.56299490
   0.41799353  0.66766303  0.47055398
   0.75060218  0.74929724  0.56042107
   0.49879311  0.50075054  0.56196436
   0.25005306  0.74906454  0.56149896
   0.33333333  0.33333333  0.38179910
   0.50100610  0.74994696  0.55434119
   0.42078159  0.91312154  0.46882048
   0.91567903  0.91472100  0.46864353
   0.75121656 -0.00224298  0.56132502
  -0.00366307  0.50105916  0.55783559
   0.91588108  0.66709338  0.46958968
   0.75072198  0.24933108  0.56424179
  -0.00325765  0.25432558  0.55898197
   0.91725199  0.41946258  0.46873850
   0.66742000  0.66820097  0.47055975
   0.75288025  0.50010080  0.56126421
  -0.00113482 -0.00166447  0.56199911
   0.66954873  0.91274890  0.47045820
   0.25031281  0.49851632  0.56180564
   0.16372491  0.41873054  0.47014116
   0.50063939 -0.00152627  0.55492498
Direct configuration=     5
   0.08333333  0.08333333  0.38179910
   0.33333333  0.83333333  0.38179910
   0.08333333  0.83333333  0.38179910
   0.91658011  0.16608415  0.47101462
   0.83333333  0.83333333  0.38179910
   0.08333333  0.33333333  0.38179910
   0.83333333  0.58333333  0.38179910
   0.66663761  0.42208162  0.47165639
   0.08333333  0.58333333  0.38179910
   0.83333333  0.33333333  0.38179910
   0.66878875  0.16124795  0.47158174
   0.16765833  0.91267247  0.47050674
   0.83333333  0.08333333  0.38179910
   0.58333333  0.58333333  0.38179910
   0.33333333  0.08333333  0.38179910
   0.16525820  0.17249350  0.47092722
   0.25377114 -0.00107875  0.55796237
   0.41296809  0.41840544  0.46889348
   0.58333333  0.33333333  0.38179910
   0.41629127  0.16631774  0.47005732
   0.58333333  0.08333333  0.38179910
   0.33333333  0.58333333  0.38179910
   0.16363981  0.66590116  0.47102876
   0.58333333  0.83333333  0.38179910
   0.33186777  0.32960612  0.60686933
   0.33321401  0.58583267  0.60764888
   0.08583132  0.83227201  0.60752597
   0.83121646  0.83324284  0.60735751
   0.83448183  0.58300132  0.60727991
   0.83640549  0.33308857  0.60754194
   0.58214290  0.33455782  0.60818284
   0.83265947  0.08325319  0.60811520
  -0.00225826  0.75224013  0.56228328
   0.25051941  0.25325971  0.55925202
   0.49808471  0.25102396  0.56374923
   0.41809672  0.66774051  0.47078782
   0.75064901  0.74924259  0.56097524
   0.49869926  0.50080891  0.56263855
   0.25005719  0.74899179  0.56213695
   0.33333333  0.33333333  0.38179910
   0.50108434  0.74994284  0.55442254
   0.42110160  0.91284584  0.46891951
   0.91560222  0.91456969  0.46872879
   0.75131117 -0.00241741  0.56194949
  -0.00394794  0.50114152  0.55818869
   0.91581998  0.66712656  0.46974853
   0.75077812  0.24927906  0.56509309
  -0.00351099  0.25466197  0.55942423
   0.91729751  0.41968001  0.46883115
   0.66747858  0.66832029  0.47079404
   0.75310423  0.50010864  0.56188395
  -0.00122307 -0.00179391  0.56267600
   0.66977286  0.91244423  0.47068459
   0.25033714  0.49840094  0.56246748
   0.16349614  0.41889104  0.47034289
   0.50068912 -0.00164496  0.55505173
Direct configuration=     6
   0.08333333  0.08333333  0.38179910
   0.33333333  0.83333333  0.38179910
   0.08333333  0.83333333  0.38179910
   0.91629299  0.16595826  0.47306195
   0.83333333  0.83333333  0.38179910
   0.08333333  0.33333333  0.38179910
   0.83333333  0.58333333  0.38179910
   0.66656690  0.42167290  0.47408977
   0.08333333  0.58333333  0.38179910
   0.83333333  0.33333333  0.38179910
   0.66810552  0.16203731  0.47406771
   0.16770825  0.91273502  0.47254769
   0.83333333  0.08333333  0.38179910
   0.58333333  0.58333333  0.38179910
   0.33333333  0.08333333  0.38179910
   0.16487432  0.17230307  0.47287878
   0.25434430 -0.00045104  0.55940837
   0.41360223  0.41808243  0.47062094
   0.58333333  0.33333333  0.38179910
   0.41691000  0.16655090  0.47139155
   0.58333333  0.08333333  0.38179910
   0.33333333  0.58333333  0.38179910
   0.16324329  0.66569901  0.47322187
   0.58333333  0.83333333  0.38179910
   0.32903306  0.32836545  0.60655443
   0.33400895  0.58625873  0.60682459
   0.08676424  0.83235797  0.60670892
   0.82907396  0.83303078  0.60640077
   0.83567168  0.58315938  0.60593426
   0.83971503  0.33330255  0.60699266
   0.58112079  0.33560082  0.60762874
   0.83282281  0.08194670  0.60757218
   0.00108882  0.74525846  0.56299254
   0.24719151  0.25096328  0.55988421
   0.50270635  0.24372197  0.56459142
   0.41764695  0.66716513  0.47219188
   0.74646911  0.75133308  0.56194341
   0.50124174  0.50409330  0.56343346
   0.25230040  0.75197054  0.56277980
   0.33333333  0.33333333  0.38179910
   0.50126950  0.75050801  0.55532600
   0.42046168  0.91323670  0.46961949
   0.91593311  0.91391762  0.47018450
   0.74425293  0.00109095  0.56282282
   0.00080461  0.49931212  0.55883288
   0.91524527  0.66746145  0.47100977
   0.74962647  0.24958053  0.56526731
   0.00307731  0.25164914  0.56003751
   0.91646509  0.42068544  0.46995553
   0.66875195  0.66798907  0.47209974
   0.74654777  0.50371868  0.56275671
   0.00314996  0.00073891  0.56357040
   0.67080240  0.91143185  0.47200557
   0.24360816  0.50172897  0.56344800
   0.16301440  0.41981778  0.47195047
   0.50042810 -0.00204416  0.55594858
Direct configuration=     7
   0.08333333  0.08333333  0.38179910
   0.33333333  0.83333333  0.38179910
   0.08333333  0.83333333  0.38179910
   0.91607320  0.16586188  0.47462922
   0.83333333  0.83333333  0.38179910
   0.08333333  0.33333333  0.38179910
   0.83333333  0.58333333  0.38179910
   0.66651276  0.42136002  0.47595257
   0.08333333  0.58333333  0.38179910
   0.83333333  0.33333333  0.38179910
   0.66758250  0.16264158  0.47597078
   0.16774646  0.91278290  0.47411009
   0.83333333  0.08333333  0.38179910
   0.58333333  0.58333333  0.38179910
   0.33333333  0.08333333  0.38179910
   0.16458045  0.17215730  0.47437275
   0.25478306  0.00002949  0.56051531
   0.41408767  0.41783516  0.47194335
   0.58333333  0.33333333  0.38179910
   0.41738364  0.16672939  0.47241293
   0.58333333  0.08333333  0.38179910
   0.33333333  0.58333333  0.38179910
   0.16293974  0.66554425  0.47490074
   0.58333333  0.83333333  0.38179910
   0.32686303  0.32741569  0.60631336
   0.33461749  0.58658488  0.60619359
   0.08747842  0.83242378  0.60608344
   0.82743383  0.83286844  0.60566836
   0.83658252  0.58328038  0.60490414
   0.84224855  0.33346635  0.60657217
   0.58033835  0.33639925  0.60720456
   0.83294785  0.08094655  0.60715649
   0.00365108  0.73991383  0.56353549
   0.24464393  0.24920531  0.56036817
   0.50624432  0.23813213  0.56523613
   0.41730265  0.66672466  0.47326671
   0.74326930  0.75293340  0.56268457
   0.50318807  0.50660758  0.56404198
   0.25401762  0.75425083  0.56327191
   0.33333333  0.33333333  0.38179910
   0.50141125  0.75094066  0.55601761
   0.41997180  0.91353590  0.47015534
   0.91618640  0.91341845  0.47129888
   0.73884970  0.00377668  0.56349138
   0.00444280  0.49791167  0.55932601
   0.91480532  0.66771782  0.47197527
   0.74874486  0.24981131  0.56540069
   0.00812079  0.24934276  0.56050699
   0.91582784  0.42145512  0.47081626
   0.66972675  0.66773551  0.47309929
   0.74152866  0.50648225  0.56342483
   0.00649761  0.00267784  0.56425507
   0.67159054  0.91065686  0.47301680
   0.23845698  0.50427664  0.56419861
   0.16264561  0.42052722  0.47318111
   0.50022829 -0.00234976  0.55663513
Direct configuration=     8
   0.08333333  0.08333333  0.38179910
   0.33333333  0.83333333  0.38179910
   0.08333333  0.83333333  0.38179910
   0.91568241  0.16606318  0.47578359
   0.83333333  0.83333333  0.38179910
   0.08333333  0.33333333  0.38179910
   0.83333333  0.58333333  0.38179910
   0.66649676  0.42086313  0.47698309
   0.08333333  0.58333333  0.38179910
   0.83333333  0.33333333  0.38179910
   0.66759250  0.16306505  0.47689829
   0.16778976  0.91303999  0.47498860
   0.83333333  0.08333333  0.38179910
   0.58333333  0.58333333  0.38179910
   0.33333333  0.08333333  0.38179910
   0.16481615  0.17156820  0.47446671
   0.25809307 -0.00120346  0.56242177
   0.41436225  0.41780386  0.47355302
   0.58333333  0.33333333  0.38179910
   0.41717198  0.16684086  0.47313554
   0.58333333  0.08333333  0.38179910
   0.33333333  0.58333333  0.38179910
   0.16347812  0.66546659  0.47606524
   0.58333333  0.83333333  0.38179910
   0.32598645  0.32600383  0.60632260
   0.33442257  0.58660360  0.60660283
   0.08702273  0.83246527  0.60660110
   0.82681424  0.83378151  0.60612011
   0.83880664  0.58204519  0.60491972
   0.84528337  0.33256727  0.60620467
   0.57834215  0.33771810  0.60793613
   0.83385201  0.07947520  0.60735135
   0.00242854  0.74008610  0.56414293
   0.24540759  0.24707233  0.56124821
   0.50133626  0.23860847  0.56654306
   0.41704052  0.66649306  0.47387535
   0.73920307  0.75404797  0.56240787
   0.50328360  0.50778639  0.56442236
   0.25696209  0.75570578  0.56348861
   0.33333333  0.33333333  0.38179910
   0.50021748  0.75394649  0.55721946
   0.41942746  0.91399984  0.47069800
   0.91621842  0.91349403  0.47272191
   0.73953855  0.00130064  0.56451779
   0.00404661  0.49648397  0.55983518
   0.91445167  0.66771698  0.47282803
   0.75187702  0.25068453  0.56543782
   0.00879348  0.25044630  0.56165441
   0.91514209  0.42161395  0.47187154
   0.66976389  0.66742223  0.47366100
   0.74073239  0.50736054  0.56439173
   0.00681293  0.00436991  0.56508015
   0.67139378  0.91106122  0.47356228
   0.23978958  0.50256544  0.56540542
   0.16312655  0.42021906  0.47385770
   0.49792620 -0.00245145  0.55764435
Direct configuration=     9
   0.08333333  0.08333333  0.38179910
   0.33333333  0.83333333  0.38179910
   0.08333333  0.83333333  0.38179910
   0.91558630  0.16611268  0.47606747
   0.83333333  0.83333333  0.38179910
   0.08333333  0.33333333  0.38179910
   0.83333333  0.58333333  0.38179910
   0.66649282  0.42074093  0.47723651
   0.08333333  0.58333333  0.38179910
   0.83333333  0.33333333  0.38179910
   0.66759495  0.16316919  0.47712638
   0.16780041  0.91310321  0.47520465
   0.83333333  0.08333333  0.38179910
   0.58333333  0.58333333  0.38179910
   0.33333333  0.08333333  0.38179910
   0.16487411  0.17142333  0.47448982
   0.25890707 -0.00150667  0.56289062
   0.41442977  0.41779616  0.47394887
   0.58333333  0.33333333  0.38179910
   0.41711993  0.16686827  0.47331324
   0.58333333  0.08333333  0.38179910
   0.33333333  0.58333333  0.38179910
   0.16361052  0.66544748  0.47635161
   0.58333333  0.83333333  0.38179910
   0.32577087  0.32565662  0.60632487
   0.33437464  0.58660821  0.60670347
   0.08691066  0.83247547  0.60672840
   0.82666187  0.83400605  0.60623121
   0.83935360  0.58174143  0.60492355
   0.84602969  0.33234617  0.60611430
   0.57785124  0.33804243  0.60811604
   0.83407436  0.07911336  0.60739928
   0.00212788  0.74012847  0.56429232
   0.24559539  0.24654778  0.56146463
   0.50012925  0.23872561  0.56686447
   0.41697606  0.66643611  0.47402502
   0.73820310  0.75432206  0.56233982
   0.50330709  0.50807628  0.56451590
   0.25768620  0.75606359  0.56354190
   0.33333333  0.33333333  0.38179910
   0.49992390  0.75468569  0.55751502
   0.41929359  0.91411393  0.47083145
   0.91622629  0.91351262  0.47307187
   0.73970796  0.00069173  0.56477021
   0.00394917  0.49613287  0.55996039
   0.91436471  0.66771677  0.47303775
   0.75264728  0.25089927  0.56544695
   0.00895890  0.25071768  0.56193659
   0.91497345  0.42165301  0.47213105
   0.66977302  0.66734519  0.47379914
   0.74053657  0.50757653  0.56462951
   0.00689048  0.00478603  0.56528305
   0.67134539  0.91116066  0.47369643
   0.24011730  0.50214462  0.56570220
   0.16324482  0.42014328  0.47402409
   0.49736006 -0.00247646  0.55789253
Direct configuration=    10
   0.08333333  0.08333333  0.38179910
   0.33333333  0.83333333  0.38179910
   0.08333333  0.83333333  0.38179910
   0.91592493  0.16620312  0.47653214
   0.83333333  0.83333333  0.38179910
   0.08333333  0.33333333  0.38179910
   0.83333333  0.58333333  0.38179910
   0.66631299  0.42072176  0.47747997
   0.08333333  0.58333333  0.38179910
   0.83333333  0.33333333  0.38179910
   0.66744189  0.16316484  0.47794557
   0.16776064  0.91376167  0.47565739
   0.83333333  0.08333333  0.38179910
   0.58333333  0.58333333  0.38179910
   0.33333333  0.08333333  0.38179910
   0.16504022  0.17075555  0.47434809
   0.26012583 -0.00182913  0.56498140
   0.41451591  0.41774480  0.47524493
   0.58333333  0.33333333  0.38179910
   0.41691680  0.16679424  0.47366753
   0.58333333  0.08333333  0.38179910
   0.33333333  0.58333333  0.38179910
   0.16409309  0.66535795  0.47719873
   0.58333333  0.83333333  0.38179910
   0.32428317  0.32504245  0.60817181
   0.33388144  0.58747657  0.60743364
   0.08750759  0.83222190  0.60706265
   0.82602063  0.83194051  0.60740261
   0.84063573  0.58192603  0.60553470
   0.84791116  0.33247323  0.60704251
   0.57807532  0.33794926  0.60830506
   0.83423635  0.07946719  0.60771445
   0.00093933  0.74170423  0.56485119
   0.24606320  0.24476705  0.56197232
   0.49882635  0.23947123  0.56801525
   0.41720720  0.66661816  0.47427806
   0.73830691  0.75450825  0.56289962
   0.50246849  0.50778640  0.56525232
   0.25751821  0.75612705  0.56472645
   0.33333333  0.33333333  0.38179910
   0.49909332  0.75680030  0.55876138
   0.41894663  0.91434929  0.47121864
   0.91618070  0.91375686  0.47426879
   0.73981911  0.00151287  0.56517068
   0.00319205  0.49534982  0.56029099
   0.91449632  0.66750042  0.47363825
   0.75182328  0.25040126  0.56640405
   0.01069688  0.25103365  0.56265927
   0.91475365  0.42120331  0.47292417
   0.66868339  0.66728561  0.47404459
   0.74119465  0.50780886  0.56569240
   0.00750336  0.00427906  0.56648902
   0.67028689  0.91242426  0.47390104
   0.24152122  0.50153698  0.56663885
   0.16381314  0.41946498  0.47438959
   0.49604028 -0.00234507  0.55900337
Direct configuration=    11
   0.08333333  0.08333333  0.38179910
   0.33333333  0.83333333  0.38179910
   0.08333333  0.83333333  0.38179910
   0.91619743  0.16627589  0.47690607
   0.83333333  0.83333333  0.38179910
   0.08333333  0.33333333  0.38179910
   0.83333333  0.58333333  0.38179910
   0.66616828  0.42070633  0.47767589
   0.08333333  0.58333333  0.38179910
   0.83333333  0.33333333  0.38179910
   0.66731871  0.16316134  0.47860478
   0.16772864  0.91429155  0.47602171
   0.83333333  0.08333333  0.38179910
   0.58333333  0.58333333  0.38179910
   0.33333333  0.08333333  0.38179910
   0.16517389  0.17021818  0.47423403
   0.26110659 -0.00208861  0.56666390
   0.41458522  0.41770347  0.47628790
   0.58333333  0.33333333  0.38179910
   0.41675333  0.16673466  0.47395263
   0.58333333  0.08333333  0.38179910
   0.33333333  0.58333333  0.38179910
   0.16448143  0.66528589  0.47788042
   0.58333333  0.83333333  0.38179910
   0.32308598  0.32454821  0.60965808
   0.33348456  0.58817536  0.60802122
   0.08798795  0.83201784  0.60733164
   0.82550460  0.83027833  0.60834527
   0.84166749  0.58207459  0.60602651
   0.84942522  0.33257549  0.60778946
   0.57825564  0.33787428  0.60845716
   0.83436671  0.07975191  0.60796808
  -0.00001712  0.74297228  0.56530093
   0.24643966  0.24333406  0.56238086
   0.49777788  0.24007125  0.56894131
   0.41739320  0.66676466  0.47448169
   0.73839046  0.75465808  0.56335010
   0.50179366  0.50755312  0.56584494
   0.25738303  0.75617812  0.56567968
   0.33333333  0.33333333  0.38179910
   0.49842493  0.75850196  0.55976436
   0.41866743  0.91453869  0.47153022
   0.91614401  0.91395340  0.47523197
   0.73990856  0.00217367  0.56549294
   0.00258278  0.49471968  0.56055704
   0.91460224  0.66732632  0.47412148
   0.75116019  0.25000051  0.56717425
   0.01209547  0.25128792  0.56324083
   0.91457677  0.42084143  0.47356241
   0.66780655  0.66723766  0.47424212
   0.74172422  0.50799582  0.56654772
   0.00799656  0.00387110  0.56745949
   0.66943510  0.91344110  0.47406570
   0.24265097  0.50104800  0.56739259
   0.16427047  0.41891914  0.47468371
   0.49497823 -0.00223934  0.55989729
Direct configuration=    12
   0.08333333  0.08333333  0.38179910
   0.33333333  0.83333333  0.38179910
   0.08333333  0.83333333  0.38179910
   0.91635429  0.16636763  0.47736804
   0.83333333  0.83333333  0.38179910
   0.08333333  0.33333333  0.38179910
   0.83333333  0.58333333  0.38179910
   0.66604880  0.42070105  0.47793577
   0.08333333  0.58333333  0.38179910
   0.83333333  0.33333333  0.38179910
   0.66702226  0.16331755  0.47916276
   0.16793681  0.91454633  0.47661120
   0.83333333  0.08333333  0.38179910
   0.58333333  0.58333333  0.38179910
   0.33333333  0.08333333  0.38179910
   0.16547605  0.16961639  0.47439931
   0.25960998 -0.00203418  0.56864737
   0.41461536  0.41760110  0.47712282
   0.58333333  0.33333333  0.38179910
   0.41666015  0.16664487  0.47426379
   0.58333333  0.08333333  0.38179910
   0.33333333  0.58333333  0.38179910
   0.16462899  0.66533483  0.47851929
   0.58333333  0.83333333  0.38179910
   0.32128963  0.32399904  0.61153406
   0.33334842  0.58846717  0.60951657
   0.08799094  0.83128641  0.60848509
   0.82436028  0.83019062  0.60940614
   0.84217225  0.58288555  0.60711307
   0.85023938  0.33222751  0.60887361
   0.57848152  0.33739753  0.60921322
   0.83410792  0.07987684  0.60901259
  -0.00077137  0.74361098  0.56583398
   0.24755402  0.24396927  0.56303824
   0.49726887  0.24026592  0.57019073
   0.41752443  0.66733983  0.47490515
   0.73938762  0.75450609  0.56395145
   0.50187062  0.50777913  0.56628769
   0.25703765  0.75627680  0.56648507
   0.33333333  0.33333333  0.38179910
   0.49872063  0.75803900  0.56077670
   0.41844114  0.91460060  0.47200186
   0.91617520  0.91409562  0.47600466
   0.74017803  0.00134781  0.56630068
   0.00378562  0.49472955  0.56067599
   0.91463636  0.66719096  0.47449632
   0.75130214  0.25096351  0.56807796
   0.01269648  0.25035618  0.56381280
   0.91447590  0.42045399  0.47399577
   0.66669578  0.66761870  0.47460636
   0.74126623  0.50799430  0.56744970
   0.00898998  0.00441944  0.56814865
   0.66852919  0.91410515  0.47432209
   0.24205428  0.50035830  0.56830463
   0.16453874  0.41840984  0.47504559
   0.49602758 -0.00177677  0.56082751
Direct configuration=    13
   0.08333333  0.08333333  0.38179910
   0.33333333  0.83333333  0.38179910
   0.08333333  0.83333333  0.38179910
   0.91652800  0.16646922  0.47787966
   0.83333333  0.83333333  0.38179910
   0.08333333  0.33333333  0.38179910
   0.83333333  0.58333333  0.38179910
   0.66591648  0.42069520  0.47822357
   0.08333333  0.58333333  0.38179910
   0.83333333  0.33333333  0.38179910
   0.66669395  0.16349054  0.47978069
   0.16816734  0.91482849  0.47726402
   0.83333333  0.08333333  0.38179910
   0.58333333  0.58333333  0.38179910
   0.33333333  0.08333333  0.38179910
   0.16581066  0.16894996  0.47458235
   0.25795256 -0.00197389  0.57084395
   0.41464873  0.41748773  0.47804744
   0.58333333  0.33333333  0.38179910
   0.41655696  0.16654544  0.47460838
   0.58333333  0.08333333  0.38179910
   0.33333333  0.58333333  0.38179910
   0.16479240  0.66538903  0.47922680
   0.58333333  0.83333333  0.38179910
   0.31930026  0.32339087  0.61361159
   0.33319765  0.58879035  0.61117258
   0.08799425  0.83047640  0.60976247
   0.82309301  0.83009348  0.61058099
   0.84273125  0.58378364  0.60831638
   0.85114103  0.33184215  0.61007424
   0.57873167  0.33686956  0.61005052
   0.83382132  0.08001519  0.61016932
  -0.00160665  0.74431831  0.56642431
   0.24878810  0.24467271  0.56376625
   0.49670518  0.24048152  0.57157440
   0.41766976  0.66797681  0.47537411
   0.74049192  0.75433777  0.56461741
   0.50195586  0.50802942  0.56677801
   0.25665517  0.75638609  0.56737699
   0.33333333  0.33333333  0.38179910
   0.49904810  0.75752630  0.56189782
   0.41819055  0.91466917  0.47252417
   0.91620975  0.91425312  0.47686036
   0.74047645  0.00043323  0.56719520
   0.00511770  0.49474047  0.56080773
   0.91467415  0.66704107  0.47491145
   0.75145935  0.25202998  0.56907877
   0.01336208  0.24932432  0.56444624
   0.91436418  0.42002492  0.47447569
   0.66546567  0.66804067  0.47500975
   0.74075904  0.50799261  0.56844859
   0.01009014  0.00502669  0.56891184
   0.66752594  0.91484054  0.47460603
   0.24139347  0.49959450  0.56931467
   0.16483582  0.41784583  0.47544635
   0.49718966 -0.00126450  0.56185767
Direct configuration=    14
   0.08333333  0.08333333  0.38179910
   0.33333333  0.83333333  0.38179910
   0.08333333  0.83333333  0.38179910
   0.91606211  0.16645651  0.47831610
   0.83333333  0.83333333  0.38179910
   0.08333333  0.33333333  0.38179910
   0.83333333  0.58333333  0.38179910
   0.66588037  0.42067190  0.47857063
   0.08333333  0.58333333  0.38179910
   0.83333333  0.33333333  0.38179910
   0.66667632  0.16360922  0.48041487
   0.16851016  0.91439310  0.47798391
   0.83333333  0.08333333  0.38179910
   0.58333333  0.58333333  0.38179910
   0.33333333  0.08333333  0.38179910
   0.16634614  0.16881561  0.47549307
   0.25782541 -0.00107273  0.57244819
   0.41445310  0.41763527  0.47839303
   0.58333333  0.33333333  0.38179910
   0.41659400  0.16644681  0.47501707
   0.58333333  0.08333333  0.38179910
   0.33333333  0.58333333  0.38179910
   0.16463558  0.66538283  0.47966323
   0.58333333  0.83333333  0.38179910
   0.31854965  0.32330182  0.61507703
   0.33402704  0.58795899  0.61204285
   0.08675890  0.83068964  0.61076812
   0.82257013  0.83188578  0.61160215
   0.84343692  0.58309619  0.60877764
   0.85141460  0.33150945  0.61094025
   0.57838931  0.33742176  0.61106529
   0.83386529  0.08000986  0.61094363
  -0.00142934  0.74463643  0.56741662
   0.24925488  0.24506514  0.56414117
   0.49654134  0.24051969  0.57321120
   0.41728521  0.66848178  0.47599624
   0.74094256  0.75314470  0.56495708
   0.50085566  0.50856077  0.56783212
   0.25655190  0.75498654  0.56832147
   0.33333333  0.33333333  0.38179910
   0.49983332  0.75619069  0.56250752
   0.41803749  0.91485172  0.47341020
   0.91611339  0.91435436  0.47709737
   0.74095929  0.00031529  0.56856899
   0.00472809  0.49599607  0.56136521