  48  48   0   0
  0.5349325E+02  0.1100258E-08  0.1100258E-08  0.2449179E-08  0.3500000E-15
  1.000000000000000E-004
  CAR 
 unknown system                          
      6.41234130     -9.94973893  301     -1.06469294      1.00000000
     -9.950  0.0000E+00  0.0000E+00
     -9.895  0.0000E+00  0.0000E+00
     -9.841  0.0000E+00  0.0000E+00
     -9.786  0.0000E+00  0.0000E+00
     -9.732  0.0000E+00  0.0000E+00
     -9.677  0.0000E+00  0.0000E+00
     -9.622  0.0000E+00  0.0000E+00
     -9.568  0.0000E+00  0.0000E+00
     -9.513  0.1493E-16  0.8142E-18
     -9.459  0.6000E-14  0.3280E-15
     -9.404  0.1341E-11  0.7345E-13
     -9.350  0.1677E-09  0.9218E-11
     -9.295  0.1176E-07  0.6504E-09
     -9.241  0.4631E-06  0.2591E-07
     -9.186  0.1028E-04  0.5864E-06
     -9.132  0.1288E-03  0.7609E-05
     -9.077  0.9135E-03  0.5743E-04
     -9.023  0.3679E-02  0.2581E-03
     -8.968  0.8434E-02  0.7180E-03
     -8.913  0.1113E-01  0.1325E-02
     -8.859  0.9148E-02  0.1824E-02
     -8.804  0.7229E-02  0.2218E-02
     -8.750  0.9151E-02  0.2717E-02
     -8.695  0.1080E-01  0.3306E-02
     -8.641  0.8063E-02  0.3746E-02
     -8.586  0.3587E-02  0.3942E-02
     -8.532  0.1090E-02  0.4001E-02
     -8.477  0.1047E-02  0.4058E-02
     -8.423  0.3140E-02  0.4230E-02
     -8.368  0.6828E-02  0.4602E-02
     -8.314  0.9853E-02  0.5139E-02
     -8.259  0.1022E-01  0.5697E-02
     -8.204  0.9880E-02  0.6236E-02
     -8.150  0.1276E-01  0.6931E-02
     -8.095  0.1846E-01  0.7938E-02
     -8.041  0.2122E-01  0.9096E-02
     -7.986  0.1814E-01  0.1008E-01
     -7.932  0.1364E-01  0.1083E-01
     -7.877  0.1069E-01  0.1141E-01
     -7.823  0.8133E-02  0.1185E-01
     -7.768  0.7984E-02  0.1229E-01
     -7.714  0.1302E-01  0.1300E-01
     -7.659  0.1879E-01  0.1402E-01
     -7.605  0.1881E-01  0.1505E-01
     -7.550  0.1460E-01  0.1585E-01
     -7.495  0.1135E-01  0.1647E-01
     -7.441  0.1231E-01  0.1714E-01
     -7.386  0.1870E-01  0.1816E-01
     -7.332  0.2784E-01  0.1968E-01
     -7.277  0.3708E-01  0.2170E-01
     -7.223  0.4670E-01  0.2425E-01
     -7.168  0.5595E-01  0.2730E-01
     -7.114  0.6395E-01  0.3078E-01
     -7.059  0.7168E-01  0.3469E-01
     -7.005  0.7748E-01  0.3892E-01
     -6.950  0.7709E-01  0.4312E-01
     -6.895  0.7209E-01  0.4706E-01
     -6.841  0.6887E-01  0.5081E-01
     -6.786  0.6860E-01  0.5455E-01
     -6.732  0.6812E-01  0.5827E-01
     -6.677  0.6739E-01  0.6194E-01
     -6.623  0.7040E-01  0.6578E-01
     -6.568  0.7879E-01  0.7008E-01
     -6.514  0.8873E-01  0.7492E-01
     -6.459  0.9661E-01  0.8019E-01
     -6.405  0.1034E+00  0.8583E-01
     -6.350  0.1126E+00  0.9197E-01
     -6.296  0.1261E+00  0.9885E-01
     -6.241  0.1408E+00  0.1065E+00
     -6.186  0.1511E+00  0.1148E+00
     -6.132  0.1566E+00  0.1233E+00
     -6.077  0.1579E+00  0.1319E+00
     -6.023  0.1548E+00  0.1404E+00
     -5.968  0.1492E+00  0.1485E+00
     -5.914  0.1432E+00  0.1563E+00
     -5.859  0.1366E+00  0.1638E+00
     -5.805  0.1304E+00  0.1709E+00
     -5.750  0.1278E+00  0.1778E+00
     -5.696  0.1287E+00  0.1849E+00
     -5.641  0.1330E+00  0.1921E+00
     -5.587  0.1414E+00  0.1998E+00
     -5.532  0.1496E+00  0.2080E+00
     -5.477  0.1536E+00  0.2164E+00
     -5.423  0.1534E+00  0.2247E+00
     -5.368  0.1495E+00  0.2329E+00
     -5.314  0.1455E+00  0.2408E+00
     -5.259  0.1459E+00  0.2488E+00
     -5.205  0.1506E+00  0.2570E+00
     -5.150  0.1577E+00  0.2656E+00
     -5.096  0.1658E+00  0.2746E+00
     -5.041  0.1736E+00  0.2841E+00
     -4.987  0.1798E+00  0.2939E+00
     -4.932  0.1825E+00  0.3039E+00
     -4.877  0.1808E+00  0.3137E+00
     -4.823  0.1764E+00  0.3233E+00
     -4.768  0.1707E+00  0.3327E+00
     -4.714  0.1636E+00  0.3416E+00
     -4.659  0.1565E+00  0.3501E+00
     -4.605  0.1541E+00  0.3585E+00
     -4.550  0.1582E+00  0.3671E+00
     -4.496  0.1651E+00  0.3761E+00
     -4.441  0.1697E+00  0.3854E+00
     -4.387  0.1686E+00  0.3946E+00
     -4.332  0.1657E+00  0.4036E+00
     -4.278  0.1675E+00  0.4128E+00
     -4.223  0.1723E+00  0.4222E+00
     -4.168  0.1763E+00  0.4318E+00
     -4.114  0.1813E+00  0.4417E+00
     -4.059  0.1869E+00  0.4519E+00
     -4.005  0.1910E+00  0.4623E+00
     -3.950  0.1933E+00  0.4728E+00
     -3.896  0.1933E+00  0.4834E+00
     -3.841  0.1937E+00  0.4939E+00
     -3.787  0.1964E+00  0.5046E+00
     -3.732  0.2003E+00  0.5156E+00
     -3.678  0.2049E+00  0.5267E+00
     -3.623  0.2070E+00  0.5380E+00
     -3.569  0.2045E+00  0.5492E+00
     -3.514  0.2008E+00  0.5601E+00
     -3.459  0.2003E+00  0.5711E+00
     -3.405  0.2011E+00  0.5820E+00
     -3.350  0.1981E+00  0.5928E+00
     -3.296  0.1920E+00  0.6033E+00
     -3.241  0.1852E+00  0.6134E+00
     -3.187  0.1757E+00  0.6230E+00
     -3.132  0.1666E+00  0.6321E+00
     -3.078  0.1642E+00  0.6410E+00
     -3.023  0.1675E+00  0.6502E+00
     -2.969  0.1705E+00  0.6595E+00
     -2.914  0.1724E+00  0.6689E+00
     -2.860  0.1752E+00  0.6784E+00
     -2.805  0.1769E+00  0.6881E+00
     -2.750  0.1768E+00  0.6977E+00
     -2.696  0.1773E+00  0.7074E+00
     -2.641  0.1799E+00  0.7172E+00
     -2.587  0.1855E+00  0.7273E+00
     -2.532  0.1921E+00  0.7378E+00
     -2.478  0.1936E+00  0.7483E+00
     -2.423  0.1882E+00  0.7586E+00
     -2.369  0.1819E+00  0.7685E+00
     -2.314  0.1794E+00  0.7783E+00
     -2.260  0.1807E+00  0.7882E+00
     -2.205  0.1839E+00  0.7982E+00
     -2.150  0.1850E+00  0.8083E+00
     -2.096  0.1831E+00  0.8183E+00
     -2.041  0.1803E+00  0.8281E+00
     -1.987  0.1775E+00  0.8378E+00
     -1.932  0.1757E+00  0.8474E+00
     -1.878  0.1774E+00  0.8570E+00
     -1.823  0.1856E+00  0.8672E+00
     -1.769  0.1998E+00  0.8781E+00
     -1.714  0.2161E+00  0.8898E+00
     -1.660  0.2291E+00  0.9023E+00
     -1.605  0.2324E+00  0.9150E+00
     -1.551  0.2227E+00  0.9272E+00
     -1.496  0.2072E+00  0.9385E+00
     -1.441  0.1962E+00  0.9492E+00
     -1.387  0.1906E+00  0.9596E+00
     -1.332  0.1841E+00  0.9696E+00
     -1.278  0.1745E+00  0.9791E+00
     -1.223  0.1654E+00  0.9881E+00
     -1.169  0.1520E+00  0.9964E+00
     -1.114  0.1256E+00  0.1003E+01
     -1.060  0.9390E-01  0.1008E+01
     -1.005  0.7103E-01  0.1012E+01
     -0.951  0.5563E-01  0.1015E+01
     -0.896  0.4150E-01  0.1018E+01
     -0.842  0.2817E-01  0.1019E+01
     -0.787  0.1893E-01  0.1020E+01
     -0.732  0.1767E-01  0.1021E+01
     -0.678  0.2304E-01  0.1022E+01
     -0.623  0.3164E-01  0.1024E+01
     -0.569  0.4021E-01  0.1026E+01
     -0.514  0.4463E-01  0.1029E+01
     -0.460  0.4436E-01  0.1031E+01
     -0.405  0.4293E-01  0.1033E+01
     -0.351  0.4231E-01  0.1036E+01
     -0.296  0.4205E-01  0.1038E+01
     -0.242  0.4094E-01  0.1040E+01
     -0.187  0.3546E-01  0.1042E+01
     -0.132  0.2589E-01  0.1044E+01
     -0.078  0.1853E-01  0.1045E+01
     -0.023  0.1526E-01  0.1046E+01
      0.031  0.1486E-01  0.1046E+01
      0.086  0.1953E-01  0.1047E+01
      0.140  0.2807E-01  0.1049E+01
      0.195  0.3387E-01  0.1051E+01
      0.249  0.3351E-01  0.1053E+01
      0.304  0.2992E-01  0.1054E+01
      0.358  0.2849E-01  0.1056E+01
      0.413  0.3390E-01  0.1058E+01
      0.467  0.4544E-01  0.1060E+01
      0.522  0.5544E-01  0.1063E+01
      0.577  0.5956E-01  0.1066E+01
      0.631  0.5845E-01  0.1070E+01
      0.686  0.5097E-01  0.1072E+01
      0.740  0.3903E-01  0.1074E+01
      0.795  0.3011E-01  0.1076E+01
      0.849  0.2757E-01  0.1078E+01
      0.904  0.2701E-01  0.1079E+01
      0.958  0.2459E-01  0.1080E+01
      1.013  0.2121E-01  0.1082E+01
      1.067  0.1846E-01  0.1083E+01
      1.122  0.1632E-01  0.1083E+01
      1.176  0.1512E-01  0.1084E+01
      1.231  0.1534E-01  0.1085E+01
      1.286  0.1581E-01  0.1086E+01
      1.340  0.1536E-01  0.1087E+01
      1.395  0.1495E-01  0.1088E+01
      1.449  0.1779E-01  0.1089E+01
      1.504  0.2551E-01  0.1090E+01
      1.558  0.3219E-01  0.1092E+01
      1.613  0.3183E-01  0.1094E+01
      1.667  0.2811E-01  0.1095E+01
      1.722  0.2829E-01  0.1097E+01
      1.776  0.3396E-01  0.1098E+01
      1.831  0.3784E-01  0.1101E+01
      1.885  0.3322E-01  0.1102E+01
      1.940  0.2375E-01  0.1104E+01
      1.995  0.1774E-01  0.1105E+01
      2.049  0.1780E-01  0.1106E+01
      2.104  0.2195E-01  0.1107E+01
      2.158  0.2967E-01  0.1108E+01
      2.213  0.3854E-01  0.1110E+01
      2.267  0.4580E-01  0.1113E+01
      2.322  0.5066E-01  0.1116E+01
      2.376  0.5061E-01  0.1118E+01
      2.431  0.4511E-01  0.1121E+01
      2.485  0.3818E-01  0.1123E+01
      2.540  0.3574E-01  0.1125E+01
      2.595  0.4022E-01  0.1127E+01
      2.649  0.4700E-01  0.1130E+01
      2.704  0.4920E-01  0.1132E+01
      2.758  0.4350E-01  0.1135E+01
      2.813  0.3186E-01  0.1137E+01
      2.867  0.1925E-01  0.1138E+01
      2.922  0.1191E-01  0.1138E+01
      2.976  0.1150E-01  0.1139E+01
      3.031  0.1224E-01  0.1140E+01
      3.085  0.1148E-01  0.1140E+01
      3.140  0.1302E-01  0.1141E+01
      3.194  0.1765E-01  0.1142E+01
      3.249  0.2242E-01  0.1143E+01
      3.304  0.2415E-01  0.1144E+01
      3.358  0.2162E-01  0.1146E+01
      3.413  0.1796E-01  0.1147E+01
      3.467  0.1669E-01  0.1147E+01
      3.522  0.1996E-01  0.1149E+01
      3.576  0.2919E-01  0.1150E+01
      3.631  0.4002E-01  0.1152E+01
      3.685  0.4449E-01  0.1155E+01
      3.740  0.4135E-01  0.1157E+01
      3.794  0.3564E-01  0.1159E+01
      3.849  0.3088E-01  0.1161E+01
      3.903  0.2719E-01  0.1162E+01
      3.958  0.2514E-01  0.1163E+01
      4.013  0.2601E-01  0.1165E+01
      4.067  0.2662E-01  0.1166E+01
      4.122  0.2398E-01  0.1168E+01
      4.176  0.2145E-01  0.1169E+01
      4.231  0.2098E-01  0.1170E+01
      4.285  0.1944E-01  0.1171E+01
      4.340  0.1661E-01  0.1172E+01
      4.394  0.1803E-01  0.1173E+01
      4.449  0.2636E-01  0.1174E+01
      4.503  0.3861E-01  0.1176E+01
      4.558  0.5343E-01  0.1179E+01
      4.613  0.6644E-01  0.1183E+01
      4.667  0.6675E-01  0.1187E+01
      4.722  0.5567E-01  0.1190E+01
      4.776  0.4668E-01  0.1192E+01
      4.831  0.4347E-01  0.1195E+01
      4.885  0.4272E-01  0.1197E+01
      4.940  0.4527E-01  0.1199E+01
      4.994  0.5273E-01  0.1202E+01
      5.049  0.6286E-01  0.1206E+01
      5.103  0.6986E-01  0.1209E+01
      5.158  0.6836E-01  0.1213E+01
      5.212  0.5972E-01  0.1216E+01
      5.267  0.4878E-01  0.1219E+01
      5.322  0.3712E-01  0.1221E+01
      5.376  0.2550E-01  0.1223E+01
      5.431  0.1548E-01  0.1223E+01
      5.485  0.7651E-02  0.1224E+01
      5.540  0.2680E-02  0.1224E+01
      5.594  0.5971E-03  0.1224E+01
      5.649  0.7990E-04  0.1224E+01
      5.703  0.6245E-05  0.1224E+01
      5.758  0.2808E-06  0.1224E+01
      5.812  0.7198E-08  0.1224E+01
      5.867  0.1045E-09  0.1224E+01
      5.921  0.8544E-12  0.1224E+01
      5.976  0.3922E-14  0.1224E+01
      6.031  0.9499E-17  0.1224E+01
      6.085  0.0000E+00  0.1224E+01
      6.140  0.0000E+00  0.1224E+01
      6.194  0.0000E+00  0.1224E+01
      6.249  0.0000E+00  0.1224E+01
      6.303  0.0000E+00  0.1224E+01
      6.358  0.0000E+00  0.1224E+01
      6.412  0.0000E+00  0.1224E+01
