 vasp.5.4.1 24Jun15 (build Mar 14 2019 10:18:33) complex                        
  
 executed on INTEL-19.0.2+OPENMPI date 2023.01.31  01:06:17
 running on   36 total cores
 distrk:  each k-point on   36 cores,    1 groups
 distr:  one band on NCORES_PER_BAND=   6 cores,    6 groups


--------------------------------------------------------------------------------------------------------


 INCAR:
 POTCAR:    PAW_PBE Au 04Oct2007                  
 POTCAR:    PAW_PBE Pd 04Jan2005                  
 POTCAR:    PAW_PBE Au 04Oct2007                  
  local pseudopotential read in
  partial core-charges read in
  partial kinetic energy density read in
  atomic valenz-charges read in
  non local Contribution for L=           2  read in
    real space projection operators read in
  non local Contribution for L=           2  read in
    real space projection operators read in
  non local Contribution for L=           0  read in
    real space projection operators read in
  non local Contribution for L=           0  read in
    real space projection operators read in
  non local Contribution for L=           1  read in
    real space projection operators read in
  non local Contribution for L=           1  read in
    real space projection operators read in
    PAW grid and wavefunctions read in
 
   number of l-projection  operators is LMAX  =           6
   number of lm-projection operators is LMMAX =          18
 
 POTCAR:    PAW_PBE Pd 04Jan2005                  
  local pseudopotential read in
  partial core-charges read in
  partial kinetic energy density read in
  atomic valenz-charges read in
  non local Contribution for L=           2  read in
    real space projection operators read in
  non local Contribution for L=           2  read in
    real space projection operators read in
  non local Contribution for L=           0  read in
    real space projection operators read in
  non local Contribution for L=           0  read in
    real space projection operators read in
  non local Contribution for L=           1  read in
    real space projection operators read in
  non local Contribution for L=           1  read in
    real space projection operators read in
    PAW grid and wavefunctions read in
 
   number of l-projection  operators is LMAX  =           6
   number of lm-projection operators is LMMAX =          18
 
 Optimization of the real space projectors (new method)

 maximal supplied QI-value         = 15.12
 optimisation between [QCUT,QGAM] = [ 10.13, 20.41] = [ 28.73,116.64] Ry 
 Optimized for a Real-space Cutoff    1.51 Angstroem

   l    n(q)    QCUT    max X(q) W(low)/X(q) W(high)/X(q)  e(spline) 
   2      8    10.129    60.898    0.46E-03    0.46E-03    0.14E-06
   2      8    10.129    58.894    0.47E-03    0.47E-03    0.14E-06
   0      9    10.129   109.617    0.16E-03    0.11E-03    0.54E-07
   0      9    10.129    75.026    0.15E-03    0.11E-03    0.52E-07
   1      9    10.129    16.344    0.96E-04    0.15E-03    0.14E-06
   1      9    10.129    10.160    0.81E-04    0.12E-03    0.11E-06
 Optimization of the real space projectors (new method)

 maximal supplied QI-value         = 14.36
 optimisation between [QCUT,QGAM] = [ 10.20, 20.39] = [ 29.12,116.47] Ry 
 Optimized for a Real-space Cutoff    1.51 Angstroem

   l    n(q)    QCUT    max X(q) W(low)/X(q) W(high)/X(q)  e(spline) 
   2      8    10.197    59.108    0.26E-03    0.14E-03    0.96E-07
   2      8    10.197    58.101    0.27E-03    0.14E-03    0.98E-07
   0      9    10.197   102.235    0.54E-04    0.60E-05    0.72E-07
   0      9    10.197    58.388    0.52E-04    0.60E-05    0.68E-07
   1      9    10.197    22.191    0.18E-03    0.25E-03    0.79E-07
   1      9    10.197    15.590    0.15E-03    0.21E-03    0.69E-07
  PAW_PBE Au 04Oct2007                  :
 energy of atom  1       EATOM= -926.0867
 kinetic energy error for atom=    0.0062 (will be added to EATOM!!)
  PAW_PBE Pd 04Jan2005                  :
 energy of atom  2       EATOM= -809.7530
 kinetic energy error for atom=    0.0091 (will be added to EATOM!!)
 
 
 POSCAR: Au Pd                                   
  positions in cartesian coordinates
  No initial velocities read in
 exchange correlation table for  LEXCH =        8
   RHO(1)=    0.500       N(1)  =     2000
   RHO(2)=  100.500       N(2)  =     4000

 VTST: version 3.2, (02/03/18)

 CHAIN: initializing optimizer
 
 OPT: Using VASP Conjugate-Gradient optimizer
 CHAIN: Read ICHAIN            0
 
 POSCAR: Au Pd                                   
  positions in cartesian coordinates
  No initial velocities read in
 


--------------------------------------------------------------------------------------------------------


 ion  position               nearest neighbor table
   1  0.750  0.750  0.592-  20 2.75  31 2.75   6 2.75  35 2.75  41 2.75  43 2.75   9 2.75  44 2.75
                            40 2.75
   2  0.917  0.417  0.500-  18 2.75  32 2.75  41 2.75   5 2.75  34 2.75  40 2.75  31 2.75  14 2.75
                            15 2.75   7 2.75   6 2.75  13 2.75
   3  0.833  0.833  0.408-   8 2.75   7 2.75   4 2.75  25 2.75  36 2.75  30 2.75  23 2.75  31 2.75
                            20 2.75
   4  0.083  0.583  0.408-  17 2.75  11 2.75  13 2.75   3 2.75  30 2.75   7 2.75  16 2.75  14 2.75
                            31 2.75
   5  0.917  0.167  0.500-  36 2.75  29 2.75  42 2.75  26 2.75   2 2.75   8 2.75  15 2.75  21 2.75
                            34 2.75  18 2.75  38 2.75  32 2.75
   6  0.000  0.500  0.592-  31 2.75  14 2.75   1 2.75  28 2.75   9 2.75  32 2.75  27 2.75  41 2.75
                             2 2.75
   7  0.833  0.583  0.408-  31 2.75  13 2.75  18 2.75  23 2.75   3 2.75  24 2.75   4 2.75   2 2.75
                            40 2.75
   8  0.917  0.917  0.500-   3 2.75   9 2.75  43 2.75  17 2.75  21 2.75  31 2.75   5 2.75  20 2.75
                            26 2.75  36 2.75  30 2.75  29 2.75
   9  0.000  0.750  0.592-   8 2.75  17 2.75   6 2.75  27 2.75  29 2.75  43 2.75   1 2.75  48 2.75
                            31 2.75
  10  0.333  0.083  0.408-  33 2.75  13 2.75  19 2.75  23 2.75  11 2.75  25 2.75  38 2.75  45 2.75
                            34 2.75
  11  0.333  0.333  0.408-  22 2.75  10 2.75  16 2.75   4 2.75  25 2.75  13 2.75  47 2.75  33 2.75
                            14 2.75
  12  0.250  0.000  0.592-  34 2.75  45 2.75  28 2.75  44 2.75  32 2.75  48 2.75  35 2.75  29 2.75
                            26 2.75
  13  0.083  0.333  0.408-  14 2.75   7 2.75  10 2.75   4 2.75  38 2.75  18 2.75  11 2.75  34 2.75
                             2 2.75
  14  0.167  0.417  0.500-  13 2.75  28 2.75   6 2.75  17 2.75  31 2.75  33 2.75  34 2.75   2 2.75
                            22 2.75   4 2.75  11 2.75  27 2.75
  15  0.667  0.417  0.500-  47 2.75  42 2.75  39 2.75  40 2.75  21 2.75  46 2.75   5 2.75  22 2.75
                             2 2.75  24 2.75  41 2.75  18 2.75
  16  0.333  0.583  0.408-  46 2.75  19 2.75  30 2.75  11 2.75  47 2.75  24 2.75   4 2.75  22 2.75
                            17 2.75
  17  0.167  0.667  0.500-   4 2.75  27 2.75   9 2.75  14 2.75  22 2.75  26 2.75   8 2.75  31 2.75
                            46 2.75  30 2.75  16 2.75  48 2.75
  18  0.833  0.333  0.408-   2 2.75   7 2.75  24 2.75  36 2.75  38 2.75  13 2.75  47 2.75   5 2.75
                            15 2.75
  19  0.333  0.833  0.408-  45 2.75  16 2.75  24 2.75  38 2.75  10 2.75  23 2.75  30 2.75  46 2.75
                            26 2.75
  20  0.667  0.917  0.500-  23 2.75   1 2.75  35 2.75  31 2.75  33 2.75  21 2.75  40 2.75   8 2.75
                            45 2.75  25 2.75  43 2.75   3 2.75
  21  0.667  0.167  0.500-  25 2.75  43 2.75  37 2.75  22 2.75   8 2.75  15 2.75  20 2.75   5 2.75
                            33 2.75  47 2.75  36 2.75  42 2.75
  22  0.417  0.417  0.500-  11 2.75  37 2.75  27 2.75  17 2.75  33 2.75  21 2.75  46 2.75  14 2.75
                            15 2.75  16 2.75  39 2.75  47 2.75
  23  0.583  0.833  0.408-  20 2.75  10 2.75   7 2.75  24 2.75  25 2.75  19 2.75   3 2.75  40 2.75
                            45 2.75
  24  0.583  0.583  0.408-  40 2.75  19 2.75  23 2.75  18 2.75  47 2.75  16 2.75   7 2.75  15 2.75
                            46 2.75
  25  0.583  0.083  0.408-  21 2.75  11 2.75   3 2.75  23 2.75  47 2.75  36 2.75  10 2.75  20 2.75
                            33 2.75
  26  0.167  0.917  0.500-  30 2.75  48 2.75  29 2.75  17 2.75  34 2.75  46 2.75   5 2.75   8 2.75
                            45 2.75  38 2.75  19 2.75  12 2.75
  27  0.250  0.500  0.592-  17 2.75  22 2.75   9 2.75  28 2.75  37 2.75  48 2.75  39 2.75   6 2.75
                            14 2.75
  28  0.250  0.250  0.592-  14 2.75  33 2.75   6 2.75  27 2.75  12 2.75  35 2.75  32 2.75  37 2.75
                            34 2.75
  29  0.000  0.000  0.592-   5 2.75  26 2.75   9 2.75  32 2.75  42 2.75  48 2.75  43 2.75  12 2.75
                             8 2.75
  30  0.083  0.833  0.408-  26 2.75  16 2.75   4 2.75  36 2.75  38 2.75  19 2.75   3 2.75  17 2.75
                             8 2.75
  31  0.917  0.667  0.500-   7 2.75   6 2.75   1 2.75   2 2.75   8 2.75  14 2.75  20 2.75  17 2.75
                            40 2.75   3 2.75   4 2.75   9 2.75
  32  0.000  0.250  0.592-   2 2.75  34 2.75  12 2.75  29 2.75   6 2.75  41 2.75  28 2.75  42 2.75
                             5 2.75
  33  0.417  0.167  0.500-  10 2.75  35 2.75  28 2.75  22 2.75  14 2.75  20 2.75  45 2.75  21 2.75
                            34 2.75  11 2.75  37 2.75  25 2.75
  34  0.167  0.167  0.500-  38 2.75  12 2.75  32 2.75  26 2.75   2 2.75  14 2.75  45 2.75   5 2.75
                            33 2.75  13 2.75  10 2.75  28 2.75
  35  0.500  0.000  0.592-  33 2.75  20 2.75  28 2.75   1 2.75  37 2.75  44 2.75  43 2.75  12 2.75
                            45 2.75
  36  0.833  0.083  0.408-   5 2.75   3 2.75  18 2.75  30 2.75  47 2.75  38 2.75  25 2.75   8 2.75
                            21 2.75
  37  0.500  0.250  0.592-  22 2.75  21 2.75  27 2.75  35 2.75  39 2.75  43 2.75  42 2.75  28 2.75
                            33 2.75
  38  0.083  0.083  0.408-  34 2.75  18 2.75  19 2.75  30 2.75  13 2.75  10 2.75  36 2.75  26 2.75
                             5 2.75
  39  0.500  0.500  0.592-  46 2.75  15 2.75  42 2.75  44 2.75  37 2.75  48 2.75  27 2.75  41 2.75
                            22 2.75
  40  0.667  0.667  0.500-  24 2.75  41 2.75  44 2.75   2 2.75  15 2.75  20 2.75  45 2.75  31 2.75
                            46 2.75  23 2.75   7 2.75   1 2.75
  41  0.750  0.500  0.592-  40 2.75   2 2.75  32 2.75   1 2.75  42 2.75  44 2.75  39 2.75   6 2.75
                            15 2.75
  42  0.750  0.250  0.592-  15 2.75   5 2.75  29 2.75  39 2.75  41 2.75  43 2.75  37 2.75  32 2.75
                            21 2.75
  43  0.750  0.000  0.592-  21 2.75   8 2.75   9 2.75   1 2.75  37 2.75  42 2.75  29 2.75  35 2.75
                            20 2.75
  44  0.500  0.750  0.592-  45 2.75  40 2.75  39 2.75  12 2.75  41 2.75  35 2.75   1 2.75  48 2.75
                            46 2.75
  45  0.417  0.917  0.500-  19 2.75  44 2.75  12 2.75  34 2.75  40 2.75  33 2.75  46 2.75  26 2.75
                            20 2.75  10 2.75  35 2.75  23 2.75
  46  0.417  0.667  0.500-  16 2.75  39 2.75  48 2.75  26 2.75  15 2.75  45 2.75  22 2.75  17 2.75
                            40 2.75  19 2.75  24 2.75  44 2.75
  47  0.583  0.333  0.408-  15 2.75  16 2.75  24 2.75  25 2.75  36 2.75  18 2.75  11 2.75  21 2.75
                            22 2.75
  48  0.250  0.750  0.592-  26 2.75  46 2.75  27 2.75  29 2.75  39 2.75  12 2.75  44 2.75   9 2.75
                            17 2.75
 
  LATTYP: Found a hexagonal cell.
 ALAT       =    11.0025815153
 C/A-ratio  =     2.2260035120
  
  Lattice vectors:
  
 A1 = (   5.5012907576,  -9.5285150994,   0.0000000000)
 A2 = ( -11.0025815153,   0.0000000000,   0.0000000000)
 A3 = (   0.0000000000,   0.0000000000, -24.4917850943)


Analysis of symmetry for initial positions (statically):
=====================================================================
 Subroutine PRICEL returns:
 Original cell was already a primitive cell.
 

 Routine SETGRP: Setting up the symmetry group for a 
 hexagonal supercell.


 Subroutine GETGRP returns: Found  1 space group operations
 (whereof  1 operations were pure point group operations)
 out of a pool of 24 trial point group operations.


The static configuration has the point symmetry C_1 .


Analysis of symmetry for dynamics (positions and initial velocities):
=====================================================================
 Subroutine PRICEL returns:
 Original cell was already a primitive cell.
 

 Routine SETGRP: Setting up the symmetry group for a 
 hexagonal supercell.


 Subroutine GETGRP returns: Found  1 space group operations
 (whereof  1 operations were pure point group operations)
 out of a pool of 24 trial point group operations.


The dynamic configuration has the point symmetry C_1 .


Analysis of constrained symmetry for selective dynamics:
=====================================================================
 Subroutine PRICEL returns:
 Original cell was already a primitive cell.
 

 Routine SETGRP: Setting up the symmetry group for a 
 hexagonal supercell.


 Subroutine GETGRP returns: Found  1 space group operations
 (whereof  1 operations were pure point group operations)
 out of a pool of 24 trial point group operations.


The constrained configuration has the point symmetry C_1 .
 
 
 KPOINTS: Automatic mesh                          

Automatic generation of k-mesh.
Space group operators:
 irot       det(A)        alpha          n_x          n_y          n_z        tau_x        tau_y        tau_z
    1     1.000000     0.000000     1.000000     0.000000     0.000000     0.000000     0.000000     0.000000
 
 Subroutine IBZKPT returns following result:
 ===========================================
 
 Found      6 irreducible k-points:
 
 Following reciprocal coordinates:
            Coordinates               Weight
  0.250000  0.250000  0.000000     16.000000
  0.000000  0.250000  0.000000     16.000000
 -0.250000  0.000000  0.000000     16.000000
 -0.250000  0.250000  0.000000     16.000000
  0.500000 -0.250000  0.000000     16.000000
 -0.250000  0.500000  0.000000     16.000000
 
 Following cartesian coordinates:
            Coordinates               Weight
  0.022722  0.013119  0.000000     16.000000
  0.000000  0.026237  0.000000     16.000000
 -0.022722  0.013119  0.000000     16.000000
 -0.022722  0.039356  0.000000     16.000000
  0.045444 -0.052474  0.000000     16.000000
 -0.022722  0.065593  0.000000     16.000000
 


--------------------------------------------------------------------------------------------------------




 Dimension of arrays:
   k-points           NKPTS =      6   k-points in BZ     NKDIM =      6   number of bands    NBANDS=    306
   number of dos      NEDOS =    301   number of ions     NIONS =     48
   non local maximal  LDIM  =      6   non local SUM 2l+1 LMDIM =     18
   total plane-waves  NPLWV = 349920
   max r-space proj   IRMAX =   2009   max aug-charges    IRDMAX=   8532
   dimension x,y,z NGX =    54 NGY =   54 NGZ =  120
   dimension x,y,z NGXF=   108 NGYF=  108 NGZF=  240
   support grid    NGXF=   108 NGYF=  108 NGZF=  240
   ions per type =              24  24
 NGX,Y,Z   is equivalent  to a cutoff of   8.16,  8.16,  8.15 a.u.
 NGXF,Y,Z  is equivalent  to a cutoff of  16.32, 16.32, 16.29 a.u.


 I would recommend the setting:
   dimension x,y,z NGX =    54 NGY =   54 NGZ =  120
 SYSTEM =  unknown system                          
 POSCAR =  Au Pd                                   

 Startparameter for this run:
   NWRITE =      1    write-flag & timer
   PREC   = normal    normal or accurate (medium, high low for compatibility)
   ISTART =      0    job   : 0-new  1-cont  2-samecut
   ICHARG =      2    charge: 1-file 2-atom 10-const
   ISPIN  =      1    spin polarized calculation?
   LNONCOLLINEAR =      F non collinear calculations
   LSORBIT =      F    spin-orbit coupling
   INIWAV =      1    electr: 0-lowe 1-rand  2-diag
   LASPH  =      F    aspherical Exc in radial PAW
   METAGGA=      F    non-selfconsistent MetaGGA calc.

 Electronic Relaxation 1
   ENCUT  =  400.0 eV  29.40 Ry    5.42 a.u.  17.94 17.94 39.94*2*pi/ulx,y,z
   ENINI  =  400.0     initial cutoff
   ENAUG  =  416.2 eV  augmentation charge cutoff
   NELM   =    500;   NELMIN=  2; NELMDL= -5     # of ELM steps 
   EDIFF  = 0.1E-05   stopping-criterion for ELM
   LREAL  =      T    real-space projection
   NLSPLINE    = F    spline interpolate recip. space projectors
   LCOMPAT=      F    compatible to vasp.4.4
   GGA_COMPAT  = T    GGA compatible to vasp.4.4-vasp.4.6
   LMAXPAW     = -100 max onsite density
   LMAXMIX     =    2 max onsite mixed and CHGCAR
   VOSKOWN=      1    Vosko Wilk Nusair interpolation
   ROPT   =   -0.00050  -0.00050
 Ionic relaxation
   EDIFFG = -.2E-01   stopping-criterion for IOM
   NSW    =    500    number of steps for IOM
   NBLOCK =      1;   KBLOCK =    500    inner block; outer block 
   IBRION =      2    ionic relax: 0-MD 1-quasi-New 2-CG
   NFREE  =      2    steps in history (QN), initial steepest desc. (CG)
   ISIF   =      0    stress and relaxation
   IWAVPR =     11    prediction:  0-non 1-charg 2-wave 3-comb
   ISYM   =      2    0-nonsym 1-usesym 2-fastsym
   LCORR  =      T    Harris-Foulkes like correction to forces

   POTIM  = 0.3500    time-step for ionic-motion
   TEIN   =    0.0    initial temperature
   TEBEG  =    0.0;   TEEND  =   0.0 temperature during run
   SMASS  =  -3.00    Nose mass-parameter (am)
   estimated Nose-frequenzy (Omega)   =  0.10E-29 period in steps =****** mass=  -0.277E-26a.u.
   SCALEE = 1.0000    scale energy and forces
   NPACO  =    256;   APACO  = 16.0  distance and # of slots for P.C.
   PSTRESS=    0.0 pullay stress

  Mass of Ions in am
   POMASS = 196.97106.42
  Ionic Valenz
   ZVAL   =  11.00 10.00
  Atomic Wigner-Seitz radii
   RWIGS  =  -1.00 -1.00
  virtual crystal weights 
   VCA    =   1.00  1.00
   NELECT =     504.0000    total number of electrons
   NUPDOWN=      -1.0000    fix difference up-down

 DOS related values:
   EMIN   =  10.00;   EMAX   =-10.00  energy-range for DOS
   EFERMI =   0.00
   ISMEAR =     0;   SIGMA  =   0.10  broadening in eV -4-tet -1-fermi 0-gaus

 Electronic relaxation 2 (details)
   IALGO  =     68    algorithm
   LDIAG  =      T    sub-space diagonalisation (order eigenvalues)
   LSUBROT=      F    optimize rotation matrix (better conditioning)
   TURBO    =      0    0=normal 1=particle mesh
   IRESTART =      0    0=no restart 2=restart with 2 vectors
   NREBOOT  =      0    no. of reboots
   NMIN     =      0    reboot dimension
   EREF     =   0.00    reference energy to select bands
   IMIX   =      4    mixing-type and parameters
     AMIX     =   0.40;   BMIX     =  1.00
     AMIX_MAG =   1.60;   BMIX_MAG =  1.00
     AMIN     =   0.10
     WC   =   100.;   INIMIX=   1;  MIXPRE=   1;  MAXMIX= -45

 Intra band minimization:
   WEIMIN = 0.0010     energy-eigenvalue tresh-hold
   EBREAK =  0.82E-09  absolut break condition
   DEPER  =   0.30     relativ break condition  

   TIME   =   0.40     timestep for ELM

  volume/ion in A,a.u.               =      53.49       360.99
  Fermi-wavevector in a.u.,A,eV,Ry     =   0.951418  1.797920 12.315955  0.905197
  Thomas-Fermi vector in A             =   2.079887
 
 Write flags
   LWAVE  =      F    write WAVECAR
   LCHARG =      F    write CHGCAR
   LVTOT  =      F    write LOCPOT, total local potential
   LVHAR  =      F    write LOCPOT, Hartree potential only
   LELF   =      F    write electronic localiz. function (ELF)
   LORBIT =      0    0 simple, 1 ext, 2 COOP (PROOUT)


 Dipole corrections
   LMONO  =      F    monopole corrections only (constant potential shift)
   LDIPOL =      T    correct potential (dipole corrections)
   IDIPOL =      3    1-x, 2-y, 3-z, 4-all directions 
   EPSILON=  1.0000000 bulk dielectric constant

 Exchange correlation treatment:
   GGA     =    PE    GGA type
   LEXCH   =     8    internal setting for exchange type
   VOSKOWN=      1    Vosko Wilk Nusair interpolation
   LHFCALC =     F    Hartree Fock is set to
   LHFONE  =     F    Hartree Fock one center treatment
   AEXX    =    0.0000 exact exchange contribution

 Linear response parameters
   LEPSILON=     F    determine dielectric tensor
   LRPA    =     F    only Hartree local field effects (RPA)
   LNABLA  =     F    use nabla operator in PAW spheres
   LVEL    =     F    velocity operator in full k-point grid
   LINTERFAST=   F  fast interpolation
   KINTER  =     0    interpolate to denser k-point grid
   CSHIFT  =0.1000    complex shift for real part using Kramers Kronig
   OMEGAMAX=  -1.0    maximum frequency
   DEG_THRESHOLD= 0.2000000E-02 threshold for treating states as degnerate
   RTIME   =    0.100 relaxation time in fs

 Orbital magnetization related:
   ORBITALMAG=     F  switch on orbital magnetization
   LCHIMAG   =     F  perturbation theory with respect to B field
   DQ        =  0.001000  dq finite difference perturbation B field



--------------------------------------------------------------------------------------------------------


 conjugate gradient relaxation of ions
   using selective dynamics as specified on POSCAR
   WARNING: If single coordinates had been selected the selection of coordinates
            is made according to the corresponding   d i r e c t   coordinates!
            Don't support selection of single cartesian coordinates -- sorry ...
  !
 charge density and potential will be updated during run
 non-spin polarized calculation
 RMM-DIIS sequential band-by-band and
  variant of blocked Davidson during initial phase
 perform sub-space diagonalisation
    before iterative eigenvector-optimisation
 modified Broyden-mixing scheme, WC =      100.0
 initial mixing is a Kerker type mixing with AMIX =  0.4000 and BMIX =      1.0000
 Hartree-type preconditioning will be used
 using additional bands           54
 real space projection scheme for non local part
 use partial core corrections
 calculate Harris-corrections to forces 
   (improved forces if not selfconsistent)
 use gradient corrections 
 use of overlap-Matrix (Vanderbilt PP)
 Gauss-broadening in eV      SIGMA  =   0.10


--------------------------------------------------------------------------------------------------------


  energy-cutoff  :      400.00
  volume of cell :     2567.68
      direct lattice vectors                 reciprocal lattice vectors
    11.002581515  0.000000000  0.000000000     0.090887761 -0.052474073  0.000000000
     5.501290758  9.528515099  0.000000000     0.000000000  0.104948147  0.000000000
     0.000000000  0.000000000 24.491785094     0.000000000  0.000000000  0.040830017

  length of vectors
    11.002581515 11.002581515 24.491785094     0.104948147  0.104948147  0.040830017


 
 k-points in units of 2pi/SCALE and weight: Automatic mesh                          
   0.02272194  0.01311852  0.00000000       0.167
   0.00000000  0.02623704  0.00000000       0.167
  -0.02272194  0.01311852  0.00000000       0.167
  -0.02272194  0.03935555  0.00000000       0.167
   0.04544388 -0.05247407  0.00000000       0.167
  -0.02272194  0.06559259  0.00000000       0.167
 
 k-points in reciprocal lattice and weights: Automatic mesh                          
   0.25000000  0.25000000  0.00000000       0.167
   0.00000000  0.25000000  0.00000000       0.167
  -0.25000000  0.00000000  0.00000000       0.167
  -0.25000000  0.25000000  0.00000000       0.167
   0.50000000 -0.25000000  0.00000000       0.167
  -0.25000000  0.50000000  0.00000000       0.167
 
 position of ions in fractional coordinates (direct lattice) 
   0.75000000  0.75000000  0.59169983
   0.91666667  0.41666667  0.50000000
   0.83333333  0.83333333  0.40830017
   0.08333333  0.58333333  0.40830017
   0.91666667  0.16666667  0.50000000
   0.00000000  0.50000000  0.59169983
   0.83333333  0.58333333  0.40830017
   0.91666667  0.91666667  0.50000000
   0.00000000  0.75000000  0.59169983
   0.33333333  0.08333333  0.40830017
   0.33333333  0.33333333  0.40830017
   0.25000000  0.00000000  0.59169983
   0.08333333  0.33333333  0.40830017
   0.16666667  0.41666667  0.50000000
   0.66666667  0.41666667  0.50000000
   0.33333333  0.58333333  0.40830017
   0.16666667  0.66666667  0.50000000
   0.83333333  0.33333333  0.40830017
   0.33333333  0.83333333  0.40830017
   0.66666667  0.91666667  0.50000000
   0.66666667  0.16666667  0.50000000
   0.41666667  0.41666667  0.50000000
   0.58333333  0.83333333  0.40830017
   0.58333333  0.58333333  0.40830017
   0.58333333  0.08333333  0.40830017
   0.16666667  0.91666667  0.50000000
   0.25000000  0.50000000  0.59169983
   0.25000000  0.25000000  0.59169983
   0.00000000  0.00000000  0.59169983
   0.08333333  0.83333333  0.40830017
   0.91666667  0.66666667  0.50000000
   0.00000000  0.25000000  0.59169983
   0.41666667  0.16666667  0.50000000
   0.16666667  0.16666667  0.50000000
   0.50000000  0.00000000  0.59169983
   0.83333333  0.08333333  0.40830017
   0.50000000  0.25000000  0.59169983
   0.08333333  0.08333333  0.40830017
   0.50000000  0.50000000  0.59169983
   0.66666667  0.66666667  0.50000000
   0.75000000  0.50000000  0.59169983
   0.75000000  0.25000000  0.59169983
   0.75000000  0.00000000  0.59169983
   0.50000000  0.75000000  0.59169983
   0.41666667  0.91666667  0.50000000
   0.41666667  0.66666667  0.50000000
   0.58333333  0.33333333  0.40830017
   0.25000000  0.75000000  0.59169983
 
 position of ions in cartesian coordinates  (Angst):
  12.37790420  7.14638632 14.49178509
  12.37790420  3.97021462 12.24589255
  13.75322689  7.94042925 10.00000000
   4.12596807  5.55830047 10.00000000
  11.00258152  1.58808585 12.24589255
   2.75064538  4.76425755 14.49178509
  12.37790420  5.55830047 10.00000000
  15.12854958  8.73447217 12.24589255
   4.12596807  7.14638632 14.49178509
   4.12596807  0.79404292 10.00000000
   5.50129076  3.17617170 10.00000000
   2.75064538  0.00000000 14.49178509
   2.75064538  3.17617170 10.00000000
   4.12596807  3.97021462 12.24589255
   9.62725883  3.97021462 12.24589255
   6.87661345  5.55830047 10.00000000
   5.50129076  6.35234340 12.24589255
  11.00258152  3.17617170 10.00000000
   8.25193614  7.94042925 10.00000000
  12.37790420  8.73447217 12.24589255
   8.25193614  1.58808585 12.24589255
   6.87661345  3.97021462 12.24589255
  11.00258152  7.94042925 10.00000000
   9.62725883  5.55830047 10.00000000
   6.87661345  0.79404292 10.00000000
   6.87661345  8.73447217 12.24589255
   5.50129076  4.76425755 14.49178509
   4.12596807  2.38212877 14.49178509
   0.00000000  0.00000000 14.49178509
   5.50129076  7.94042925 10.00000000
  13.75322689  6.35234340 12.24589255
   1.37532269  2.38212877 14.49178509
   5.50129076  1.58808585 12.24589255
   2.75064538  1.58808585 12.24589255
   5.50129076  0.00000000 14.49178509
   9.62725883  0.79404292 10.00000000
   6.87661345  2.38212877 14.49178509
   1.37532269  0.79404292 10.00000000
   8.25193614  4.76425755 14.49178509
  11.00258152  6.35234340 12.24589255
  11.00258152  4.76425755 14.49178509
   9.62725883  2.38212877 14.49178509
   8.25193614  0.00000000 14.49178509
   9.62725883  7.14638632 14.49178509
   9.62725883  8.73447217 12.24589255
   8.25193614  6.35234340 12.24589255
   8.25193614  3.17617170 10.00000000
   6.87661345  7.14638632 14.49178509
 


--------------------------------------------------------------------------------------------------------


 k-point  1 :   0.2500 0.2500 0.0000  plane waves:   46635
 k-point  2 :   0.0000 0.2500 0.0000  plane waves:   46635
 k-point  3 :  -0.2500 0.0000 0.0000  plane waves:   46635
 k-point  4 :  -0.2500 0.2500 0.0000  plane waves:   46644
 k-point  5 :   0.5000-0.2500 0.0000  plane waves:   46644
 k-point  6 :  -0.2500 0.5000 0.0000  plane waves:   46644

 maximum and minimum number of plane-waves per node :      7818     7732

 maximum number of plane-waves:     46644
 maximum index in each direction: 
   IXMAX=   18   IYMAX=   18   IZMAX=   39
   IXMIN=  -18   IYMIN=  -18   IZMIN=  -39

 WARNING: aliasing errors must be expected set NGX to  74 to avoid them
 WARNING: aliasing errors must be expected set NGY to  74 to avoid them
 WARNING: aliasing errors must be expected set NGZ to 158 to avoid them
 aliasing errors are usually negligible using standard VASP settings
 and one can safely disregard these warnings

 real space projection operators:
  total allocation   :      12803.06 KBytes
  max/ min on nodes  :       2145.66       2127.94


 parallel 3D FFT for wavefunctions:
    minimum data exchange during FFTs selected (reduces bandwidth)
 parallel 3D FFT for charge:
    minimum data exchange during FFTs selected (reduces bandwidth)


 total amount of memory used by VASP on root node    84353. kBytes
========================================================================

   base      :      30000. kBytes
   nonlr-proj:       4285. kBytes
   fftplans  :       4447. kBytes
   grid      :       6721. kBytes
   one-center:        124. kBytes
   wavefun   :      38776. kBytes
 
     INWAV:  cpu time    0.0000: real time    0.0000
 Broyden mixing: mesh for mixing (old mesh)
   NGX = 35   NGY = 35   NGZ = 79
  (NGX  =108   NGY  =108   NGZ  =240)
  gives a total of  96775 points

 initial charge density was supplied:
 charge density of overlapping atoms calculated
 number of electron     504.0000000 magnetization 
 keeping initial charge density in first step


--------------------------------------------------------------------------------------------------------


 Maximum index for non-local projection operator          355
 Maximum index for augmentation-charges          437 (set IRDMAX)


--------------------------------------------------------------------------------------------------------


 First call to EWALD:  gamma=   0.129
 Maximum number of real-space cells 4x 4x 2
 Maximum number of reciprocal cells 2x 2x 5

 FEWALD executed in parallel
    FEWALD:  cpu time    0.0024: real time    0.0024


----------------------------------------- Iteration    1(   1)  ---------------------------------------


    POTLOK:  cpu time    0.0456: real time    0.0459
    SETDIJ:  cpu time    0.0057: real time    0.0057
     EDDAV:  cpu time    7.1853: real time    7.2039
       DOS:  cpu time    0.0013: real time    0.0013
    --------------------------------------------
      LOOP:  cpu time    7.2404: real time    7.2635

 eigenvalue-minimisations  :  3672
 total energy-change (2. order) : 0.3199123E+04  (-0.1897592E+05)
 number of electron     504.0000000 magnetization 
 augmentation part      504.0000000 magnetization 

 DIPCOR: dipole corrections for dipol
 direction  3 min pos     1,
 dipolmoment           0.000000      0.000000      0.000005 electrons x Angstroem
 Tr[quadrupol]    -10260.508668

 energy correction for charged system         0.000000 eV
 dipol+quadrupol energy correction           -0.000000 eV
 added-field ion interaction          0.000006 eV  (added to PSCEN)


 Free energy of the ion-electron system (eV)
  ---------------------------------------------------
  alpha Z        PSCENC =       805.86937003
  Ewald energy   TEWEN  =    200425.00787770
  -Hartree energ DENC   =   -242840.77456976
  -exchange      EXHF   =         0.00000000
  -V(xc)+E(xc)   XCENC  =      -327.55875614
  PAW double counting   =     40340.05962942   -38292.62782345
  entropy T*S    EENTRO =        -0.11917640
  eigenvalues    EBANDS =      1429.48105903
  atomic energy  EATOM  =     41659.78587232
  Solvation  Ediel_sol  =         0.00000000
  ---------------------------------------------------
  free energy    TOTEN  =      3199.12348276 eV

  energy without entropy =     3199.24265915  energy(sigma->0) =     3199.18307095


--------------------------------------------------------------------------------------------------------




----------------------------------------- Iteration    1(   2)  ---------------------------------------


     EDDAV:  cpu time    8.4646: real time    8.5526
       DOS:  cpu time    0.0014: real time    0.0014
    --------------------------------------------
      LOOP:  cpu time    8.4671: real time    8.5584

 eigenvalue-minimisations  :  4380
 total energy-change (2. order) :-0.3183707E+04  (-0.2926490E+04)
 number of electron     504.0000000 magnetization 
 augmentation part      504.0000000 magnetization 

 DIPCOR: dipole corrections for dipol
 direction  3 min pos     1,
 dipolmoment           0.000000      0.000000      0.000005 electrons x Angstroem
 Tr[quadrupol]    -10260.508668

 energy correction for charged system         0.000000 eV
 dipol+quadrupol energy correction           -0.000000 eV
 added-field ion interaction          0.000006 eV  (added to PSCEN)


 Free energy of the ion-electron system (eV)
  ---------------------------------------------------
  alpha Z        PSCENC =       805.86937003
  Ewald energy   TEWEN  =    200425.00787770
  -Hartree energ DENC   =   -242840.77456976
  -exchange      EXHF   =         0.00000000
  -V(xc)+E(xc)   XCENC  =      -327.55875614
  PAW double counting   =     40340.05962942   -38292.62782345
  entropy T*S    EENTRO =        -0.12606834
  eigenvalues    EBANDS =     -1754.21908487
  atomic energy  EATOM  =     41659.78587232
  Solvation  Ediel_sol  =         0.00000000
  ---------------------------------------------------
  free energy    TOTEN  =        15.41644691 eV

  energy without entropy =       15.54251525  energy(sigma->0) =       15.47948108


--------------------------------------------------------------------------------------------------------




----------------------------------------- Iteration    1(   3)  ---------------------------------------


     EDDAV:  cpu time    8.2513: real time    8.2730
       DOS:  cpu time    0.0014: real time    0.0014
    --------------------------------------------
      LOOP:  cpu time    8.2535: real time    8.2789

 eigenvalue-minimisations  :  4152
 total energy-change (2. order) :-0.2159688E+03  (-0.2005754E+03)
 number of electron     504.0000000 magnetization 
 augmentation part      504.0000000 magnetization 

 DIPCOR: dipole corrections for dipol
 direction  3 min pos     1,
 dipolmoment           0.000000      0.000000      0.000005 electrons x Angstroem
 Tr[quadrupol]    -10260.508668

 energy correction for charged system         0.000000 eV
 dipol+quadrupol energy correction           -0.000000 eV
 added-field ion interaction          0.000006 eV  (added to PSCEN)


 Free energy of the ion-electron system (eV)
  ---------------------------------------------------
  alpha Z        PSCENC =       805.86937003
  Ewald energy   TEWEN  =    200425.00787770
  -Hartree energ DENC   =   -242840.77456976
  -exchange      EXHF   =         0.00000000
  -V(xc)+E(xc)   XCENC  =      -327.55875614
  PAW double counting   =     40340.05962942   -38292.62782345
  entropy T*S    EENTRO =        -0.18783848
  eigenvalues    EBANDS =     -1970.12608254
  atomic energy  EATOM  =     41659.78587232
  Solvation  Ediel_sol  =         0.00000000
  ---------------------------------------------------
  free energy    TOTEN  =      -200.55232091 eV

  energy without entropy =     -200.36448242  energy(sigma->0) =     -200.45840166


--------------------------------------------------------------------------------------------------------




----------------------------------------- Iteration    1(   4)  ---------------------------------------


     EDDAV:  cpu time    8.5165: real time    8.5411
       DOS:  cpu time    0.0015: real time    0.0015
    --------------------------------------------
      LOOP:  cpu time    8.5189: real time    8.5478

 eigenvalue-minimisations  :  4320
 total energy-change (2. order) :-0.5844002E+01  (-0.5778967E+01)
 number of electron     504.0000000 magnetization 
 augmentation part      504.0000000 magnetization 

 DIPCOR: dipole corrections for dipol
 direction  3 min pos     1,
 dipolmoment           0.000000      0.000000      0.000005 electrons x Angstroem
 Tr[quadrupol]    -10260.508668

 energy correction for charged system         0.000000 eV
 dipol+quadrupol energy correction           -0.000000 eV
 added-field ion interaction          0.000006 eV  (added to PSCEN)


 Free energy of the ion-electron system (eV)
  ---------------------------------------------------
  alpha Z        PSCENC =       805.86937003
  Ewald energy   TEWEN  =    200425.00787770
  -Hartree energ DENC   =   -242840.77456976
  -exchange      EXHF   =         0.00000000
  -V(xc)+E(xc)   XCENC  =      -327.55875614
  PAW double counting   =     40340.05962942   -38292.62782345
  entropy T*S    EENTRO =        -0.19447597
  eigenvalues    EBANDS =     -1975.96344699
  atomic energy  EATOM  =     41659.78587232
  Solvation  Ediel_sol  =         0.00000000
  ---------------------------------------------------
  free energy    TOTEN  =      -206.39632285 eV

  energy without entropy =     -206.20184688  energy(sigma->0) =     -206.29908486


--------------------------------------------------------------------------------------------------------




----------------------------------------- Iteration    1(   5)  ---------------------------------------


     EDDAV:  cpu time    8.6135: real time    8.6376
       DOS:  cpu time    0.0015: real time    0.0015
    CHARGE:  cpu time    0.2206: real time    0.2212
    MIXING:  cpu time    0.0021: real time    0.0022
    --------------------------------------------
      LOOP:  cpu time    8.8386: real time    8.8664

 eigenvalue-minimisations  :  4392
 total energy-change (2. order) :-0.1745547E+00  (-0.1740009E+00)
 number of electron     503.9998404 magnetization 
 augmentation part      191.3874501 magnetization 

 DIPCOR: dipole corrections for dipol
 direction  3 min pos     1,
 dipolmoment           0.000000      0.000000      0.000005 electrons x Angstroem
 Tr[quadrupol]    -10260.508668

 energy correction for charged system         0.000000 eV
 dipol+quadrupol energy correction           -0.000000 eV
 added-field ion interaction          0.000006 eV  (added to PSCEN)


 Broyden mixing:
  rms(total) = 0.62778E+01    rms(broyden)= 0.62777E+01
  rms(prec ) = 0.64537E+01
  weight for this iteration     100.00

 Free energy of the ion-electron system (eV)
  ---------------------------------------------------
  alpha Z        PSCENC =       805.86937003
  Ewald energy   TEWEN  =    200425.00787770
  -Hartree energ DENC   =   -242840.77456976
  -exchange      EXHF   =         0.00000000
  -V(xc)+E(xc)   XCENC  =      -327.55875614
  PAW double counting   =     40340.05962942   -38292.62782345
  entropy T*S    EENTRO =        -0.19498272
  eigenvalues    EBANDS =     -1976.13749491
  atomic energy  EATOM  =     41659.78587232
  Solvation  Ediel_sol  =         0.00000000
  ---------------------------------------------------
  free energy    TOTEN  =      -206.57087751 eV

  energy without entropy =     -206.37589479  energy(sigma->0) =     -206.47338615


--------------------------------------------------------------------------------------------------------




----------------------------------------- Iteration    1(   6)  ---------------------------------------


    POTLOK:  cpu time    0.0415: real time    0.0417
    SETDIJ:  cpu time    0.0056: real time    0.0057
    EDDIAG:  cpu time    1.2897: real time    1.2929
  RMM-DIIS:  cpu time    3.4846: real time    3.4937
    ORTHCH:  cpu time    0.3557: real time    0.3566
       DOS:  cpu time    0.0013: real time    0.0014
    CHARGE:  cpu time    0.2243: real time    0.2248
    MIXING:  cpu time    0.0020: real time    0.0020
    --------------------------------------------
      LOOP:  cpu time    5.4054: real time    5.4225

 eigenvalue-minimisations  :  3678
 total energy-change (2. order) :-0.1890594E+02  (-0.1183098E+02)
 number of electron     503.9998457 magnetization 
 augmentation part      188.4813277 magnetization 

 DIPCOR: dipole corrections for dipol
 direction  3 min pos     1,
 dipolmoment           0.000000      0.000000      2.326514 electrons x Angstroem
 Tr[quadrupol]    -10261.230442

 energy correction for charged system         0.000000 eV
 dipol+quadrupol energy correction           -0.190728 eV
 added-field ion interaction          2.577660 eV  (added to PSCEN)


 Broyden mixing:
  rms(total) = 0.70066E+01    rms(broyden)= 0.70064E+01
  rms(prec ) = 0.79512E+01
  weight for this iteration     100.00

 eigenvalues of (default mixing * dielectric matrix)
  average eigenvalue GAMMA=   0.3719
  0.3719

 Free energy of the ion-electron system (eV)
  ---------------------------------------------------
  alpha Z        PSCENC =       808.25629650
  Ewald energy   TEWEN  =    200425.00787770
  -Hartree energ DENC   =   -242563.81265780
  -exchange      EXHF   =         0.00000000
  -V(xc)+E(xc)   XCENC  =      -339.99515275
  PAW double counting   =     43931.56473620   -41943.21379053
  entropy T*S    EENTRO =        -0.27624625
  eigenvalues    EBANDS =     -2202.79375774
  atomic energy  EATOM  =     41659.78587232
  Solvation  Ediel_sol  =         0.00000000
  ---------------------------------------------------
  free energy    TOTEN  =      -225.47682235 eV

  energy without entropy =     -225.20057610  energy(sigma->0) =     -225.33869922


--------------------------------------------------------------------------------------------------------




----------------------------------------- Iteration    1(   7)  ---------------------------------------


    POTLOK:  cpu time    0.0402: real time    0.0403
    SETDIJ:  cpu time    0.0050: real time    0.0052
    EDDIAG:  cpu time    1.2908: real time    1.2945
  RMM-DIIS:  cpu time    3.4103: real time    3.4987
    ORTHCH:  cpu time    0.3543: real time    0.3552
       DOS:  cpu time    0.0012: real time    0.0012
    CHARGE:  cpu time    0.2222: real time    0.2228
    MIXING:  cpu time    0.0020: real time    0.0020
    --------------------------------------------
      LOOP:  cpu time    5.3266: real time    5.4234

 eigenvalue-minimisations  :  3681
 total energy-change (2. order) : 0.1908045E+02  (-0.4979837E+01)
 number of electron     503.9998384 magnetization 
 augmentation part      194.4530393 magnetization 

 DIPCOR: dipole corrections for dipol
 direction  3 min pos     1,
 dipolmoment           0.000000      0.000000     -0.746235 electrons x Angstroem
 Tr[quadrupol]    -10261.282321

 energy correction for charged system         0.000000 eV
 dipol+quadrupol energy correction           -0.019623 eV
 added-field ion interaction         -0.826791 eV  (added to PSCEN)


 Broyden mixing:
  rms(total) = 0.49758E+01    rms(broyden)= 0.49755E+01
  rms(prec ) = 0.56409E+01
  weight for this iteration     100.00

 eigenvalues of (default mixing * dielectric matrix)
  average eigenvalue GAMMA=   0.6375
  1.0190  0.2560

 Free energy of the ion-electron system (eV)
  ---------------------------------------------------
  alpha Z        PSCENC =       805.02295082
  Ewald energy   TEWEN  =    200425.00787770
  -Hartree energ DENC   =   -242494.95936884
  -exchange      EXHF   =         0.00000000
  -V(xc)+E(xc)   XCENC  =      -341.94528040
  PAW double counting   =     44634.04774147   -42662.03556504
  entropy T*S    EENTRO =        -0.21063855
  eigenvalues    EBANDS =     -2231.10996087
  atomic energy  EATOM  =     41659.78587232
  Solvation  Ediel_sol  =         0.00000000
  ---------------------------------------------------
  free energy    TOTEN  =      -206.39637140 eV

  energy without entropy =     -206.18573284  energy(sigma->0) =     -206.29105212


--------------------------------------------------------------------------------------------------------




----------------------------------------- Iteration    1(   8)  ---------------------------------------


    POTLOK:  cpu time    0.0409: real time    0.0410
    SETDIJ:  cpu time    0.0054: real time    0.0058
    EDDIAG:  cpu time    1.2918: real time    1.2968
  RMM-DIIS:  cpu time    3.4616: real time    3.4709
    ORTHCH:  cpu time    0.3528: real time    0.3537
       DOS:  cpu time    0.0014: real time    0.0014
    CHARGE:  cpu time    0.2202: real time    0.2208
    MIXING:  cpu time    0.0019: real time    0.0019
    --------------------------------------------
      LOOP:  cpu time    5.3766: real time    5.3969

 eigenvalue-minimisations  :  3678
 total energy-change (2. order) :-0.7387224E+01  (-0.9559026E+01)
 number of electron     503.9998367 magnetization 
 augmentation part      196.7350907 magnetization 

 DIPCOR: dipole corrections for dipol
 direction  3 min pos     1,
 dipolmoment           0.000000      0.000000      1.402446 electrons x Angstroem
 Tr[quadrupol]    -10261.033478

 energy correction for charged system         0.000000 eV
 dipol+quadrupol energy correction           -0.069307 eV
 added-field ion interaction          1.553839 eV  (added to PSCEN)


 Broyden mixing:
  rms(total) = 0.41051E+01    rms(broyden)= 0.41048E+01
  rms(prec ) = 0.46137E+01
  weight for this iteration     100.00

 eigenvalues of (default mixing * dielectric matrix)
  average eigenvalue GAMMA=   0.8255
  1.8319  0.4478  0.1967

 Free energy of the ion-electron system (eV)
  ---------------------------------------------------
  alpha Z        PSCENC =       807.35389655
  Ewald energy   TEWEN  =    200425.00787770
  -Hartree energ DENC   =   -242401.45812751
  -exchange      EXHF   =         0.00000000
  -V(xc)+E(xc)   XCENC  =      -344.02025326
  PAW double counting   =     46223.48822031   -44278.19837583
  entropy T*S    EENTRO =        -0.28028113
  eigenvalues    EBANDS =     -2305.46242416
  atomic energy  EATOM  =     41659.78587232
  Solvation  Ediel_sol  =         0.00000000
  ---------------------------------------------------
  free energy    TOTEN  =      -213.78359502 eV

  energy without entropy =     -213.50331389  energy(sigma->0) =     -213.64345445


--------------------------------------------------------------------------------------------------------




----------------------------------------- Iteration    1(   9)  ---------------------------------------


    POTLOK:  cpu time    0.0400: real time    0.0401
    SETDIJ:  cpu time    0.0050: real time    0.0050
    EDDIAG:  cpu time    1.2896: real time    1.2927
  RMM-DIIS:  cpu time    3.4656: real time    3.4761
    ORTHCH:  cpu time    0.3528: real time    0.3536
       DOS:  cpu time    0.0013: real time    0.0013
    CHARGE:  cpu time    0.2195: real time    0.2201
    MIXING:  cpu time    0.0021: real time    0.0021
    --------------------------------------------
      LOOP:  cpu time    5.3766: real time    5.3940

 eigenvalue-minimisations  :  3678
 total energy-change (2. order) :-0.3157649E+01  (-0.3564309E+01)
 number of electron     503.9998344 magnetization 
 augmentation part      196.8058610 magnetization 

 DIPCOR: dipole corrections for dipol
 direction  3 min pos     1,
 dipolmoment           0.000000      0.000000      0.308792 electrons x Angstroem
 Tr[quadrupol]    -10261.878474

 energy correction for charged system         0.000000 eV
 dipol+quadrupol energy correction           -0.003360 eV
 added-field ion interaction          0.342126 eV  (added to PSCEN)


 Broyden mixing:
  rms(total) = 0.45867E+01    rms(broyden)= 0.45865E+01
  rms(prec ) = 0.53189E+01
  weight for this iteration     100.00

 eigenvalues of (default mixing * dielectric matrix)
  average eigenvalue GAMMA=   0.7599
  2.0878  0.4075  0.2364  0.3080

 Free energy of the ion-electron system (eV)
  ---------------------------------------------------
  alpha Z        PSCENC =       806.20813044
  Ewald energy   TEWEN  =    200425.00787770
  -Hartree energ DENC   =   -242396.54087954
  -exchange      EXHF   =         0.00000000
  -V(xc)+E(xc)   XCENC  =      -345.35157880
  PAW double counting   =     48206.73292109   -46287.64013746
  entropy T*S    EENTRO =        -0.16754834
  eigenvalues    EBANDS =     -2284.97590130
  atomic energy  EATOM  =     41659.78587232
  Solvation  Ediel_sol  =         0.00000000
  ---------------------------------------------------
  free energy    TOTEN  =      -216.94124390 eV

  energy without entropy =     -216.77369556  energy(sigma->0) =     -216.85746973


--------------------------------------------------------------------------------------------------------




----------------------------------------- Iteration    1(  10)  ---------------------------------------


    POTLOK:  cpu time    0.0404: real time    0.0406
    SETDIJ:  cpu time    0.0051: real time    0.0058
    EDDIAG:  cpu time    1.2865: real time    1.2896
  RMM-DIIS:  cpu time    3.4721: real time    3.4806
    ORTHCH:  cpu time    0.3525: real time    0.3533
       DOS:  cpu time    0.0014: real time    0.0014
    CHARGE:  cpu time    0.2221: real time    0.2227
    MIXING:  cpu time    0.0022: real time    0.0022
    --------------------------------------------
      LOOP:  cpu time    5.3828: real time    5.4003

 eigenvalue-minimisations  :  3681
 total energy-change (2. order) : 0.1108248E+02  (-0.3199219E+01)
 number of electron     503.9998345 magnetization 
 augmentation part      197.7023164 magnetization 

 DIPCOR: dipole corrections for dipol
 direction  3 min pos     1,
 dipolmoment           0.000000      0.000000      0.584562 electrons x Angstroem
 Tr[quadrupol]    -10262.249860

 energy correction for charged system         0.000000 eV
 dipol+quadrupol energy correction           -0.012041 eV
 added-field ion interaction          0.647665 eV  (added to PSCEN)


 Broyden mixing:
  rms(total) = 0.29715E+01    rms(broyden)= 0.29713E+01
  rms(prec ) = 0.34804E+01
  weight for this iteration     100.00

 eigenvalues of (default mixing * dielectric matrix)
  average eigenvalue GAMMA=   0.7137
  2.1771  0.4765  0.4765  0.2045  0.2340

 Free energy of the ion-electron system (eV)
  ---------------------------------------------------
  alpha Z        PSCENC =       806.50498819
  Ewald energy   TEWEN  =    200425.00787770
  -Hartree energ DENC   =   -242409.58784296
  -exchange      EXHF   =         0.00000000
  -V(xc)+E(xc)   XCENC  =      -345.59973067
  PAW double counting   =     48852.40415196   -46941.18518599
  entropy T*S    EENTRO =        -0.16448094
  eigenvalues    EBANDS =     -2253.02441357
  atomic energy  EATOM  =     41659.78587232
  Solvation  Ediel_sol  =         0.00000000
  ---------------------------------------------------
  free energy    TOTEN  =      -205.85876397 eV

  energy without entropy =     -205.69428303  energy(sigma->0) =     -205.77652350


--------------------------------------------------------------------------------------------------------




----------------------------------------- Iteration    1(  11)  ---------------------------------------


    POTLOK:  cpu time    0.0398: real time    0.0399
    SETDIJ:  cpu time    0.0052: real time    0.0052
    EDDIAG:  cpu time    1.2838: real time    1.2870
  RMM-DIIS:  cpu time    3.4439: real time    3.4523
    ORTHCH:  cpu time    0.3530: real time    0.3538
       DOS:  cpu time    0.0014: real time    0.0014
    CHARGE:  cpu time    0.2191: real time    0.2196
    MIXING:  cpu time    0.0023: real time    0.0023
    --------------------------------------------
      LOOP:  cpu time    5.3491: real time    5.3652

 eigenvalue-minimisations  :  3680
 total energy-change (2. order) : 0.7238065E+01  (-0.1703313E+01)
 number of electron     503.9998350 magnetization 
 augmentation part      198.2735320 magnetization 

 DIPCOR: dipole corrections for dipol
 direction  3 min pos     1,
 dipolmoment           0.000000      0.000000      0.476242 electrons x Angstroem
 Tr[quadrupol]    -10262.433250

 energy correction for charged system         0.000000 eV
 dipol+quadrupol energy correction           -0.007992 eV
 added-field ion interaction          0.527652 eV  (added to PSCEN)


 Broyden mixing:
  rms(total) = 0.20355E+01    rms(broyden)= 0.20353E+01
  rms(prec ) = 0.23651E+01
  weight for this iteration     100.00

 eigenvalues of (default mixing * dielectric matrix)
  average eigenvalue GAMMA=   0.7068
  2.2677  0.6392  0.6392  0.2125  0.2410  0.2410

 Free energy of the ion-electron system (eV)
  ---------------------------------------------------
  alpha Z        PSCENC =       806.38902400
  Ewald energy   TEWEN  =    200425.00787770
  -Hartree energ DENC   =   -242423.60899402
  -exchange      EXHF   =         0.00000000
  -V(xc)+E(xc)   XCENC  =      -345.48309461
  PAW double counting   =     49081.50006098   -47171.93969882
  entropy T*S    EENTRO =        -0.16688751
  eigenvalues    EBANDS =     -2230.10485878
  atomic energy  EATOM  =     41659.78587232
  Solvation  Ediel_sol  =         0.00000000
  ---------------------------------------------------
  free energy    TOTEN  =      -198.62069873 eV

  energy without entropy =     -198.45381123  energy(sigma->0) =     -198.53725498


--------------------------------------------------------------------------------------------------------




----------------------------------------- Iteration    1(  12)  ---------------------------------------


    POTLOK:  cpu time    0.0396: real time    0.0397
    SETDIJ:  cpu time    0.0052: real time    0.0052
    EDDIAG:  cpu time    1.2861: real time    1.2892
  RMM-DIIS:  cpu time    3.4494: real time    3.4578
    ORTHCH:  cpu time    0.3539: real time    0.3547
       DOS:  cpu time    0.0013: real time    0.0013
    CHARGE:  cpu time    0.2178: real time    0.2183
    MIXING:  cpu time    0.0025: real time    0.0026
    --------------------------------------------
      LOOP:  cpu time    5.3565: real time    5.3712

 eigenvalue-minimisations  :  3680
 total energy-change (2. order) : 0.7760924E+01  (-0.9091840E+00)
 number of electron     503.9998352 magnetization 
 augmentation part      198.3426827 magnetization 

 DIPCOR: dipole corrections for dipol
 direction  3 min pos     1,
 dipolmoment           0.000000      0.000000      0.270202 electrons x Angstroem
 Tr[quadrupol]    -10262.649916

 energy correction for charged system         0.000000 eV
 dipol+quadrupol energy correction           -0.002573 eV
 added-field ion interaction          0.299370 eV  (added to PSCEN)


 Broyden mixing:
  rms(total) = 0.12765E+01    rms(broyden)= 0.12764E+01
  rms(prec ) = 0.14544E+01
  weight for this iteration     100.00

 eigenvalues of (default mixing * dielectric matrix)
  average eigenvalue GAMMA=   0.6587
  2.2669  0.6292  0.6292  0.2950  0.2950  0.2116  0.2838

 Free energy of the ion-electron system (eV)
  ---------------------------------------------------
  alpha Z        PSCENC =       806.16616197
  Ewald energy   TEWEN  =    200425.00787770
  -Hartree energ DENC   =   -242449.23322275
  -exchange      EXHF   =         0.00000000
  -V(xc)+E(xc)   XCENC  =      -345.05664264
  PAW double counting   =     49304.59722112   -47394.69282951
  entropy T*S    EENTRO =        -0.18947371
  eigenvalues    EBANDS =     -2197.24473942
  atomic energy  EATOM  =     41659.78587232
  Solvation  Ediel_sol  =         0.00000000
  ---------------------------------------------------
  free energy    TOTEN  =      -190.85977494 eV

  energy without entropy =     -190.67030123  energy(sigma->0) =     -190.76503809


--------------------------------------------------------------------------------------------------------




----------------------------------------- Iteration    1(  13)  ---------------------------------------


    POTLOK:  cpu time    0.0402: real time    0.0404
    SETDIJ:  cpu time    0.0051: real time    0.0051
    EDDIAG:  cpu time    1.2928: real time    1.2976
  RMM-DIIS:  cpu time    3.4571: real time    3.4675
    ORTHCH:  cpu time    0.3500: real time    0.3515
       DOS:  cpu time    0.0013: real time    0.0013
    CHARGE:  cpu time    0.2182: real time    0.2188
    MIXING:  cpu time    0.0027: real time    0.0027
    --------------------------------------------
      LOOP:  cpu time    5.3681: real time    5.3886

 eigenvalue-minimisations  :  3682
 total energy-change (2. order) : 0.1763396E+01  (-0.2838457E+00)
 number of electron     503.9998356 magnetization 
 augmentation part      198.0574605 magnetization 

 DIPCOR: dipole corrections for dipol
 direction  3 min pos     1,
 dipolmoment           0.000000      0.000000      0.200640 electrons x Angstroem
 Tr[quadrupol]    -10262.828146

 energy correction for charged system         0.000000 eV
 dipol+quadrupol energy correction           -0.001419 eV
 added-field ion interaction          0.222299 eV  (added to PSCEN)


 Broyden mixing:
  rms(total) = 0.90826E+00    rms(broyden)= 0.90813E+00
  rms(prec ) = 0.10006E+01
  weight for this iteration     100.00

 eigenvalues of (default mixing * dielectric matrix)
  average eigenvalue GAMMA=   0.6373
  2.2399  0.6776  0.6776  0.4991  0.2616  0.2616  0.2159  0.2654

 Free energy of the ion-electron system (eV)
  ---------------------------------------------------
  alpha Z        PSCENC =       806.09024465
  Ewald energy   TEWEN  =    200425.00787770
  -Hartree energ DENC   =   -242466.69341113
  -exchange      EXHF   =         0.00000000
  -V(xc)+E(xc)   XCENC  =      -344.76094179
  PAW double counting   =     49339.33065297   -47427.70542554
  entropy T*S    EENTRO =        -0.20735749
  eigenvalues    EBANDS =     -2179.94389087
  atomic energy  EATOM  =     41659.78587232
  Solvation  Ediel_sol  =         0.00000000
  ---------------------------------------------------
  free energy    TOTEN  =      -189.09637919 eV

  energy without entropy =     -188.88902170  energy(sigma->0) =     -188.99270044


--------------------------------------------------------------------------------------------------------




----------------------------------------- Iteration    1(  14)  ---------------------------------------


    POTLOK:  cpu time    0.0401: real time    0.0401
    SETDIJ:  cpu time    0.0051: real time    0.0051
    EDDIAG:  cpu time    1.2901: real time    1.2948
  RMM-DIIS:  cpu time    3.4674: real time    3.4761
    ORTHCH:  cpu time    0.3485: real time    0.3493
       DOS:  cpu time    0.0015: real time    0.0015
    CHARGE:  cpu time    0.2196: real time    0.2201
    MIXING:  cpu time    0.0027: real time    0.0027
    --------------------------------------------
      LOOP:  cpu time    5.3757: real time    5.3943

 eigenvalue-minimisations  :  3681
 total energy-change (2. order) : 0.5752766E+00  (-0.5721152E-01)
 number of electron     503.9998360 magnetization 
 augmentation part      197.7831409 magnetization 

 DIPCOR: dipole corrections for dipol
 direction  3 min pos     1,
 dipolmoment           0.000000      0.000000      0.203076 electrons x Angstroem
 Tr[quadrupol]    -10262.985321

 energy correction for charged system         0.000000 eV
 dipol+quadrupol energy correction           -0.001453 eV
 added-field ion interaction          0.224997 eV  (added to PSCEN)


 Broyden mixing:
  rms(total) = 0.71570E+00    rms(broyden)= 0.71565E+00
  rms(prec ) = 0.77512E+00
  weight for this iteration     100.00

 eigenvalues of (default mixing * dielectric matrix)
  average eigenvalue GAMMA=   0.6435
  2.2255  0.8019  0.8019  0.4762  0.4762  0.2662  0.2662  0.2089  0.2686

 Free energy of the ion-electron system (eV)
  ---------------------------------------------------
  alpha Z        PSCENC =       806.09290856
  Ewald energy   TEWEN  =    200425.00787770
  -Hartree energ DENC   =   -242481.26042765
  -exchange      EXHF   =         0.00000000
  -V(xc)+E(xc)   XCENC  =      -344.48027521
  PAW double counting   =     49332.55467731   -47418.85820663
  entropy T*S    EENTRO =        -0.20353241
  eigenvalues    EBANDS =     -2167.15999657
  atomic energy  EATOM  =     41659.78587232
  Solvation  Ediel_sol  =         0.00000000
  ---------------------------------------------------
  free energy    TOTEN  =      -188.52110258 eV

  energy without entropy =     -188.31757017  energy(sigma->0) =     -188.41933637


--------------------------------------------------------------------------------------------------------




----------------------------------------- Iteration    1(  15)  ---------------------------------------


    POTLOK:  cpu time    0.0400: real time    0.0401
    SETDIJ:  cpu time    0.0053: real time    0.0053
    EDDIAG:  cpu time    1.2693: real time    1.3473
  RMM-DIIS:  cpu time    3.4189: real time    3.4271
    ORTHCH:  cpu time    0.3465: real time    0.3474
       DOS:  cpu time    0.0014: real time    0.0014
    CHARGE:  cpu time    0.2184: real time    0.2190
    MIXING:  cpu time    0.0029: real time    0.0029
    --------------------------------------------
      LOOP:  cpu time    5.3035: real time    5.3931

 eigenvalue-minimisations  :  3681
 total energy-change (2. order) : 0.4746963E-01  (-0.3765000E-01)
 number of electron     503.9998362 magnetization 
 augmentation part      197.5728690 magnetization 

 DIPCOR: dipole corrections for dipol
 direction  3 min pos     1,
 dipolmoment           0.000000      0.000000      0.244510 electrons x Angstroem
 Tr[quadrupol]    -10263.236961

 energy correction for charged system         0.000000 eV
 dipol+quadrupol energy correction           -0.002107 eV
 added-field ion interaction          0.270905 eV  (added to PSCEN)


 Broyden mixing:
  rms(total) = 0.63816E+00    rms(broyden)= 0.63813E+00
  rms(prec ) = 0.71468E+00
  weight for this iteration     100.00

 eigenvalues of (default mixing * dielectric matrix)
  average eigenvalue GAMMA=   0.6980
  2.1887  1.1540  1.1540  0.5922  0.5922  0.3195  0.2679  0.2679  0.2154  0.2276

 Free energy of the ion-electron system (eV)
  ---------------------------------------------------
  alpha Z        PSCENC =       806.13816263
  Ewald energy   TEWEN  =    200425.00787770
  -Hartree energ DENC   =   -242495.45246660
  -exchange      EXHF   =         0.00000000
  -V(xc)+E(xc)   XCENC  =      -344.29091757
  PAW double counting   =     49332.09314356   -47416.78230442
  entropy T*S    EENTRO =        -0.20765855
  eigenvalues    EBANDS =     -2154.76534201
  atomic energy  EATOM  =     41659.78587232
  Solvation  Ediel_sol  =         0.00000000
  ---------------------------------------------------
  free energy    TOTEN  =      -188.47363295 eV

  energy without entropy =     -188.26597439  energy(sigma->0) =     -188.36980367


--------------------------------------------------------------------------------------------------------




----------------------------------------- Iteration    1(  16)  ---------------------------------------


    POTLOK:  cpu time    0.0400: real time    0.0401
    SETDIJ:  cpu time    0.0051: real time    0.0051
    EDDIAG:  cpu time    1.2813: real time    1.2844
  RMM-DIIS:  cpu time    3.4230: real time    3.4384
    ORTHCH:  cpu time    0.3453: real time    0.3510
       DOS:  cpu time    0.0015: real time    0.0015
    CHARGE:  cpu time    0.2161: real time    0.2166
    MIXING:  cpu time    0.0029: real time    0.0029
    --------------------------------------------
      LOOP:  cpu time    5.3159: real time    5.3428

 eigenvalue-minimisations  :  3681
 total energy-change (2. order) : 0.1127776E+00  (-0.3592565E-01)
 number of electron     503.9998364 magnetization 
 augmentation part      197.3243373 magnetization 

 DIPCOR: dipole corrections for dipol
 direction  3 min pos     1,
 dipolmoment           0.000000      0.000000      0.289043 electrons x Angstroem
 Tr[quadrupol]    -10263.579947

 energy correction for charged system         0.000000 eV
 dipol+quadrupol energy correction           -0.002944 eV
 added-field ion interaction          0.320245 eV  (added to PSCEN)


 Broyden mixing:
  rms(total) = 0.51382E+00    rms(broyden)= 0.51378E+00
  rms(prec ) = 0.61556E+00
  weight for this iteration     100.00

 eigenvalues of (default mixing * dielectric matrix)
  average eigenvalue GAMMA=   0.7344
  2.1666  1.4313  1.4313  0.6756  0.6756  0.4306  0.2807  0.2807  0.2097  0.2483
  0.2483

 Free energy of the ion-electron system (eV)
  ---------------------------------------------------
  alpha Z        PSCENC =       806.18666542
  Ewald energy   TEWEN  =    200425.00787770
  -Hartree energ DENC   =   -242516.89640969
  -exchange      EXHF   =         0.00000000
  -V(xc)+E(xc)   XCENC  =      -343.91705580
  PAW double counting   =     49334.90132284   -47416.67727844
  entropy T*S    EENTRO =        -0.19925143
  eigenvalues    EBANDS =     -2136.55259825
  atomic energy  EATOM  =     41659.78587232
  Solvation  Ediel_sol  =         0.00000000
  ---------------------------------------------------
  free energy    TOTEN  =      -188.36085532 eV

  energy without entropy =     -188.16160389  energy(sigma->0) =     -188.26122961


--------------------------------------------------------------------------------------------------------




----------------------------------------- Iteration    1(  17)  ---------------------------------------


    POTLOK:  cpu time    0.0399: real time    0.0401
    SETDIJ:  cpu time    0.0044: real time    0.0051
    EDDIAG:  cpu time    1.2819: real time    1.2851
  RMM-DIIS:  cpu time    3.4741: real time    3.4836
    ORTHCH:  cpu time    0.3468: real time    0.3477
       DOS:  cpu time    0.0013: real time    0.0013
    CHARGE:  cpu time    0.2173: real time    0.2179
    MIXING:  cpu time    0.0031: real time    0.0031
    --------------------------------------------
      LOOP:  cpu time    5.3696: real time    5.3867

 eigenvalue-minimisations  :  3681
 total energy-change (2. order) : 0.1656830E+00  (-0.4282392E-01)
 number of electron     503.9998365 magnetization 
 augmentation part      197.1761136 magnetization 

 DIPCOR: dipole corrections for dipol
 direction  3 min pos     1,
 dipolmoment           0.000000      0.000000      0.263900 electrons x Angstroem
 Tr[quadrupol]    -10263.970056

 energy correction for charged system         0.000000 eV
 dipol+quadrupol energy correction           -0.002454 eV
 added-field ion interaction          0.292387 eV  (added to PSCEN)


 Broyden mixing:
  rms(total) = 0.42526E+00    rms(broyden)= 0.42520E+00
  rms(prec ) = 0.51550E+00
  weight for this iteration     100.00

 eigenvalues of (default mixing * dielectric matrix)
  average eigenvalue GAMMA=   0.7523
  2.2247  1.5465  1.5465  0.7721  0.7721  0.5930  0.2722  0.2722  0.2959  0.2959
  0.2111  0.2249

 Free energy of the ion-electron system (eV)
  ---------------------------------------------------
  alpha Z        PSCENC =       806.15929761
  Ewald energy   TEWEN  =    200425.00787770
  -Hartree energ DENC   =   -242538.44903368
  -exchange      EXHF   =         0.00000000
  -V(xc)+E(xc)   XCENC  =      -343.58180900
  PAW double counting   =     49358.92534044   -47438.21615251
  entropy T*S    EENTRO =        -0.21310704
  eigenvalues    EBANDS =     -2117.61345815
  atomic energy  EATOM  =     41659.78587232
  Solvation  Ediel_sol  =         0.00000000
  ---------------------------------------------------
  free energy    TOTEN  =      -188.19517232 eV

  energy without entropy =     -187.98206528  energy(sigma->0) =     -188.08861880


--------------------------------------------------------------------------------------------------------




----------------------------------------- Iteration    1(  18)  ---------------------------------------


    POTLOK:  cpu time    0.0400: real time    0.0401
    SETDIJ:  cpu time    0.0051: real time    0.0051
    EDDIAG:  cpu time    1.2806: real time    1.2838
  RMM-DIIS:  cpu time    3.4504: real time    3.4615
    ORTHCH:  cpu time    0.3551: real time    0.3559
       DOS:  cpu time    0.0015: real time    0.0015
    CHARGE:  cpu time    0.2187: real time    0.2192
    MIXING:  cpu time    0.0032: real time    0.0032
    --------------------------------------------
      LOOP:  cpu time    5.3552: real time    5.3728

 eigenvalue-minimisations  :  3681
 total energy-change (2. order) : 0.2155327E+00  (-0.1911072E-01)
 number of electron     503.9998364 magnetization 
 augmentation part      197.1126954 magnetization 

 DIPCOR: dipole corrections for dipol
 direction  3 min pos     1,
 dipolmoment           0.000000      0.000000      0.175390 electrons x Angstroem
 Tr[quadrupol]    -10264.372786

 energy correction for charged system         0.000000 eV
 dipol+quadrupol energy correction           -0.001084 eV
 added-field ion interaction          0.194323 eV  (added to PSCEN)


 Broyden mixing:
  rms(total) = 0.22574E+00    rms(broyden)= 0.22567E+00
  rms(prec ) = 0.25910E+00
  weight for this iteration     100.00

 eigenvalues of (default mixing * dielectric matrix)
  average eigenvalue GAMMA=   0.7365
  2.2561  1.5261  1.5261  0.8492  0.8492  0.6284  0.3535  0.3535  0.2705  0.2705
  0.2517  0.2106  0.2285

 Free energy of the ion-electron system (eV)
  ---------------------------------------------------
  alpha Z        PSCENC =       806.06260366
  Ewald energy   TEWEN  =    200425.00787770
  -Hartree energ DENC   =   -242557.92005812
  -exchange      EXHF   =         0.00000000
  -V(xc)+E(xc)   XCENC  =      -343.38884383
  PAW double counting   =     49397.94594467   -47475.91327381
  entropy T*S    EENTRO =        -0.24933471
  eigenvalues    EBANDS =     -2099.31042745
  atomic energy  EATOM  =     41659.78587232
  Solvation  Ediel_sol  =         0.00000000
  ---------------------------------------------------
  free energy    TOTEN  =      -187.97963957 eV

  energy without entropy =     -187.73030487  energy(sigma->0) =     -187.85497222


--------------------------------------------------------------------------------------------------------




----------------------------------------- Iteration    1(  19)  ---------------------------------------


    POTLOK:  cpu time    0.0399: real time    0.0400
    SETDIJ:  cpu time    0.0050: real time    0.0051
    EDDIAG:  cpu time    1.2773: real time    1.2804
  RMM-DIIS:  cpu time    3.4747: real time    3.4832
    ORTHCH:  cpu time    0.3467: real time    0.3476
       DOS:  cpu time    0.0014: real time    0.0014
    CHARGE:  cpu time    0.2183: real time    0.2189
    MIXING:  cpu time    0.0034: real time    0.0034
    --------------------------------------------
      LOOP:  cpu time    5.3674: real time    5.3822

 eigenvalue-minimisations  :  3681
 total energy-change (2. order) : 0.3543074E-01  (-0.1021665E-01)
 number of electron     503.9998365 magnetization 
 augmentation part      197.0701697 magnetization 

 DIPCOR: dipole corrections for dipol
 direction  3 min pos     1,
 dipolmoment           0.000000      0.000000      0.146611 electrons x Angstroem
 Tr[quadrupol]    -10264.491410

 energy correction for charged system         0.000000 eV
 dipol+quadrupol energy correction           -0.000757 eV
 added-field ion interaction          0.162438 eV  (added to PSCEN)


 Broyden mixing:
  rms(total) = 0.15000E+00    rms(broyden)= 0.14995E+00
  rms(prec ) = 0.16910E+00
  weight for this iteration     100.00

 eigenvalues of (default mixing * dielectric matrix)
  average eigenvalue GAMMA=   0.7248
  2.3491  1.5379  1.5379  0.9021  0.9021  0.5945  0.5193  0.3497  0.2721  0.2721
  0.2553  0.2312  0.2118  0.2118

 Free energy of the ion-electron system (eV)
  ---------------------------------------------------
  alpha Z        PSCENC =       806.03104473
  Ewald energy   TEWEN  =    200425.00787770
  -Hartree energ DENC   =   -242564.98174817
  -exchange      EXHF   =         0.00000000
  -V(xc)+E(xc)   XCENC  =      -343.29266692
  PAW double counting   =     49413.97000295   -47491.33755377
  entropy T*S    EENTRO =        -0.23443103
  eigenvalues    EBANDS =     -2092.89260663
  atomic energy  EATOM  =     41659.78587232
  Solvation  Ediel_sol  =         0.00000000
  ---------------------------------------------------
  free energy    TOTEN  =      -187.94420884 eV

  energy without entropy =     -187.70977780  energy(sigma->0) =     -187.82699332


--------------------------------------------------------------------------------------------------------




----------------------------------------- Iteration    1(  20)  ---------------------------------------


    POTLOK:  cpu time    0.0400: real time    0.0401
    SETDIJ:  cpu time    0.0051: real time    0.0051
    EDDIAG:  cpu time    1.2801: real time    1.2832
  RMM-DIIS:  cpu time    3.4496: real time    3.4585
    ORTHCH:  cpu time    0.3464: real time    0.3473
       DOS:  cpu time    0.0014: real time    0.0015
    CHARGE:  cpu time    0.2172: real time    0.2177
    MIXING:  cpu time    0.0034: real time    0.0034
    --------------------------------------------
      LOOP:  cpu time    5.3439: real time    5.3600

 eigenvalue-minimisations  :  3682
 total energy-change (2. order) : 0.1749693E-01  (-0.1394126E-02)
 number of electron     503.9998365 magnetization 
 augmentation part      197.0708800 magnetization 

 DIPCOR: dipole corrections for dipol
 direction  3 min pos     1,
 dipolmoment           0.000000      0.000000      0.132301 electrons x Angstroem
 Tr[quadrupol]    -10264.604438

 energy correction for charged system         0.000000 eV
 dipol+quadrupol energy correction           -0.000617 eV
 added-field ion interaction          0.146583 eV  (added to PSCEN)


 Broyden mixing:
  rms(total) = 0.99420E-01    rms(broyden)= 0.99410E-01
  rms(prec ) = 0.10883E+00
  weight for this iteration     100.00

 eigenvalues of (default mixing * dielectric matrix)
  average eigenvalue GAMMA=   0.7347
  2.3880  1.5396  1.5396  1.0215  1.0215  0.6194  0.5486  0.5486  0.2744  0.2744
  0.2908  0.2908  0.2109  0.2264  0.2264

 Free energy of the ion-electron system (eV)
  ---------------------------------------------------
  alpha Z        PSCENC =       806.01533086
  Ewald energy   TEWEN  =    200425.00787770
  -Hartree energ DENC   =   -242568.41921785
  -exchange      EXHF   =         0.00000000
  -V(xc)+E(xc)   XCENC  =      -343.31072964
  PAW double counting   =     49430.14370394   -47507.69659746
  entropy T*S    EENTRO =        -0.24209350
  eigenvalues    EBANDS =     -2089.21085827
  atomic energy  EATOM  =     41659.78587232
  Solvation  Ediel_sol  =         0.00000000
  ---------------------------------------------------
  free energy    TOTEN  =      -187.92671191 eV

  energy without entropy =     -187.68461841  energy(sigma->0) =     -187.80566516


--------------------------------------------------------------------------------------------------------




----------------------------------------- Iteration    1(  21)  ---------------------------------------


    POTLOK:  cpu time    0.0399: real time    0.0400
    SETDIJ:  cpu time    0.0051: real time    0.0051
    EDDIAG:  cpu time    1.2790: real time    1.2821
  RMM-DIIS:  cpu time    3.4654: real time    3.4737
    ORTHCH:  cpu time    0.3469: real time    0.3477
       DOS:  cpu time    0.0014: real time    0.0014
    CHARGE:  cpu time    0.2175: real time    0.2185
    MIXING:  cpu time    0.0037: real time    0.0037
    --------------------------------------------
      LOOP:  cpu time    5.3596: real time    5.3759

 eigenvalue-minimisations  :  3679
 total energy-change (2. order) : 0.2474184E-02  (-0.9838806E-03)
 number of electron     503.9998366 magnetization 
 augmentation part      197.0725412 magnetization 

 DIPCOR: dipole corrections for dipol
 direction  3 min pos     1,
 dipolmoment           0.000000      0.000000      0.123832 electrons x Angstroem
 Tr[quadrupol]    -10264.709406

 energy correction for charged system         0.000000 eV
 dipol+quadrupol energy correction           -0.000540 eV
 added-field ion interaction          0.137200 eV  (added to PSCEN)


 Broyden mixing:
  rms(total) = 0.93464E-01    rms(broyden)= 0.93458E-01
  rms(prec ) = 0.10650E+00
  weight for this iteration     100.00

 eigenvalues of (default mixing * dielectric matrix)
  average eigenvalue GAMMA=   0.7503
  2.3885  1.5235  1.5235  1.2039  1.2039  0.6999  0.6999  0.6612  0.3238  0.3238
  0.2715  0.2715  0.2540  0.2277  0.2131  0.2157

 Free energy of the ion-electron system (eV)
  ---------------------------------------------------
  alpha Z        PSCENC =       806.00602404
  Ewald energy   TEWEN  =    200425.00787770
  -Hartree energ DENC   =   -242571.83827976
  -exchange      EXHF   =         0.00000000
  -V(xc)+E(xc)   XCENC  =      -343.32069146
  PAW double counting   =     49440.96919633   -47518.67080587
  entropy T*S    EENTRO =        -0.23777445
  eigenvalues    EBANDS =     -2085.62565657
  atomic energy  EATOM  =     41659.78587232
  Solvation  Ediel_sol  =         0.00000000
  ---------------------------------------------------
  free energy    TOTEN  =      -187.92423772 eV

  energy without entropy =     -187.68646328  energy(sigma->0) =     -187.80535050


--------------------------------------------------------------------------------------------------------




----------------------------------------- Iteration    1(  22)  ---------------------------------------


    POTLOK:  cpu time    0.0402: real time    0.0403
    SETDIJ:  cpu time    0.0050: real time    0.0050
    EDDIAG:  cpu time    1.2799: real time    1.2829
  RMM-DIIS:  cpu time    3.4074: real time    3.4994
    ORTHCH:  cpu time    0.3471: real time    0.3484
       DOS:  cpu time    0.0014: real time    0.0014
    CHARGE:  cpu time    0.2191: real time    0.2196
    MIXING:  cpu time    0.0039: real time    0.0039
    --------------------------------------------
      LOOP:  cpu time    5.3046: real time    5.4040

 eigenvalue-minimisations  :  3681
 total energy-change (2. order) : 0.6055776E-02  (-0.6823078E-03)
 number of electron     503.9998366 magnetization 
 augmentation part      197.0780966 magnetization 

 DIPCOR: dipole corrections for dipol
 direction  3 min pos     1,
 dipolmoment           0.000000      0.000000      0.114867 electrons x Angstroem
 Tr[quadrupol]    -10264.852142

 energy correction for charged system         0.000000 eV
 dipol+quadrupol energy correction           -0.000465 eV
 added-field ion interaction          0.127267 eV  (added to PSCEN)


 Broyden mixing:
  rms(total) = 0.63366E-01    rms(broyden)= 0.63359E-01
  rms(prec ) = 0.73150E-01
  weight for this iteration     100.00

 eigenvalues of (default mixing * dielectric matrix)
  average eigenvalue GAMMA=   0.7504
  2.3789  1.5681  1.5681  1.2587  1.2587  0.7737  0.7737  0.6886  0.3747  0.3747
  0.2735  0.2735  0.2671  0.2671  0.2112  0.2231  0.2231

 Free energy of the ion-electron system (eV)
  ---------------------------------------------------
  alpha Z        PSCENC =       805.99616672
  Ewald energy   TEWEN  =    200425.00787770
  -Hartree energ DENC   =   -242576.60386015
  -exchange      EXHF   =         0.00000000
  -V(xc)+E(xc)   XCENC  =      -343.32420838
  PAW double counting   =     49446.30356618   -47524.09888065
  entropy T*S    EENTRO =        -0.23707590
  eigenvalues    EBANDS =     -2080.74763979
  atomic energy  EATOM  =     41659.78587232
  Solvation  Ediel_sol  =         0.00000000
  ---------------------------------------------------
  free energy    TOTEN  =      -187.91818195 eV

  energy without entropy =     -187.68110605  energy(sigma->0) =     -187.79964400


--------------------------------------------------------------------------------------------------------




----------------------------------------- Iteration    1(  23)  ---------------------------------------


    POTLOK:  cpu time    0.0404: real time    0.0405
    SETDIJ:  cpu time    0.0051: real time    0.0051
    EDDIAG:  cpu time    1.2791: real time    1.2830
  RMM-DIIS:  cpu time    3.4485: real time    3.4570
[...]
    275       1.7518      0.00000
    276       1.7781      0.00000
    277       2.1543      0.00000
    278       2.2140      0.00000
    279       2.2981      0.00000
    280       2.3420      0.00000
    281       2.4372      0.00000
    282       2.5794      0.00000
    283       2.6683      0.00000
    284       2.9784      0.00000
    285       3.1571      0.00000
    286       3.2737      0.00000
    287       3.5677      0.00000
    288       3.6195      0.00000
    289       3.6892      0.00000
    290       3.9219      0.00000
    291       4.1013      0.00000
    292       4.1856      0.00000
    293       4.4848      0.00000
    294       4.5842      0.00000
    295       4.5948      0.00000
    296       4.6023      0.00000
    297       4.6519      0.00000
    298       4.7818      0.00000
    299       4.8621      0.00000
    300       4.8898      0.00000
    301       4.9641      0.00000
    302       5.0615      0.00000
    303       5.0798      0.00000
    304       5.1125      0.00000
    305       5.1562      0.00000
    306       5.2440      0.00000


--------------------------------------------------------------------------------------------------------


 soft charge-density along one line, spin component           1
         0         1         2         3         4         5         6         7         8         9
 total charge-density along one line
 
 pseudopotential strength for first ion, spin component:           1
 -8.023  -0.005  -0.002   0.003  -0.001  -8.171  -0.005  -0.002
 -0.005  -7.942  -0.000   0.003  -0.007  -0.005  -8.091  -0.000
 -0.002  -0.000  -7.937   0.001   0.000  -0.002  -0.000  -8.086
  0.003   0.003   0.001  -7.944  -0.005   0.003   0.003   0.001
 -0.001  -0.007   0.000  -0.005  -8.024  -0.001  -0.007   0.000
 -8.171  -0.005  -0.002   0.003  -0.001  -8.302  -0.005  -0.002
 -0.005  -8.091  -0.000   0.003  -0.007  -0.005  -8.223  -0.000
 -0.002  -0.000  -8.086   0.001   0.000  -0.002  -0.000  -8.219
  0.003   0.003   0.001  -8.093  -0.005   0.003   0.003   0.001
 -0.001  -0.007   0.000  -0.005  -8.171  -0.001  -0.007   0.000
 -0.001  -0.002  -0.024   0.002   0.001  -0.001  -0.002  -0.024
 -0.002  -0.003  -0.035   0.003   0.001  -0.002  -0.003  -0.035
  0.004   0.006   0.001   0.000   0.000   0.004   0.006   0.001
  0.000  -0.000   0.009   0.004   0.000   0.000  -0.000   0.008
 -0.001   0.000  -0.002   0.006   0.004  -0.001   0.000  -0.002
  0.005   0.006   0.001   0.000   0.001   0.005   0.006   0.001
  0.000  -0.000   0.010   0.005   0.000   0.000  -0.000   0.009
 -0.001   0.000  -0.003   0.007   0.005  -0.001   0.000  -0.003
 total augmentation occupancy for first ion, spin component:           1
  3.977  -0.017   0.106   0.043   0.073  -2.166  -0.014  -0.101  -0.049  -0.079   0.083  -0.046  -0.027   0.007   0.048   0.006
 -0.017   4.198  -0.107   0.049   0.020  -0.013  -1.900   0.073  -0.031  -0.075   0.107  -0.046   0.158  -0.019   0.008  -0.001
  0.106  -0.107   4.284   0.079  -0.105  -0.101   0.073  -2.168  -0.038   0.097   0.885  -0.107  -0.029   0.211   0.029   0.003
  0.043   0.049   0.079   4.068  -0.023  -0.048  -0.031  -0.038  -1.800  -0.006  -0.088   0.020   0.010   0.016   0.152  -0.000
  0.073   0.020  -0.105  -0.023   4.087  -0.079  -0.076   0.097  -0.007  -2.275  -0.045   0.014   0.006  -0.010  -0.030   0.001
 -2.166  -0.013  -0.101  -0.048  -0.079   2.230   0.036   0.096   0.052   0.082  -0.074   0.042   0.017  -0.007  -0.042  -0.002
 -0.014  -1.900   0.073  -0.031  -0.076   0.036   1.578  -0.046   0.016   0.118  -0.091   0.040  -0.149   0.012  -0.008   0.005
 -0.101   0.073  -2.168  -0.038   0.097   0.096  -0.046   1.996   0.007  -0.089  -0.819   0.115   0.021  -0.222  -0.019  -0.002
 -0.049  -0.031  -0.038  -1.800  -0.007   0.052   0.016   0.007   1.505   0.028   0.076  -0.019  -0.009  -0.013  -0.146   0.000
 -0.079  -0.075   0.097  -0.006  -2.275   0.082   0.118  -0.089   0.028   2.337   0.043  -0.015  -0.009   0.007   0.020  -0.000
  0.083   0.107   0.885  -0.088  -0.045  -0.074  -0.091  -0.819   0.076   0.043   2.330  -0.459  -0.008  -0.123   0.007   0.001
 -0.046  -0.046  -0.107   0.020   0.014   0.042   0.040   0.115  -0.019  -0.015  -0.459   0.130   0.008   0.051  -0.018  -0.000
 -0.027   0.158  -0.029   0.010   0.006   0.017  -0.149   0.021  -0.009  -0.009  -0.008   0.008   0.179  -0.005  -0.003  -0.005
  0.007  -0.019   0.211   0.016  -0.010  -0.007   0.012  -0.222  -0.013   0.007  -0.123   0.051  -0.005   0.091   0.005   0.000
  0.048   0.008   0.029   0.152  -0.030  -0.042  -0.008  -0.019  -0.146   0.020   0.007  -0.018  -0.003   0.005   0.185   0.000
  0.006  -0.001   0.003  -0.000   0.001  -0.002   0.005  -0.002   0.000  -0.000   0.001  -0.000  -0.005   0.000   0.000   0.000
 -0.000   0.001   0.003   0.004   0.000   0.000  -0.001   0.005  -0.001  -0.000   0.008  -0.002   0.000  -0.003  -0.000  -0.000
 -0.003  -0.000  -0.004  -0.001   0.006   0.002   0.000   0.002   0.005  -0.002  -0.000   0.001   0.000  -0.000  -0.006  -0.000


------------------------ aborting loop because EDIFF is reached ----------------------------------------


    CHARGE:  cpu time    0.2187: real time    0.2193
    FORLOC:  cpu time    0.0158: real time    0.0159
    FORNL :  cpu time    1.3201: real time    1.3233
    FORCOR:  cpu time    0.0562: real time    0.0563
    FORHAR:  cpu time    0.0240: real time    0.0241
    MIXING:  cpu time    0.0029: real time    0.0029
    OFIELD:  cpu time    0.0000: real time    0.0000

 VOLUME and BASIS-vectors are now :
 -----------------------------------------------------------------------------
  energy-cutoff  :      400.00
  volume of cell :     2567.68
      direct lattice vectors                 reciprocal lattice vectors
    11.002581515  0.000000000  0.000000000     0.090887761 -0.052474073  0.000000000
     5.501290758  9.528515099  0.000000000     0.000000000  0.104948147  0.000000000
     0.000000000  0.000000000 24.491785094     0.000000000  0.000000000  0.040830017

  length of vectors
    11.002581515 11.002581515 24.491785094     0.104948147  0.104948147  0.040830017


 FORCES acting on ions
    electron-ion (+dipol)            ewald-force                    non-local-force                 convergence-correction
 -----------------------------------------------------------------------------------------------
   0.139E+02 -.161E+02 -.229E+04   -.148E+02 0.163E+02 0.229E+04   0.856E+00 -.205E+00 0.478E+00   -.297E-03 0.171E-02 -.767E-02
   -.873E+01 -.707E+01 -.107E+03   0.879E+01 0.747E+01 0.108E+03   -.622E-01 -.408E+00 -.108E+01   -.452E-03 0.485E-02 -.118E-01
   -.135E+02 -.128E+02 0.220E+04   0.140E+02 0.136E+02 -.220E+04   -.370E+00 -.557E+00 0.139E+00   0.977E-03 -.170E-02 -.258E-02
   0.853E+00 -.138E+02 0.219E+04   -.805E+00 0.143E+02 -.219E+04   -.711E-02 -.284E+00 0.241E+00   0.343E-04 0.198E-02 -.176E-02
   -.144E+01 0.262E+01 -.541E+01   0.237E+01 -.337E+01 0.596E+01   -.929E+00 0.762E+00 -.541E+00   -.600E-02 -.172E-03 -.912E-02
   -.881E+00 0.139E+02 -.236E+04   0.915E+00 -.146E+02 0.236E+04   -.350E-01 0.683E+00 0.664E-01   0.141E-02 0.291E-02 0.626E-03
   -.624E+01 -.200E+01 0.218E+04   0.615E+01 0.220E+01 -.218E+04   0.124E+00 -.154E+00 -.115E+00   0.103E-03 0.112E-02 -.109E-02
   0.221E+01 0.992E+01 -.119E+02   -.162E+01 -.101E+02 0.119E+02   -.585E+00 0.200E+00 -.390E-01   0.334E-02 -.102E-01 -.103E-02
   -.131E+02 -.155E+02 -.232E+04   0.137E+02 0.160E+02 0.232E+04   -.612E+00 -.479E+00 0.130E+00   -.317E-02 -.183E-02 0.129E-01
   0.296E+01 -.266E+00 0.220E+04   -.294E+01 0.325E+00 -.220E+04   -.555E-01 -.439E-01 -.490E+00   0.175E-02 -.172E-02 -.457E-02
   -.145E+02 0.951E+01 0.220E+04   0.155E+02 -.103E+02 -.220E+04   -.712E+00 0.563E+00 0.139E+00   0.132E-02 0.157E-02 -.398E-02
   0.310E+00 0.225E+01 -.226E+04   -.376E+00 -.227E+01 0.226E+04   0.568E-01 0.269E-01 0.612E+00   0.837E-02 -.169E-02 -.117E-02
   0.787E+01 0.931E+01 0.219E+04   -.824E+01 -.988E+01 -.219E+04   0.235E+00 0.333E+00 0.265E+00   0.112E-03 0.320E-02 -.430E-02
   0.841E+01 -.925E+01 -.102E+03   -.850E+01 0.858E+01 0.103E+03   0.943E-01 0.682E+00 -.103E+01   -.232E-02 0.312E-02 -.864E-02
   -.148E+01 0.839E+00 -.550E+02   0.135E+01 0.836E-01 0.562E+02   0.127E+00 -.921E+00 -.121E+01   -.219E-02 0.128E-02 -.183E-03
   0.480E+00 -.231E+01 0.220E+04   -.227E+00 0.232E+01 -.220E+04   -.208E+00 0.146E-01 0.209E+00   -.323E-04 0.570E-03 -.336E-02
   0.118E+02 -.315E+01 -.591E+02   -.113E+02 0.380E+01 0.597E+02   -.446E+00 -.650E+00 -.543E+00   -.835E-02 0.221E-02 -.695E-02
   0.903E+01 0.203E+02 0.220E+04   -.966E+01 -.213E+02 -.221E+04   0.452E+00 0.662E+00 0.434E+00   -.148E-02 0.168E-02 -.382E-02
   0.186E+02 -.114E+02 0.220E+04   -.196E+02 0.119E+02 -.220E+04   0.645E+00 -.345E+00 -.590E+00   0.349E-03 -.235E-02 -.334E-02
   -.375E+01 0.875E+01 -.421E+02   0.294E+01 -.874E+01 0.428E+02   0.818E+00 0.100E-01 -.672E+00   -.649E-02 -.607E-02 0.221E-02
   -.115E+01 0.164E+01 0.216E+02   0.547E+00 -.167E+01 -.217E+02   0.603E+00 0.420E-01 0.983E-01   -.157E-02 0.901E-03 -.773E-03
   0.132E+01 -.165E+00 -.521E+02   -.116E+01 0.613E-01 0.532E+02   -.154E+00 0.112E+00 -.115E+01   0.624E-03 -.303E-02 -.823E-03
   -.646E+01 -.832E+01 0.220E+04   0.668E+01 0.851E+01 -.220E+04   -.137E+00 -.416E-01 -.137E+00   0.506E-04 -.145E-02 -.894E-03
   0.441E+01 0.934E+01 0.220E+04   -.466E+01 -.966E+01 -.220E+04   0.151E+00 0.169E+00 -.155E+00   -.581E-04 0.318E-03 -.190E-02
   -.153E+02 -.788E+01 0.202E+04   0.155E+02 0.826E+01 -.202E+04   -.309E-01 -.265E+00 -.145E+01   0.639E-03 -.741E-04 -.353E-02
   -.127E+01 -.316E+01 0.604E+01   0.156E+01 0.317E+01 -.617E+01   -.281E+00 -.140E-02 0.125E+00   -.138E-02 -.593E-02 -.223E-02
   -.183E+02 0.890E+01 -.205E+04   0.187E+02 -.911E+01 0.205E+04   -.443E+00 0.214E+00 0.157E+01   -.294E-02 -.150E-02 0.732E-02
   -.953E+01 0.164E+02 -.202E+04   0.985E+01 -.167E+02 0.202E+04   -.322E+00 0.273E+00 0.190E+01   0.437E-02 0.509E-03 -.465E-02
   -.396E+01 -.854E+01 -.201E+04   0.388E+01 0.869E+01 0.200E+04   0.900E-01 -.147E+00 0.134E+01   -.136E-02 -.341E-02 0.464E-02
   0.116E+01 -.198E+02 0.201E+04   -.107E+01 0.202E+02 -.201E+04   -.894E-01 -.217E+00 -.147E+01   -.128E-02 -.176E-02 -.361E-02
   -.176E+01 0.484E+00 -.105E+03   0.138E+01 -.537E+00 0.105E+03   0.391E+00 0.585E-01 0.711E-01   0.289E-03 -.497E-03 -.809E-02
   0.718E+01 0.168E+02 -.203E+04   -.735E+01 -.169E+02 0.203E+04   0.168E+00 0.101E+00 0.159E+01   0.442E-02 0.355E-02 0.138E-02
   0.150E+01 0.282E+01 -.113E+02   -.184E+01 -.316E+01 0.121E+02   0.347E+00 0.337E+00 -.810E+00   0.276E-02 -.408E-02 -.412E-02
   0.109E+01 0.495E+01 -.310E+02   -.906E+00 -.533E+01 0.314E+02   -.181E+00 0.378E+00 -.391E+00   0.388E-02 -.200E-02 -.174E-02
   0.288E+01 -.108E+02 -.201E+04   -.290E+01 0.112E+02 0.201E+04   0.139E-01 -.408E+00 0.178E+01   -.115E-02 -.274E-02 -.875E-03
   -.296E+01 0.177E+01 0.203E+04   0.294E+01 -.167E+01 -.203E+04   0.358E-01 -.824E-01 -.135E+01   -.509E-03 -.439E-03 -.435E-02
   -.450E+01 0.521E+01 -.202E+04   0.437E+01 -.537E+01 0.202E+04   0.129E+00 0.159E+00 0.155E+01   -.396E-02 0.522E-03 0.220E-02
   0.154E+02 0.931E+01 0.201E+04   -.155E+02 -.956E+01 -.201E+04   0.254E-01 0.154E+00 -.173E+01   -.170E-02 -.125E-02 -.587E-02
   0.669E+00 0.431E+01 -.205E+04   -.619E+00 -.406E+01 0.205E+04   -.461E-01 -.252E+00 0.169E+01   0.123E-03 0.201E-02 0.352E-02
   -.860E+01 -.181E+01 -.552E+02   0.824E+01 0.198E+01 0.562E+02   0.356E+00 -.163E+00 -.936E+00   -.196E-02 0.104E-02 -.602E-02
   0.187E+02 0.717E+01 -.206E+04   -.192E+02 -.714E+01 0.205E+04   0.465E+00 -.235E-01 0.178E+01   0.478E-03 0.686E-02 -.822E-03
   0.713E+01 0.467E+01 -.203E+04   -.716E+01 -.476E+01 0.203E+04   0.422E-01 0.818E-01 0.138E+01   -.383E-02 0.405E-02 0.668E-02
   0.201E+00 -.195E+02 -.202E+04   -.112E+00 0.200E+02 0.202E+04   -.837E-01 -.529E+00 0.135E+01   -.639E-02 -.221E-02 0.153E-01
   0.101E+02 -.457E+01 -.200E+04   -.102E+02 0.421E+01 0.200E+04   0.182E+00 0.358E+00 0.197E+01   0.433E-02 0.388E-02 -.188E-01
   0.269E+01 -.355E+01 -.364E+02   -.285E+01 0.343E+01 0.372E+02   0.156E+00 0.126E+00 -.798E+00   0.449E-02 -.359E-02 0.211E-02
   0.850E+00 -.239E+01 -.358E+02   -.506E+00 0.299E+01 0.371E+02   -.338E+00 -.599E+00 -.128E+01   0.140E-02 -.288E-02 -.522E-02
   -.222E+01 0.178E+02 0.202E+04   0.218E+01 -.182E+02 -.202E+04   0.333E-01 0.216E+00 -.138E+01   0.791E-04 0.762E-03 -.350E-02
   -.121E+02 -.486E+01 -.201E+04   0.125E+02 0.471E+01 0.201E+04   -.361E+00 0.154E+00 0.172E+01   0.448E-03 0.401E-03 -.589E-02
 -----------------------------------------------------------------------------------------------
   -.933E-01 -.795E-01 -.318E+01   0.117E-12 0.213E-13 -.682E-12   0.106E+00 0.931E-01 0.325E+01   -.127E-01 -.115E-01 -.100E+00
 
 
 POSITION                                       TOTAL-FORCE (eV/Angst)
 -----------------------------------------------------------------------------------
     12.34817      7.15363     15.01539        -0.004466     -0.005905      0.012960
     12.38970      3.99499     12.57391        -0.002811     -0.001393      0.008406
     13.75323      7.94043     10.00000         0.199684      0.240941     -0.105775
      4.12597      5.55830     10.00000         0.041255      0.222924     -0.023924
     11.04288      1.57549     12.45043        -0.004744      0.008806      0.000521
      2.75129      4.73750     15.12542         0.000175     -0.002870      0.004416
     12.37790      5.55830     10.00000         0.029652      0.041588      0.067372
     15.14902      8.73376     12.45189         0.006882      0.002757     -0.006408
      4.14582      7.16298     15.06903        -0.001776     -0.008463     -0.006462
      4.12597      0.79404     10.00000        -0.035044      0.012823     -0.006284
      5.50129      3.17617     10.00000         0.310158     -0.219976     -0.182826
      2.74511     -0.00565     14.93062        -0.000803     -0.003064      0.004225
      2.75065      3.17617     10.00000        -0.134974     -0.231714     -0.082911
      4.12110      3.96208     12.56505         0.000062      0.012232      0.008749
      9.62902      4.00337     12.51022        -0.004736      0.002980     -0.008283
      6.87661      5.55830     10.00000         0.044596      0.022870     -0.188439
      5.52074      6.38311     12.51018         0.004095     -0.005276      0.004058
     11.00258      3.17617     10.00000        -0.181491     -0.337232     -0.272591
      8.25194      7.94043     10.00000        -0.320653      0.191068     -0.014289
     12.35105      8.73726     12.48872        -0.004132      0.008480      0.001788
      8.24119      1.58928     12.41630        -0.001897      0.011791     -0.006811
      6.88271      3.97713     12.50524         0.008892      0.004611     -0.004605
     11.00258      7.94043     10.00000         0.077772      0.149954     -0.060766
      9.62726      5.55830     10.00000        -0.094773     -0.148401     -0.063137
      6.87661      0.79404     10.00000         0.157382      0.111239      0.197747
      6.91102      8.74205     12.42878         0.010621      0.004015     -0.007308
      5.52643      4.75297     14.92220        -0.002553     -0.000241     -0.007867
      4.14149      2.36552     14.87452        -0.001271     -0.001611     -0.000792
     -0.00587      0.00451     14.85158         0.005173     -0.001182     -0.009292
      5.50129      7.94043     10.00000        -0.002908      0.182796      0.252070
     13.74919      6.36204     12.57457         0.009627      0.004213     -0.013509
      1.35959      2.37355     14.89028         0.002560      0.000125     -0.003687
      5.47767      1.57773     12.45174         0.007628      0.000489      0.003726
      2.76584      1.56991     12.47917         0.002506     -0.005746     -0.002873
      5.49951      0.00981     14.84550        -0.003251     -0.001359     -0.006960
      9.62726      0.79404     10.00000         0.014876      0.013819      0.113252
      6.87616      2.37006     14.85158        -0.006339     -0.000796     -0.001535
      1.37532      0.79404     10.00000        -0.138782     -0.094792      0.252516
      8.24779      4.76999     14.88569         0.004048      0.003576     -0.007387
     11.00101      6.37505     12.51466        -0.007444      0.004137      0.009105
     10.97190      4.75779     14.92357        -0.000921      0.004549     -0.003228
      9.62150      2.37459     14.86107         0.003844      0.000047     -0.005211
      8.25161      0.02112     14.86653        -0.000700     -0.006531     -0.015668
      9.61552      7.13185     14.83977         0.006754     -0.003588      0.003412
      9.61039      8.73962     12.47987        -0.003112      0.001360      0.007551
      8.27373      6.39229     12.48494         0.008527     -0.002124      0.009737
      8.25194      3.17617     10.00000        -0.000095     -0.183554      0.161819
      6.88712      7.13984     14.86109         0.002906      0.001626     -0.004603
 -----------------------------------------------------------------------------------
    total drift:                                0.000372      0.002156     -0.028461


--------------------------------------------------------------------------------------------------------



  FREE ENERGIE OF THE ION-ELECTRON SYSTEM (eV)
  ---------------------------------------------------
  free  energy   TOTEN  =      -191.52556663 eV

  energy  without entropy=     -191.31885921  energy(sigma->0) =     -191.42221292
 
 d Force = 0.4581017E-03[ 0.218E-03, 0.698E-03]  d Energy = 0.4746618E-03-0.166E-04
 d Force =-0.9930794E+01[-0.992E+01,-0.994E+01]  d Ewald  =-0.9930798E+01 0.435E-05


--------------------------------------------------------------------------------------------------------


    POTLOK:  cpu time    0.0471: real time    0.0472


--------------------------------------------------------------------------------------------------------


 stress matrix after NEB project (eV)
      0.00000      0.00000      0.00000
      0.00000      0.00000      0.00000
      0.00000      0.00000      0.00000
  FORCES: max atom, RMS     0.017115    0.008309
  FORCE total and by dimension    0.057563    0.015668
  Stress total and by dimension    0.000000    0.000000
 Conjugate gradient step on ions:
 trial-energy change:   -0.000475  1 .order   -0.000458   -0.000698   -0.000218
  (g-gl).g = 0.354E-03      g.g   = 0.301E-03  gl.gl    = 0.782E-03
 g(Force)  = 0.301E-03   g(Stress)= 0.000E+00 ortho     =-0.248E-04
 gamma     =   0.45236
 trial     =   2.41085
 opt step  =   3.26747  (harmonic =   3.50798) maximal distance =0.00531277
 next E    =  -191.525606   (d E  =  -0.00051)


--------------------------------------------------------------------------------------------------------


  
 reached required accuracy - stopping structural energy minimisation
     LOOP+:  cpu time   53.5928: real time   53.9376
    4ORBIT:  cpu time    0.0000: real time    0.0000

 total amount of memory used by VASP on root node    84353. kBytes
========================================================================

   base      :      30000. kBytes
   nonlr-proj:       4285. kBytes
   fftplans  :       4447. kBytes
   grid      :       6721. kBytes
   one-center:        124. kBytes
   wavefun   :      38776. kBytes
 
  
  
 General timing and accounting informations for this job:
 ========================================================
  
                  Total CPU time used (sec):     1657.720
                            User time (sec):     1582.620
                          System time (sec):       75.100
                         Elapsed time (sec):     1668.095
  
                   Maximum memory used (kb):      903572.
                   Average memory used (kb):           0.
  
                          Minor page faults:       802466
                          Major page faults:            0
                 Voluntary context switches:        11098
