  48  48   0   0
  0.5349325E+02  0.1100258E-08  0.1100258E-08  0.2449179E-08  0.3500000E-15
  1.000000000000000E-004
  CAR 
 unknown system                          
      6.39690230     -9.73096852  301     -1.09084520      1.00000000
     -9.731  0.0000E+00  0.0000E+00
     -9.677  0.0000E+00  0.0000E+00
     -9.623  0.0000E+00  0.0000E+00
     -9.570  0.0000E+00  0.0000E+00
     -9.516  0.0000E+00  0.0000E+00
     -9.462  0.0000E+00  0.0000E+00
     -9.408  0.0000E+00  0.0000E+00
     -9.355  0.0000E+00  0.0000E+00
     -9.301  0.6884E-17  0.3701E-18
     -9.247  0.2705E-14  0.1458E-15
     -9.193  0.6060E-12  0.3272E-13
     -9.140  0.7727E-10  0.4187E-11
     -9.086  0.5619E-08  0.3062E-09
     -9.032  0.2335E-06  0.1286E-07
     -8.978  0.5557E-05  0.3116E-06
     -8.925  0.7594E-04  0.4394E-05
     -8.871  0.5972E-03  0.3650E-04
     -8.817  0.2709E-02  0.1821E-03
     -8.763  0.7108E-02  0.5643E-03
     -8.710  0.1086E-01  0.1148E-02
     -8.656  0.1009E-01  0.1691E-02
     -8.602  0.7533E-02  0.2096E-02
     -8.548  0.8321E-02  0.2543E-02
     -8.494  0.1065E-01  0.3116E-02
     -8.441  0.9399E-02  0.3621E-02
     -8.387  0.5067E-02  0.3893E-02
     -8.333  0.1700E-02  0.3985E-02
     -8.279  0.7756E-03  0.4026E-02
     -8.226  0.2035E-02  0.4136E-02
     -8.172  0.5310E-02  0.4421E-02
     -8.118  0.8918E-02  0.4901E-02
     -8.064  0.1031E-01  0.5455E-02
     -8.011  0.1069E-01  0.6029E-02
     -7.957  0.1444E-01  0.6806E-02
     -7.903  0.2059E-01  0.7913E-02
     -7.849  0.2173E-01  0.9081E-02
     -7.796  0.1686E-01  0.9987E-02
     -7.742  0.1304E-01  0.1069E-01
     -7.688  0.1312E-01  0.1139E-01
     -7.634  0.1408E-01  0.1215E-01
     -7.581  0.1416E-01  0.1291E-01
     -7.527  0.1473E-01  0.1370E-01
     -7.473  0.1608E-01  0.1457E-01
     -7.419  0.1597E-01  0.1543E-01
     -7.366  0.1527E-01  0.1625E-01
     -7.312  0.1887E-01  0.1726E-01
     -7.258  0.2649E-01  0.1869E-01
     -7.204  0.3137E-01  0.2037E-01
     -7.151  0.3167E-01  0.2207E-01
     -7.097  0.3242E-01  0.2382E-01
     -7.043  0.3571E-01  0.2574E-01
     -6.989  0.4093E-01  0.2794E-01
     -6.935  0.4987E-01  0.3062E-01
     -6.882  0.6243E-01  0.3398E-01
     -6.828  0.7326E-01  0.3791E-01
     -6.774  0.7904E-01  0.4216E-01
     -6.720  0.8347E-01  0.4665E-01
     -6.667  0.8863E-01  0.5141E-01
     -6.613  0.9288E-01  0.5641E-01
     -6.559  0.9690E-01  0.6162E-01
     -6.505  0.1025E+00  0.6713E-01
     -6.452  0.1093E+00  0.7300E-01
     -6.398  0.1159E+00  0.7924E-01
     -6.344  0.1223E+00  0.8581E-01
     -6.290  0.1293E+00  0.9276E-01
     -6.237  0.1379E+00  0.1002E+00
     -6.183  0.1477E+00  0.1081E+00
     -6.129  0.1561E+00  0.1165E+00
     -6.075  0.1612E+00  0.1252E+00
     -6.022  0.1635E+00  0.1340E+00
     -5.968  0.1638E+00  0.1428E+00
     -5.914  0.1630E+00  0.1515E+00
     -5.860  0.1635E+00  0.1603E+00
     -5.807  0.1641E+00  0.1691E+00
     -5.753  0.1596E+00  0.1777E+00
     -5.699  0.1496E+00  0.1858E+00
     -5.645  0.1396E+00  0.1933E+00
     -5.591  0.1338E+00  0.2005E+00
     -5.538  0.1317E+00  0.2076E+00
     -5.484  0.1317E+00  0.2146E+00
     -5.430  0.1359E+00  0.2219E+00
     -5.376  0.1442E+00  0.2297E+00
     -5.323  0.1519E+00  0.2379E+00
     -5.269  0.1576E+00  0.2463E+00
     -5.215  0.1629E+00  0.2551E+00
     -5.161  0.1677E+00  0.2641E+00
     -5.108  0.1710E+00  0.2733E+00
     -5.054  0.1715E+00  0.2825E+00
     -5.000  0.1702E+00  0.2917E+00
     -4.946  0.1700E+00  0.3008E+00
     -4.893  0.1726E+00  0.3101E+00
     -4.839  0.1745E+00  0.3195E+00
     -4.785  0.1715E+00  0.3287E+00
     -4.731  0.1646E+00  0.3375E+00
     -4.678  0.1580E+00  0.3460E+00
     -4.624  0.1561E+00  0.3544E+00
     -4.570  0.1612E+00  0.3631E+00
     -4.516  0.1706E+00  0.3723E+00
     -4.463  0.1774E+00  0.3818E+00
     -4.409  0.1775E+00  0.3913E+00
     -4.355  0.1754E+00  0.4008E+00
     -4.301  0.1783E+00  0.4104E+00
     -4.247  0.1854E+00  0.4203E+00
     -4.194  0.1887E+00  0.4305E+00
     -4.140  0.1845E+00  0.4404E+00
     -4.086  0.1795E+00  0.4500E+00
     -4.032  0.1806E+00  0.4597E+00
     -3.979  0.1863E+00  0.4698E+00
     -3.925  0.1907E+00  0.4800E+00
     -3.871  0.1918E+00  0.4903E+00
     -3.817  0.1918E+00  0.5006E+00
     -3.764  0.1928E+00  0.5110E+00
     -3.710  0.1958E+00  0.5215E+00
     -3.656  0.2002E+00  0.5323E+00
     -3.602  0.2014E+00  0.5431E+00
     -3.549  0.1993E+00  0.5538E+00
     -3.495  0.1987E+00  0.5645E+00
     -3.441  0.1988E+00  0.5752E+00
     -3.387  0.1966E+00  0.5858E+00
     -3.334  0.1949E+00  0.5962E+00
     -3.280  0.1948E+00  0.6067E+00
     -3.226  0.1916E+00  0.6170E+00
     -3.172  0.1853E+00  0.6270E+00
     -3.119  0.1805E+00  0.6367E+00
     -3.065  0.1778E+00  0.6462E+00
     -3.011  0.1764E+00  0.6557E+00
     -2.957  0.1771E+00  0.6652E+00
     -2.904  0.1802E+00  0.6749E+00
     -2.850  0.1839E+00  0.6848E+00
     -2.796  0.1867E+00  0.6949E+00
     -2.742  0.1884E+00  0.7050E+00
     -2.688  0.1872E+00  0.7150E+00
     -2.635  0.1835E+00  0.7249E+00
     -2.581  0.1812E+00  0.7347E+00
     -2.527  0.1833E+00  0.7445E+00
     -2.473  0.1870E+00  0.7546E+00
     -2.420  0.1867E+00  0.7646E+00
     -2.366  0.1820E+00  0.7744E+00
     -2.312  0.1791E+00  0.7840E+00
     -2.258  0.1795E+00  0.7937E+00
     -2.205  0.1805E+00  0.8034E+00
     -2.151  0.1821E+00  0.8132E+00
     -2.097  0.1861E+00  0.8232E+00
     -2.043  0.1926E+00  0.8335E+00
     -1.990  0.1992E+00  0.8442E+00
     -1.936  0.2025E+00  0.8551E+00
     -1.882  0.2021E+00  0.8660E+00
     -1.828  0.2015E+00  0.8768E+00
     -1.775  0.2017E+00  0.8876E+00
     -1.721  0.2020E+00  0.8985E+00
     -1.667  0.2036E+00  0.9095E+00
     -1.613  0.2081E+00  0.9206E+00
     -1.560  0.2128E+00  0.9321E+00
     -1.506  0.2099E+00  0.9434E+00
     -1.452  0.1973E+00  0.9540E+00
     -1.398  0.1819E+00  0.9638E+00
     -1.344  0.1714E+00  0.9730E+00
     -1.291  0.1649E+00  0.9818E+00
     -1.237  0.1547E+00  0.9902E+00
     -1.183  0.1376E+00  0.9976E+00
     -1.129  0.1191E+00  0.1004E+01
     -1.076  0.1023E+00  0.1009E+01
     -1.022  0.8098E-01  0.1014E+01
     -0.968  0.5382E-01  0.1017E+01
     -0.914  0.3216E-01  0.1018E+01
     -0.861  0.2279E-01  0.1020E+01
     -0.807  0.2010E-01  0.1021E+01
     -0.753  0.1889E-01  0.1022E+01
     -0.699  0.1919E-01  0.1023E+01
     -0.646  0.2192E-01  0.1024E+01
     -0.592  0.2773E-01  0.1025E+01
     -0.538  0.3607E-01  0.1027E+01
     -0.484  0.4255E-01  0.1030E+01
     -0.431  0.4247E-01  0.1032E+01
     -0.377  0.3839E-01  0.1034E+01
     -0.323  0.3769E-01  0.1036E+01
     -0.269  0.4271E-01  0.1038E+01
     -0.216  0.4667E-01  0.1041E+01
     -0.162  0.4219E-01  0.1043E+01
     -0.108  0.3065E-01  0.1045E+01
     -0.054  0.1902E-01  0.1046E+01
     -0.000  0.1373E-01  0.1047E+01
      0.053  0.1739E-01  0.1047E+01
      0.107  0.2693E-01  0.1049E+01
      0.161  0.3439E-01  0.1051E+01
      0.215  0.3509E-01  0.1053E+01
      0.268  0.3413E-01  0.1054E+01
      0.322  0.3630E-01  0.1056E+01
      0.376  0.3919E-01  0.1059E+01
      0.430  0.4046E-01  0.1061E+01
      0.483  0.4063E-01  0.1063E+01
      0.537  0.4043E-01  0.1065E+01
      0.591  0.4158E-01  0.1067E+01
      0.645  0.4507E-01  0.1070E+01
      0.698  0.4771E-01  0.1072E+01
      0.752  0.4546E-01  0.1075E+01
      0.806  0.3796E-01  0.1077E+01
      0.860  0.2927E-01  0.1078E+01
      0.913  0.2334E-01  0.1080E+01
      0.967  0.1951E-01  0.1081E+01
      1.021  0.1504E-01  0.1081E+01
      1.075  0.1133E-01  0.1082E+01
      1.128  0.1339E-01  0.1083E+01
      1.182  0.2055E-01  0.1084E+01
      1.236  0.2491E-01  0.1085E+01
      1.290  0.2145E-01  0.1086E+01
      1.344  0.1415E-01  0.1087E+01
      1.397  0.1124E-01  0.1088E+01
      1.451  0.1668E-01  0.1089E+01
      1.505  0.2727E-01  0.1090E+01
      1.559  0.3558E-01  0.1092E+01
      1.612  0.3642E-01  0.1094E+01
      1.666  0.3241E-01  0.1096E+01
      1.720  0.3078E-01  0.1097E+01
      1.774  0.3399E-01  0.1099E+01
      1.827  0.3672E-01  0.1101E+01
      1.881  0.3311E-01  0.1103E+01
      1.935  0.2460E-01  0.1104E+01
      1.989  0.1735E-01  0.1105E+01
      2.042  0.1490E-01  0.1106E+01
      2.096  0.1764E-01  0.1107E+01
      2.150  0.2296E-01  0.1108E+01
      2.204  0.2837E-01  0.1110E+01
      2.257  0.3568E-01  0.1112E+01
      2.311  0.4531E-01  0.1114E+01
      2.365  0.5277E-01  0.1117E+01
      2.419  0.5461E-01  0.1120E+01
      2.472  0.5184E-01  0.1123E+01
      2.526  0.4756E-01  0.1125E+01
      2.580  0.4350E-01  0.1128E+01
      2.634  0.3999E-01  0.1130E+01
      2.687  0.3867E-01  0.1132E+01
      2.741  0.3870E-01  0.1134E+01
      2.795  0.3454E-01  0.1136E+01
      2.849  0.2508E-01  0.1137E+01
      2.903  0.1640E-01  0.1138E+01
      2.956  0.1331E-01  0.1139E+01
      3.010  0.1332E-01  0.1139E+01
      3.064  0.1291E-01  0.1140E+01
      3.118  0.1434E-01  0.1141E+01
      3.171  0.1867E-01  0.1142E+01
      3.225  0.2288E-01  0.1143E+01
      3.279  0.2421E-01  0.1144E+01
      3.333  0.2166E-01  0.1146E+01
      3.386  0.1832E-01  0.1147E+01
      3.440  0.1861E-01  0.1148E+01
      3.494  0.2308E-01  0.1149E+01
      3.548  0.3016E-01  0.1150E+01
      3.601  0.3601E-01  0.1152E+01
      3.655  0.3579E-01  0.1154E+01
      3.709  0.3185E-01  0.1156E+01
      3.763  0.3130E-01  0.1158E+01
      3.816  0.3191E-01  0.1159E+01
      3.870  0.2723E-01  0.1161E+01
      3.924  0.2168E-01  0.1162E+01
      3.978  0.2350E-01  0.1163E+01
      4.031  0.3008E-01  0.1165E+01
      4.085  0.3140E-01  0.1167E+01
      4.139  0.2684E-01  0.1168E+01
      4.193  0.2394E-01  0.1169E+01
      4.247  0.2266E-01  0.1171E+01
      4.300  0.1878E-01  0.1172E+01
      4.354  0.1628E-01  0.1172E+01
      4.408  0.2070E-01  0.1174E+01
      4.462  0.2805E-01  0.1175E+01
      4.515  0.3384E-01  0.1177E+01
      4.569  0.4206E-01  0.1179E+01
      4.623  0.5331E-01  0.1182E+01
      4.677  0.5901E-01  0.1185E+01
      4.730  0.5482E-01  0.1188E+01
      4.784  0.4785E-01  0.1191E+01
      4.838  0.4631E-01  0.1193E+01
      4.892  0.4996E-01  0.1196E+01
      4.945  0.5637E-01  0.1199E+01
      4.999  0.6448E-01  0.1202E+01
      5.053  0.6961E-01  0.1206E+01
      5.107  0.6609E-01  0.1210E+01
      5.160  0.5673E-01  0.1213E+01
      5.214  0.5167E-01  0.1215E+01
      5.268  0.5074E-01  0.1218E+01
      5.322  0.4442E-01  0.1221E+01
      5.375  0.3215E-01  0.1222E+01
      5.429  0.1936E-01  0.1223E+01
      5.483  0.9013E-02  0.1224E+01
      5.537  0.2866E-02  0.1224E+01
      5.591  0.5715E-03  0.1224E+01
      5.644  0.6852E-04  0.1224E+01
      5.698  0.4839E-05  0.1224E+01
      5.752  0.1991E-06  0.1224E+01
      5.806  0.4741E-08  0.1224E+01
      5.859  0.6494E-10  0.1224E+01
      5.913  0.5099E-12  0.1224E+01
      5.967  0.2288E-14  0.1224E+01
      6.021  0.5507E-17  0.1224E+01
      6.074  0.0000E+00  0.1224E+01
      6.128  0.0000E+00  0.1224E+01
      6.182  0.0000E+00  0.1224E+01
      6.236  0.0000E+00  0.1224E+01
      6.289  0.0000E+00  0.1224E+01
      6.343  0.0000E+00  0.1224E+01
      6.397  0.0000E+00  0.1224E+01
