unknown system                          
           1
    11.002582    0.000000    0.000000
     5.501291    9.528515    0.000000
     0.000000    0.000000   24.491785
   Au   Pd
  24  24
Direct configuration=     1
   0.83333333  0.58333333  0.40830017
   0.41666667  0.16666667  0.50000000
   0.25000000  0.50000000  0.59169983
   0.50000000  0.75000000  0.59169983
   0.66666667  0.41666667  0.50000000
   0.25000000  0.25000000  0.59169983
   0.75000000  0.25000000  0.59169983
   0.58333333  0.83333333  0.40830017
   0.25000000  0.00000000  0.59169983
   0.41666667  0.91666667  0.50000000
   0.33333333  0.08333333  0.40830017
   0.00000000  0.75000000  0.59169983
   0.91666667  0.91666667  0.50000000
   0.08333333  0.83333333  0.40830017
   0.00000000  0.50000000  0.59169983
   0.91666667  0.66666667  0.50000000
   0.08333333  0.58333333  0.40830017
   0.41666667  0.41666667  0.50000000
   0.91666667  0.41666667  0.50000000
   0.08333333  0.33333333  0.40830017
   0.83333333  0.83333333  0.40830017
   0.91666667  0.16666667  0.50000000
   0.58333333  0.08333333  0.40830017
   0.83333333  0.08333333  0.40830017
   0.08333333  0.08333333  0.40830017
   0.75000000  0.00000000  0.59169983
   0.83333333  0.33333333  0.40830017
   0.66666667  0.66666667  0.50000000
   0.75000000  0.50000000  0.59169983
   0.66666667  0.16666667  0.50000000
   0.50000000  0.50000000  0.59169983
   0.25000000  0.75000000  0.59169983
   0.58333333  0.58333333  0.40830017
   0.50000000  0.25000000  0.59169983
   0.58333333  0.33333333  0.40830017
   0.50000000  0.00000000  0.59169983
   0.66666667  0.91666667  0.50000000
   0.16666667  0.91666667  0.50000000
   0.33333333  0.83333333  0.40830017
   0.16666667  0.66666667  0.50000000
   0.33333333  0.58333333  0.40830017
   0.16666667  0.41666667  0.50000000
   0.33333333  0.33333333  0.40830017
   0.16666667  0.16666667  0.50000000
   0.00000000  0.25000000  0.59169983
   0.00000000  0.00000000  0.59169983
   0.41666667  0.66666667  0.50000000
   0.75000000  0.75000000  0.59169983
Direct configuration=     2
   0.83205872  0.58277221  0.40605935
   0.41724323  0.16708024  0.50040610
   0.25111712  0.50024074  0.59357668
   0.50103970  0.74879772  0.59352071
   0.66525473  0.41826377  0.49964037
   0.25021535  0.24942838  0.59362540
   0.74973972  0.24975772  0.59384427
   0.58307838  0.83222541  0.40639390
   0.24872789  0.00024400  0.59358421
   0.41673946  0.91556914  0.50000989
   0.33196815  0.08366067  0.40613902
  -0.00013295  0.75127278  0.59378476
   0.91629398  0.91749349  0.50085747
   0.08547752  0.83300738  0.40641580
  -0.00099623  0.49959394  0.59386491
   0.91567961  0.66719004  0.50049217
   0.08547493  0.58228838  0.40637190
   0.41660175  0.41728799  0.49963126
   0.91658392  0.41587803  0.50034873
   0.08382026  0.33236206  0.40638265
   0.83273979  0.83369160  0.40600871
   0.91847228  0.16587573  0.50003774
   0.58316328  0.08458828  0.40636655
   0.83278204  0.08513146  0.40608143
   0.08363124  0.08313264  0.40728335
   0.74909591  0.00022860  0.59262698
   0.83275153  0.33335745  0.40691060
   0.66611603  0.66677887  0.50027836
   0.74979657  0.50041747  0.59287802
   0.66604375  0.16640874  0.50025234
   0.49972038  0.50050021  0.59281219
   0.25005576  0.75002585  0.59248516
   0.58279278  0.58328357  0.40743922
   0.50079660  0.24927708  0.59289456
   0.58306678  0.33385339  0.40720748
   0.50131192 -0.00003062  0.59287545
   0.66667843  0.91666089  0.50079942
   0.16736941  0.91593223  0.49997751
   0.33312656  0.83249572  0.40748044
   0.16842769  0.66665294  0.49995642
   0.33376824  0.58329105  0.40744574
   0.16734861  0.41635752  0.49974344
   0.33345774  0.33412046  0.40711658
   0.16586948  0.16657340  0.49997952
   0.00001779  0.24977329  0.59290723
   0.00048663 -0.00020661  0.59283197
   0.41594491  0.66690623  0.49973548
   0.74918260  0.75050845  0.59263856
Direct configuration=     3
   0.82823490  0.58108885  0.39933690
   0.41897291  0.16832096  0.50162439
   0.25446849  0.50096295  0.59920723
   0.50415879  0.74519089  0.59898335
   0.66101891  0.42305509  0.49856149
   0.25086140  0.24771354  0.59940212
   0.74895889  0.24903087  0.60027759
   0.58231354  0.82890166  0.40067511
   0.24491154  0.00097599  0.59923734
   0.41695785  0.91227655  0.50003954
   0.32787261  0.08464268  0.39965556
  -0.00053180  0.75509113  0.60003955
   0.91517591  0.91997395  0.50342990
   0.09191007  0.83202953  0.40076268
  -0.00398490  0.49837576  0.60036014
   0.91271843  0.66876015  0.50196870
   0.09189974  0.57915351  0.40058709
   0.41640701  0.41915197  0.49852504
   0.91633568  0.41351210  0.50139492
   0.08528104  0.32944822  0.40063008
   0.83095918  0.83476641  0.39913433
   0.92388911  0.16350293  0.50015095
   0.58265312  0.08835313  0.40056569
   0.83112818  0.09052582  0.39942522
   0.08452496  0.08253056  0.40423291
   0.74638364  0.00091439  0.59540844
   0.83100613  0.33342982  0.40274189
   0.66446412  0.66711549  0.50111343
   0.74918626  0.50166988  0.59641257
   0.66417500  0.16563494  0.50100936
   0.49888154  0.50200083  0.59614927
   0.25022304  0.75010340  0.59484115
   0.58117113  0.58313429  0.40485636
   0.50318641  0.24710832  0.59647874
   0.58226711  0.33541357  0.40392941
   0.50524770 -0.00012247  0.59640231
   0.66671371  0.91664356  0.50319768
   0.16947765  0.91372893  0.49991005
   0.33250625  0.82998287  0.40502124
   0.17371077  0.66661176  0.49982570
   0.33507295  0.58316422  0.40488246
   0.16939444  0.41543008  0.49897377
   0.33383098  0.33648182  0.40356582
   0.16347793  0.16629358  0.49991810
   0.00007115  0.24909318  0.59652943
   0.00194650 -0.00082643  0.59622839
   0.41377963  0.66762493  0.49894190
   0.74673042  0.75203382  0.59545473
Direct configuration=     4
   0.83069558  0.58005770  0.39807519
   0.41722123  0.16684540  0.50116062
   0.25342662  0.50030894  0.60042884
   0.50231356  0.74698911  0.60050061
   0.66330921  0.42011694  0.49910604
   0.25105797  0.24816885  0.60068777
   0.74933854  0.24957193  0.60145782
   0.58088145  0.83120995  0.39947741
   0.24714828 -0.00017513  0.60059072
   0.41674558  0.91446804  0.50024838
   0.33079073  0.08302338  0.39844635
  -0.00027890  0.75342727  0.60174839
   0.91608952  0.91856297  0.50236224
   0.08818805  0.83318497  0.39948534
  -0.00283549  0.49919289  0.60190397
   0.91508124  0.66750428  0.50137475
   0.08864215  0.58108026  0.39955266
   0.41642162  0.41823592  0.49908966
   0.91629353  0.41561650  0.50093610
   0.08322738  0.33164104  0.39935403
   0.83278424  0.83425311  0.39807878
   0.91997671  0.16409650  0.50007410
   0.58148478  0.08751925  0.39935990
   0.83261763  0.08861988  0.39815607
   0.08372974  0.08239155  0.40328647
   0.74703818  0.00106433  0.59694468
   0.83121515  0.33375420  0.40192608
   0.66475524  0.66749262  0.50081231
   0.74925980  0.50008949  0.59735407
   0.66628922  0.16651892  0.50064086
   0.49981466  0.50111194  0.59690899
   0.25078646  0.75028070  0.59567953
   0.58058579  0.58305228  0.40373771
   0.50231212  0.24845349  0.59760130
   0.58205756  0.33601093  0.40291047
   0.50339361 -0.00038767  0.59752556
   0.66590816  0.91659487  0.50197336
   0.16919769  0.91374240  0.49996866
   0.33405965  0.83021563  0.40406476
   0.17000822  0.66761985  0.49990209
   0.33626297  0.58254584  0.40360728
   0.16759517  0.41654658  0.49934617
   0.33503578  0.33480663  0.40264098
   0.16756742  0.16538038  0.50001117
  -0.00095406  0.24924647  0.59777605
   0.00107727  0.00015412  0.59751595
   0.41449661  0.66837071  0.49941867
   0.74788637  0.75142381  0.59679109
Direct configuration=     5
   0.83176218  0.57961074  0.39752829
   0.41646196  0.16620581  0.50095960
   0.25297501  0.50002546  0.60095835
   0.50151374  0.74776856  0.60115828
   0.66430195  0.41884338  0.49934208
   0.25114317  0.24836621  0.60124504
   0.74950310  0.24980646  0.60196939
   0.58026071  0.83221049  0.39895826
   0.24811781 -0.00067409  0.60117734
   0.41665357  0.91541795  0.50033890
   0.33205561  0.08232148  0.39792221
  -0.00016928  0.75270607  0.60248909
   0.91648553  0.91795137  0.50189946
   0.08657473  0.83368581  0.39893167
  -0.00233727  0.49954707  0.60257315
   0.91610541  0.66695992  0.50111730
   0.08723012  0.58191542  0.39910428
   0.41642795  0.41783885  0.49933440
   0.91627525  0.41652866  0.50073723
   0.08233721  0.33259153  0.39880091
   0.83357533  0.83403061  0.39762125
   0.91828086  0.16435379  0.50004079
   0.58097835  0.08715780  0.39883725
   0.83326324  0.08779374  0.39760595
   0.08338506  0.08233129  0.40287622
   0.74732189  0.00112932  0.59761057
   0.83130575  0.33389480  0.40157246
   0.66488142  0.66765609  0.50068179
   0.74929168  0.49940446  0.59776217
   0.66720564  0.16690208  0.50048113
   0.50021913  0.50072664  0.59723830
   0.25103067  0.75035754  0.59604294
   0.58033207  0.58301673  0.40325283
   0.50193315  0.24903657  0.59808789
   0.58196673  0.33626986  0.40246880
   0.50258994 -0.00050262  0.59801244
   0.66555899  0.91657376  0.50144268
   0.16907634  0.91374824  0.49999406
   0.33473298  0.83031652  0.40365016
   0.16840332  0.66805681  0.49993520
   0.33677880  0.58227780  0.40305454
   0.16681527  0.41703053  0.49950758
   0.33555801  0.33408051  0.40224010
   0.16934002  0.16498455  0.50005152
  -0.00139845  0.24931292  0.59831641
   0.00070050  0.00057915  0.59807405
   0.41480739  0.66869397  0.49962533
   0.74838743  0.75115939  0.59737034
Direct configuration=     6
   0.83115230  0.58117275  0.39716496
   0.41707556  0.16654621  0.50078669
   0.25251977  0.50007221  0.60127057
   0.50167752  0.74798767  0.60168270
   0.66507473  0.41845181  0.49958364
   0.25079293  0.24867750  0.60167127
   0.74949393  0.24975736  0.60243049
   0.58196731  0.83167813  0.39857679
   0.24839513 -0.00040055  0.60163586
   0.41691007  0.91527085  0.50050315
   0.33129988  0.08312850  0.39748085
  -0.00021663  0.75249669  0.60305141
   0.91627786  0.91691651  0.50153212
   0.08638481  0.83352444  0.39858858
  -0.00203834  0.49959634  0.60304708
   0.91618239  0.66729937  0.50088438
   0.08692810  0.58203113  0.39890620
   0.41563261  0.41775543  0.49967078
   0.91715401  0.41609893  0.50061813
   0.08318284  0.33193772  0.39854366
   0.83303641  0.83407276  0.39736810
   0.91874676  0.16506169  0.50005464
   0.58202664  0.08631359  0.39851762
   0.83273761  0.08725011  0.39715632
   0.08375133  0.08266264  0.40285200
   0.74770405  0.00085607  0.59780775
   0.83136086  0.33374901  0.40148988
   0.66511187  0.66785665  0.50048206
   0.74939935  0.49941230  0.59793101
   0.66695281  0.16635244  0.50026748
   0.50032879  0.50040250  0.59745198
   0.25074999  0.75003451  0.59627063
   0.58112816  0.58307678  0.40299705
   0.50158698  0.24922161  0.59819157
   0.58247806  0.33563913  0.40218850
   0.50218332 -0.00054997  0.59827282
   0.66630772  0.91656346  0.50077461
   0.16837273  0.91470752  0.49996185
   0.33408570  0.83073311  0.40340651
   0.16756412  0.66784714  0.49989164
   0.33570737  0.58265010  0.40283516
   0.16648838  0.41722274  0.49968990
   0.33468639  0.33415944  0.40216551
   0.16816556  0.16557337  0.50005851
  -0.00106966  0.24940511  0.59840931
   0.00025070  0.00052395  0.59836567
   0.41541742  0.66837312  0.49993690
   0.74889381  0.75083013  0.59757570
Direct configuration=     7
   0.83096611  0.58164962  0.39705404
   0.41726289  0.16665013  0.50073390
   0.25238080  0.50008648  0.60136588
   0.50172753  0.74805457  0.60184280
   0.66531065  0.41833227  0.49965739
   0.25068601  0.24877253  0.60180140
   0.74949113  0.24974237  0.60257126
   0.58248832  0.83151560  0.39846033
   0.24847979 -0.00031704  0.60177584
   0.41698837  0.91522595  0.50055330
   0.33106916  0.08337487  0.39734611
  -0.00023109  0.75243277  0.60322308
   0.91621446  0.91660058  0.50141997
   0.08632683  0.83347517  0.39848384
  -0.00194708  0.49961138  0.60319177
   0.91620590  0.66740300  0.50081327
   0.08683590  0.58206645  0.39884573
   0.41538980  0.41772996  0.49977347
   0.91742229  0.41596774  0.50058177
   0.08344100  0.33173811  0.39846513
   0.83287188  0.83408563  0.39729082
   0.91888900  0.16527781  0.50005887
   0.58234667  0.08605586  0.39842004
   0.83257714  0.08708415  0.39701905
   0.08386315  0.08276379  0.40284460
   0.74782072  0.00077265  0.59786795
   0.83137768  0.33370451  0.40146467
   0.66518222  0.66791788  0.50042108
   0.74943222  0.49941469  0.59798256
   0.66687563  0.16618464  0.50020225
   0.50036226  0.50030355  0.59751722
   0.25066430  0.74993590  0.59634014
   0.58137119  0.58309511  0.40291896
   0.50148130  0.24927810  0.59822322
   0.58263417  0.33544657  0.40210293
   0.50205918 -0.00056443  0.59835231
   0.66653630  0.91656032  0.50057066
   0.16815792  0.91500037  0.49995201
   0.33388809  0.83086029  0.40333212
   0.16730792  0.66778313  0.49987834
   0.33538027  0.58276376  0.40276818
   0.16638858  0.41728142  0.49974556
   0.33442030  0.33418353  0.40214274
   0.16780700  0.16575313  0.50006065
  -0.00096929  0.24943325  0.59843768
   0.00011338  0.00050710  0.59845470
   0.41560365  0.66827517  0.50003202
   0.74904841  0.75072961  0.59763839
Direct configuration=     8
   0.83116972  0.58163117  0.39682413
   0.41742492  0.16659545  0.50068729
   0.25228954  0.50024907  0.60156023
   0.50214421  0.74775910  0.60212454
   0.66511425  0.41847300  0.49973127
   0.25064215  0.24876099  0.60198638
   0.74946075  0.24950919  0.60282964
   0.58230558  0.83166576  0.39823655
   0.24814606 -0.00016837  0.60200752
   0.41701142  0.91524336  0.50057388
   0.33123754  0.08324243  0.39713954
  -0.00038542  0.75265180  0.60355335
   0.91617357  0.91701987  0.50134173
   0.08649500  0.83357222  0.39833189
  -0.00221701  0.49963149  0.60343513
   0.91578936  0.66723761  0.50080041
   0.08683648  0.58179324  0.39876339
   0.41522678  0.41824932  0.49983542
   0.91765111  0.41628371  0.50052280
   0.08334070  0.33189220  0.39835772
   0.83296369  0.83404749  0.39701515
   0.91917502  0.16490120  0.50010486
   0.58226634  0.08614047  0.39818407
   0.83268996  0.08696509  0.39675973
   0.08379591  0.08286616  0.40291969
   0.74782074  0.00054939  0.59770606
   0.83152231  0.33368097  0.40151884
   0.66553237  0.66784957  0.50036200
   0.74962757  0.49966045  0.59796479
   0.66697500  0.16577919  0.50010809
   0.50022506  0.50027449  0.59762152
   0.25044021  0.74987290  0.59635509
   0.58158051  0.58310065  0.40296591
   0.50148801  0.24897935  0.59817861
   0.58251734  0.33538802  0.40215190
   0.50234603 -0.00052018  0.59828122
   0.66668261  0.91662346  0.50031532
   0.16784996  0.91520141  0.49998337
   0.33376620  0.83102585  0.40335727
   0.16766531  0.66766130  0.49984779
   0.33500341  0.58286112  0.40291808
   0.16639006  0.41712813  0.49988497
   0.33416038  0.33433768  0.40224110
   0.16756027  0.16592287  0.50013108
  -0.00068941  0.24945306  0.59840558
   0.00002478  0.00024997  0.59841270
   0.41564262  0.66799248  0.50016006
   0.74912104  0.75071488  0.59750234
Direct configuration=     9
   0.83133569  0.58161612  0.39663671
   0.41755701  0.16655087  0.50064929
   0.25221514  0.50038161  0.60171865
   0.50248387  0.74751825  0.60235420
   0.66495415  0.41858771  0.49979149
   0.25060640  0.24875159  0.60213716
   0.74943599  0.24931910  0.60304025
   0.58215662  0.83178817  0.39805414
   0.24787401 -0.00004718  0.60219637
   0.41703020  0.91525756  0.50059067
   0.33137480  0.08313447  0.39697116
  -0.00051123  0.75283035  0.60382258
   0.91614023  0.91736166  0.50127795
   0.08663208  0.83365132  0.39820802
  -0.00243705  0.49964788  0.60363352
   0.91544982  0.66710280  0.50078994
   0.08683696  0.58157052  0.39869626
   0.41509389  0.41867268  0.49988592
   0.91783763  0.41654127  0.50047472
   0.08325894  0.33201780  0.39827016
   0.83303852  0.83401640  0.39679044
   0.91940817  0.16459420  0.50014236
   0.58220086  0.08620944  0.39799171
   0.83278194  0.08686804  0.39654834
   0.08374110  0.08294960  0.40298090
   0.74782076  0.00036739  0.59757410
   0.83164020  0.33366179  0.40156301
   0.66581779  0.66779389  0.50031384
   0.74978682  0.49986078  0.59795031
   0.66705601  0.16544869  0.50003132
   0.50011321  0.50025079  0.59770654
   0.25025754  0.74982155  0.59636728
   0.58175114  0.58310517  0.40300419
   0.50149349  0.24873581  0.59814224
   0.58242211  0.33534030  0.40219182
   0.50257985 -0.00048410  0.59822327
   0.66680187  0.91667493  0.50010719
   0.16759892  0.91536528  0.50000893
   0.33366683  0.83116081  0.40337778
   0.16795665  0.66756199  0.49982288
   0.33469622  0.58294049  0.40304026
   0.16639127  0.41700317  0.49999862
   0.33394850  0.33446333  0.40232127
   0.16735914  0.16606123  0.50018849
  -0.00046126  0.24946921  0.59837942
  -0.00004744  0.00004036  0.59837845
   0.41567439  0.66776204  0.50026442
   0.74918025  0.75070287  0.59739145
Direct configuration=    10
   0.83147508  0.58151451  0.39632228
   0.41743914  0.16659563  0.50058602
   0.25205695  0.50044329  0.60194775
   0.50260032  0.74741963  0.60261915
   0.66513372  0.41839652  0.49989676
   0.25072521  0.24870475  0.60232221
   0.74947655  0.24920828  0.60327907
   0.58183682  0.83188550  0.39780453
   0.24780824 -0.00025100  0.60242027
   0.41697692  0.91515867  0.50064689
   0.33147123  0.08305608  0.39676879
  -0.00070625  0.75288905  0.60412352
   0.91636304  0.91715059  0.50119281
   0.08671113  0.83370379  0.39805579
  -0.00259532  0.49976413  0.60393439
   0.91550281  0.66734958  0.50079588
   0.08673533  0.58158459  0.39864054
   0.41518641  0.41868735  0.49997557
   0.91771354  0.41650309  0.50041207
   0.08320174  0.33198095  0.39817148
   0.83330612  0.83395187  0.39643776
   0.91910714  0.16488554  0.50021506
   0.58195234  0.08649858  0.39767774
   0.83291888  0.08694037  0.39623574
   0.08368308  0.08308486  0.40306598
   0.74777515  0.00018074  0.59730650
   0.83166703  0.33364946  0.40169587
   0.66571438  0.66787765  0.50022378
   0.74996930  0.49978885  0.59787869
   0.66704451  0.16555413  0.49988862
   0.50011521  0.50014902  0.59784684
   0.25017725  0.74989978  0.59636835
   0.58175884  0.58310264  0.40313899
   0.50149069  0.24850602  0.59803732
   0.58223648  0.33544331  0.40233427
   0.50276340 -0.00056964  0.59804744
   0.66681018  0.91664214  0.49980520
   0.16784978  0.91513444  0.50006885
   0.33375301  0.83117224  0.40350687
   0.16779820  0.66777572  0.49982844
   0.33460572  0.58299185  0.40325460
   0.16664293  0.41687115  0.50021020
   0.33391519  0.33446760  0.40250081
   0.16761382  0.16600040  0.50028608
  -0.00051132  0.24947768  0.59832059
  -0.00012042 -0.00004809  0.59833117
   0.41566696  0.66798858  0.50040708
   0.74918359  0.75083811  0.59716536
Direct configuration=    11
   0.83170415  0.58134753  0.39580555
   0.41724543  0.16666919  0.50048205
   0.25179698  0.50054467  0.60232425
   0.50279168  0.74725756  0.60305456
   0.66542880  0.41808233  0.50006975
   0.25092046  0.24862778  0.60262631
   0.74954321  0.24902615  0.60367154
   0.58131129  0.83204546  0.39739434
   0.24770014 -0.00058595  0.60278821
   0.41688936  0.91499616  0.50073929
   0.33162970  0.08292726  0.39643623
  -0.00102673  0.75298550  0.60461807
   0.91672917  0.91680374  0.50105288
   0.08684103  0.83379000  0.39780564
  -0.00285540  0.49995518  0.60442883
   0.91558988  0.66775514  0.50080566
   0.08656832  0.58160770  0.39854898
   0.41533845  0.41871145  0.50012289
   0.91750963  0.41644035  0.50030912
   0.08310775  0.33192040  0.39800932
   0.83374587  0.83384582  0.39585818
   0.91861245  0.16536431  0.50033453
   0.58154394  0.08697374  0.39716180
   0.83314392  0.08705924  0.39572204
   0.08358775  0.08330713  0.40320579
   0.74770019 -0.00012600  0.59686675
   0.83171110  0.33362920  0.40191421
   0.66554444  0.66801530  0.50007578
   0.75026918  0.49967066  0.59776101
   0.66702561  0.16572740  0.49965412
   0.50011849  0.49998178  0.59807738
   0.25004529  0.75002835  0.59637012
   0.58177149  0.58309848  0.40336052
   0.50148608  0.24812840  0.59786490
   0.58193142  0.33561260  0.40256834
   0.50306503 -0.00071020  0.59775848
   0.66682383  0.91658825  0.49930895
   0.16826203  0.91475509  0.50016732
   0.33389461  0.83119102  0.40371901
   0.16753782  0.66812694  0.49983759
   0.33445700  0.58307624  0.40360682
   0.16705648  0.41665421  0.50055789
   0.33386046  0.33447462  0.40279584
   0.16803234  0.16590044  0.50044646
  -0.00059360  0.24949158  0.59822393
  -0.00024036 -0.00019344  0.59825347
   0.41565476  0.66836086  0.50064150
   0.74918907  0.75106035  0.59679383
Direct configuration=    12
   0.83137565  0.58159252  0.39544415
   0.41732970  0.16641884  0.50036424
   0.25168013  0.50050652  0.60257482
   0.50260422  0.74730306  0.60327352
   0.66525628  0.41821248  0.50030053
   0.25093869  0.24838849  0.60283226
   0.74950865  0.24901287  0.60388229
   0.58174749  0.83181939  0.39709826
   0.24796784 -0.00076718  0.60300046
   0.41700650  0.91507697  0.50086259
   0.33128894  0.08318996  0.39626911
  -0.00098911  0.75281173  0.60488092
   0.91684517  0.91674344  0.50086030
   0.08686756  0.83383929  0.39766701
  -0.00274116  0.49996093  0.60476931
   0.91620123  0.66749722  0.50074712
   0.08658721  0.58172405  0.39860439
   0.41545774  0.41862840  0.50040651
   0.91766898  0.41665653  0.50026246
   0.08336466  0.33167937  0.39800504
   0.83346307  0.83414229  0.39533478
   0.91861821  0.16516122  0.50040762
   0.58182847  0.08686339  0.39675134
   0.83296175  0.08723629  0.39538772
   0.08372829  0.08329054  0.40338572
   0.74769590  0.00003145  0.59645297
   0.83142314  0.33377318  0.40206387
   0.66532819  0.66807343  0.49991994
   0.75020494  0.49940387  0.59765434
   0.66709530  0.16578566  0.49941222
   0.50027165  0.49983012  0.59822430
   0.25012553  0.74991545  0.59643829
   0.58167874  0.58304626  0.40358954
   0.50153270  0.24826571  0.59772606
   0.58194762  0.33579858  0.40274974
   0.50281477 -0.00099165  0.59747079
   0.66660052  0.91669676  0.49876080
   0.16826264  0.91493522  0.50022188
   0.33393960  0.83105232  0.40394226
   0.16731006  0.66812316  0.49995467
   0.33461122  0.58316813  0.40387746
   0.16675654  0.41707417  0.50086162
   0.33369608  0.33456386  0.40301420
   0.16820569  0.16573081  0.50055722
  -0.00069200  0.24937473  0.59818663
  -0.00036249 -0.00005039  0.59817469
   0.41595040  0.66833737  0.50089243
   0.74903707  0.75107319  0.59648162
Direct configuration=    13
   0.83115733  0.58175535  0.39520397
   0.41738570  0.16625246  0.50028595
   0.25160248  0.50048117  0.60274135
   0.50247964  0.74733330  0.60341904
   0.66514162  0.41829898  0.50045391
   0.25095080  0.24822946  0.60296914
   0.74948568  0.24900405  0.60402236
   0.58203739  0.83166914  0.39690149
   0.24814575 -0.00088762  0.60314152
   0.41708436  0.91513067  0.50094453
   0.33106247  0.08336455  0.39615804
  -0.00096411  0.75269624  0.60505561
   0.91692225  0.91670336  0.50073231
   0.08688519  0.83387205  0.39757488
  -0.00266523  0.49996475  0.60499560
   0.91660754  0.66732580  0.50070822
   0.08659977  0.58180137  0.39864122
   0.41553702  0.41857321  0.50059500
   0.91777489  0.41680020  0.50023144
   0.08353541  0.33151917  0.39800219
   0.83327512  0.83433933  0.39498693
   0.91862205  0.16502624  0.50045619
   0.58201758  0.08679005  0.39647855
   0.83284068  0.08735396  0.39516553
   0.08382170  0.08327951  0.40350530
   0.74769304  0.00013609  0.59617797
   0.83123176  0.33386886  0.40216333
   0.66518446  0.66811206  0.49981637
   0.75016224  0.49922657  0.59758345
   0.66714161  0.16582439  0.49925145
   0.50037345  0.49972932  0.59832195
   0.25017886  0.74984041  0.59648359
   0.58161711  0.58301155  0.40374174
   0.50156368  0.24835696  0.59763379
   0.58195839  0.33592218  0.40287029
   0.50264844 -0.00117870  0.59727960
   0.66645211  0.91676889  0.49839650
   0.16826305  0.91505494  0.50025814
   0.33396950  0.83096014  0.40409064
   0.16715869  0.66812064  0.50003248
   0.33471372  0.58322920  0.40405732
   0.16655720  0.41735328  0.50106347
   0.33358684  0.33462316  0.40315932
   0.16832091  0.16561807  0.50063083
  -0.00075739  0.24929706  0.59816184
  -0.00044365  0.00004467  0.59812234
   0.41614688  0.66832177  0.50105919
   0.74893605  0.75108173  0.59627413
Direct configuration=    14
   0.83116450  0.58168358  0.39496446
   0.41744399  0.16637816  0.50013019
   0.25183690  0.50023336  0.60296261
   0.50239612  0.74715635  0.60351437
   0.66529088  0.41829800  0.50070447
   0.25088608  0.24805072  0.60310541
   0.74941248  0.24900180  0.60411147
   0.58209909  0.83175680  0.39663928
   0.24818855 -0.00086651  0.60329334
   0.41717803  0.91512542  0.50091111
   0.33136509  0.08313288  0.39612810
  -0.00096129  0.75279539  0.60509175
   0.91669956  0.91670372  0.50045407
   0.08664622  0.83396853  0.39755421
  -0.00263201  0.49974117  0.60522875
   0.91642466  0.66737539  0.50057801
   0.08650851  0.58200099  0.39879926
   0.41520733  0.41859565  0.50091658
   0.91792354  0.41693683  0.50020462
   0.08327277  0.33189416  0.39816004
   0.83317370  0.83450249  0.39438967
   0.91873405  0.16497768  0.50043312
   0.58196821  0.08676704  0.39609721
   0.83282107  0.08751865  0.39494418
   0.08378969  0.08311439  0.40370580
   0.74759951  0.00032649  0.59572510
   0.83104434  0.33406269  0.40231572
   0.66553317  0.66810081  0.49967617
   0.75003263  0.49917154  0.59751305
   0.66720856  0.16571802  0.49895345
   0.50031635  0.49978225  0.59853489
   0.25019579  0.74961489  0.59661010
   0.58152119  0.58312850  0.40391963
   0.50149841  0.24852904  0.59753396
   0.58198083  0.33595829  0.40299682
   0.50246427 -0.00128154  0.59702838
   0.66680725  0.91654190  0.49783815
   0.16821708  0.91517377  0.50033257
   0.33420874  0.83086796  0.40438419
   0.16753229  0.66798232  0.50025703
   0.33479894  0.58324711  0.40433729
   0.16654568  0.41742108  0.50134816
   0.33367470  0.33475526  0.40338680
   0.16805378  0.16579305  0.50075668
  -0.00068561  0.24918611  0.59817094
  -0.00030378 -0.00003635  0.59806616
   0.41607564  0.66826675  0.50136255
   0.74884252  0.75084741  0.59593015
Direct configuration=    15
   0.83116908  0.58163766  0.39481121
   0.41748128  0.16645858  0.50003053
   0.25198688  0.50007481  0.60310418
   0.50234269  0.74704314  0.60357537
   0.66538637  0.41829738  0.50086479
   0.25084467  0.24793636  0.60319260
   0.74936564  0.24900037  0.60416849
   0.58213856  0.83181288  0.39647152
   0.24821594 -0.00085300  0.60339047
   0.41723797  0.91512206  0.50088973
   0.33155871  0.08298465  0.39610895
  -0.00095949  0.75285883  0.60511487
   0.91655708  0.91670394  0.50027604
   0.08649332  0.83403026  0.39754098
  -0.00261076  0.49959812  0.60537793
   0.91630765  0.66740712  0.50049469
   0.08645013  0.58212870  0.39890038
   0.41499639  0.41861001  0.50112233
   0.91801865  0.41702425  0.50018745
   0.08310473  0.33213407  0.39826103
   0.83310882  0.83460688  0.39400754
   0.91880571  0.16494661  0.50041835
   0.58193662  0.08675233  0.39585322
   0.83280852  0.08762402  0.39480256
   0.08376921  0.08300875  0.40383408
   0.74753967  0.00044831  0.59543535
   0.83092442  0.33418670  0.40241321
   0.66575627  0.66809362  0.49958646
   0.74994970  0.49913633  0.59746800
   0.66725139  0.16564997  0.49876278
   0.50027982  0.49981612  0.59867113
   0.25020662  0.74947060  0.59669104
   0.58145982  0.58320333  0.40403345
   0.50145665  0.24863914  0.59747009
   0.58199519  0.33598139  0.40307777
   0.50234644 -0.00134733  0.59686765
   0.66703448  0.91639668  0.49748092
   0.16818767  0.91524980  0.50038019
   0.33436181  0.83080898  0.40457201
   0.16777133  0.66789382  0.50040069
   0.33485346  0.58325856  0.40451641
   0.16653830  0.41746445  0.50153031
   0.33373092  0.33483977  0.40353234
   0.16788288  0.16590501  0.50083720
  -0.00063968  0.24911512  0.59817677
  -0.00021428 -0.00008820  0.59803021
   0.41603006  0.66823154  0.50155663
   0.74878268  0.75069750  0.59571008
Direct configuration=    16
   0.83120177  0.58168509  0.39468274
   0.41755697  0.16636686  0.49993147
   0.25190105  0.49994468  0.60337144
   0.50239502  0.74692959  0.60354983
   0.66541096  0.41810771  0.50099610
   0.25099082  0.24793868  0.60325202
   0.74945729  0.24883643  0.60410915
   0.58200322  0.83181036  0.39624373
   0.24811960 -0.00101585  0.60342916
   0.41735368  0.91508831  0.50077266
   0.33150058  0.08307145  0.39622849
  -0.00115926  0.75292080  0.60487289
   0.91679198  0.91648054  0.49998737
   0.08653083  0.83396369  0.39766051
  -0.00273782  0.49959577  0.60544442
   0.91622991  0.66759782  0.50032965
   0.08638295  0.58229947  0.39914047
   0.41520131  0.41862061  0.50128751
   0.91798137  0.41696507  0.50025011
   0.08315063  0.33215511  0.39853419
   0.83330855  0.83434404  0.39341922
   0.91858934  0.16516986  0.50039177
   0.58161081  0.08712455  0.39552078
   0.83279098  0.08779682  0.39468072
   0.08383265  0.08306471  0.40390966
   0.74735776  0.00031339  0.59503688
   0.83095906  0.33422338  0.40253799
   0.66587933  0.66814159  0.49944277
   0.75003003  0.49923508  0.59751104
   0.66715168  0.16577934  0.49852169
   0.50012221  0.49988118  0.59890384
   0.25005279  0.74949294  0.59694000
   0.58150266  0.58336783  0.40416410
   0.50146165  0.24834139  0.59745425
   0.58193768  0.33593895  0.40317909
   0.50272823 -0.00137815  0.59664451
   0.66717474  0.91632772  0.49706700
   0.16812056  0.91509565  0.50052826
   0.33437964  0.83085183  0.40484980
   0.16767291  0.66816857  0.50065342
   0.33465803  0.58337242  0.40476876
   0.16658847  0.41733150  0.50172264
   0.33382735  0.33496668  0.40370318
   0.16791627  0.16609212  0.50092775
  -0.00071345  0.24914854  0.59824290
  -0.00011403 -0.00029480  0.59795636
   0.41609576  0.66816211  0.50181981
   0.74881545  0.75057856  0.59542787
Direct configuration=    17
   0.83122449  0.58171806  0.39459342
   0.41760959  0.16630310  0.49986261
   0.25184139  0.49985422  0.60355722
   0.50243140  0.74685066  0.60353208