  56  56   0   0
  0.4903395E+02  0.1100258E-08  0.1100258E-08  0.2619179E-08  0.3500000E-15
  1.000000000000000E-004
  CAR 
 unknown system                          
      6.48838084    -21.82140281  301     -1.38485230      1.00000000
    -21.821  0.0000E+00  0.0000E+00
    -21.727  0.0000E+00  0.0000E+00
    -21.633  0.0000E+00  0.0000E+00
    -21.538  0.0000E+00  0.0000E+00
    -21.444  0.0000E+00  0.0000E+00
    -21.350  0.0000E+00  0.0000E+00
    -21.255  0.0000E+00  0.0000E+00
    -21.161  0.0000E+00  0.0000E+00
    -21.066  0.7765E-15  0.7327E-16
    -20.972  0.9366E-11  0.8839E-12
    -20.878  0.1983E-07  0.1872E-08
    -20.783  0.7526E-05  0.7121E-06
    -20.689  0.5295E-03  0.5068E-04
    -20.595  0.7359E-02  0.7452E-03
    -20.500  0.2372E-01  0.2983E-02
    -20.406  0.2902E-01  0.5722E-02
    -20.312  0.2069E-01  0.7674E-02
    -20.217  0.1436E-01  0.9029E-02
    -20.123  0.2136E-01  0.1105E-01
    -20.028  0.1452E-01  0.1242E-01
    -19.934  0.3105E-01  0.1535E-01
    -19.840  0.3841E-01  0.1897E-01
    -19.745  0.1586E-01  0.2047E-01
    -19.651  0.3149E-01  0.2344E-01
    -19.557  0.3866E-01  0.2709E-01
    -19.462  0.1902E-01  0.2888E-01
    -19.368  0.2150E-01  0.3091E-01
    -19.274  0.1043E-01  0.3190E-01
    -19.179  0.1084E-02  0.3200E-01
    -19.085  0.2224E-04  0.3200E-01
    -18.990  0.8511E-07  0.3200E-01
    -18.896  0.5860E-10  0.3200E-01
    -18.802  0.7102E-14  0.3200E-01
    -18.707  0.0000E+00  0.3200E-01
    -18.613  0.0000E+00  0.3200E-01
    -18.519  0.0000E+00  0.3200E-01
    -18.424  0.0000E+00  0.3200E-01
    -18.330  0.0000E+00  0.3200E-01
    -18.235  0.0000E+00  0.3200E-01
    -18.141  0.0000E+00  0.3200E-01
    -18.047  0.0000E+00  0.3200E-01
    -17.952  0.0000E+00  0.3200E-01
    -17.858  0.0000E+00  0.3200E-01
    -17.764  0.0000E+00  0.3200E-01
    -17.669  0.0000E+00  0.3200E-01
    -17.575  0.0000E+00  0.3200E-01
    -17.481  0.0000E+00  0.3200E-01
    -17.386  0.0000E+00  0.3200E-01
    -17.292  0.0000E+00  0.3200E-01
    -17.197  0.0000E+00  0.3200E-01
    -17.103  0.0000E+00  0.3200E-01
    -17.009  0.0000E+00  0.3200E-01
    -16.914  0.0000E+00  0.3200E-01
    -16.820  0.0000E+00  0.3200E-01
    -16.726  0.0000E+00  0.3200E-01
    -16.631  0.0000E+00  0.3200E-01
    -16.537  0.0000E+00  0.3200E-01
    -16.443  0.0000E+00  0.3200E-01
    -16.348  0.0000E+00  0.3200E-01
    -16.254  0.0000E+00  0.3200E-01
    -16.159  0.0000E+00  0.3200E-01
    -16.065  0.0000E+00  0.3200E-01
    -15.971  0.0000E+00  0.3200E-01
    -15.876  0.0000E+00  0.3200E-01
    -15.782  0.0000E+00  0.3200E-01
    -15.688  0.0000E+00  0.3200E-01
    -15.593  0.0000E+00  0.3200E-01
    -15.499  0.0000E+00  0.3200E-01
    -15.405  0.0000E+00  0.3200E-01
    -15.310  0.0000E+00  0.3200E-01
    -15.216  0.0000E+00  0.3200E-01
    -15.121  0.0000E+00  0.3200E-01
    -15.027  0.0000E+00  0.3200E-01
    -14.933  0.0000E+00  0.3200E-01
    -14.838  0.0000E+00  0.3200E-01
    -14.744  0.0000E+00  0.3200E-01
    -14.650  0.0000E+00  0.3200E-01
    -14.555  0.0000E+00  0.3200E-01
    -14.461  0.0000E+00  0.3200E-01
    -14.366  0.0000E+00  0.3200E-01
    -14.272  0.0000E+00  0.3200E-01
    -14.178  0.0000E+00  0.3200E-01
    -14.083  0.0000E+00  0.3200E-01
    -13.989  0.0000E+00  0.3200E-01
    -13.895  0.0000E+00  0.3200E-01
    -13.800  0.0000E+00  0.3200E-01
    -13.706  0.0000E+00  0.3200E-01
    -13.612  0.0000E+00  0.3200E-01
    -13.517  0.0000E+00  0.3200E-01
    -13.423  0.0000E+00  0.3200E-01
    -13.328  0.0000E+00  0.3200E-01
    -13.234  0.0000E+00  0.3200E-01
    -13.140  0.0000E+00  0.3200E-01
    -13.045  0.0000E+00  0.3200E-01
    -12.951  0.0000E+00  0.3200E-01
    -12.857  0.0000E+00  0.3200E-01
    -12.762  0.0000E+00  0.3200E-01
    -12.668  0.0000E+00  0.3200E-01
    -12.574  0.0000E+00  0.3200E-01
    -12.479  0.0000E+00  0.3200E-01
    -12.385  0.0000E+00  0.3200E-01
    -12.290  0.0000E+00  0.3200E-01
    -12.196  0.0000E+00  0.3200E-01
    -12.102  0.0000E+00  0.3200E-01
    -12.007  0.0000E+00  0.3200E-01
    -11.913  0.0000E+00  0.3200E-01
    -11.819  0.0000E+00  0.3200E-01
    -11.724  0.0000E+00  0.3200E-01
    -11.630  0.0000E+00  0.3200E-01
    -11.536  0.0000E+00  0.3200E-01
    -11.441  0.0000E+00  0.3200E-01
    -11.347  0.0000E+00  0.3200E-01
    -11.252  0.0000E+00  0.3200E-01
    -11.158  0.0000E+00  0.3200E-01
    -11.064  0.0000E+00  0.3200E-01
    -10.969  0.0000E+00  0.3200E-01
    -10.875  0.0000E+00  0.3200E-01
    -10.781  0.0000E+00  0.3200E-01
    -10.686  0.0000E+00  0.3200E-01
    -10.592  0.0000E+00  0.3200E-01
    -10.497  0.0000E+00  0.3200E-01
    -10.403  0.0000E+00  0.3200E-01
    -10.309  0.0000E+00  0.3200E-01
    -10.214  0.0000E+00  0.3200E-01
    -10.120  0.0000E+00  0.3200E-01
    -10.026  0.0000E+00  0.3200E-01
     -9.931  0.0000E+00  0.3200E-01
     -9.837  0.0000E+00  0.3200E-01
     -9.743  0.0000E+00  0.3200E-01
     -9.648  0.0000E+00  0.3200E-01
     -9.554  0.9687E-16  0.3200E-01
     -9.459  0.1478E-11  0.3200E-01
     -9.365  0.3950E-08  0.3200E-01
     -9.271  0.1884E-05  0.3200E-01
     -9.176  0.1653E-03  0.3202E-01
     -9.082  0.2804E-02  0.3228E-01
     -8.988  0.9955E-02  0.3322E-01
     -8.893  0.1038E-01  0.3420E-01
     -8.799  0.1110E-01  0.3525E-01
     -8.705  0.7036E-02  0.3591E-01
     -8.610  0.3210E-02  0.3621E-01
     -8.516  0.1069E-01  0.3722E-01
     -8.421  0.1958E-01  0.3907E-01
     -8.327  0.2655E-01  0.4158E-01
     -8.233  0.2861E-01  0.4428E-01
     -8.138  0.2902E-01  0.4701E-01
     -8.044  0.2963E-01  0.4981E-01
     -7.950  0.4256E-01  0.5383E-01
     -7.855  0.5745E-01  0.5925E-01
     -7.761  0.6360E-01  0.6525E-01
     -7.667  0.5620E-01  0.7055E-01
     -7.572  0.5772E-01  0.7600E-01
     -7.478  0.7340E-01  0.8292E-01
     -7.383  0.8477E-01  0.9092E-01
     -7.289  0.9456E-01  0.9985E-01
     -7.195  0.1075E+00  0.1100E+00
     -7.100  0.1137E+00  0.1207E+00
     -7.006  0.1274E+00  0.1327E+00
     -6.912  0.1492E+00  0.1468E+00
     -6.817  0.1568E+00  0.1616E+00
     -6.723  0.1532E+00  0.1761E+00
     -6.628  0.1644E+00  0.1916E+00
     -6.534  0.1722E+00  0.2078E+00
     -6.440  0.1730E+00  0.2242E+00
     -6.345  0.1659E+00  0.2398E+00
     -6.251  0.1608E+00  0.2550E+00
     -6.157  0.1665E+00  0.2707E+00
     -6.062  0.1701E+00  0.2868E+00
     -5.968  0.1611E+00  0.3020E+00
     -5.874  0.1550E+00  0.3166E+00
     -5.779  0.1517E+00  0.3309E+00
     -5.685  0.1532E+00  0.3454E+00
     -5.590  0.1628E+00  0.3607E+00
     -5.496  0.1638E+00  0.3762E+00
     -5.402  0.1613E+00  0.3914E+00
     -5.307  0.1727E+00  0.4077E+00
     -5.213  0.1839E+00  0.4251E+00
     -5.119  0.1845E+00  0.4425E+00
     -5.024  0.1861E+00  0.4600E+00
     -4.930  0.1808E+00  0.4771E+00
     -4.836  0.1702E+00  0.4931E+00
     -4.741  0.1683E+00  0.5090E+00
     -4.647  0.1841E+00  0.5264E+00
     -4.552  0.1982E+00  0.5451E+00
     -4.458  0.1896E+00  0.5630E+00
     -4.364  0.1814E+00  0.5801E+00
     -4.269  0.1775E+00  0.5969E+00
     -4.175  0.1792E+00  0.6138E+00
     -4.081  0.1894E+00  0.6316E+00
     -3.986  0.1942E+00  0.6500E+00
     -3.892  0.1857E+00  0.6675E+00
     -3.798  0.1717E+00  0.6837E+00
     -3.703  0.1764E+00  0.7003E+00
     -3.609  0.1918E+00  0.7184E+00
     -3.514  0.1964E+00  0.7370E+00
     -3.420  0.1924E+00  0.7551E+00
     -3.326  0.1931E+00  0.7734E+00
     -3.231  0.1893E+00  0.7912E+00
     -3.137  0.1866E+00  0.8088E+00
     -3.043  0.1821E+00  0.8260E+00
     -2.948  0.1769E+00  0.8427E+00
     -2.854  0.1801E+00  0.8597E+00
     -2.759  0.1844E+00  0.8771E+00
     -2.665  0.1833E+00  0.8944E+00
     -2.571  0.1833E+00  0.9117E+00
     -2.476  0.1865E+00  0.9293E+00
     -2.382  0.1892E+00  0.9472E+00
     -2.288  0.1923E+00  0.9653E+00
     -2.193  0.1943E+00  0.9836E+00
     -2.099  0.1979E+00  0.1002E+01
     -2.005  0.1951E+00  0.1021E+01
     -1.910  0.1799E+00  0.1038E+01
     -1.816  0.1665E+00  0.1053E+01
     -1.721  0.1513E+00  0.1068E+01
     -1.627  0.1311E+00  0.1080E+01
     -1.533  0.1085E+00  0.1090E+01
     -1.438  0.9531E-01  0.1099E+01
     -1.344  0.8470E-01  0.1107E+01
     -1.250  0.6478E-01  0.1113E+01
     -1.155  0.5337E-01  0.1118E+01
     -1.061  0.4736E-01  0.1123E+01
     -0.967  0.4522E-01  0.1127E+01
     -0.872  0.4049E-01  0.1131E+01
     -0.778  0.4912E-01  0.1136E+01
     -0.683  0.6379E-01  0.1142E+01
     -0.589  0.6709E-01  0.1148E+01
     -0.495  0.6557E-01  0.1154E+01
     -0.400  0.5602E-01  0.1159E+01
     -0.306  0.3871E-01  0.1163E+01
     -0.212  0.2425E-01  0.1165E+01
     -0.117  0.2328E-01  0.1168E+01
     -0.023  0.2662E-01  0.1170E+01
      0.071  0.2510E-01  0.1172E+01
      0.166  0.2531E-01  0.1175E+01
      0.260  0.2667E-01  0.1177E+01
      0.355  0.2905E-01  0.1180E+01
      0.449  0.3765E-01  0.1184E+01
      0.543  0.4512E-01  0.1188E+01
      0.638  0.3770E-01  0.1191E+01
      0.732  0.3031E-01  0.1194E+01
      0.826  0.2913E-01  0.1197E+01
      0.921  0.2877E-01  0.1200E+01
      1.015  0.2933E-01  0.1203E+01
      1.110  0.2828E-01  0.1205E+01
      1.204  0.2277E-01  0.1207E+01
      1.298  0.1862E-01  0.1209E+01
      1.393  0.1588E-01  0.1211E+01
      1.487  0.2137E-01  0.1213E+01
      1.581  0.3118E-01  0.1216E+01
      1.676  0.3634E-01  0.1219E+01
      1.770  0.4232E-01  0.1223E+01
      1.864  0.4165E-01  0.1227E+01
      1.959  0.3311E-01  0.1230E+01
      2.053  0.3113E-01  0.1233E+01
      2.148  0.3023E-01  0.1236E+01
      2.242  0.2777E-01  0.1238E+01
      2.336  0.2100E-01  0.1240E+01
      2.431  0.1987E-01  0.1242E+01
      2.525  0.2822E-01  0.1245E+01
      2.619  0.2895E-01  0.1248E+01
      2.714  0.2270E-01  0.1250E+01
      2.808  0.2447E-01  0.1252E+01
      2.902  0.2676E-01  0.1255E+01
      2.997  0.2297E-01  0.1257E+01
      3.091  0.2583E-01  0.1259E+01
      3.186  0.3445E-01  0.1263E+01
      3.280  0.3644E-01  0.1266E+01
      3.374  0.3075E-01  0.1269E+01
      3.469  0.3711E-01  0.1272E+01
      3.563  0.3816E-01  0.1276E+01
      3.657  0.3135E-01  0.1279E+01
      3.752  0.2912E-01  0.1282E+01
      3.846  0.2787E-01  0.1284E+01
      3.941  0.2857E-01  0.1287E+01
      4.035  0.3487E-01  0.1290E+01
      4.129  0.3807E-01  0.1294E+01
      4.224  0.3543E-01  0.1297E+01
      4.318  0.3186E-01  0.1300E+01
      4.412  0.3477E-01  0.1304E+01
      4.507  0.4154E-01  0.1307E+01
      4.601  0.5326E-01  0.1313E+01
      4.695  0.5677E-01  0.1318E+01
      4.790  0.5226E-01  0.1323E+01
      4.884  0.5699E-01  0.1328E+01
      4.979  0.5312E-01  0.1333E+01
      5.073  0.4950E-01  0.1338E+01
      5.167  0.4261E-01  0.1342E+01
      5.262  0.1904E-01  0.1344E+01
      5.356  0.3217E-02  0.1344E+01
      5.450  0.1621E-03  0.1344E+01
      5.545  0.1958E-05  0.1344E+01
      5.639  0.4887E-08  0.1344E+01
      5.733  0.2311E-11  0.1344E+01
      5.828  0.1969E-15  0.1344E+01
      5.922  0.0000E+00  0.1344E+01
      6.017  0.0000E+00  0.1344E+01
      6.111  0.0000E+00  0.1344E+01
      6.205  0.0000E+00  0.1344E+01
      6.300  0.0000E+00  0.1344E+01
      6.394  0.0000E+00  0.1344E+01
      6.488  0.0000E+00  0.1344E+01
