       N       E                     dE             d eps       ncg     rms          rms(c)
DAV:   1     0.363476855255E+04    0.36348E+04   -0.21006E+05  4068   0.112E+03
DAV:   2     0.537470810866E+02   -0.35810E+04   -0.33198E+04  4824   0.271E+02
DAV:   3    -0.252889020311E+03   -0.30664E+03   -0.28607E+03  4680   0.759E+01
DAV:   4    -0.263552781720E+03   -0.10664E+02   -0.10476E+02  4476   0.148E+01
DAV:   5    -0.263843903256E+03   -0.29112E+00   -0.29021E+00  4632   0.241E+00    0.674E+01
RMM:   6    -0.249012498179E+03    0.14831E+02   -0.16091E+02  4038   0.192E+01    0.557E+01
RMM:   7    -0.245228775530E+03    0.37837E+01   -0.59014E+01  4032   0.114E+01    0.476E+01
RMM:   8    -0.287102908644E+03   -0.41874E+02   -0.66898E+01  4032   0.113E+01    0.557E+01
RMM:   9    -0.274436100051E+03    0.12667E+02   -0.59783E+01  4032   0.112E+01    0.661E+01
RMM:  10    -0.252050811729E+03    0.22385E+02   -0.21442E+01  4035   0.705E+00    0.316E+01
RMM:  11    -0.237125683153E+03    0.14925E+02   -0.17162E+01  4036   0.656E+00    0.151E+01
RMM:  12    -0.235242938361E+03    0.18827E+01   -0.86550E+00  4038   0.430E+00    0.145E+01
RMM:  13    -0.233556083044E+03    0.16869E+01   -0.23773E+00  4038   0.233E+00    0.981E+00
RMM:  14    -0.232933874573E+03    0.62221E+00   -0.56250E-01  4038   0.108E+00    0.769E+00
RMM:  15    -0.232647822363E+03    0.28605E+00   -0.30480E-01  4037   0.828E-01    0.599E+00
RMM:  16    -0.232446103368E+03    0.20172E+00   -0.24438E-01  4035   0.664E-01    0.431E+00
RMM:  17    -0.232381144852E+03    0.64959E-01   -0.83342E-02  4035   0.435E-01    0.292E+00
RMM:  18    -0.232349279828E+03    0.31865E-01   -0.39176E-02  4038   0.302E-01    0.235E+00
RMM:  19    -0.232309564266E+03    0.39716E-01   -0.22836E-02  4036   0.218E-01    0.156E+00
RMM:  20    -0.232293897291E+03    0.15667E-01   -0.20402E-02  4036   0.211E-01    0.107E+00
RMM:  21    -0.232288664343E+03    0.52329E-02   -0.60165E-03  4036   0.109E-01    0.839E-01
RMM:  22    -0.232287593193E+03    0.10712E-02   -0.15374E-03  4036   0.550E-02    0.747E-01
RMM:  23    -0.232284963196E+03    0.26300E-02   -0.20566E-03  4035   0.631E-02    0.477E-01
RMM:  24    -0.232283708634E+03    0.12546E-02   -0.19749E-03  4037   0.607E-02    0.248E-01
RMM:  25    -0.232283442851E+03    0.26578E-03   -0.89728E-04  4035   0.402E-02    0.111E-01
RMM:  26    -0.232283491979E+03   -0.49129E-04   -0.15575E-04  4038   0.168E-02    0.737E-02
RMM:  27    -0.232283645579E+03   -0.15360E-03   -0.65422E-05  4039   0.118E-02    0.634E-02
RMM:  28    -0.232283801783E+03   -0.15620E-03   -0.55697E-05  4034   0.110E-02    0.390E-02
RMM:  29    -0.232283950055E+03   -0.14827E-03   -0.30689E-05  4032   0.767E-03    0.285E-02
RMM:  30    -0.232284046885E+03   -0.96830E-04   -0.71876E-06  3277   0.374E-03    0.170E-02
RMM:  31    -0.232284181184E+03   -0.13430E-03   -0.58242E-06  3109   0.332E-03    0.155E-02
RMM:  32    -0.232284327551E+03   -0.14637E-03   -0.60850E-06  3159   0.313E-03    0.116E-02
RMM:  33    -0.232284434272E+03   -0.10672E-03   -0.38398E-06  2867   0.244E-03    0.955E-03
RMM:  34    -0.232284571332E+03   -0.13706E-03   -0.55216E-06  3028   0.274E-03    0.798E-03
RMM:  35    -0.232284696080E+03   -0.12475E-03   -0.89642E-06  3248   0.335E-03    0.766E-03
RMM:  36    -0.232284729515E+03   -0.33436E-04   -0.30632E-06  2764   0.191E-03    0.614E-03
RMM:  37    -0.232284753165E+03   -0.23649E-04   -0.11353E-06  2428   0.122E-03    0.430E-03
RMM:  38    -0.232284766753E+03   -0.13588E-04   -0.40539E-07  2313   0.794E-04    0.286E-03
RMM:  39    -0.232284781393E+03   -0.14640E-04   -0.24276E-07  2285   0.700E-04    0.245E-03
RMM:  40    -0.232284794287E+03   -0.12893E-04   -0.17895E-07  2227   0.662E-04    0.186E-03
RMM:  41    -0.232284808353E+03   -0.14066E-04   -0.26983E-07  2324   0.849E-04    0.130E-03
RMM:  42    -0.232284813963E+03   -0.56103E-05   -0.16905E-07  2014   0.581E-04    0.740E-04
RMM:  43    -0.232284815615E+03   -0.16518E-05   -0.55596E-08  1137   0.386E-04    0.436E-04
RMM:  44    -0.232284816220E+03   -0.60526E-06   -0.24728E-08   815   0.337E-04
   1 F= -.23228482E+03 E0= -.23217631E+03  d E =-.232285E+03
       N       E                     dE             d eps       ncg     rms          rms(c)
DAV:   1    -0.232286699721E+03   -0.18841E-02   -0.73771E-01  4128   0.137E+00    0.178E-01
RMM:   2    -0.232288354361E+03   -0.16546E-02   -0.13839E-02  4038   0.212E-01    0.284E-01
RMM:   3    -0.232288004454E+03    0.34991E-03   -0.82530E-04  4045   0.455E-02    0.168E-01
RMM:   4    -0.232288511688E+03   -0.50723E-03   -0.53455E-04  4040   0.336E-02    0.287E-01
RMM:   5    -0.232287882540E+03    0.62915E-03   -0.34352E-04  4038   0.274E-02    0.137E-01
RMM:   6    -0.232287838929E+03    0.43610E-04   -0.18985E-04  4038   0.213E-02    0.848E-02
RMM:   7    -0.232287797503E+03    0.41427E-04   -0.97864E-05  4037   0.154E-02    0.343E-02
RMM:   8    -0.232287787742E+03    0.97608E-05   -0.17412E-05  4020   0.653E-03    0.133E-02
RMM:   9    -0.232287786508E+03    0.12335E-05   -0.24435E-06  2423   0.250E-03    0.960E-03
RMM:  10    -0.232287785817E+03    0.69132E-06   -0.22424E-06  2240   0.238E-03
   2 F= -.23228779E+03 E0= -.23217937E+03  d E =-.296960E-02
       N       E                     dE             d eps       ncg     rms          rms(c)
DAV:   1    -0.232287832344E+03   -0.45836E-04   -0.12349E+00  4176   0.178E+00    0.231E-01
RMM:   2    -0.232290596330E+03   -0.27640E-02   -0.23148E-02  4038   0.275E-01    0.365E-01
RMM:   3    -0.232290039446E+03    0.55688E-03   -0.13903E-03  4045   0.591E-02    0.220E-01
RMM:   4    -0.232290870866E+03   -0.83142E-03   -0.90681E-04  4040   0.439E-02    0.372E-01
RMM:   5    -0.232289816873E+03    0.10540E-02   -0.57535E-04  4038   0.355E-02    0.176E-01
RMM:   6    -0.232289741296E+03    0.75577E-04   -0.31944E-04  4037   0.276E-02    0.109E-01
RMM:   7    -0.232289670776E+03    0.70520E-04   -0.16197E-04  4038   0.198E-02    0.433E-02
RMM:   8    -0.232289655472E+03    0.15304E-04   -0.28111E-05  4037   0.829E-03    0.171E-02
RMM:   9    -0.232289653443E+03    0.20288E-05   -0.42411E-06  2986   0.322E-03    0.122E-02
RMM:  10    -0.232289652445E+03    0.99812E-06   -0.36913E-06  2680   0.296E-03
   3 F= -.23228965E+03 E0= -.23218135E+03  d E =-.483622E-02
       N       E                     dE             d eps       ncg     rms          rms(c)
DAV:   1    -0.232289593390E+03    0.60053E-04   -0.12976E-01  4176   0.576E-01    0.759E-02
RMM:   2    -0.232289882021E+03   -0.28863E-03   -0.24396E-03  4038   0.893E-02    0.116E-01
RMM:   3    -0.232289829936E+03    0.52085E-04   -0.15018E-04  4045   0.194E-02    0.744E-02
RMM:   4    -0.232289911365E+03   -0.81429E-04   -0.98177E-05  4042   0.144E-02    0.119E-01
RMM:   5    -0.232289803166E+03    0.10820E-03   -0.60060E-05  4038   0.115E-02    0.561E-02
RMM:   6    -0.232289796769E+03    0.63974E-05   -0.33639E-05  4032   0.894E-03    0.349E-02
RMM:   7    -0.232289789707E+03    0.70624E-05   -0.16402E-05  4026   0.631E-03    0.125E-02
RMM:   8    -0.232289788548E+03    0.11587E-05   -0.23129E-06  2478   0.248E-03    0.535E-03
RMM:   9    -0.232289788471E+03    0.77343E-07   -0.54737E-07  2161   0.128E-03
   4 F= -.23228979E+03 E0= -.23218151E+03  d E =-.497225E-02
       N       E                     dE             d eps       ncg     rms          rms(c)
DAV:   1    -0.232290168169E+03   -0.37962E-03   -0.12318E+00  4128   0.182E+00    0.199E-01
RMM:   2    -0.232292482150E+03   -0.23140E-02   -0.23206E-02  4038   0.273E-01    0.195E-01
RMM:   3    -0.232292704088E+03   -0.22194E-03   -0.14544E-03  4045   0.608E-02    0.259E-01
RMM:   4    -0.232292546786E+03    0.15730E-03   -0.51560E-04  4051   0.334E-02    0.227E-01
RMM:   5    -0.232292148880E+03    0.39791E-03   -0.28774E-04  4038   0.253E-02    0.118E-01
RMM:   6    -0.232292124421E+03    0.24459E-04   -0.16192E-04  4038   0.193E-02    0.818E-02
RMM:   7    -0.232292092603E+03    0.31818E-04   -0.10922E-04  4037   0.160E-02    0.417E-02
RMM:   8    -0.232292080062E+03    0.12541E-04   -0.25938E-05  4031   0.807E-03    0.168E-02
RMM:   9    -0.232292077402E+03    0.26599E-05   -0.39054E-06  2959   0.317E-03    0.103E-02
RMM:  10    -0.232292076496E+03    0.90641E-06   -0.23325E-06  2237   0.251E-03
   5 F= -.23229208E+03 E0= -.23218381E+03  d E =-.228802E-02
       N       E                     dE             d eps       ncg     rms          rms(c)
DAV:   1    -0.232290407008E+03    0.16704E-02   -0.18454E+00  4032   0.223E+00    0.243E-01
RMM:   2    -0.232293889383E+03   -0.34824E-02   -0.34791E-02  4038   0.335E-01    0.241E-01
RMM:   3    -0.232294242297E+03   -0.35291E-03   -0.22036E-03  4045   0.747E-02    0.322E-01
RMM:   4    -0.232293968176E+03    0.27412E-03   -0.77808E-04  4050   0.410E-02    0.277E-01
RMM:   5    -0.232293373449E+03    0.59473E-03   -0.42487E-04  4038   0.308E-02    0.142E-01
RMM:   6    -0.232293339114E+03    0.34335E-04   -0.24431E-04  4038   0.237E-02    0.100E-01
RMM:   7    -0.232293290832E+03    0.48283E-04   -0.16505E-04  4037   0.197E-02    0.504E-02
RMM:   8    -0.232293272700E+03    0.18132E-04   -0.38390E-05  4037   0.982E-03    0.210E-02
RMM:   9    -0.232293268750E+03    0.39497E-05   -0.61421E-06  3575   0.391E-03    0.126E-02
RMM:  10    -0.232293267647E+03    0.11034E-05   -0.34027E-06  2558   0.294E-03    0.887E-03
RMM:  11    -0.232293267732E+03   -0.85252E-07   -0.31922E-06  2431   0.299E-03
   6 F= -.23229327E+03 E0= -.23218501E+03  d E =-.347926E-02
       N       E                     dE             d eps       ncg     rms          rms(c)
DAV:   1    -0.232293119779E+03    0.14787E-03   -0.16771E+00  4032   0.211E+00    0.200E-01
RMM:   2    -0.232296666674E+03   -0.35469E-02   -0.30730E-02  4040   0.318E-01    0.314E-01
RMM:   3    -0.232296683733E+03   -0.17059E-04   -0.20664E-03  4048   0.713E-02    0.318E-01
RMM:   4    -0.232295927199E+03    0.75653E-03   -0.63569E-04  4046   0.384E-02    0.187E-01
RMM:   5    -0.232295714358E+03    0.21284E-03   -0.15233E-04  4047   0.194E-02    0.936E-02
RMM:   6    -0.232295740143E+03   -0.25785E-04   -0.24296E-04  4038   0.241E-02    0.889E-02
RMM:   7    -0.232295703607E+03    0.36537E-04   -0.16274E-04  4038   0.194E-02    0.454E-02
RMM:   8    -0.232295689454E+03    0.14153E-04   -0.28395E-05  4033   0.840E-03    0.191E-02
RMM:   9    -0.232295686739E+03    0.27148E-05   -0.35247E-06  2779   0.305E-03    0.139E-02
RMM:  10    -0.232295685495E+03    0.12445E-05   -0.28866E-06  2391   0.278E-03    0.105E-02
RMM:  11    -0.232295684954E+03    0.54044E-06   -0.51713E-06  3486   0.351E-03
   7 F= -.23229568E+03 E0= -.23218760E+03  d E =-.241722E-02
       N       E                     dE             d eps       ncg     rms          rms(c)
DAV:   1    -0.232291942853E+03    0.37426E-02   -0.39846E+00  4032   0.325E+00    0.310E-01
RMM:   2    -0.232300484652E+03   -0.85418E-02   -0.73141E-02  4041   0.491E-01    0.493E-01
RMM:   3    -0.232300432281E+03    0.52371E-04   -0.49454E-03  4049   0.110E-01    0.487E-01
RMM:   4    -0.232298617505E+03    0.18148E-02   -0.14989E-03  4044   0.590E-02    0.287E-01
RMM:   5    -0.232298122772E+03    0.49473E-03   -0.35248E-04  4048   0.295E-02    0.145E-01
RMM:   6    -0.232298165509E+03   -0.42737E-04   -0.56951E-04  4038   0.368E-02    0.138E-01
RMM:   7    -0.232298078062E+03    0.87447E-04   -0.38285E-04  4037   0.298E-02    0.712E-02
RMM:   8    -0.232298041178E+03    0.36884E-04   -0.69531E-05  4032   0.131E-02    0.294E-02
RMM:   9    -0.232298034807E+03    0.63711E-05   -0.91294E-06  4011   0.476E-03    0.213E-02
RMM:  10    -0.232298031607E+03    0.32004E-05   -0.73387E-06  3946   0.406E-03    0.159E-02
RMM:  11    -0.232298030115E+03    0.14919E-05   -0.10455E-05  4002   0.465E-03    0.909E-03
RMM:  12    -0.232298030402E+03   -0.28757E-06   -0.26447E-06  2455   0.256E-03
   8 F= -.23229803E+03 E0= -.23219019E+03  d E =-.476267E-02
       N       E                     dE             d eps       ncg     rms          rms(c)
DAV:   1    -0.232273360155E+03    0.24670E-01   -0.15943E+01  4032   0.649E+00    0.625E-01
RMM:   2    -0.232307729629E+03   -0.34369E-01   -0.29383E-01  4041   0.983E-01    0.990E-01
RMM:   3    -0.232307825726E+03   -0.96097E-04   -0.19865E-02  4047   0.221E-01    0.978E-01
RMM:   4    -0.232300337737E+03    0.74880E-02   -0.61249E-03  4046   0.119E-01    0.579E-01
RMM:   5    -0.232298247016E+03    0.20907E-02   -0.14183E-03  4047   0.594E-02    0.288E-01
RMM:   6    -0.232298318837E+03   -0.71821E-04   -0.22556E-03  4037   0.731E-02    0.274E-01
RMM:   7    -0.232297949567E+03    0.36927E-03   -0.15227E-03  4038   0.595E-02    0.137E-01
RMM:   8    -0.232297806156E+03    0.14341E-03   -0.26735E-04  4040   0.258E-02    0.573E-02
RMM:   9    -0.232297781139E+03    0.25017E-04   -0.35933E-05  4038   0.941E-03    0.420E-02
RMM:  10    -0.232297768305E+03    0.12834E-04   -0.29622E-05  4032   0.814E-03    0.314E-02
RMM:  11    -0.232297762271E+03    0.60338E-05   -0.39863E-05  4032   0.909E-03    0.184E-02
RMM:  12    -0.232297763014E+03   -0.74261E-06   -0.11912E-05  4008   0.511E-03    0.122E-02
RMM:  13    -0.232297762265E+03    0.74894E-06   -0.19115E-06  2374   0.231E-03
   9 F= -.23229776E+03 E0= -.23219043E+03  d E =-.449453E-02
       N       E                     dE             d eps       ncg     rms          rms(c)
DAV:   1    -0.232291307248E+03    0.64558E-02   -0.48925E+00  4032   0.360E+00    0.342E-01
RMM:   2    -0.232301313841E+03   -0.10007E-01   -0.89012E-02  4039   0.542E-01    0.492E-01
RMM:   3    -0.232302029415E+03   -0.71557E-03   -0.60118E-03  4047   0.122E-01    0.573E-01
RMM:   4    -0.232299494533E+03    0.25349E-02   -0.18754E-03  4045   0.657E-02    0.317E-01
RMM:   5    -0.232298878893E+03    0.61564E-03   -0.42552E-04  4048   0.325E-02    0.157E-01
RMM:   6    -0.232298943372E+03   -0.64478E-04   -0.69835E-04  4037   0.408E-02    0.154E-01
RMM:   7    -0.232298824655E+03    0.11872E-03   -0.47349E-04  4038   0.332E-02    0.768E-02
RMM:   8    -0.232298780744E+03    0.43911E-04   -0.83576E-05  4040   0.144E-02    0.332E-02
RMM:   9    -0.232298772251E+03    0.84929E-05   -0.10877E-05  4035   0.518E-03    0.236E-02
RMM:  10    -0.232298767950E+03    0.43014E-05   -0.84092E-06  3995   0.433E-03    0.179E-02
RMM:  11    -0.232298765361E+03    0.25887E-05   -0.12291E-05  4002   0.504E-03    0.101E-02
RMM:  12    -0.232298765282E+03    0.78682E-07   -0.34312E-06  2756   0.286E-03
  10 F= -.23229877E+03 E0= -.23219116E+03  d E =-.549755E-02
       N       E                     dE             d eps       ncg     rms          rms(c)
DAV:   1    -0.232298974945E+03   -0.20958E-03   -0.73601E-01  4056   0.140E+00    0.127E-01
RMM:   2    -0.232300307099E+03   -0.13322E-02   -0.13299E-02  4041   0.210E-01    0.136E-01
RMM:   3    -0.232300234522E+03    0.72577E-04   -0.77005E-04  4046   0.449E-02    0.131E-01
RMM:   4    -0.232300260051E+03   -0.25529E-04   -0.16345E-04  4057   0.197E-02    0.138E-01
RMM:   5    -0.232300112038E+03    0.14801E-03   -0.87215E-05  4041   0.138E-02    0.710E-02
RMM:   6    -0.232300112462E+03   -0.42401E-06   -0.90604E-05  4038   0.145E-02    0.572E-02
RMM:   7    -0.232300100835E+03    0.11627E-04   -0.80272E-05  4037   0.135E-02    0.292E-02
RMM:   8    -0.232300094717E+03    0.61179E-05   -0.13672E-05  4030   0.577E-03    0.135E-02
RMM:   9    -0.232300093129E+03    0.15885E-05   -0.17521E-06  2281   0.222E-03    0.981E-03
RMM:  10    -0.232300092381E+03    0.74804E-06   -0.10219E-06  2134   0.173E-03
  11 F= -.23230009E+03 E0= -.23219253E+03  d E =-.132710E-02
       N       E                     dE             d eps       ncg     rms          rms(c)
DAV:   1    -0.232293142034E+03    0.69511E-02   -0.64126E+00  4032   0.412E+00    0.375E-01
RMM:   2    -0.232304882042E+03   -0.11740E-01   -0.11631E-01  4041   0.620E-01    0.406E-01
RMM:   3    -0.232304275150E+03    0.60689E-03   -0.67162E-03  4045   0.133E-01    0.388E-01
RMM:   4    -0.232304474682E+03   -0.19953E-03   -0.14289E-03  4058   0.581E-02    0.410E-01
RMM:   5    -0.232303165010E+03    0.13097E-02   -0.76925E-04  4041   0.411E-02    0.210E-01
RMM:   6    -0.232303108497E+03    0.56513E-04   -0.80060E-04  4038   0.429E-02    0.170E-01
RMM:   7    -0.232302981729E+03    0.12677E-03   -0.71131E-04  4037   0.402E-02    0.842E-02
RMM:   8    -0.232302929889E+03    0.51839E-04   -0.11698E-04  4038   0.169E-02    0.387E-02
RMM:   9    -0.232302917410E+03    0.12479E-04   -0.16441E-05  4025   0.642E-03    0.285E-02
RMM:  10    -0.232302911055E+03    0.63556E-05   -0.88820E-06  3996   0.450E-03    0.195E-02
RMM:  11    -0.232302910329E+03    0.72576E-06   -0.17886E-05  4008   0.611E-03    0.168E-02
RMM:  12    -0.232302909078E+03    0.12512E-05   -0.74208E-06  3871   0.399E-03    0.719E-03
RMM:  13    -0.232302908951E+03    0.12657E-06   -0.88816E-07  2190   0.160E-03
  12 F= -.23230291E+03 E0= -.23219548E+03  d E =-.414367E-02
       N       E                     dE             d eps       ncg     rms          rms(c)
DAV:   1    -0.232264755722E+03    0.38153E-01   -0.25664E+01  4032   0.824E+00    0.756E-01
RMM:   2    -0.232312391605E+03   -0.47636E-01   -0.46784E-01  4041   0.124E+00    0.841E-01
RMM:   3    -0.232309881277E+03    0.25103E-02   -0.27227E-02  4045   0.267E-01    0.790E-01
RMM:   4    -0.232310557580E+03   -0.67630E-03   -0.58482E-03  4057   0.117E-01    0.836E-01
RMM:   5    -0.232305041102E+03    0.55165E-02   -0.30917E-03  4041   0.828E-02    0.410E-01
RMM:   6    -0.232304738822E+03    0.30228E-03   -0.31839E-03  4038   0.854E-02    0.341E-01
RMM:   7    -0.232304161809E+03    0.57701E-03   -0.28416E-03  4037   0.801E-02    0.171E-01
RMM:   8    -0.232303942683E+03    0.21913E-03   -0.48742E-04  4038   0.344E-02    0.759E-02
RMM:   9    -0.232303894882E+03    0.47801E-04   -0.67336E-05  4041   0.130E-02    0.569E-02
RMM:  10    -0.232303869025E+03    0.25858E-04   -0.36529E-05  4036   0.913E-03    0.387E-02
RMM:  11    -0.232303867366E+03    0.16589E-05   -0.72333E-05  4034   0.123E-02    0.338E-02
RMM:  12    -0.232303862336E+03    0.50302E-05   -0.29256E-05  4012   0.792E-03    0.146E-02
RMM:  13    -0.232303861795E+03    0.54043E-06   -0.37044E-06  2928   0.312E-03
  13 F= -.23230386E+03 E0= -.23219665E+03  d E =-.509651E-02
       N       E                     dE             d eps       ncg     rms          rms(c)
DAV:   1    -0.232298832077E+03    0.50303E-02   -0.35649E+00  4032   0.307E+00    0.277E-01
RMM:   2    -0.232305266629E+03   -0.64346E-02   -0.64151E-02  4040   0.461E-01    0.287E-01
RMM:   3    -0.232304754097E+03    0.51253E-03   -0.36423E-03  4045   0.982E-02    0.239E-01
RMM:   4    -0.232304530454E+03    0.22364E-03   -0.53940E-04  4056   0.382E-02    0.178E-01
RMM:   5    -0.232304706439E+03   -0.17599E-03   -0.34967E-04  4042   0.266E-02    0.240E-01
RMM:   6    -0.232304359749E+03    0.34669E-03   -0.43569E-04  4038   0.311E-02    0.125E-01
RMM:   7    -0.232304300208E+03    0.59541E-04   -0.37777E-04  4037   0.293E-02    0.626E-02
RMM:   8    -0.232304270599E+03    0.29609E-04   -0.61800E-05  4038   0.123E-02    0.275E-02
RMM:   9    -0.232304264408E+03    0.61905E-05   -0.81276E-06  3921   0.450E-03    0.202E-02
RMM:  10    -0.232304260750E+03    0.36580E-05   -0.43617E-06  3162   0.322E-03    0.140E-02
RMM:  11    -0.232304259810E+03    0.94005E-06   -0.10155E-05  4001   0.469E-03    0.114E-02
RMM:  12    -0.232304259014E+03    0.79590E-06   -0.34306E-06  2798   0.284E-03
  14 F= -.23230426E+03 E0= -.23219697E+03  d E =-.549373E-02
       N       E                     dE             d eps       ncg     rms          rms(c)
DAV:   1    -0.232301965126E+03    0.22947E-02   -0.31786E+00  4032   0.292E+00    0.275E-01
RMM:   2    -0.232308352111E+03   -0.63870E-02   -0.59615E-02  4040   0.442E-01    0.345E-01
RMM:   3    -0.232309268901E+03   -0.91679E-03   -0.40699E-03  4044   0.100E-01    0.485E-01
RMM:   4    -0.232307382996E+03    0.18859E-02   -0.10764E-03  4054   0.499E-02    0.246E-01
RMM:   5    -0.232306979455E+03    0.40354E-03   -0.29638E-04  4044   0.273E-02    0.103E-01
RMM:   6    -0.232307042718E+03   -0.63263E-04   -0.40202E-04  4038   0.302E-02    0.121E-01
RMM:   7    -0.232306989317E+03    0.53402E-04   -0.36004E-04  4037   0.285E-02    0.625E-02
RMM:   8    -0.232306955580E+03    0.33737E-04   -0.67700E-05  4037   0.130E-02    0.266E-02
RMM:   9    -0.232306949250E+03    0.63297E-05   -0.86949E-06  3973   0.464E-03    0.192E-02
RMM:  10    -0.232306945928E+03    0.33225E-05   -0.47941E-06  3323   0.334E-03    0.129E-02
RMM:  11    -0.232306945549E+03    0.37891E-06   -0.85002E-06  3985   0.432E-03
  15 F= -.23230695E+03 E0= -.23219965E+03  d E =-.268653E-02
       N       E                     dE             d eps       ncg     rms          rms(c)
DAV:   1    -0.232283428073E+03    0.23518E-01   -0.16945E+01  4032   0.674E+00    0.638E-01
RMM:   2    -0.232318012047E+03   -0.34584E-01   -0.31949E-01  4040   0.102E+00    0.818E-01
RMM:   3    -0.232323037164E+03   -0.50251E-02   -0.21896E-02  4044   0.232E-01    0.113E+00
RMM:   4    -0.232312588876E+03    0.10448E-01   -0.58032E-03  4054   0.116E-01    0.562E-01
RMM:   5    -0.232310395964E+03    0.21929E-02   -0.15851E-03  4044   0.631E-02    0.240E-01
RMM:   6    -0.232310629026E+03   -0.23306E-03   -0.21607E-03  4038   0.698E-02    0.282E-01
RMM:   7    -0.232310270826E+03    0.35820E-03   -0.19199E-03  4037   0.657E-02    0.142E-01
RMM:   8    -0.232310091565E+03    0.17926E-03   -0.35451E-04  4037   0.297E-02    0.602E-02
RMM:   9    -0.232310059917E+03    0.31648E-04   -0.46765E-05  4038   0.107E-02    0.443E-02
RMM:  10    -0.232310042339E+03    0.17579E-04   -0.27277E-05  4015   0.785E-03    0.297E-02
RMM:  11    -0.232310041422E+03    0.91641E-06   -0.43251E-05  4031   0.952E-03    0.239E-02
RMM:  12    -0.232310039133E+03    0.22894E-05   -0.13609E-05  3997   0.552E-03    0.117E-02
RMM:  13    -0.232310038511E+03    0.62201E-06   -0.17391E-06  2351   0.223E-03
  16 F= -.23231004E+03 E0= -.23220271E+03  d E =-.577950E-02
       N       E                     dE             d eps       ncg     rms          rms(c)
DAV:   1    -0.232306551094E+03    0.34880E-02   -0.43055E+00  4032   0.338E+00    0.340E-01
RMM:   2    -0.232315800696E+03   -0.92496E-02   -0.81503E-02  4040   0.518E-01    0.513E-01
RMM:   3    -0.232315598808E+03    0.20189E-03   -0.56263E-03  4044   0.118E-01    0.497E-01
RMM:   4    -0.232314312682E+03    0.12861E-02   -0.16141E-03  4055   0.604E-02    0.336E-01
RMM:   5    -0.232313417423E+03    0.89526E-03   -0.72239E-04  4042   0.417E-02    0.165E-01
RMM:   6    -0.232313533621E+03   -0.11620E-03   -0.78440E-04  4037   0.423E-02    0.166E-01
RMM:   7    -0.232313350258E+03    0.18336E-03   -0.54693E-04  4038   0.352E-02    0.549E-02
RMM:   8    -0.232313329059E+03    0.21199E-04   -0.65469E-05  4038   0.127E-02    0.337E-02
RMM:   9    -0.232313318517E+03    0.10542E-04   -0.10367E-05  4025   0.507E-03    0.229E-02
RMM:  10    -0.232313314856E+03    0.36605E-05   -0.90495E-06  3979   0.449E-03    0.179E-02
RMM:  11    -0.232313314096E+03    0.75993E-06   -0.15396E-05  4008   0.561E-03    0.128E-02
RMM:  12    -0.232313313262E+03    0.83428E-06   -0.34076E-06  2785   0.286E-03
  17 F= -.23231331E+03 E0= -.23220598E+03  d E =-.327475E-02
       N       E                     dE             d eps       ncg     rms          rms(c)
DAV:   1    -0.232302082830E+03    0.11231E-01   -0.85856E+00  4032   0.477E+00    0.480E-01
RMM:   2    -0.232320667857E+03   -0.18585E-01   -0.16288E-01  4040   0.732E-01    0.732E-01
RMM:   3    -0.232320257236E+03    0.41062E-03   -0.11258E-02  4044   0.167E-01    0.704E-01
RMM:   4    -0.232317608644E+03    0.26486E-02   -0.32267E-03  4055   0.854E-02    0.473E-01
RMM:   5    -0.232315826965E+03    0.17817E-02   -0.14309E-03  4042   0.587E-02    0.233E-01
RMM:   6    -0.232316033384E+03   -0.20642E-03   -0.15731E-03  4037   0.600E-02    0.236E-01
RMM:   7    -0.232315646959E+03    0.38643E-03   -0.10916E-03  4038   0.498E-02    0.764E-02
RMM:   8    -0.232315605780E+03    0.41178E-04   -0.12899E-04  4038   0.179E-02    0.475E-02
RMM:   9    -0.232315584936E+03    0.20844E-04   -0.20421E-05  4032   0.712E-03    0.323E-02
RMM:  10    -0.232315577396E+03    0.75395E-05   -0.18350E-05  4026   0.638E-03    0.254E-02
RMM:  11    -0.232315575516E+03    0.18807E-05   -0.30614E-05  4026   0.791E-03    0.182E-02
RMM:  12    -0.232315573680E+03    0.18360E-05   -0.73153E-06  3729   0.405E-03    0.932E-03
RMM:  13    -0.232315573307E+03    0.37249E-06   -0.10721E-06  2203   0.177E-03
  18 F= -.23231557E+03 E0= -.23220825E+03  d E =-.553480E-02
       N       E                     dE             d eps       ncg     rms          rms(c)
DAV:   1    -0.232313334417E+03    0.22393E-02   -0.31928E+00  4032   0.296E+00    0.283E-01
RMM:   2    -0.232319457956E+03   -0.61235E-02   -0.61005E-02  4040   0.445E-01    0.272E-01
RMM:   3    -0.232320136373E+03   -0.67842E-03   -0.37324E-03  4045   0.972E-02    0.427E-01
RMM:   4    -0.232318949769E+03    0.11866E-02   -0.84584E-04  4055   0.442E-02    0.245E-01
RMM:   5    -0.232318575849E+03    0.37392E-03   -0.36443E-04  4042   0.294E-02    0.142E-01
RMM:   6    -0.232318586627E+03   -0.10778E-04   -0.42729E-04  4037   0.312E-02    0.122E-01
RMM:   7    -0.232318518691E+03    0.67935E-04   -0.36299E-04  4038   0.286E-02    0.637E-02
RMM:   8    -0.232318490154E+03    0.28537E-04   -0.70827E-05  4038   0.131E-02    0.277E-02
RMM:   9    -0.232318483260E+03    0.68944E-05   -0.87912E-06  3973   0.468E-03    0.195E-02
RMM:  10    -0.232318480569E+03    0.26904E-05   -0.32706E-06  2653   0.287E-03    0.139E-02
RMM:  11    -0.232318480273E+03    0.29676E-06   -0.94159E-06  3994   0.455E-03
  19 F= -.23231848E+03 E0= -.23221124E+03  d E =-.290697E-02
       N       E                     dE             d eps       ncg     rms          rms(c)
DAV:   1    -0.232278640108E+03    0.39840E-01   -0.28759E+01  4032   0.887E+00    0.861E-01
RMM:   2    -0.232335073057E+03   -0.56433E-01   -0.55507E-01  4040   0.134E+00    0.853E-01
RMM:   3    -0.232342415484E+03   -0.73424E-02   -0.34442E-02  4045   0.294E-01    0.133E+00
RMM:   4    -0.232329901130E+03    0.12514E-01   -0.79129E-03  4055   0.135E-01    0.726E-01
RMM:   5    -0.232326522869E+03    0.33783E-02   -0.32575E-03  4042   0.884E-02    0.420E-01
RMM:   6    -0.232326435668E+03    0.87200E-04   -0.38293E-03  4038   0.930E-02    0.369E-01
RMM:   7    -0.232325688038E+03    0.74763E-03   -0.32502E-03  4038   0.854E-02    0.191E-01
RMM:   8    -0.232325419122E+03    0.26892E-03   -0.64044E-04  4038   0.394E-02    0.820E-02
RMM:   9    -0.232325358684E+03    0.60438E-04   -0.84186E-05  4040   0.144E-02    0.590E-02
RMM:  10    -0.232325332522E+03    0.26162E-04   -0.34789E-05  4038   0.897E-03    0.412E-02
RMM:  11    -0.232325329264E+03    0.32583E-05   -0.79602E-05  4032   0.128E-02    0.338E-02
RMM:  12    -0.232325325837E+03    0.34262E-05   -0.32340E-05  4029   0.832E-03    0.159E-02
RMM:  13    -0.232325324633E+03    0.12047E-05   -0.41141E-06  3011   0.330E-03    0.690E-03
RMM:  14    -0.232325324986E+03   -0.35326E-06   -0.93858E-07  2199   0.169E-03
  20 F= -.23232532E+03 E0= -.23221830E+03  d E =-.975168E-02
       N       E                     dE             d eps       ncg     rms          rms(c)
DAV:   1    -0.232139034173E+03    0.18629E+00   -0.11540E+02  4032   0.178E+01    0.177E+00
RMM:   2    -0.232373389350E+03   -0.23436E+00   -0.22672E+00  4040   0.270E+00    0.182E+00
RMM:   3    -0.232408910629E+03   -0.35521E-01   -0.14377E-01  4044   0.598E-01    0.278E+00
RMM:   4    -0.232347254657E+03    0.61656E-01   -0.33580E-02  4055   0.277E-01    0.142E+00
RMM:   5    -0.232334194021E+03    0.13061E-01   -0.12821E-02  4044   0.176E-01    0.833E-01
RMM:   6    -0.232333496066E+03    0.69796E-03   -0.14675E-02  4038   0.181E-01    0.740E-01
RMM:   7    -0.232330400727E+03    0.30953E-02   -0.12848E-02  4038   0.169E-01    0.377E-01
RMM:   8    -0.232329338965E+03    0.10618E-02   -0.26271E-03  4038   0.793E-02    0.162E-01
RMM:   9    -0.232329113661E+03    0.22530E-03   -0.39213E-04  4039   0.310E-02    0.121E-01
RMM:  10    -0.232328999051E+03    0.11461E-03   -0.16253E-04  4038   0.195E-02    0.810E-02
RMM:  11    -0.232328995219E+03    0.38322E-05   -0.29887E-04  4036   0.249E-02    0.712E-02
RMM:  12    -0.232328977074E+03    0.18145E-04   -0.12686E-04  4038   0.165E-02    0.328E-02
RMM:  13    -0.232328972337E+03    0.47374E-05   -0.17963E-05  4013   0.670E-03    0.152E-02
RMM:  14    -0.232328973027E+03   -0.69006E-06   -0.38792E-06  2986   0.320E-03
  21 F= -.23232897E+03 E0= -.23222238E+03  d E =-.133997E-01
       N       E                     dE             d eps       ncg     rms          rms(c)
DAV:   1    -0.232328518316E+03    0.45402E-03   -0.91632E-01  4176   0.158E+00    0.149E-01
RMM:   2    -0.232330246422E+03   -0.17281E-02   -0.17137E-02  4040   0.237E-01    0.149E-01
RMM:   3    -0.232330575402E+03   -0.32898E-03   -0.11235E-03  4045   0.529E-02    0.260E-01
RMM:   4    -0.232330065106E+03    0.51030E-03   -0.25130E-04  4055   0.242E-02    0.120E-01
RMM:   5    -0.232329989751E+03    0.75355E-04   -0.84500E-05  4044   0.144E-02    0.679E-02
RMM:   6    -0.232330009772E+03   -0.20021E-04   -0.11984E-04  4038   0.164E-02    0.642E-02
RMM:   7    -0.232330000716E+03    0.90558E-05   -0.10522E-04  4038   0.153E-02    0.324E-02
RMM:   8    -0.232329993951E+03    0.67652E-05   -0.19019E-05  4029   0.685E-03    0.139E-02
RMM:   9    -0.232329992819E+03    0.11319E-05   -0.19430E-06  2346   0.232E-03    0.102E-02
RMM:  10    -0.232329992842E+03   -0.22723E-07   -0.10786E-06  2179   0.181E-03
  22 F= -.23232999E+03 E0= -.23222342E+03  d E =-.101981E-02
       N       E                     dE             d eps       ncg     rms          rms(c)
DAV:   1    -0.232319691039E+03    0.10302E-01   -0.82473E+00  4032   0.473E+00    0.451E-01
RMM:   2    -0.232335605344E+03   -0.15914E-01   -0.15572E-01  4040   0.714E-01    0.460E-01
RMM:   3    -0.232338674254E+03   -0.30689E-02   -0.10257E-02  4045   0.160E-01    0.793E-01
RMM:   4    -0.232333842499E+03    0.48318E-02   -0.23253E-03  4055   0.735E-02    0.361E-01
RMM:   5    -0.232333076938E+03    0.76556E-03   -0.77120E-04  4044   0.437E-02    0.203E-01
RMM:   6    -0.232333132691E+03   -0.55753E-04   -0.10883E-03  4038   0.495E-02    0.193E-01
RMM:   7    -0.232332970861E+03    0.16183E-03   -0.94313E-04  4038   0.458E-02    0.942E-02
RMM:   8    -0.232332902456E+03    0.68405E-04   -0.16527E-04  4038   0.202E-02    0.419E-02
RMM:   9    -0.232332887390E+03    0.15066E-04   -0.20264E-05  4028   0.707E-03    0.306E-02
RMM:  10    -0.232332880575E+03    0.68149E-05   -0.96250E-06  3995   0.474E-03    0.215E-02
RMM:  11    -0.232332880354E+03    0.22083E-06   -0.23187E-05  4025   0.693E-03    0.178E-02
RMM:  12    -0.232332879757E+03    0.59730E-06   -0.95066E-06  3987   0.449E-03
  23 F= -.23233288E+03 E0= -.23222640E+03  d E =-.390673E-02
       N       E                     dE             d eps       ncg     rms          rms(c)
DAV:   1    -0.232284458734E+03    0.48422E-01   -0.33030E+01  4032   0.946E+00    0.915E-01
RMM:   2    -0.232349764151E+03   -0.65305E-01   -0.62845E-01  4040   0.143E+00    0.965E-01
RMM:   3    -0.232362587228E+03   -0.12823E-01   -0.41930E-02  4044   0.322E-01    0.161E+00
RMM:   4    -0.232341796398E+03    0.20791E-01   -0.95805E-03  4055   0.149E-01    0.724E-01
RMM:   5    -0.232338546611E+03    0.32498E-02   -0.30899E-03  4044   0.877E-02    0.407E-01
RMM:   6    -0.232338624351E+03   -0.77740E-04   -0.43134E-03  4038   0.982E-02    0.395E-01
RMM:   7    -0.232337790053E+03    0.83430E-03   -0.37432E-03  4038   0.909E-02    0.187E-01
RMM:   8    -0.232337509177E+03    0.28088E-03   -0.67746E-04  4038   0.407E-02    0.830E-02
RMM:   9    -0.232337451027E+03    0.58150E-04   -0.86751E-05  4039   0.146E-02    0.614E-02
RMM:  10    -0.232337420273E+03    0.30755E-04   -0.43048E-05  4038   0.100E-02    0.419E-02
RMM:  11    -0.232337419097E+03    0.11757E-05   -0.92240E-05  4033   0.138E-02    0.363E-02
RMM:  12    -0.232337413684E+03    0.54128E-05   -0.35520E-05  4016   0.871E-03    0.172E-02
RMM:  13    -0.232337412013E+03    0.16712E-05   -0.45145E-06  3074   0.345E-03    0.701E-03
RMM:  14    -0.232337412239E+03   -0.22633E-06   -0.10119E-06  2194   0.174E-03
  24 F= -.23233741E+03 E0= -.23223113E+03  d E =-.843921E-02
       N       E                     dE             d eps       ncg     rms          rms(c)
DAV:   1    -0.232125718488E+03    0.21169E+00   -0.13265E+02  4032   0.190E+01    0.189E+00
RMM:   2    -0.232397881236E+03   -0.27216E+00   -0.25773E+00  4040   0.288E+00    0.209E+00
RMM:   3    -0.232453785261E+03   -0.55904E-01   -0.17564E-01  4044   0.655E-01    0.327E+00
RMM:   4    -0.232359087286E+03    0.94698E-01   -0.40802E-02  4055   0.305E-01    0.144E+00
RMM:   5    -0.232346041279E+03    0.13046E-01   -0.12457E-02  4046   0.176E-01    0.829E-01
RMM:   6    -0.232345778709E+03    0.26257E-03   -0.16527E-02  4038   0.192E-01    0.803E-01
RMM:   7    -0.232341959116E+03    0.38196E-02   -0.14713E-02  4038   0.180E-01    0.372E-01
RMM:   8    -0.232340857515E+03    0.11016E-02   -0.28863E-03  4038   0.835E-02    0.168E-01
RMM:   9    -0.232340647522E+03    0.20999E-03   -0.42270E-04  4038   0.319E-02    0.127E-01
RMM:  10    -0.232340505457E+03    0.14206E-03   -0.20522E-04  4038   0.220E-02    0.815E-02
RMM:  11    -0.232340514225E+03   -0.87679E-05   -0.33856E-04  4037   0.265E-02    0.769E-02
RMM:  12    -0.232340483026E+03    0.31198E-04   -0.13675E-04  4038   0.172E-02    0.348E-02
RMM:  13    -0.232340476641E+03    0.63854E-05   -0.18733E-05  4021   0.688E-03    0.162E-02
RMM:  14    -0.232340476239E+03    0.40151E-06   -0.42919E-06  3071   0.333E-03
  25 F= -.23234048E+03 E0= -.23223454E+03  d E =-.115032E-01
       N       E                     dE             d eps       ncg     rms          rms(c)
DAV:   1    -0.232341961470E+03   -0.14848E-02   -0.45244E+00  4104   0.342E+00    0.344E-01
RMM:   2    -0.232351830874E+03   -0.98694E-02   -0.81449E-02  4038   0.524E-01    0.580E-01
RMM:   3    -0.232351152432E+03    0.67844E-03   -0.59321E-03  4046   0.121E-01    0.506E-01
RMM:   4    -0.232349737185E+03    0.14152E-02   -0.17771E-03  4043   0.634E-02    0.351E-01
RMM:   5    -0.232348801294E+03    0.93589E-03   -0.67000E-04  4038   0.404E-02    0.168E-01
RMM:   6    -0.232348898372E+03   -0.97078E-04   -0.77268E-04  4038   0.416E-02    0.173E-01
RMM:   7    -0.232348731770E+03    0.16660E-03   -0.57129E-04  4037   0.358E-02    0.670E-02
RMM:   8    -0.232348703402E+03    0.28368E-04   -0.91099E-05  4037   0.151E-02    0.383E-02
RMM:   9    -0.232348691389E+03    0.12013E-04   -0.13345E-05  4020   0.575E-03    0.249E-02
RMM:  10    -0.232348687277E+03    0.41123E-05   -0.10711E-05  4004   0.487E-03    0.177E-02
RMM:  11    -0.232348688719E+03   -0.14416E-05   -0.16476E-05  4026   0.579E-03    0.128E-02
RMM:  12    -0.232348688892E+03   -0.17352E-06   -0.38429E-06  2970   0.300E-03
  26 F= -.23234869E+03 E0= -.23224279E+03  d E =-.821265E-02
       N       E                     dE             d eps       ncg     rms          rms(c)
DAV:   1    -0.232301161405E+03    0.47527E-01   -0.40780E+01  4032   0.103E+01    0.105E+00
RMM:   2    -0.232393361772E+03   -0.92200E-01   -0.74466E-01  4038   0.158E+00    0.182E+00
RMM:   3    -0.232385862706E+03    0.74991E-02   -0.54346E-02  4046   0.364E-01    0.152E+00
RMM:   4    -0.232371675398E+03    0.14187E-01   -0.16176E-02  4043   0.191E-01    0.103E+00
RMM:   5    -0.232363512936E+03    0.81625E-02   -0.58740E-03  4038   0.120E-01    0.506E-01
RMM:   6    -0.232364144508E+03   -0.63157E-03   -0.70449E-03  4038   0.126E-01    0.523E-01
RMM:   7    -0.232362344274E+03    0.18002E-02   -0.51200E-03  4037   0.107E-01    0.187E-01
RMM:   8    -0.232362125136E+03    0.21914E-03   -0.77959E-04  4037   0.441E-02    0.114E-01
RMM:   9    -0.232362013346E+03    0.11179E-03   -0.12229E-04  4039   0.174E-02    0.747E-02
RMM:  10    -0.232361969558E+03    0.43788E-04   -0.10252E-04  4038   0.151E-02    0.546E-02
RMM:  11    -0.232361964720E+03    0.48374E-05   -0.13914E-04  4036   0.169E-02    0.394E-02
RMM:  12    -0.232361956701E+03    0.80190E-05   -0.35189E-05  4032   0.884E-03    0.186E-02
RMM:  13    -0.232361955562E+03    0.11390E-05   -0.56009E-06  3275   0.380E-03    0.815E-03
RMM:  14    -0.232361956673E+03   -0.11104E-05   -0.15286E-06  2226   0.209E-03    0.450E-03
RMM:  15    -0.232361958803E+03   -0.21300E-05   -0.76655E-07  2198   0.145E-03    0.301E-03
RMM:  16    -0.232361961995E+03   -0.31917E-05   -0.54737E-07  2228   0.117E-03    0.246E-03
RMM:  17    -0.232361963813E+03   -0.18185E-05   -0.16803E-07  2153   0.695E-04    0.126E-03
RMM:  18    -0.232361965693E+03   -0.18798E-05   -0.39223E-08   995   0.393E-04    0.814E-04
RMM:  19    -0.232361968177E+03   -0.24839E-05   -0.85135E-08  1433   0.464E-04    0.456E-04
RMM:  20    -0.232361970799E+03   -0.26218E-05   -0.14112E-07  1609   0.505E-04    0.586E-04
RMM:  21    -0.232361972617E+03   -0.18186E-05   -0.10391E-07  1351   0.413E-04    0.483E-04
RMM:  22    -0.232361973489E+03   -0.87185E-06   -0.45364E-08   860   0.347E-04
  27 F= -.23236197E+03 E0= -.23225618E+03  d E =-.214972E-01
       N       E                     dE             d eps       ncg     rms          rms(c)
DAV:   1    -0.232358089368E+03    0.38832E-02   -0.30327E+00  4080   0.280E+00    0.281E-01
RMM:   2    -0.232364603015E+03   -0.65136E-02   -0.54580E-02  4038   0.429E-01    0.464E-01
RMM:   3    -0.232364219359E+03    0.38366E-03   -0.39337E-03  4046   0.984E-02    0.412E-01
RMM:   4    -0.232363302807E+03    0.91655E-03   -0.11954E-03  4042   0.520E-02    0.290E-01
RMM:   5    -0.232362658057E+03    0.64475E-03   -0.45031E-04  4038   0.332E-02    0.138E-01
RMM:   6    -0.232362722522E+03   -0.64465E-04   -0.52023E-04  4037   0.343E-02    0.139E-01
RMM:   7    -0.232362616616E+03    0.10591E-03   -0.38548E-04  4038   0.295E-02    0.545E-02
RMM:   8    -0.232362597196E+03    0.19420E-04   -0.59208E-05  4038   0.122E-02    0.308E-02
RMM:   9    -0.232362588898E+03    0.82979E-05   -0.87058E-06  3964   0.464E-03    0.203E-02
RMM:  10    -0.232362585503E+03    0.33944E-05   -0.71381E-06  3821   0.398E-03    0.145E-02
RMM:  11    -0.232362585370E+03    0.13367E-06   -0.11005E-05  4026   0.476E-03    0.105E-02
RMM:  12    -0.232362584828E+03    0.54191E-06   -0.24314E-06  2438   0.247E-03
  28 F= -.23236258E+03 E0= -.23225682E+03  d E =-.221086E-01
       N       E                     dE             d eps       ncg     rms          rms(c)
DAV:   1    -0.232362108162E+03    0.47721E-03   -0.57374E+00  4032   0.394E+00    0.390E-01
RMM:   2    -0.232373578659E+03   -0.11470E-01   -0.11146E-01  4042   0.602E-01    0.462E-01
RMM:   3    -0.232373355329E+03    0.22333E-03   -0.69046E-03  4047   0.133E-01    0.453E-01
RMM:   4    -0.232373427380E+03   -0.72051E-04   -0.20271E-03  4054   0.664E-02    0.492E-01
RMM:   5    -0.232371451466E+03    0.19759E-02   -0.86621E-04  4041   0.452E-02    0.196E-01
RMM:   6    -0.232371508002E+03   -0.56536E-04   -0.76708E-04  4038   0.415E-02    0.176E-01
RMM:   7    -0.232371401332E+03    0.10667E-03   -0.72307E-04  4037   0.406E-02    0.102E-01
RMM:   8    -0.232371319466E+03    0.81866E-04   -0.17176E-04  4037   0.204E-02    0.410E-02
RMM:   9    -0.232371304860E+03    0.14606E-04   -0.19907E-05  4031   0.702E-03    0.277E-02
RMM:  10    -0.232371298117E+03    0.67434E-05   -0.10981E-05  4021   0.498E-03    0.195E-02
RMM:  11    -0.232371296826E+03    0.12908E-05   -0.15001E-05  4024   0.555E-03    0.142E-02
RMM:  12    -0.232371296438E+03    0.38766E-06   -0.62086E-06  3553   0.367E-03
  29 F= -.23237130E+03 E0= -.23226553E+03  d E =-.871161E-02
       N       E                     dE             d eps       ncg     rms          rms(c)
DAV:   1    -0.232339566344E+03    0.31730E-01   -0.26137E+01  4032   0.841E+00    0.839E-01
RMM:   2    -0.232392467831E+03   -0.52901E-01   -0.51057E-01  4042   0.129E+00    0.100E+00
RMM:   3    -0.232392005253E+03    0.46258E-03   -0.31676E-02  4046   0.283E-01    0.996E-01
RMM:   4    -0.232391176919E+03    0.82833E-03   -0.93297E-03  4054   0.142E-01    0.103E+00
RMM:   5    -0.232382530257E+03    0.86467E-02   -0.38926E-03  4040   0.964E-02    0.413E-01
RMM:   6    -0.232382628643E+03   -0.98386E-04   -0.34743E-03  4037   0.880E-02    0.375E-01
RMM:   7    -0.232382072750E+03    0.55589E-03   -0.32857E-03  4038   0.866E-02    0.218E-01
RMM:   8    -0.232381693797E+03    0.37895E-03   -0.78459E-04  4038   0.435E-02    0.874E-02
RMM:   9    -0.232381626981E+03    0.66817E-04   -0.94079E-05  4039   0.152E-02    0.600E-02
RMM:  10    -0.232381595702E+03    0.31279E-04   -0.52686E-05  4037   0.109E-02    0.423E-02
RMM:  11    -0.232381589915E+03    0.57874E-05   -0.68429E-05  4034   0.119E-02    0.308E-02
RMM:  12    -0.232381588359E+03    0.15558E-05   -0.28505E-05  4035   0.780E-03    0.152E-02
RMM:  13    -0.232381587518E+03    0.84041E-06   -0.37116E-06  2913   0.314E-03
  30 F= -.23238159E+03 E0= -.23227581E+03  d E =-.190027E-01
       N       E                     dE             d eps       ncg     rms          rms(c)
DAV:   1    -0.232374668300E+03    0.69201E-02   -0.49971E+00  4104   0.367E+00    0.364E-01
RMM:   2    -0.232384517303E+03   -0.98490E-02   -0.96900E-02  4042   0.562E-01    0.412E-01
RMM:   3    -0.232384186893E+03    0.33041E-03   -0.58754E-03  4046   0.123E-01    0.390E-01
RMM:   4    -0.232384680951E+03   -0.49406E-03   -0.17176E-03  4054   0.611E-02    0.475E-01
RMM:   5    -0.232382800779E+03    0.18802E-02   -0.75112E-04  4040   0.418E-02    0.183E-01
RMM:   6    -0.232382855633E+03   -0.54853E-04   -0.66530E-04  4037   0.386E-02    0.163E-01
RMM:   7    -0.232382769286E+03    0.86347E-04   -0.62267E-04  4038   0.377E-02    0.953E-02
RMM:   8    -0.232382698521E+03    0.70765E-04   -0.14871E-04  4038   0.190E-02    0.380E-02
RMM:   9    -0.232382686407E+03    0.12114E-04   -0.17305E-05  4025   0.655E-03    0.256E-02
RMM:  10    -0.232382681318E+03    0.50887E-05   -0.94143E-06  4005   0.460E-03    0.179E-02
RMM:  11    -0.232382681491E+03   -0.17325E-06   -0.12871E-05  4022   0.514E-03    0.132E-02
RMM:  12    -0.232382682355E+03   -0.86416E-06   -0.53431E-06  3370   0.342E-03
  31 F= -.23238268E+03 E0= -.23227691E+03  d E =-.200975E-01
       N       E                     dE             d eps       ncg     rms          rms(c)
DAV:   1    -0.232375916131E+03    0.67654E-02   -0.85860E+00  4032   0.492E+00    0.521E-01
RMM:   2    -0.232393334274E+03   -0.17418E-01   -0.17653E-01  4043   0.737E-01    0.460E-01
RMM:   3    -0.232395556023E+03   -0.22217E-02   -0.10714E-02  4044   0.163E-01    0.733E-01
RMM:   4    -0.232393204533E+03    0.23515E-02   -0.31792E-03  4057   0.832E-02    0.523E-01
RMM:   5    -0.232390946693E+03    0.22578E-02   -0.14830E-03  4041   0.596E-02    0.227E-01
RMM:   6    -0.232390968819E+03   -0.22126E-04   -0.12776E-03  4038   0.548E-02    0.192E-01
RMM:   7    -0.232390788390E+03    0.18043E-03   -0.85981E-04  4038   0.445E-02    0.113E-01
RMM:   8    -0.232390689376E+03    0.99014E-04   -0.18591E-04  4038   0.213E-02    0.450E-02
RMM:   9    -0.232390674718E+03    0.14658E-04   -0.23342E-05  4040   0.759E-03    0.309E-02
RMM:  10    -0.232390666932E+03    0.77868E-05   -0.10250E-05  4018   0.488E-03    0.210E-02
RMM:  11    -0.232390664968E+03    0.19641E-05   -0.18228E-05  4021   0.621E-03    0.153E-02
RMM:  12    -0.232390664264E+03    0.70368E-06   -0.81378E-06  3862   0.416E-03
  32 F= -.23239066E+03 E0= -.23228490E+03  d E =-.798191E-02
       N       E                     dE             d eps       ncg     rms          rms(c)
DAV:   1    -0.232338779332E+03    0.51886E-01   -0.33014E+01  4032   0.964E+00    0.103E+00
RMM:   2    -0.232406750310E+03   -0.67971E-01   -0.68237E-01  4042   0.145E+00    0.926E-01
RMM:   3    -0.232416762168E+03   -0.10012E-01   -0.41910E-02  4044   0.322E-01    0.149E+00
RMM:   4    -0.232405421623E+03    0.11341E-01   -0.12580E-02  4056   0.165E-01    0.101E+00
RMM:   5    -0.232396960337E+03    0.84613E-02   -0.55387E-03  4041   0.116E-01    0.432E-01
RMM:   6    -0.232396978721E+03   -0.18385E-04   -0.48072E-03  4038   0.106E-01    0.377E-01
RMM:   7    -0.232396255125E+03    0.72360E-03   -0.33561E-03  4038   0.879E-02    0.225E-01
RMM:   8    -0.232395854859E+03    0.40027E-03   -0.75665E-04  4038   0.428E-02    0.875E-02
RMM:   9    -0.232395798795E+03    0.56064E-04   -0.94859E-05  4040   0.153E-02    0.620E-02
RMM:  10    -0.232395766914E+03    0.31881E-04   -0.41564E-05  4038   0.981E-03    0.410E-02
RMM:  11    -0.232395759048E+03    0.78658E-05   -0.70313E-05  4034   0.122E-02    0.302E-02
RMM:  12    -0.232395755132E+03    0.39161E-05   -0.30004E-05  4022   0.798E-03    0.127E-02
RMM:  13    -0.232395754190E+03    0.94237E-06   -0.33741E-06  2832   0.301E-03
  33 F= -.23239575E+03 E0= -.23229002E+03  d E =-.130718E-01
       N       E                     dE             d eps       ncg     rms          rms(c)
DAV:   1    -0.232378053865E+03    0.17701E-01   -0.14040E+01  4032   0.621E+00    0.665E-01
RMM:   2    -0.232411350108E+03   -0.33296E-01   -0.27914E-01  4044   0.942E-01    0.100E+00
RMM:   3    -0.232412830988E+03   -0.14809E-02   -0.20441E-02  4052   0.220E-01    0.106E+00
RMM:   4    -0.232403918152E+03    0.89128E-02   -0.67743E-03  4043   0.124E-01    0.585E-01
RMM:   5    -0.232401867530E+03    0.20506E-02   -0.18163E-03  4043   0.674E-02    0.302E-01
RMM:   6    -0.232401943237E+03   -0.75707E-04   -0.24280E-03  4037   0.746E-02    0.262E-01
RMM:   7    -0.232401569250E+03    0.37399E-03   -0.13224E-03  4038   0.544E-02    0.140E-01
RMM:   8    -0.232401429303E+03    0.13995E-03   -0.25768E-04  4038   0.252E-02    0.553E-02
RMM:   9    -0.232401406495E+03    0.22808E-04   -0.36640E-05  4043   0.951E-03    0.375E-02
RMM:  10    -0.232401394585E+03    0.11910E-04   -0.28072E-05  4030   0.798E-03    0.269E-02
RMM:  11    -0.232401394873E+03   -0.28805E-06   -0.35063E-05  4032   0.853E-03    0.237E-02
RMM:  12    -0.232401391741E+03    0.31322E-05   -0.11920E-05  4017   0.515E-03    0.913E-03
RMM:  13    -0.232401391939E+03   -0.19835E-06   -0.13952E-06  2265   0.201E-03
  34 F= -.23240139E+03 E0= -.23229587E+03  d E =-.563775E-02
       N       E                     dE             d eps       ncg     rms          rms(c)
DAV:   1    -0.232395436408E+03    0.59553E-02   -0.39923E+00  4104   0.331E+00    0.354E-01
RMM:   2    -0.232404671427E+03   -0.92350E-02   -0.78928E-02  4043   0.502E-01    0.515E-01
RMM:   3    -0.232405334682E+03   -0.66325E-03   -0.57799E-03  4050   0.117E-01    0.575E-01
RMM:   4    -0.232402753965E+03    0.25807E-02   -0.19434E-03  4044   0.665E-02    0.313E-01
RMM:   5    -0.232402181384E+03    0.57258E-03   -0.52645E-04  4043   0.363E-02    0.162E-01
RMM:   6    -0.232402231163E+03   -0.49779E-04   -0.69615E-04  4037   0.399E-02    0.142E-01
RMM:   7    -0.232402126639E+03    0.10452E-03   -0.38197E-04  4038   0.291E-02    0.753E-02
RMM:   8    -0.232402087743E+03    0.38896E-04   -0.74558E-05  4038   0.136E-02    0.300E-02
RMM:   9    -0.232402081354E+03    0.63890E-05   -0.10199E-05  4005   0.503E-03    0.199E-02
RMM:  10    -0.232402078398E+03    0.29561E-05   -0.76718E-06  3868   0.418E-03    0.144E-02
RMM:  11    -0.232402079132E+03   -0.73429E-06   -0.10025E-05  4003   0.457E-03    0.126E-02
RMM:  12    -0.232402078766E+03    0.36606E-06   -0.32933E-06  2729   0.281E-03
  35 F= -.23240208E+03 E0= -.23229667E+03  d E =-.632458E-02
       N       E                     dE             d eps       ncg     rms          rms(c)
DAV:   1    -0.232399003034E+03    0.30761E-02   -0.51308E+00  4032   0.372E+00    0.397E-01
RMM:   2    -0.232409178600E+03   -0.10176E-01   -0.10069E-01  4039   0.567E-01    0.444E-01
RMM:   3    -0.232407908978E+03    0.12696E-02   -0.59533E-03  4044   0.125E-01    0.269E-01
RMM:   4    -0.232408206804E+03   -0.29783E-03   -0.11971E-03  4050   0.551E-02    0.363E-01
RMM:   5    -0.232407453447E+03    0.75336E-03   -0.38154E-04  4048   0.281E-02    0.189E-01
RMM:   6    -0.232407679256E+03   -0.22581E-03   -0.71472E-04  4037   0.403E-02    0.220E-01
RMM:   7    -0.232407344071E+03    0.33519E-03   -0.58792E-04  4037   0.368E-02    0.850E-02
RMM:   8    -0.232407299749E+03    0.44322E-04   -0.11591E-04  4037   0.166E-02    0.373E-02
RMM:   9    -0.232407288352E+03    0.11397E-04   -0.15775E-05  4029   0.614E-03    0.246E-02
RMM:  10    -0.232407283435E+03    0.49171E-05   -0.93489E-06  4019   0.454E-03    0.170E-02
RMM:  11    -0.232407282548E+03    0.88724E-06   -0.11271E-05  4024   0.480E-03    0.118E-02
RMM:  12    -0.232407282523E+03    0.24615E-07   -0.41000E-06  3052   0.307E-03
  36 F= -.23240728E+03 E0= -.23230183E+03  d E =-.520376E-02
       N       E                     dE             d eps       ncg     rms          rms(c)
DAV:   1    -0.232395876595E+03    0.11406E-01   -0.84147E+00  4032   0.477E+00    0.507E-01
RMM:   2    -0.232412629336E+03   -0.16753E-01   -0.16539E-01  4039   0.727E-01    0.565E-01
RMM:   3    -0.232410565569E+03    0.20638E-02   -0.97657E-03  4044   0.160E-01    0.342E-01
RMM:   4    -0.232410655702E+03   -0.90133E-04   -0.18355E-03  4051   0.690E-02    0.412E-01
RMM:   5    -0.232409950715E+03    0.70499E-03   -0.62257E-04  4048   0.357E-02    0.260E-01
RMM:   6    -0.232410203469E+03   -0.25275E-03   -0.11787E-03  4037   0.515E-02    0.288E-01
RMM:   7    -0.232409606808E+03    0.59666E-03   -0.95612E-04  4037   0.469E-02    0.109E-01
RMM:   8    -0.232409531915E+03    0.74893E-04   -0.19104E-04  4037   0.213E-02    0.476E-02
RMM:   9    -0.232409512880E+03    0.19036E-04   -0.26152E-05  4036   0.790E-03    0.312E-02
RMM:  10    -0.232409504842E+03    0.80371E-05   -0.15188E-05  4032   0.579E-03    0.217E-02
RMM:  11    -0.232409503303E+03    0.15396E-05   -0.18512E-05  4026   0.615E-03    0.152E-02
RMM:  12    -0.232409503174E+03    0.12848E-06   -0.70940E-06  3682   0.396E-03
  37 F= -.23240950E+03 E0= -.23230398E+03  d E =-.742441E-02
       N       E                     dE             d eps       ncg     rms          rms(c)
DAV:   1    -0.232401778406E+03    0.77249E-02   -0.73519E+00  4032   0.449E+00    0.480E-01
RMM:   2    -0.232416894241E+03   -0.15116E-01   -0.14447E-01  4039   0.680E-01    0.519E-01
RMM:   3    -0.232421929497E+03   -0.50353E-02   -0.10403E-02  4044   0.159E-01    0.928E-01
RMM:   4    -0.232414841123E+03    0.70884E-02   -0.29913E-03  4048   0.821E-02    0.341E-01
RMM:   5    -0.232414231650E+03    0.60947E-03   -0.13654E-03  4038   0.583E-02    0.257E-01
RMM:   6    -0.232414121492E+03    0.11016E-03   -0.11975E-03  4037   0.527E-02    0.180E-01
RMM:   7    -0.232413924485E+03    0.19701E-03   -0.84955E-04  4037   0.443E-02    0.857E-02
RMM:   8    -0.232413868929E+03    0.55557E-04   -0.13371E-04  4036   0.180E-02    0.435E-02
RMM:   9    -0.232413851509E+03    0.17420E-04   -0.21364E-05  4027   0.716E-03    0.282E-02
RMM:  10    -0.232413845013E+03    0.64959E-05   -0.97121E-06  4003   0.469E-03    0.183E-02
RMM:  11    -0.232413843804E+03    0.12099E-05   -0.19786E-05  4026   0.641E-03    0.135E-02
RMM:  12    -0.232413842999E+03    0.80503E-06   -0.61033E-06  3354   0.368E-03
  38 F= -.23241384E+03 E0= -.23230839E+03  d E =-.433982E-02
       N       E                     dE             d eps       ncg     rms          rms(c)
DAV:   1    -0.232405911382E+03    0.79324E-02   -0.54294E+00  4032   0.386E+00    0.411E-01
RMM:   2    -0.232417065242E+03   -0.11154E-01   -0.10651E-01  4039   0.583E-01    0.445E-01
RMM:   3    -0.232420798707E+03   -0.37335E-02   -0.76595E-03  4044   0.136E-01    0.801E-01
RMM:   4    -0.232415522558E+03    0.52761E-02   -0.22061E-03  4048   0.705E-02    0.292E-01
RMM:   5    -0.232415080346E+03    0.44221E-03   -0.98763E-04  4038   0.496E-02    0.219E-01
RMM:   6    -0.232415010500E+03    0.69846E-04   -0.88441E-04  4037   0.453E-02    0.154E-01
RMM:   7    -0.232414868167E+03    0.14233E-03   -0.62495E-04  4037   0.380E-02    0.735E-02
RMM:   8    -0.232414827055E+03    0.41112E-04   -0.97963E-05  4036   0.155E-02    0.372E-02
RMM:   9    -0.232414814499E+03    0.12556E-04   -0.15566E-05  4020   0.611E-03    0.242E-02
RMM:  10    -0.232414809784E+03    0.47152E-05   -0.70712E-06  3852   0.402E-03    0.157E-02
RMM:  11    -0.232414809036E+03    0.74831E-06   -0.14786E-05  4026   0.556E-03    0.114E-02
RMM:  12    -0.232414808570E+03    0.46576E-06   -0.43225E-06  3081   0.312E-03
  39 F= -.23241481E+03 E0= -.23230941E+03  d E =-.530540E-02
       N       E                     dE             d eps       ncg     rms          rms(c)
DAV:   1    -0.232404895495E+03    0.99135E-02   -0.96429E+00  4032   0.495E+00    0.488E-01
RMM:   2    -0.232423908306E+03   -0.19013E-01   -0.16838E-01  4045   0.761E-01    0.705E-01
RMM:   3    -0.232425972485E+03   -0.20642E-02   -0.12233E-02  4052   0.172E-01    0.848E-01
RMM:   4    -0.232420190817E+03    0.57817E-02   -0.35358E-03  4050   0.905E-02    0.371E-01
RMM:   5    -0.232419207896E+03    0.98292E-03   -0.13870E-03  4041   0.584E-02    0.229E-01
RMM:   6    -0.232419317711E+03   -0.10981E-03   -0.16485E-03  4037   0.612E-02    0.216E-01
RMM:   7    -0.232419049454E+03    0.26826E-03   -0.10730E-03  4038   0.496E-02    0.105E-01
RMM:   8    -0.232418965301E+03    0.84152E-04   -0.17249E-04  4038   0.206E-02    0.468E-02
RMM:   9    -0.232418945810E+03    0.19491E-04   -0.24851E-05  4038   0.780E-03    0.318E-02
RMM:  10    -0.232418936637E+03    0.91729E-05   -0.23421E-05  4031   0.716E-03    0.234E-02
RMM:  11    -0.232418935226E+03    0.14115E-05   -0.27654E-05  4026   0.756E-03    0.184E-02
RMM:  12    -0.232418933967E+03    0.12582E-05   -0.82144E-06  3910   0.422E-03    0.919E-03
RMM:  13    -0.232418933564E+03    0.40296E-06   -0.10338E-06  2194   0.172E-03
  40 F= -.23241893E+03 E0= -.23231354E+03  d E =-.412499E-02
       N       E                     dE             d eps       ncg     rms          rms(c)
DAV:   1    -0.232408734466E+03    0.10200E-01   -0.72784E+00  4032   0.430E+00    0.423E-01
RMM:   2    -0.232422984842E+03   -0.14250E-01   -0.12701E-01  4045   0.661E-01    0.605E-01
RMM:   3    -0.232424630130E+03   -0.16453E-02   -0.91917E-03  4052   0.149E-01    0.737E-01
RMM:   4    -0.232420268579E+03    0.43616E-02   -0.26766E-03  4050   0.787E-02    0.324E-01
RMM:   5    -0.232419522109E+03    0.74647E-03   -0.10484E-03  4041   0.508E-02    0.199E-01
RMM:   6    -0.232419611936E+03   -0.89827E-04   -0.12443E-03  4037   0.532E-02    0.186E-01
RMM:   7    -0.232419418651E+03    0.19328E-03   -0.80722E-04  4038   0.430E-02    0.911E-02
RMM:   8    -0.232419355125E+03    0.63526E-04   -0.12905E-04  4038   0.178E-02    0.407E-02
RMM:   9    -0.232419340535E+03    0.14590E-04   -0.18650E-05  4034   0.675E-03    0.276E-02
RMM:  10    -0.232419333996E+03    0.65397E-05   -0.17883E-05  4013   0.625E-03    0.204E-02
RMM:  11    -0.232419333523E+03    0.47262E-06   -0.20832E-05  4026   0.656E-03    0.161E-02
RMM:  12    -0.232419333064E+03    0.45929E-06   -0.60687E-06  3527   0.366E-03
  41 F= -.23241933E+03 E0= -.23231393E+03  d E =-.452449E-02
       N       E                     dE             d eps       ncg     rms          rms(c)
DAV:   1    -0.232418267896E+03    0.10656E-02   -0.87257E-01  4152   0.149E+00    0.146E-01
RMM:   2    -0.232419964198E+03   -0.16963E-02   -0.15163E-02  4041   0.228E-01    0.208E-01
RMM:   3    -0.232420169531E+03   -0.20533E-03   -0.11171E-03  4048   0.520E-02    0.260E-01
RMM:   4    -0.232419635316E+03    0.53422E-03   -0.32218E-04  4049   0.274E-02    0.111E-01
RMM:   5    -0.232419558109E+03    0.77208E-04   -0.12537E-04  4041   0.176E-02    0.680E-02
RMM:   6    -0.232419579175E+03   -0.21066E-04   -0.14490E-04  4037   0.182E-02    0.634E-02
RMM:   7    -0.232419561405E+03    0.17770E-04   -0.96011E-05  4038   0.149E-02    0.321E-02
RMM:   8    -0.232419554194E+03    0.72106E-05   -0.15487E-05  4026   0.615E-03    0.143E-02
RMM:   9    -0.232419552490E+03    0.17046E-05   -0.20043E-06  2337   0.234E-03    0.961E-03
RMM:  10    -0.232419551570E+03    0.91907E-06   -0.19118E-06  2176   0.228E-03
  42 F= -.23241955E+03 E0= -.23231416E+03  d E =-.474300E-02
       N       E                     dE             d eps       ncg     rms          rms(c)
DAV:   1    -0.232410754133E+03    0.87984E-02   -0.76392E+00  4056   0.447E+00    0.454E-01
RMM:   2    -0.232424699556E+03   -0.13945E-01   -0.14159E-01  4042   0.683E-01    0.426E-01
RMM:   3    -0.232423795620E+03    0.90394E-03   -0.80414E-03  4047   0.146E-01    0.361E-01
RMM:   4    -0.232423015695E+03    0.77993E-03   -0.15019E-03  4049   0.635E-02    0.251E-01
RMM:   5    -0.232423998289E+03   -0.98259E-03   -0.10399E-03  4043   0.459E-02    0.400E-01
RMM:   6    -0.232423297529E+03    0.70076E-03   -0.10520E-03  4037   0.464E-02    0.294E-01
RMM:   7    -0.232422674927E+03    0.62260E-03   -0.89118E-04  4037   0.454E-02    0.970E-02
RMM:   8    -0.232422606208E+03    0.68718E-04   -0.16532E-04  4037   0.202E-02    0.443E-02
RMM:   9    -0.232422588176E+03    0.18032E-04   -0.20836E-05  4026   0.712E-03    0.278E-02
RMM:  10    -0.232422581234E+03    0.69425E-05   -0.13496E-05  4003   0.547E-03    0.208E-02
RMM:  11    -0.232422578235E+03    0.29987E-05   -0.18880E-05  4032   0.622E-03    0.135E-02
RMM:  12    -0.232422577795E+03    0.44068E-06   -0.67015E-06  3699   0.376E-03
  43 F= -.23242258E+03 E0= -.23231701E+03  d E =-.302622E-02
       N       E                     dE             d eps       ncg     rms          rms(c)
DAV:   1    -0.232421991862E+03    0.58637E-03   -0.43545E-01  4128   0.107E+00    0.107E-01
RMM:   2    -0.232422773450E+03   -0.78159E-03   -0.80204E-03  4041   0.163E-01    0.102E-01
RMM:   3    -0.232422789496E+03   -0.16046E-04   -0.46936E-04  4046   0.353E-02    0.120E-01
RMM:   4    -0.232422828799E+03   -0.39303E-04   -0.14887E-04  4048   0.182E-02    0.140E-01
RMM:   5    -0.232422666134E+03    0.16267E-03   -0.65264E-05  4040   0.120E-02    0.509E-02
RMM:   6    -0.232422679861E+03   -0.13727E-04   -0.65521E-05  4036   0.123E-02    0.511E-02
RMM:   7    -0.232422667042E+03    0.12818E-04   -0.51018E-05  4034   0.108E-02    0.239E-02
RMM:   8    -0.232422662702E+03    0.43403E-05   -0.91695E-06  3903   0.477E-03    0.111E-02
RMM:   9    -0.232422661660E+03    0.10420E-05   -0.10647E-06  2180   0.172E-03    0.721E-03
RMM:  10    -0.232422661273E+03    0.38723E-06   -0.77942E-07  2146   0.149E-03
  44 F= -.23242266E+03 E0= -.23231707E+03  d E =-.310970E-02
       N       E                     dE             d eps       ncg     rms          rms(c)
DAV:   1    -0.232412589536E+03    0.10072E-01   -0.81008E+00  4056   0.463E+00    0.468E-01
RMM:   2    -0.232427735739E+03   -0.15146E-01   -0.15170E-01  4040   0.704E-01    0.428E-01
RMM:   3    -0.232431980158E+03   -0.42444E-02   -0.10135E-02  4047   0.159E-01    0.829E-01
RMM:   4    -0.232426578445E+03    0.54017E-02   -0.28326E-03  4050   0.792E-02    0.379E-01
RMM:   5    -0.232425607441E+03    0.97100E-03   -0.10884E-03  4038   0.518E-02    0.214E-01
RMM:   6    -0.232425551114E+03    0.56328E-04   -0.10085E-03  4038   0.468E-02    0.175E-01
RMM:   7    -0.232425469949E+03    0.81165E-04   -0.88473E-04  4036   0.450E-02    0.101E-01
RMM:   8    -0.232425383577E+03    0.86373E-04   -0.17240E-04  4036   0.206E-02    0.425E-02
RMM:   9    -0.232425366271E+03    0.17306E-04   -0.22614E-05  4024   0.737E-03    0.311E-02
RMM:  10    -0.232425357557E+03    0.87139E-05   -0.12169E-05  4026   0.524E-03    0.192E-02
RMM:  11    -0.232425356746E+03    0.81048E-06   -0.15092E-05  4025   0.561E-03    0.159E-02
RMM:  12    -0.232425355498E+03    0.12488E-05   -0.87675E-06  3977   0.428E-03    0.779E-03
RMM:  13    -0.232425355162E+03    0.33589E-06   -0.79657E-07  2175   0.153E-03
  45 F= -.23242536E+03 E0= -.23231976E+03  d E =-.269389E-02
       N       E                     dE             d eps       ncg     rms          rms(c)
DAV:   1    -0.232423070666E+03    0.22848E-02   -0.15306E+00  4080   0.201E+00    0.202E-01
RMM:   2    -0.232425876084E+03   -0.28054E-02   -0.28525E-02  4040   0.306E-01    0.179E-01
RMM:   3    -0.232426567177E+03   -0.69109E-03   -0.18626E-03  4047   0.683E-02    0.344E-01
RMM:   4    -0.232425692933E+03    0.87424E-03   -0.51269E-04  4050   0.337E-02    0.170E-01
RMM:   5    -0.232425502168E+03    0.19076E-03   -0.20792E-04  4038   0.225E-02    0.942E-02
RMM:   6    -0.232425500731E+03    0.14369E-05   -0.19082E-04  4038   0.204E-02    0.755E-02
RMM:   7    -0.232425491332E+03    0.93991E-05   -0.16814E-04  4036   0.196E-02    0.443E-02
RMM:   8    -0.232425475035E+03    0.16297E-04   -0.32672E-05  4034   0.898E-03    0.187E-02
RMM:   9    -0.232425471756E+03    0.32793E-05   -0.40266E-06  3006   0.320E-03    0.135E-02
RMM:  10    -0.232425470161E+03    0.15947E-05   -0.21966E-06  2207   0.245E-03    0.856E-03
RMM:  11    -0.232425470110E+03    0.51616E-07   -0.31035E-06  2525   0.283E-03
  46 F= -.23242547E+03 E0= -.23231988E+03  d E =-.280884E-02
       N       E                     dE             d eps       ncg     rms          rms(c)
DAV:   1    -0.232415963344E+03    0.95068E-02   -0.68734E+00  4032   0.428E+00    0.438E-01
RMM:   2    -0.232431176074E+03   -0.15213E-01   -0.13246E-01  4045   0.654E-01    0.651E-01
RMM:   3    -0.232432074570E+03   -0.89850E-03   -0.96622E-03  4049   0.152E-01    0.738E-01
RMM:   4    -0.232428030496E+03    0.40441E-02   -0.28083E-03  4047   0.807E-02    0.343E-01
RMM:   5    -0.232427220145E+03    0.81035E-03   -0.11893E-03  4039   0.543E-02    0.218E-01
RMM:   6    -0.232427319240E+03   -0.99095E-04   -0.11467E-03  4037   0.513E-02    0.212E-01
RMM:   7    -0.232427090250E+03    0.22899E-03   -0.83525E-04  4038   0.440E-02    0.931E-02
RMM:   8    -0.232427026285E+03    0.63965E-04   -0.15461E-04  4038   0.195E-02    0.453E-02
RMM:   9    -0.232427007771E+03    0.18514E-04   -0.22388E-05  4033   0.741E-03    0.294E-02
RMM:  10    -0.232427000942E+03    0.68289E-05   -0.14228E-05  4014   0.563E-03    0.224E-02
RMM:  11    -0.232426998504E+03    0.24388E-05   -0.21648E-05  4032   0.671E-03    0.147E-02
RMM:  12    -0.232426998189E+03    0.31443E-06   -0.58810E-06  3484   0.361E-03
  47 F= -.23242700E+03 E0= -.23232139E+03  d E =-.152808E-02
       N       E                     dE             d eps       ncg     rms          rms(c)
DAV:   1    -0.232426903449E+03    0.95055E-04   -0.58324E-02  4176   0.394E-01    0.397E-02
RMM:   2    -0.232427015655E+03   -0.11221E-03   -0.11031E-03  4043   0.600E-02    0.459E-02
RMM:   3    -0.232427026361E+03   -0.10706E-04   -0.74168E-05  4045   0.135E-02    0.618E-02
RMM:   4    -0.232427006506E+03    0.19855E-04   -0.22190E-05  4046   0.702E-03    0.389E-02
RMM:   5    -0.232426995853E+03    0.10653E-04   -0.10423E-05  4018   0.506E-03    0.195E-02
RMM:   6    -0.232426998780E+03   -0.29269E-05   -0.96828E-06  3981   0.468E-03    0.194E-02
RMM:   7    -0.232426997775E+03    0.10045E-05   -0.71671E-06  3714   0.409E-03    0.863E-03
RMM:   8    -0.232426997200E+03    0.57554E-06   -0.12144E-06  2181   0.188E-03
  48 F= -.23242700E+03 E0= -.23232140E+03  d E =-.152709E-02
       N       E                     dE             d eps       ncg     rms          rms(c)
DAV:   1    -0.232423840753E+03    0.31570E-02   -0.24976E+00  4032   0.269E+00    0.305E-01
RMM:   2    -0.232429203628E+03   -0.53629E-02   -0.53968E-02  4043   0.401E-01    0.269E-01
RMM:   3    -0.232431065317E+03   -0.18617E-02   -0.36754E-03  4044   0.936E-02    0.554E-01
RMM:   4    -0.232428699709E+03    0.23656E-02   -0.11112E-03  4054   0.495E-02    0.222E-01
RMM:   5    -0.232428421007E+03    0.27870E-03   -0.46844E-04  4038   0.340E-02    0.142E-01
RMM:   6    -0.232428402271E+03    0.18735E-04   -0.34698E-04  4038   0.287E-02    0.108E-01
RMM:   7    -0.232428352503E+03    0.49769E-04   -0.26088E-04  4037   0.246E-02    0.631E-02
RMM:   8    -0.232428319099E+03    0.33403E-04   -0.60046E-05  4037   0.121E-02    0.246E-02
RMM:   9    -0.232428314250E+03    0.48491E-05   -0.74011E-06  3719   0.419E-03    0.147E-02
RMM:  10    -0.232428312539E+03    0.17107E-05   -0.33849E-06  2684   0.290E-03    0.108E-02
RMM:  11    -0.232428312232E+03    0.30732E-06   -0.37678E-06  2829   0.313E-03
  49 F= -.23242831E+03 E0= -.23232270E+03  d E =-.131503E-02
       N       E                     dE             d eps       ncg     rms          rms(c)
DAV:   1    -0.232426823561E+03    0.14890E-02   -0.87405E-01  4056   0.159E+00    0.179E-01
RMM:   2    -0.232428673506E+03   -0.18499E-02   -0.18841E-02  4042   0.237E-01    0.153E-01
RMM:   3    -0.232429264161E+03   -0.59066E-03   -0.12452E-03  4044   0.548E-02    0.315E-01
RMM:   4    -0.232428517904E+03    0.74626E-03   -0.37149E-04  4055   0.286E-02    0.133E-01
RMM:   5    -0.232428418768E+03    0.99135E-04   -0.16277E-04  4038   0.200E-02    0.853E-02
RMM:   6    -0.232428415512E+03    0.32559E-05   -0.12052E-04  4038   0.169E-02    0.636E-02
RMM:   7    -0.232428398716E+03    0.16796E-04   -0.89532E-05  4037   0.144E-02    0.376E-02
RMM:   8    -0.232428387326E+03    0.11390E-04   -0.20634E-05  4026   0.712E-03    0.149E-02
RMM:   9    -0.232428385519E+03    0.18074E-05   -0.24605E-06  2451   0.253E-03    0.872E-03
RMM:  10    -0.232428385003E+03    0.51613E-06   -0.12961E-06  2162   0.194E-03
  50 F= -.23242839E+03 E0= -.23232276E+03  d E =-.138780E-02
       N       E                     dE             d eps       ncg     rms          rms(c)
DAV:   1    -0.232425556265E+03    0.28293E-02   -0.20135E+00  4032   0.239E+00    0.252E-01
RMM:   2    -0.232430130934E+03   -0.45747E-02   -0.41709E-02  4038   0.357E-01    0.323E-01
RMM:   3    -0.232431252308E+03   -0.11214E-02   -0.30318E-03  4044   0.844E-02    0.482E-01
RMM:   4    -0.232429354600E+03    0.18977E-02   -0.10213E-03  4043   0.480E-02    0.199E-01
RMM:   5    -0.232429089968E+03    0.26463E-03   -0.31586E-04  4038   0.282E-02    0.101E-01
RMM:   6    -0.232429111937E+03   -0.21969E-04   -0.26701E-04  4037   0.247E-02    0.837E-02
RMM:   7    -0.232429090005E+03    0.21933E-04   -0.18794E-04  4038   0.209E-02    0.455E-02
RMM:   8    -0.232429072750E+03    0.17254E-04   -0.34251E-05  4038   0.913E-03    0.201E-02
RMM:   9    -0.232429069344E+03    0.34063E-05   -0.44673E-06  3163   0.336E-03    0.128E-02
RMM:  10    -0.232429067896E+03    0.14478E-05   -0.28038E-06  2409   0.272E-03    0.958E-03
RMM:  11    -0.232429067842E+03    0.54817E-07   -0.41209E-06  3054   0.322E-03
  51 F= -.23242907E+03 E0= -.23232353E+03  d E =-.682839E-03
       N       E                     dE             d eps       ncg     rms          rms(c)
DAV:   1    -0.232429030426E+03    0.37471E-04   -0.23763E-02  4176   0.259E-01    0.272E-02
RMM:   2    -0.232429080993E+03   -0.50567E-04   -0.49181E-04  4038   0.390E-02    0.305E-02
RMM:   3    -0.232429096911E+03   -0.15918E-04   -0.34594E-05  4044   0.908E-03    0.539E-02
RMM:   4    -0.232429073472E+03    0.23439E-04   -0.11830E-05  3997   0.514E-03    0.208E-02
RMM:   5    -0.232429071339E+03    0.21325E-05   -0.40820E-06  2992   0.326E-03    0.116E-02
RMM:   6    -0.232429072149E+03   -0.80941E-06   -0.33701E-06  2687   0.298E-03
  52 F= -.23242907E+03 E0= -.23232356E+03  d E =-.687146E-03
       N       E                     dE             d eps       ncg     rms          rms(c)
DAV:   1    -0.232428946010E+03    0.12533E-03   -0.36333E-01  4056   0.974E-01    0.122E-01
RMM:   2    -0.232429649353E+03   -0.70334E-03   -0.70394E-03  4038   0.151E-01    0.129E-01
RMM:   3    -0.232429575242E+03    0.74111E-04   -0.44651E-04  4044   0.341E-02    0.877E-02
RMM:   4    -0.232429882733E+03   -0.30749E-03   -0.21346E-04  4041   0.211E-02    0.201E-01
RMM:   5    -0.232429531979E+03    0.35075E-03   -0.11917E-04  4038   0.155E-02    0.749E-02
RMM:   6    -0.232429532098E+03   -0.11950E-06   -0.68132E-05  4036   0.126E-02    0.568E-02
RMM:   7    -0.232429517980E+03    0.14118E-04   -0.44619E-05  4034   0.103E-02    0.266E-02
RMM:   8    -0.232429510986E+03    0.69940E-05   -0.93137E-06  3956   0.471E-03    0.795E-03
RMM:   9    -0.232429510448E+03    0.53819E-06   -0.10661E-06  2185   0.170E-03
  53 F= -.23242951E+03 E0= -.23232402E+03  d E =-.438299E-03
