<?xml version="1.0" encoding="ISO-8859-1"?>
<modeling>
 <generator>
  <i name="program" type="string">vasp </i>
  <i name="version" type="string">5.4.1  </i>
  <i name="subversion" type="string">24Jun15 (build Mar 14 2019 10:18:33) complex                          parallel </i>
  <i name="platform" type="string">INTEL-19.0.2+OPENMPI-3.1.3 </i>
  <i name="date" type="string">2023 01 24 </i>
  <i name="time" type="string">11:01:47 </i>
 </generator>
 <incar>
  <i type="int" name="ISTART">     0</i>
  <i type="string" name="PREC">normal</i>
  <i type="string" name="ALGO"> Fast</i>
  <i type="int" name="NELM">   500</i>
  <i type="int" name="IBRION">     2</i>
  <i type="int" name="NFREE">     2</i>
  <i name="EDIFF">      0.00000100</i>
  <i name="EDIFFG">     -0.02000000</i>
  <i type="int" name="NSW">   500</i>
  <i type="int" name="ISIF">     0</i>
  <i type="int" name="ISYM">     2</i>
  <i name="ENCUT">    400.00000000</i>
  <i name="POTIM">      0.35000000</i>
  <i type="string" name="LREAL"> Auto</i>
  <i type="logical" name="LPLANE"> T  </i>
  <i type="int" name="ISMEAR">     0</i>
  <i name="SIGMA">      0.10000000</i>
  <i type="int" name="NWRITE">     1</i>
  <i type="logical" name="LWAVE"> F  </i>
  <i type="logical" name="LCHARG"> F  </i>
  <i type="logical" name="LVTOT"> F  </i>
  <i type="logical" name="LORBIT"> F  </i>
  <i type="logical" name="LAECHG"> F  </i>
  <v type="int" name="KPOINT_BSE">    -1     0     0     0</v>
  <i type="int" name="NELM">   500</i>
  <i type="string" name="GGA"> PE          ! optPBE-vdW XC-functional</i>
  <i type="int" name="VOSKOWN">     1</i>
  <i type="logical" name="LDIPOL"> T  </i>
  <i type="logical" name="LMONO"> F  </i>
  <i type="int" name="IDIPOL">     3</i>
  <v name="DIPOL">      0.00000000      0.00000000      0.50000000</v>
 </incar>
 <kpoints>
  <generation param="Monkhorst-Pack">
   <v type="int" name="divisions">       2        2        1 </v>
   <v name="usershift">      0.00000000       0.00000000       0.00000000 </v>
   <v name="genvec1">      0.50000000       0.00000000       0.00000000 </v>
   <v name="genvec2">      0.00000000       0.50000000       0.00000000 </v>
   <v name="genvec3">      0.00000000       0.00000000       1.00000000 </v>
   <v name="shift">      0.50000000       0.50000000       0.00000000 </v>
  </generation>
  <varray name="kpointlist" >
   <v>       0.25000000       0.25000000       0.00000000 </v>
   <v>       0.00000000       0.25000000       0.00000000 </v>
   <v>      -0.25000000       0.00000000       0.00000000 </v>
   <v>      -0.25000000       0.25000000       0.00000000 </v>
   <v>       0.50000000      -0.25000000       0.00000000 </v>
   <v>      -0.25000000       0.50000000       0.00000000 </v>
  </varray>
  <varray name="weights" >
   <v>       0.16666667 </v>
   <v>       0.16666667 </v>
   <v>       0.16666667 </v>
   <v>       0.16666667 </v>
   <v>       0.16666667 </v>
   <v>       0.16666667 </v>
  </varray>
 </kpoints>
 <parameters>
  <separator name="general" >
   <i type="string" name="SYSTEM">unknown system</i>
   <i type="logical" name="LCOMPAT"> F  </i>
  </separator>
  <separator name="electronic" >
   <i type="string" name="PREC">normal</i>
   <i name="ENMAX">    400.00000000</i>
   <i name="ENAUG">    605.39200000</i>
   <i name="EDIFF">      0.00000100</i>
   <i type="int" name="IALGO">    68</i>
   <i type="int" name="IWAVPR">    11</i>
   <i type="int" name="NBANDS">   336</i>
   <i name="NELECT">    552.00000000</i>
   <i type="int" name="TURBO">     0</i>
   <i type="int" name="IRESTART">     0</i>
   <i type="int" name="NREBOOT">     0</i>
   <i type="int" name="NMIN">     0</i>
   <i name="EREF">      0.00000000</i>
   <separator name="electronic smearing" >
    <i type="int" name="ISMEAR">     0</i>
    <i name="SIGMA">      0.10000000</i>
    <i name="KSPACING">      0.50000000</i>
    <i type="logical" name="KGAMMA"> T  </i>
   </separator>
   <separator name="electronic projectors" >
    <i type="logical" name="LREAL"> T  </i>
    <v name="ROPT">     -0.00050000     -0.00050000     -0.00050000</v>
    <i type="int" name="LMAXPAW">  -100</i>
    <i type="int" name="LMAXMIX">     2</i>
    <i type="logical" name="NLSPLINE"> F  </i>
   </separator>
   <separator name="electronic startup" >
    <i type="int" name="ISTART">     0</i>
    <i type="int" name="ICHARG">     2</i>
    <i type="int" name="INIWAV">     1</i>
   </separator>
   <separator name="electronic spin" >
    <i type="int" name="ISPIN">     1</i>
    <i type="logical" name="LNONCOLLINEAR"> F  </i>
    <v name="MAGMOM">      1.00000000      1.00000000      1.00000000      1.00000000      1.00000000      1.00000000      1.00000000      1.00000000      1.00000000      1.00000000      1.00000000      1.00000000      1.00000000      1.00000000      1.00000000      1.00000000      1.00000000      1.00000000      1.00000000      1.00000000
      1.00000000      1.00000000      1.00000000      1.00000000      1.00000000      1.00000000      1.00000000      1.00000000      1.00000000      1.00000000      1.00000000      1.00000000      1.00000000      1.00000000      1.00000000      1.00000000      1.00000000      1.00000000      1.00000000      1.00000000
      1.00000000      1.00000000      1.00000000      1.00000000      1.00000000      1.00000000      1.00000000      1.00000000      1.00000000      1.00000000      1.00000000      1.00000000      1.00000000      1.00000000      1.00000000      1.00000000</v>
    <i name="NUPDOWN">     -1.00000000</i>
    <i type="logical" name="LSORBIT"> F  </i>
    <v name="SAXIS">      0.00000000      0.00000000      1.00000000</v>
    <i type="logical" name="LSPIRAL"> F  </i>
    <v name="QSPIRAL">      0.00000000      0.00000000      0.00000000</v>
    <i type="logical" name="LZEROZ"> F  </i>
   </separator>
   <separator name="electronic exchange-correlation" >
    <i type="logical" name="LASPH"> F  </i>
    <i type="logical" name="LMETAGGA"> F  </i>
   </separator>
   <separator name="electronic convergence" >
    <i type="int" name="NELM">   500</i>
    <i type="int" name="NELMDL">    -5</i>
    <i type="int" name="NELMIN">     2</i>
    <i name="ENINI">    400.00000000</i>
    <separator name="electronic convergence detail" >
     <i type="logical" name="LDIAG"> T  </i>
     <i type="logical" name="LSUBROT"> F  </i>
     <i name="WEIMIN">      0.00100000</i>
     <i name="EBREAK">      0.00000000</i>
     <i name="DEPER">      0.30000000</i>
     <i type="int" name="NRMM">     4</i>
     <i name="TIME">      0.40000000</i>
    </separator>
   </separator>
   <separator name="electronic mixer" >
    <i name="AMIX">      0.40000000</i>
    <i name="BMIX">      1.00000000</i>
    <i name="AMIN">      0.10000000</i>
    <i name="AMIX_MAG">      1.60000000</i>
    <i name="BMIX_MAG">      1.00000000</i>
    <separator name="electronic mixer details" >
     <i type="int" name="IMIX">     4</i>
     <i type="logical" name="MIXFIRST"> F  </i>
     <i type="int" name="MAXMIX">   -45</i>
     <i name="WC">    100.00000000</i>
     <i type="int" name="INIMIX">     1</i>
     <i type="int" name="MIXPRE">     1</i>
     <i type="int" name="MREMOVE">     5</i>
    </separator>
   </separator>
   <separator name="electronic dipolcorrection" >
    <i type="logical" name="LDIPOL"> T  </i>
    <i type="logical" name="LMONO"> F  </i>
    <i type="int" name="IDIPOL">     3</i>
    <i name="EPSILON">      1.00000000</i>
    <v name="DIPOL">      0.00000000      0.00000000      0.50000000</v>
    <i name="EFIELD">      0.00000000</i>
   </separator>
  </separator>
  <separator name="grids" >
   <i type="int" name="NGX">    54</i>
   <i type="int" name="NGY">    54</i>
   <i type="int" name="NGZ">   128</i>
   <i type="int" name="NGXF">   108</i>
   <i type="int" name="NGYF">   108</i>
   <i type="int" name="NGZF">   256</i>
   <i type="logical" name="ADDGRID"> F  </i>
  </separator>
  <separator name="ionic" >
   <i type="int" name="NSW">   500</i>
   <i type="int" name="IBRION">     2</i>
   <i type="int" name="ISIF">     0</i>
   <i name="PSTRESS">      0.00000000</i>
   <i name="EDIFFG">     -0.02000000</i>
   <i type="int" name="NFREE">     2</i>
   <i name="POTIM">      0.35000000</i>
   <i name="SMASS">     -3.00000000</i>
   <i name="SCALEE">      1.00000000</i>
  </separator>
  <separator name="ionic md" >
   <i name="TEBEG">      0.00010000</i>
   <i name="TEEND">      0.00010000</i>
   <i type="int" name="NBLOCK">     1</i>
   <i type="int" name="KBLOCK">   500</i>
   <i type="int" name="NPACO">   256</i>
   <i name="APACO">     16.00000000</i>
  </separator>
  <separator name="symmetry" >
   <i type="int" name="ISYM">     2</i>
   <i name="SYMPREC">      0.00001000</i>
  </separator>
  <separator name="dos" >
   <i type="logical" name="LORBIT"> F  </i>
   <v name="RWIGS">     -1.00000000     -1.00000000     -1.00000000</v>
   <i type="int" name="NEDOS">   301</i>
   <i name="EMIN">     10.00000000</i>
   <i name="EMAX">    -10.00000000</i>
   <i name="EFERMI">      0.00000000</i>
  </separator>
  <separator name="writing" >
   <i type="int" name="NWRITE">     1</i>
   <i type="logical" name="LWAVE"> F  </i>
   <i type="logical" name="LCHARG"> F  </i>
   <i type="logical" name="LPARD"> F  </i>
   <i type="logical" name="LVTOT"> F  </i>
   <i type="logical" name="LVHAR"> F  </i>
   <i type="logical" name="LELF"> F  </i>
   <i type="logical" name="LOPTICS"> F  </i>
   <v name="STM">      0.00000000      0.00000000      0.00000000      0.00000000      0.00000000      0.00000000      0.00000000</v>
  </separator>
  <separator name="performance" >
   <i type="int" name="NPAR">     6</i>
   <i type="int" name="NSIM">     4</i>
   <i type="int" name="NBLK">    -1</i>
   <i type="logical" name="LPLANE"> T  </i>
   <i type="logical" name="LSCALAPACK"> T  </i>
   <i type="logical" name="LSCAAWARE"> F  </i>
   <i type="logical" name="LSCALU"> F  </i>
   <i type="logical" name="LASYNC"> F  </i>
   <i type="logical" name="LORBITALREAL"> F  </i>
  </separator>
  <separator name="miscellaneous" >
   <i type="int" name="IDIOT">     3</i>
   <i type="logical" name="LMUSIC"> F  </i>
   <v name="POMASS">    196.96600000     16.00000000    106.42000000</v>
   <v name="DARWINR">      0.00000000      0.00000000      0.00000000</v>
   <v name="DARWINV">      1.00000000      1.00000000      1.00000000</v>
   <i type="logical" name="LCORR"> T  </i>
  </separator>
  <i type="logical" name="GGA_COMPAT"> T  </i>
  <i type="logical" name="LBERRY"> F  </i>
  <i type="int" name="ICORELEVEL">     0</i>
  <i type="logical" name="LDAU"> F  </i>
  <i type="int" name="I_CONSTRAINED_M">     0</i>
  <separator name="electronic exchange-correlation" >
   <i type="string" name="GGA">PE</i>
   <i type="int" name="VOSKOWN">     1</i>
   <i type="logical" name="LHFCALC"> F  </i>
   <i type="string" name="PRECFOCK"></i>
   <i type="logical" name="LSYMGRAD"> F  </i>
   <i type="logical" name="LHFONE"> F  </i>
   <i type="logical" name="LRHFCALC"> F  </i>
   <i type="logical" name="LTHOMAS"> F  </i>
   <i type="logical" name="LMODELHF"> F  </i>
   <i name="ENCUT4O">     -1.00000000</i>
   <i type="int" name="EXXOEP">     0</i>
   <i type="int" name="FOURORBIT">     0</i>
   <i name="AEXX">      0.00000000</i>
   <i name="HFALPHA">      0.00000000</i>
   <i name="MCALPHA">      0.00000000</i>
   <i name="ALDAX">      1.00000000</i>
   <i name="AGGAX">      1.00000000</i>
   <i name="ALDAC">      1.00000000</i>
   <i name="AGGAC">      1.00000000</i>
   <i type="int" name="NKREDX">     1</i>
   <i type="int" name="NKREDY">     1</i>
   <i type="int" name="NKREDZ">     1</i>
   <i type="logical" name="SHIFTRED"> F  </i>
   <i type="logical" name="ODDONLY"> F  </i>
   <i type="logical" name="EVENONLY"> F  </i>
   <i type="int" name="LMAXFOCK">     0</i>
   <i type="int" name="NMAXFOCKAE">     0</i>
   <i type="logical" name="LFOCKAEDFT"> F  </i>
   <i name="HFSCREEN">      0.00000000</i>
   <i name="HFSCREENC">      0.00000000</i>
   <i type="int" name="NBANDSGWLOW">     0</i>
  </separator>
  <separator name="vdW DFT" >
   <i type="logical" name="LUSE_VDW"> F  </i>
   <i name="Zab_VDW">     -0.84910000</i>
   <i name="PARAM1">      0.12340000</i>
   <i name="PARAM2">      1.00000000</i>
   <i name="PARAM3">      0.00000000</i>
  </separator>
  <separator name="model GW" >
   <i type="int" name="MODEL_GW">     0</i>
   <i name="MODEL_EPS0">     29.42037089</i>
   <i name="MODEL_ALPHA">      1.00000000</i>
  </separator>
  <separator name="linear response parameters" >
   <i type="logical" name="LEPSILON"> F  </i>
   <i type="logical" name="LRPA"> F  </i>
   <i type="logical" name="LNABLA"> F  </i>
   <i type="logical" name="LVEL"> F  </i>
   <i type="int" name="KINTER">     0</i>
   <i name="CSHIFT">      0.10000000</i>
   <i name="OMEGAMAX">     -1.00000000</i>
   <i name="DEG_THRESHOLD">      0.00200000</i>
  </separator>
  <separator name="orbital magnetization" >
   <i type="logical" name="NUCIND"> F  </i>
   <v name="MAGPOS">      0.00000000      0.00000000      0.00000000</v>
   <i type="logical" name="LNICSALL"> T  </i>
   <i type="logical" name="ORBITALMAG"> F  </i>
   <i type="logical" name="LMAGBLOCH"> F  </i>
   <i type="logical" name="LCHIMAG"> F  </i>
   <i type="logical" name="LGAUGE"> T  </i>
   <i type="int" name="MAGATOM">     0</i>
   <v name="MAGDIPOL">      0.00000000      0.00000000      0.00000000</v>
   <v name="AVECCONST">      0.00000000      0.00000000      0.00000000</v>
  </separator>
  <separator name="response functions" >
   <i type="logical" name="LADDER"> F  </i>
   <i type="logical" name="LFXC"> F  </i>
   <i type="logical" name="LHARTREE"> T  </i>
   <i type="int" name="IBSE">     0</i>
   <v type="int" name="KPOINT">    -1     0     0     0</v>
   <i type="logical" name="LTCTE"> F  </i>
   <i type="logical" name="LTETE"> F  </i>
   <i type="logical" name="LTRIPLET"> F  </i>
   <i type="logical" name="LFXCEPS"> F  </i>
   <i type="logical" name="LFXHEG"> F  </i>
   <i type="int" name="NATURALO">     0</i>
   <i type="logical" name="L2ORDER"> F  </i>
   <i type="logical" name="LUSEW"> F  </i>
   <i name="ENCUTGW">     -2.00000000</i>
   <i name="ENCUTGWSOFT">     -2.00000000</i>
   <i name="ENCUTLF">     -1.00000000</i>
   <i type="int" name="LMAXMP2">    -1</i>
   <i name="SCISSOR">      0.00000000</i>
   <i type="int" name="NOMEGA">     0</i>
   <i type="int" name="NOMEGAR">     0</i>
   <i type="int" name="NBANDSGW">    -1</i>
   <i type="int" name="NBANDSO">    -1</i>
   <i type="int" name="NBANDSV">    -1</i>
   <i type="int" name="NELM">   500</i>
   <i type="int" name="NELMHF">     1</i>
   <i type="int" name="DIM">     3</i>
   <i type="int" name="ANTIRES">     0</i>
   <i name="OMEGAMAX">    -30.00000000</i>
   <i name="OMEGAMIN">    -30.00000000</i>
   <i name="OMEGATL">   -200.00000000</i>
   <i type="int" name="OMEGAGRID">     0</i>
   <i name="CSHIFT">     -0.10000000</i>
   <i type="logical" name="SELFENERGY"> F  </i>
   <i type="logical" name="LSPECTRAL"> F  </i>
   <i type="logical" name="LSPECTRALGW"> F  </i>
   <i type="logical" name="LSINGLES"> F  </i>
   <i type="logical" name="LFERMIGW"> F  </i>
   <i type="logical" name="ODDONLYGW"> F  </i>
   <i type="logical" name="EVENONLYGW"> F  </i>
   <i type="int" name="NKREDLFX">     1</i>
   <i type="int" name="NKREDLFY">     1</i>
   <i type="int" name="NKREDLFZ">     1</i>
   <i type="int" name="MAXMEM">  1800</i>
   <i type="int" name="TELESCOPE">     0</i>
   <i type="int" name="TAUPAR">     1</i>
   <i type="int" name="OMEGAPAR">    -1</i>
   <i name="LAMBDA">      1.00000000</i>
  </separator>
  <separator name="External order field" >
   <i name="OFIELD_KAPPA">      0.00000000</i>
   <v name="OFIELD_K">      0.00000000      0.00000000      0.00000000</v>
   <i name="OFIELD_Q6_NEAR">      0.00000000</i>
   <i name="OFIELD_Q6_FAR">      0.00000000</i>
   <i name="OFIELD_A">      0.00000000</i>
  </separator>
 </parameters>
 <atominfo>
  <atoms>      56 </atoms>
  <types>       3 </types>
  <array name="atoms" >
   <dimension dim="1">ion</dimension>
   <field type="string">element</field>
   <field type="int">atomtype</field>
   <set>
    <rc><c>Au</c><c>   1</c></rc>
    <rc><c>Au</c><c>   1</c></rc>
    <rc><c>Au</c><c>   1</c></rc>
    <rc><c>Au</c><c>   1</c></rc>
    <rc><c>Au</c><c>   1</c></rc>
    <rc><c>Au</c><c>   1</c></rc>
    <rc><c>Au</c><c>   1</c></rc>
    <rc><c>Au</c><c>   1</c></rc>
    <rc><c>Au</c><c>   1</c></rc>
    <rc><c>Au</c><c>   1</c></rc>
    <rc><c>Au</c><c>   1</c></rc>
    <rc><c>Au</c><c>   1</c></rc>
    <rc><c>Au</c><c>   1</c></rc>
    <rc><c>Au</c><c>   1</c></rc>
    <rc><c>Au</c><c>   1</c></rc>
    <rc><c>Au</c><c>   1</c></rc>
    <rc><c>Au</c><c>   1</c></rc>
    <rc><c>Au</c><c>   1</c></rc>
    <rc><c>Au</c><c>   1</c></rc>
    <rc><c>Au</c><c>   1</c></rc>
    <rc><c>Au</c><c>   1</c></rc>
    <rc><c>Au</c><c>   1</c></rc>
    <rc><c>Au</c><c>   1</c></rc>
    <rc><c>Au</c><c>   1</c></rc>
    <rc><c>O </c><c>   2</c></rc>
    <rc><c>O </c><c>   2</c></rc>
    <rc><c>O </c><c>   2</c></rc>
    <rc><c>O </c><c>   2</c></rc>
    <rc><c>O </c><c>   2</c></rc>
    <rc><c>O </c><c>   2</c></rc>
    <rc><c>O </c><c>   2</c></rc>
    <rc><c>O </c><c>   2</c></rc>
    <rc><c>Pd</c><c>   3</c></rc>
    <rc><c>Pd</c><c>   3</c></rc>
    <rc><c>Pd</c><c>   3</c></rc>
    <rc><c>Pd</c><c>   3</c></rc>
    <rc><c>Pd</c><c>   3</c></rc>
    <rc><c>Pd</c><c>   3</c></rc>
    <rc><c>Pd</c><c>   3</c></rc>
    <rc><c>Pd</c><c>   3</c></rc>
    <rc><c>Pd</c><c>   3</c></rc>
    <rc><c>Pd</c><c>   3</c></rc>
    <rc><c>Pd</c><c>   3</c></rc>
    <rc><c>Pd</c><c>   3</c></rc>
    <rc><c>Pd</c><c>   3</c></rc>
    <rc><c>Pd</c><c>   3</c></rc>
    <rc><c>Pd</c><c>   3</c></rc>
    <rc><c>Pd</c><c>   3</c></rc>
    <rc><c>Pd</c><c>   3</c></rc>
    <rc><c>Pd</c><c>   3</c></rc>
    <rc><c>Pd</c><c>   3</c></rc>
    <rc><c>Pd</c><c>   3</c></rc>
    <rc><c>Pd</c><c>   3</c></rc>
    <rc><c>Pd</c><c>   3</c></rc>
    <rc><c>Pd</c><c>   3</c></rc>
    <rc><c>Pd</c><c>   3</c></rc>
   </set>
  </array>
  <array name="atomtypes" >
   <dimension dim="1">type</dimension>
   <field type="int">atomspertype</field>
   <field type="string">element</field>
   <field>mass</field>
   <field>valence</field>
   <field type="string">pseudopotential</field>
   <set>
    <rc><c>  24</c><c>Au</c><c>    196.96600000</c><c>     11.00000000</c><c>  PAW_PBE Au 04Oct2007                  </c></rc>
    <rc><c>   8</c><c>O </c><c>     16.00000000</c><c>      6.00000000</c><c>  PAW_PBE O 08Apr2002                   </c></rc>
    <rc><c>  24</c><c>Pd</c><c>    106.42000000</c><c>     10.00000000</c><c>  PAW_PBE Pd 04Jan2005                  </c></rc>
   </set>
  </array>
 </atominfo>
 <structure name="initialpos" >
  <crystal>
   <varray name="basis" >
    <v>      11.00258152       0.00000000       0.00000000 </v>
    <v>       5.50129076       9.52851510       0.00000000 </v>
    <v>       0.00000000       0.00000000      26.19178509 </v>
   </varray>
   <i name="volume">   2745.90128299 </i>
   <varray name="rec_basis" >
    <v>       0.09088776      -0.05247407       0.00000000 </v>
    <v>       0.00000000       0.10494815       0.00000000 </v>
    <v>       0.00000000       0.00000000       0.03817991 </v>
   </varray>
  </crystal>
  <varray name="positions" >
   <v>       0.08333333       0.08333333       0.38179910 </v>
   <v>       0.17031247       0.65939574       0.47579385 </v>
   <v>       0.33333333       0.58333333       0.38179910 </v>
   <v>       0.92400327       0.15934388       0.47705907 </v>
   <v>       0.66700847       0.41021703       0.47037871 </v>
   <v>       0.83333333       0.33333333       0.38179910 </v>
   <v>       0.08333333       0.33333333       0.38179910 </v>
   <v>       0.58333333       0.83333333       0.38179910 </v>
   <v>       0.49460777       0.49421502       0.56394138 </v>
   <v>       0.91511919       0.65827772       0.47327824 </v>
   <v>       0.50598446       0.23911473       0.56317712 </v>
   <v>       0.08333333       0.83333333       0.38179910 </v>
   <v>       0.75919588       0.49411280       0.55570621 </v>
   <v>       0.00035782       0.70991696       0.56373490 </v>
   <v>       0.41513234       0.16526364       0.47269789 </v>
   <v>       0.33333333       0.08333333       0.38179910 </v>
   <v>       0.16591945       0.17029072       0.51440189 </v>
   <v>       0.24416138       0.97342064       0.60936756 </v>
   <v>       0.25208738       0.74789760       0.56792752 </v>
   <v>       0.33333333       0.33333333       0.38179910 </v>
   <v>       0.16979423       0.91926252       0.48243423 </v>
   <v>       0.31132154       0.22604940       0.64882899 </v>
   <v>       0.33333333       0.83333333       0.38179910 </v>
   <v>       0.42851184       0.04147010       0.56681616 </v>
   <v>       0.19248893       0.14414488       0.66379529 </v>
   <v>       0.97993142       0.44590103       0.63971705 </v>
   <v>       0.02704789       0.05400164       0.63098495 </v>
   <v>       0.43184551       0.31013765       0.63947526 </v>
   <v>       0.80390861       0.32780236       0.61390479 </v>
   <v>       0.13922814       0.69771162       0.62410700 </v>
   <v>       0.67797270       0.81867267       0.60015163 </v>
   <v>       0.58387285       0.60666983       0.60835525 </v>
   <v>       0.17010549       0.41113427       0.47883975 </v>
   <v>       0.82984410       0.63420795       0.61742619 </v>
   <v>       0.58333333       0.08333333       0.38179910 </v>
   <v>       0.91615718       0.90981861       0.47682684 </v>
   <v>       0.83333333       0.83333333       0.38179910 </v>
   <v>       0.58333333       0.33333333       0.38179910 </v>
   <v>       0.41800551       0.41356498       0.47471244 </v>
   <v>       0.08024529       0.42130166       0.57336475 </v>
   <v>       0.66813771       0.66213089       0.47173390 </v>
   <v>       0.58333333       0.58333333       0.38179910 </v>
   <v>       0.27951988       0.50032731       0.62315588 </v>
   <v>       0.75339859       0.23368215       0.56117394 </v>
   <v>       0.66639291       0.91012347       0.47008420 </v>
   <v>       0.99616827       0.25133620       0.63499816 </v>
   <v>       0.41534018       0.91863374       0.47557506 </v>
   <v>       0.50101260       0.77203687       0.56264960 </v>
   <v>       0.92976281       0.40330795       0.47597215 </v>
   <v>       0.83333333       0.08333333       0.38179910 </v>
   <v>       0.67108416       0.15445559       0.47554403 </v>
   <v>       0.73319823       0.94440842       0.56319232 </v>
   <v>       0.83333333       0.58333333       0.38179910 </v>
   <v>       0.97252422       0.98781999       0.56892611 </v>
   <v>       0.08333333       0.58333333       0.38179910 </v>
   <v>       0.41855197       0.66869700       0.47501288 </v>
  </varray>
  <varray name="selective"  type="logical" >
   <v type="logical" >  F  F  F </v>
   <v type="logical" >  T  T  T </v>
   <v type="logical" >  F  F  F </v>
   <v type="logical" >  T  T  T </v>
   <v type="logical" >  T  T  T </v>
   <v type="logical" >  F  F  F </v>
   <v type="logical" >  F  F  F </v>
   <v type="logical" >  F  F  F </v>
   <v type="logical" >  T  T  T </v>
   <v type="logical" >  T  T  T </v>
   <v type="logical" >  T  T  T </v>
   <v type="logical" >  F  F  F </v>
   <v type="logical" >  T  T  T </v>
   <v type="logical" >  T  T  T </v>
   <v type="logical" >  T  T  T </v>
   <v type="logical" >  F  F  F </v>
   <v type="logical" >  T  T  T </v>
   <v type="logical" >  T  T  T </v>
   <v type="logical" >  T  T  T </v>
   <v type="logical" >  F  F  F </v>
   <v type="logical" >  T  T  T </v>
   <v type="logical" >  T  T  T </v>
   <v type="logical" >  F  F  F </v>
   <v type="logical" >  T  T  T </v>
   <v type="logical" >  T  T  T </v>
   <v type="logical" >  T  T  T </v>
   <v type="logical" >  T  T  T </v>
   <v type="logical" >  T  T  T </v>
   <v type="logical" >  T  T  T </v>
   <v type="logical" >  T  T  T </v>
   <v type="logical" >  T  T  T </v>
   <v type="logical" >  T  T  T </v>
   <v type="logical" >  T  T  T </v>
   <v type="logical" >  T  T  T </v>
   <v type="logical" >  F  F  F </v>
   <v type="logical" >  T  T  T </v>
   <v type="logical" >  F  F  F </v>
   <v type="logical" >  F  F  F </v>
   <v type="logical" >  T  T  T </v>
   <v type="logical" >  T  T  T </v>
   <v type="logical" >  T  T  T </v>
   <v type="logical" >  F  F  F </v>
   <v type="logical" >  T  T  T </v>
   <v type="logical" >  T  T  T </v>
   <v type="logical" >  T  T  T </v>
   <v type="logical" >  T  T  T </v>
   <v type="logical" >  T  T  T </v>
   <v type="logical" >  T  T  T </v>
   <v type="logical" >  T  T  T </v>
   <v type="logical" >  F  F  F </v>
   <v type="logical" >  T  T  T </v>
   <v type="logical" >  T  T  T </v>
   <v type="logical" >  F  F  F </v>
   <v type="logical" >  T  T  T </v>
   <v type="logical" >  F  F  F </v>
   <v type="logical" >  T  T  T </v>
  </varray>
  <nose>
   <v>      -3.00000000       0.00000000       0.00010000       0.00010000 </v>
  </nose>
 </structure>
 <calculation>
  <scstep>
   <time name="dav">   11.20   11.21</time>
   <time name="total">   11.27   11.29</time>
   <dipole>
    <v name="dipole">      0.00000000       0.00000000       0.00005640 </v>
    <i name="Tr[quadrupol]"> -11049.66040522 </i>
    <i name="Echarged">      0.00000000 </i>
    <i name="Edipol_quadrupol">      0.00000000 </i>
    <i name="Eion">      0.00000000 </i>
   </dipole>
   <energy>
    <i name="alphaZ">    862.57682210 </i>
    <i name="ewald"> 225613.05173497 </i>
    <i name="hartreedc">-271266.86277915 </i>
    <i name="XCdc">   -120.12500635 </i>
    <i name="pawpsdc">  43112.45544455 </i>
    <i name="pawaedc"> -41079.41300390 </i>
    <i name="eentropy">     -0.13275885 </i>
    <i name="bandstr">   1342.15536907 </i>
    <i name="atom">  45117.89144060 </i>
    <i name="e_fr_energy">   3581.59726305 </i>
    <i name="e_wo_entrp">   3581.73002190 </i>
    <i name="e_0_energy">   3581.66364247 </i>
   </energy>
  </scstep>
  <scstep>
   <time name="dav">   13.51   13.93</time>
   <time name="total">   13.52   13.93</time>
   <dipole>
    <v name="dipole">      0.00000000       0.00000000       0.00005640 </v>
    <i name="Tr[quadrupol]"> -11049.66040522 </i>
    <i name="Echarged">      0.00000000 </i>
    <i name="Edipol_quadrupol">      0.00000000 </i>
    <i name="Eion">      0.00000000 </i>
   </dipole>
   <energy>
    <i name="e_fr_energy">     49.63814138 </i>
    <i name="e_wo_entrp">     49.78694654 </i>
    <i name="e_0_energy">     49.71254396 </i>
   </energy>
  </scstep>
  <scstep>
   <time name="dav">   13.05   13.12</time>
   <time name="total">   13.05   13.13</time>
   <dipole>
    <v name="dipole">      0.00000000       0.00000000       0.00005640 </v>
    <i name="Tr[quadrupol]"> -11049.66040522 </i>
    <i name="Echarged">      0.00000000 </i>
    <i name="Edipol_quadrupol">      0.00000000 </i>
    <i name="Eion">      0.00000000 </i>
   </dipole>
   <energy>
    <i name="e_fr_energy">   -254.15725738 </i>
    <i name="e_wo_entrp">   -253.90628327 </i>
    <i name="e_0_energy">   -254.03177032 </i>
   </energy>
  </scstep>
  <scstep>
   <time name="dav">   12.84   12.85</time>
   <time name="total">   12.84   12.85</time>
   <dipole>
    <v name="dipole">      0.00000000       0.00000000       0.00005640 </v>
    <i name="Tr[quadrupol]"> -11049.66040522 </i>
    <i name="Echarged">      0.00000000 </i>
    <i name="Edipol_quadrupol">      0.00000000 </i>
    <i name="Eion">      0.00000000 </i>
   </dipole>
   <energy>
    <i name="e_fr_energy">   -264.77607935 </i>
    <i name="e_wo_entrp">   -264.51014262 </i>
    <i name="e_0_energy">   -264.64311098 </i>
   </energy>
  </scstep>
  <scstep>
   <time name="dav">   12.85   12.86</time>
   <time name="total">   13.20   13.21</time>
   <dipole>
    <v name="dipole">      0.00000000       0.00000000       0.00005640 </v>
    <i name="Tr[quadrupol]"> -11049.66040522 </i>
    <i name="Echarged">      0.00000000 </i>
    <i name="Edipol_quadrupol">      0.00000000 </i>
    <i name="Eion">      0.00000000 </i>
   </dipole>
   <energy>
    <i name="e_fr_energy">   -265.07298685 </i>
    <i name="e_wo_entrp">   -264.80590577 </i>
    <i name="e_0_energy">   -264.93944631 </i>
   </energy>
  </scstep>
  <scstep>
   <time name="diag">    2.03    2.03</time>
   <time name="diis">    5.21    5.29</time>
   <time name="orth">    0.53    0.53</time>
   <time name="total">    8.19    8.27</time>
   <dipole>
    <v name="dipole">      0.00000000       0.00000000       1.35175686 </v>
    <i name="Tr[quadrupol]"> -11048.88604563 </i>
    <i name="Echarged">      0.00000000 </i>
    <i name="Edipol_quadrupol">      0.00000000 </i>
    <i name="Eion">      0.00000000 </i>
   </dipole>
   <energy>
    <i name="e_fr_energy">   -256.47359360 </i>
    <i name="e_wo_entrp">   -256.30773175 </i>
    <i name="e_0_energy">   -256.39066267 </i>
   </energy>
  </scstep>
  <scstep>
   <time name="diag">    2.05    2.05</time>
   <time name="diis">    5.14    5.14</time>
   <time name="orth">    0.53    0.53</time>
   <time name="total">    8.14    8.14</time>
   <dipole>
    <v name="dipole">      0.00000000       0.00000000      -2.39459782 </v>
    <i name="Tr[quadrupol]"> -11050.13885171 </i>
    <i name="Echarged">      0.00000000 </i>
    <i name="Edipol_quadrupol">      0.00000000 </i>
    <i name="Eion">      0.00000000 </i>
   </dipole>
   <energy>
    <i name="e_fr_energy">   -304.13562056 </i>
    <i name="e_wo_entrp">   -303.90456619 </i>
    <i name="e_0_energy">   -304.02009337 </i>
   </energy>
  </scstep>
  <scstep>
   <time name="diag">    2.31    2.39</time>
   <time name="diis">    5.32    5.32</time>
   <time name="orth">    0.52    0.52</time>
   <time name="total">    8.57    8.66</time>
   <dipole>
    <v name="dipole">      0.00000000       0.00000000      -0.54332937 </v>
    <i name="Tr[quadrupol]"> -11051.85732863 </i>
    <i name="Echarged">      0.00000000 </i>
    <i name="Edipol_quadrupol">      0.00000000 </i>
    <i name="Eion">      0.00000000 </i>
   </dipole>
   <energy>
    <i name="e_fr_energy">   -247.92736282 </i>
    <i name="e_wo_entrp">   -247.67472978 </i>
    <i name="e_0_energy">   -247.80104630 </i>
   </energy>
  </scstep>
  <scstep>
   <time name="diag">    2.02    2.02</time>
   <time name="diis">    5.27    5.28</time>
   <time name="orth">    0.52    0.52</time>
   <time name="total">    8.23    8.24</time>
   <dipole>
    <v name="dipole">      0.00000000       0.00000000       0.10353914 </v>
    <i name="Tr[quadrupol]"> -11046.23551650 </i>
    <i name="Echarged">      0.00000000 </i>
    <i name="Edipol_quadrupol">      0.00000000 </i>
    <i name="Eion">      0.00000000 </i>
   </dipole>
   <energy>
    <i name="e_fr_energy">   -255.95260090 </i>
    <i name="e_wo_entrp">   -255.70694751 </i>
    <i name="e_0_energy">   -255.82977420 </i>
   </energy>
  </scstep>
  <scstep>
   <time name="diag">    2.04    2.04</time>
   <time name="diis">    5.18    5.18</time>
   <time name="orth">    0.52    0.52</time>
   <time name="total">    8.15    8.16</time>
   <dipole>
    <v name="dipole">      0.00000000       0.00000000       0.54033708 </v>
    <i name="Tr[quadrupol]"> -11048.27086821 </i>
    <i name="Echarged">      0.00000000 </i>
    <i name="Edipol_quadrupol">      0.00000000 </i>
    <i name="Eion">      0.00000000 </i>
   </dipole>
   <energy>
    <i name="e_fr_energy">   -252.27773419 </i>
    <i name="e_wo_entrp">   -252.07652849 </i>
    <i name="e_0_energy">   -252.17713134 </i>
   </energy>
  </scstep>
  <scstep>
   <time name="diag">    2.03    2.03</time>
   <time name="diis">    5.12    5.19</time>
   <time name="orth">    0.52    0.52</time>
   <time name="total">    8.08    8.16</time>
   <dipole>
    <v name="dipole">      0.00000000       0.00000000       0.64426530 </v>
    <i name="Tr[quadrupol]"> -11048.76877944 </i>
    <i name="Echarged">      0.00000000 </i>
    <i name="Edipol_quadrupol">      0.00000000 </i>
    <i name="Eion">      0.00000000 </i>
   </dipole>
   <energy>
    <i name="e_fr_energy">   -243.80627956 </i>
    <i name="e_wo_entrp">   -243.65628944 </i>
    <i name="e_0_energy">   -243.73128450 </i>
   </energy>
  </scstep>
  <scstep>
   <time name="diag">    2.01    2.01</time>
   <time name="diis">    5.28    5.28</time>
   <time name="orth">    0.52    0.52</time>
   <time name="total">    8.22    8.22</time>
   <dipole>
    <v name="dipole">      0.00000000       0.00000000       0.24991819 </v>
    <i name="Tr[quadrupol]"> -11050.84673268 </i>
    <i name="Echarged">      0.00000000 </i>
    <i name="Edipol_quadrupol">      0.00000000 </i>
    <i name="Eion">      0.00000000 </i>
   </dipole>
   <energy>
    <i name="e_fr_energy">   -237.03506083 </i>
    <i name="e_wo_entrp">   -236.79195953 </i>
    <i name="e_0_energy">   -236.91351018 </i>
   </energy>
  </scstep>
  <scstep>
   <time name="diag">    2.02    2.02</time>
   <time name="diis">    5.25    5.26</time>
   <time name="orth">    0.53    0.53</time>
   <time name="total">    8.22    8.22</time>
   <dipole>
    <v name="dipole">      0.00000000       0.00000000       0.34514787 </v>
    <i name="Tr[quadrupol]"> -11050.94668539 </i>
    <i name="Echarged">      0.00000000 </i>
    <i name="Edipol_quadrupol">      0.00000000 </i>
    <i name="Eion">      0.00000000 </i>
   </dipole>
   <energy>
    <i name="e_fr_energy">   -234.09019262 </i>
    <i name="e_wo_entrp">   -233.90472156 </i>
    <i name="e_0_energy">   -233.99745709 </i>
   </energy>
  </scstep>
  <scstep>
   <time name="diag">    2.04    2.04</time>
   <time name="diis">    5.20    5.20</time>
   <time name="orth">    0.51    0.51</time>
   <time name="total">    8.17    8.18</time>
   <dipole>
    <v name="dipole">      0.00000000       0.00000000       0.33776368 </v>
    <i name="Tr[quadrupol]"> -11051.33809628 </i>
    <i name="Echarged">      0.00000000 </i>
    <i name="Edipol_quadrupol">      0.00000000 </i>
    <i name="Eion">      0.00000000 </i>
   </dipole>
   <energy>
    <i name="e_fr_energy">   -233.25675156 </i>
    <i name="e_wo_entrp">   -233.07021437 </i>
    <i name="e_0_energy">   -233.16348297 </i>
   </energy>
  </scstep>
  <scstep>
   <time name="diag">    2.02    2.03</time>
   <time name="diis">    5.73    5.77</time>
   <time name="orth">    0.50    0.50</time>
   <time name="total">    8.67    8.72</time>
   <dipole>
    <v name="dipole">      0.00000000       0.00000000       0.35844207 </v>
    <i name="Tr[quadrupol]"> -11051.41156022 </i>
    <i name="Echarged">      0.00000000 </i>
    <i name="Edipol_quadrupol">      0.00000000 </i>
    <i name="Eion">      0.00000000 </i>
   </dipole>
   <energy>
    <i name="e_fr_energy">   -233.22439542 </i>
    <i name="e_wo_entrp">   -233.04303421 </i>
    <i name="e_0_energy">   -233.13371481 </i>
   </energy>
  </scstep>
  <scstep>
   <time name="diag">    2.00    2.00</time>
   <time name="diis">    5.24    5.28</time>
   <time name="orth">    0.48    0.51</time>
   <time name="total">    8.13    8.20</time>
   <dipole>
    <v name="dipole">      0.00000000       0.00000000       0.36569047 </v>
    <i name="Tr[quadrupol]"> -11051.63795756 </i>
    <i name="Echarged">      0.00000000 </i>
    <i name="Edipol_quadrupol">      0.00000000 </i>
    <i name="Eion">      0.00000000 </i>
   </dipole>
   <energy>
    <i name="e_fr_energy">   -233.16929544 </i>
    <i name="e_wo_entrp">   -232.98290540 </i>
    <i name="e_0_energy">   -233.07610042 </i>
   </energy>
  </scstep>
  <scstep>
   <time name="diag">    2.01    2.01</time>
   <time name="diis">    5.14    5.14</time>
   <time name="orth">    0.49    0.49</time>
   <time name="total">    8.06    8.07</time>
   <dipole>
    <v name="dipole">      0.00000000       0.00000000       0.33348534 </v>
    <i name="Tr[quadrupol]"> -11052.13055117 </i>
    <i name="Echarged">      0.00000000 </i>
    <i name="Edipol_quadrupol">      0.00000000 </i>
    <i name="Eion">      0.00000000 </i>
   </dipole>
   <energy>
    <i name="e_fr_energy">   -233.02941894 </i>
    <i name="e_wo_entrp">   -232.80869591 </i>
    <i name="e_0_energy">   -232.91905742 </i>
   </energy>
  </scstep>
  <scstep>
   <time name="diag">    1.99    2.00</time>
   <time name="diis">    5.14    5.15</time>
   <time name="orth">    0.49    0.49</time>
   <time name="total">    8.05    8.06</time>
   <dipole>
    <v name="dipole">      0.00000000       0.00000000       0.32319576 </v>
    <i name="Tr[quadrupol]"> -11052.40496065 </i>
    <i name="Echarged">      0.00000000 </i>
    <i name="Edipol_quadrupol">      0.00000000 </i>
    <i name="Eion">      0.00000000 </i>
   </dipole>
   <energy>
    <i name="e_fr_energy">   -232.94969691 </i>
    <i name="e_wo_entrp">   -232.72519189 </i>
    <i name="e_0_energy">   -232.83744440 </i>
   </energy>
  </scstep>
  <scstep>
   <time name="diag">    2.00    2.01</time>
   <time name="diis">    5.31    5.31</time>
   <time name="orth">    0.49    0.49</time>
   <time name="total">    8.21    8.22</time>
   <dipole>
    <v name="dipole">      0.00000000       0.00000000       0.31328074 </v>
    <i name="Tr[quadrupol]"> -11052.54177938 </i>
    <i name="Echarged">      0.00000000 </i>
    <i name="Edipol_quadrupol">      0.00000000 </i>
    <i name="Eion">      0.00000000 </i>
   </dipole>
   <energy>
    <i name="e_fr_energy">   -232.92272872 </i>
    <i name="e_wo_entrp">   -232.69562358 </i>
    <i name="e_0_energy">   -232.80917615 </i>
   </energy>
  </scstep>
  <scstep>
   <time name="diag">    1.99    1.99</time>
   <time name="diis">    5.22    5.23</time>
   <time name="orth">    0.49    0.49</time>
   <time name="total">    8.12    8.13</time>
   <dipole>
    <v name="dipole">      0.00000000       0.00000000       0.32321555 </v>
    <i name="Tr[quadrupol]"> -11052.54920839 </i>
    <i name="Echarged">      0.00000000 </i>
    <i name="Edipol_quadrupol">      0.00000000 </i>
    <i name="Eion">      0.00000000 </i>
   </dipole>
   <energy>
    <i name="e_fr_energy">   -232.91817950 </i>
    <i name="e_wo_entrp">   -232.69698673 </i>
    <i name="e_0_energy">   -232.80758312 </i>
   </energy>
  </scstep>
  <scstep>
   <time name="diag">    1.99    1.99</time>
   <time name="diis">    5.20    5.28</time>
   <time name="orth">    0.49    0.49</time>
   <time name="total">    8.10    8.18</time>
   <dipole>
    <v name="dipole">      0.00000000       0.00000000       0.32005359 </v>
    <i name="Tr[quadrupol]"> -11052.67331411 </i>
    <i name="Echarged">      0.00000000 </i>
    <i name="Edipol_quadrupol">      0.00000000 </i>
    <i name="Eion">      0.00000000 </i>
   </dipole>
   <energy>
    <i name="e_fr_energy">   -232.91700343 </i>
    <i name="e_wo_entrp">   -232.69438556 </i>
    <i name="e_0_energy">   -232.80569449 </i>
   </energy>
  </scstep>
  <scstep>
   <time name="diag">    2.00    2.00</time>
   <time name="diis">    5.69    5.72</time>
   <time name="orth">    0.59    0.59</time>
   <time name="total">    8.74    8.78</time>
   <dipole>
    <v name="dipole">      0.00000000       0.00000000       0.32160280 </v>
    <i name="Tr[quadrupol]"> -11052.80991558 </i>
    <i name="Echarged">      0.00000000 </i>
    <i name="Edipol_quadrupol">      0.00000000 </i>
    <i name="Eion">      0.00000000 </i>
   </dipole>
   <energy>
    <i name="e_fr_energy">   -232.91535013 </i>
    <i name="e_wo_entrp">   -232.69344037 </i>
    <i name="e_0_energy">   -232.80439525 </i>
   </energy>
  </scstep>
  <scstep>
   <time name="diag">    1.99    2.00</time>
   <time name="diis">    5.12    5.12</time>
   <time name="orth">    0.49    0.49</time>
   <time name="total">    8.01    8.02</time>
   <dipole>
    <v name="dipole">      0.00000000       0.00000000       0.32258818 </v>
    <i name="Tr[quadrupol]"> -11052.90759869 </i>
    <i name="Echarged">      0.00000000 </i>
    <i name="Edipol_quadrupol">      0.00000000 </i>
    <i name="Eion">      0.00000000 </i>
   </dipole>
   <energy>
    <i name="e_fr_energy">   -232.91541085 </i>
    <i name="e_wo_entrp">   -232.69279111 </i>
    <i name="e_0_energy">   -232.80410098 </i>
   </energy>
  </scstep>
  <scstep>
   <time name="diag">    1.99    1.99</time>
   <time name="diis">    5.15    5.15</time>
   <time name="orth">    0.49    0.49</time>
   <time name="total">    8.04    8.05</time>
   <dipole>
    <v name="dipole">      0.00000000       0.00000000       0.32500382 </v>
    <i name="Tr[quadrupol]"> -11052.99272271 </i>
    <i name="Echarged">      0.00000000 </i>
    <i name="Edipol_quadrupol">      0.00000000 </i>
    <i name="Eion">      0.00000000 </i>
   </dipole>
   <energy>
    <i name="e_fr_energy">   -232.91525505 </i>
    <i name="e_wo_entrp">   -232.69327169 </i>
    <i name="e_0_energy">   -232.80426337 </i>
   </energy>
  </scstep>
  <scstep>
   <time name="diag">    1.98    1.98</time>
   <time name="diis">    5.16    5.16</time>
   <time name="orth">    0.49    0.49</time>
   <time name="total">    8.05    8.06</time>
   <dipole>
    <v name="dipole">      0.00000000       0.00000000       0.32463173 </v>
    <i name="Tr[quadrupol]"> -11053.05116267 </i>
    <i name="Echarged">      0.00000000 </i>
    <i name="Edipol_quadrupol">      0.00000000 </i>
    <i name="Eion">      0.00000000 </i>
   </dipole>
   <energy>
    <i name="e_fr_energy">   -232.91532478 </i>
    <i name="e_wo_entrp">   -232.69344809 </i>
    <i name="e_0_energy">   -232.80438643 </i>
   </energy>
  </scstep>
  <scstep>
   <time name="diag">    2.00    2.00</time>
   <time name="diis">    5.17    5.24</time>
   <time name="orth">    0.49    0.49</time>
   <time name="total">    8.08    8.16</time>
   <dipole>
    <v name="dipole">      0.00000000       0.00000000       0.32556223 </v>
    <i name="Tr[quadrupol]"> -11053.11088219 </i>
    <i name="Echarged">      0.00000000 </i>
    <i name="Edipol_quadrupol">      0.00000000 </i>
    <i name="Eion">      0.00000000 </i>
   </dipole>
   <energy>
    <i name="e_fr_energy">   -232.91556258 </i>
    <i name="e_wo_entrp">   -232.69382018 </i>
    <i name="e_0_energy">   -232.80469138 </i>
   </energy>
  </scstep>
  <scstep>
   <time name="diag">    1.99    1.99</time>
   <time name="diis">    5.29    5.29</time>
   <time name="orth">    0.49    0.49</time>
   <time name="total">    8.18    8.19</time>
   <dipole>
    <v name="dipole">      0.00000000       0.00000000       0.32686156 </v>
    <i name="Tr[quadrupol]"> -11053.17226292 </i>
    <i name="Echarged">      0.00000000 </i>
    <i name="Edipol_quadrupol">      0.00000000 </i>
    <i name="Eion">      0.00000000 </i>
   </dipole>
   <energy>
    <i name="e_fr_energy">   -232.91584814 </i>
    <i name="e_wo_entrp">   -232.69418962 </i>
    <i name="e_0_energy">   -232.80501888 </i>
   </energy>
  </scstep>
  <scstep>
   <time name="diag">    1.99    1.99</time>
   <time name="diis">    5.29    5.30</time>
   <time name="orth">    0.49    0.49</time>
   <time name="total">    8.18    8.19</time>
   <dipole>
    <v name="dipole">      0.00000000       0.00000000       0.32823730 </v>
    <i name="Tr[quadrupol]"> -11053.25562322 </i>
    <i name="Echarged">      0.00000000 </i>
    <i name="Edipol_quadrupol">      0.00000000 </i>
    <i name="Eion">      0.00000000 </i>
   </dipole>
   <energy>
    <i name="e_fr_energy">   -232.91627054 </i>
    <i name="e_wo_entrp">   -232.69467827 </i>
    <i name="e_0_energy">   -232.80547440 </i>
   </energy>
  </scstep>
  <scstep>
   <time name="diag">    1.99    1.99</time>
   <time name="diis">    5.19    5.19</time>
   <time name="orth">    0.56    0.57</time>
   <time name="total">    8.30    8.32</time>
   <dipole>
    <v name="dipole">      0.00000000       0.00000000       0.32927994 </v>
    <i name="Tr[quadrupol]"> -11053.32496742 </i>
    <i name="Echarged">      0.00000000 </i>
    <i name="Edipol_quadrupol">      0.00000000 </i>
    <i name="Eion">      0.00000000 </i>
   </dipole>
   <energy>
    <i name="e_fr_energy">   -232.91663851 </i>
    <i name="e_wo_entrp">   -232.69494276 </i>
    <i name="e_0_energy">   -232.80579063 </i>
   </energy>
  </scstep>
  <scstep>
   <time name="diag">    2.37    2.39</time>
   <time name="diis">    4.97    4.97</time>
   <time name="orth">    0.49    0.49</time>
   <time name="total">    8.27    8.31</time>
   <dipole>
    <v name="dipole">      0.00000000       0.00000000       0.33020027 </v>
    <i name="Tr[quadrupol]"> -11053.37593961 </i>
    <i name="Echarged">      0.00000000 </i>
    <i name="Edipol_quadrupol">      0.00000000 </i>
    <i name="Eion">      0.00000000 </i>
   </dipole>
   <energy>
    <i name="e_fr_energy">   -232.91692388 </i>
    <i name="e_wo_entrp">   -232.69540473 </i>
    <i name="e_0_energy">   -232.80616430 </i>
   </energy>
  </scstep>
  <scstep>
   <time name="diag">    1.99    2.00</time>
   <time name="diis">    3.93    4.00</time>
   <time name="orth">    0.49    0.49</time>
   <time name="total">    6.83    6.91</time>
   <dipole>
    <v name="dipole">      0.00000000       0.00000000       0.33071212 </v>
    <i name="Tr[quadrupol]"> -11053.40682354 </i>
    <i name="Echarged">      0.00000000 </i>
    <i name="Edipol_quadrupol">      0.00000000 </i>
    <i name="Eion">      0.00000000 </i>
   </dipole>
   <energy>
    <i name="e_fr_energy">   -232.91709962 </i>
    <i name="e_wo_entrp">   -232.69541600 </i>
    <i name="e_0_energy">   -232.80625781 </i>
   </energy>
  </scstep>
  <scstep>
   <time name="diag">    1.99    2.00</time>
   <time name="diis">    4.40    4.40</time>
   <time name="orth">    0.49    0.49</time>
   <time name="total">    7.31    7.32</time>
   <dipole>
    <v name="dipole">      0.00000000       0.00000000       0.33184822 </v>
    <i name="Tr[quadrupol]"> -11053.45802874 </i>
    <i name="Echarged">      0.00000000 </i>
    <i name="Edipol_quadrupol">      0.00000000 </i>
    <i name="Eion">      0.00000000 </i>
   </dipole>
   <energy>
    <i name="e_fr_energy">   -232.91737818 </i>
    <i name="e_wo_entrp">   -232.69568522 </i>
    <i name="e_0_energy">   -232.80653170 </i>
   </energy>
  </scstep>
  <scstep>
   <time name="diag">    2.00    2.00</time>
   <time name="diis">    4.46    4.46</time>
   <time name="orth">    0.49    0.49</time>
   <time name="total">    7.36    7.38</time>
   <dipole>
    <v name="dipole">      0.00000000       0.00000000       0.33314080 </v>
    <i name="Tr[quadrupol]"> -11053.51567572 </i>
    <i name="Echarged">      0.00000000 </i>
    <i name="Edipol_quadrupol">      0.00000000 </i>
    <i name="Eion">      0.00000000 </i>
   </dipole>
   <energy>
    <i name="e_fr_energy">   -232.91762871 </i>
    <i name="e_wo_entrp">   -232.69585236 </i>
    <i name="e_0_energy">   -232.80674053 </i>
   </energy>
  </scstep>
  <scstep>
   <time name="diag">    2.00    2.00</time>
   <time name="diis">    3.98    3.98</time>
   <time name="orth">    0.49    0.49</time>
   <time name="total">    6.89    6.90</time>
   <dipole>
    <v name="dipole">      0.00000000       0.00000000       0.33416738 </v>
    <i name="Tr[quadrupol]"> -11053.54712016 </i>
    <i name="Echarged">      0.00000000 </i>
    <i name="Edipol_quadrupol">      0.00000000 </i>
    <i name="Eion">      0.00000000 </i>
   </dipole>
   <energy>
    <i name="e_fr_energy">   -232.91773113 </i>
    <i name="e_wo_entrp">   -232.69604175 </i>
    <i name="e_0_energy">   -232.80688644 </i>
   </energy>
  </scstep>
  <scstep>
   <time name="diag">    1.99    1.99</time>
   <time name="diis">    3.52    3.52</time>
   <time name="orth">    0.49    0.49</time>
   <time name="total">    6.42    6.42</time>
   <dipole>
    <v name="dipole">      0.00000000       0.00000000       0.33478318 </v>
    <i name="Tr[quadrupol]"> -11053.56563877 </i>
    <i name="Echarged">      0.00000000 </i>
    <i name="Edipol_quadrupol">      0.00000000 </i>
    <i name="Eion">      0.00000000 </i>
   </dipole>
   <energy>
    <i name="e_fr_energy">   -232.91777826 </i>
    <i name="e_wo_entrp">   -232.69605957 </i>
    <i name="e_0_energy">   -232.80691892 </i>
   </energy>
  </scstep>
  <scstep>
   <time name="diag">    1.99    1.99</time>
   <time name="diis">    3.23    3.23</time>
   <time name="orth">    0.49    0.49</time>
   <time name="total">    6.13    6.14</time>
   <dipole>
    <v name="dipole">      0.00000000       0.00000000       0.33519114 </v>
    <i name="Tr[quadrupol]"> -11053.57496300 </i>
    <i name="Echarged">      0.00000000 </i>
    <i name="Edipol_quadrupol">      0.00000000 </i>
    <i name="Eion">      0.00000000 </i>
   </dipole>
   <energy>
    <i name="e_fr_energy">   -232.91780096 </i>
    <i name="e_wo_entrp">   -232.69607367 </i>
    <i name="e_0_energy">   -232.80693732 </i>
   </energy>
  </scstep>
  <scstep>
   <time name="diag">    1.99    1.99</time>
   <time name="diis">    3.12    3.20</time>
   <time name="orth">    0.49    0.49</time>
   <time name="total">    6.02    6.11</time>
   <dipole>
    <v name="dipole">      0.00000000       0.00000000       0.33574176 </v>
    <i name="Tr[quadrupol]"> -11053.58512728 </i>
    <i name="Echarged">      0.00000000 </i>
    <i name="Edipol_quadrupol">      0.00000000 </i>
    <i name="Eion">      0.00000000 </i>
   </dipole>
   <energy>
    <i name="e_fr_energy">   -232.91782629 </i>
    <i name="e_wo_entrp">   -232.69608261 </i>
    <i name="e_0_energy">   -232.80695445 </i>
   </energy>
  </scstep>
  <scstep>
   <time name="diag">    2.01    2.01</time>
   <time name="diis">    3.33    3.36</time>
   <time name="orth">    0.60    0.60</time>
   <time name="total">    6.50    6.53</time>
   <dipole>
    <v name="dipole">      0.00000000       0.00000000       0.33624550 </v>
    <i name="Tr[quadrupol]"> -11053.59308179 </i>
    <i name="Echarged">      0.00000000 </i>
    <i name="Edipol_quadrupol">      0.00000000 </i>
    <i name="Eion">      0.00000000 </i>
   </dipole>
   <energy>
    <i name="e_fr_energy">   -232.91784341 </i>
    <i name="e_wo_entrp">   -232.69610330 </i>
    <i name="e_0_energy">   -232.80697336 </i>
   </energy>
  </scstep>
  <scstep>
   <time name="diag">    2.11    2.12</time>
   <time name="diis">    3.01    3.01</time>
   <time name="orth">    0.49    0.49</time>
   <time name="total">    6.05    6.07</time>
   <dipole>
    <v name="dipole">      0.00000000       0.00000000       0.33678378 </v>
    <i name="Tr[quadrupol]"> -11053.60024681 </i>
    <i name="Echarged">      0.00000000 </i>
    <i name="Edipol_quadrupol">      0.00000000 </i>
    <i name="Eion">      0.00000000 </i>
   </dipole>
   <energy>
    <i name="e_fr_energy">   -232.91785665 </i>
    <i name="e_wo_entrp">   -232.69611844 </i>
    <i name="e_0_energy">   -232.80698755 </i>
   </energy>
  </scstep>
  <scstep>
   <time name="diag">    1.98    1.98</time>
   <time name="diis">    2.74    2.75</time>
   <time name="orth">    0.49    0.49</time>
   <time name="total">    5.63    5.64</time>
   <dipole>
    <v name="dipole">      0.00000000       0.00000000       0.33715478 </v>
    <i name="Tr[quadrupol]"> -11053.60484364 </i>
    <i name="Echarged">      0.00000000 </i>
    <i name="Edipol_quadrupol">      0.00000000 </i>
    <i name="Eion">      0.00000000 </i>
   </dipole>
   <energy>
    <i name="e_fr_energy">   -232.91786302 </i>
    <i name="e_wo_entrp">   -232.69612464 </i>
    <i name="e_0_energy">   -232.80699383 </i>
   </energy>
  </scstep>
  <scstep>
   <time name="diag">    1.99    2.00</time>
   <time name="diis">    2.94    2.95</time>
   <time name="orth">    0.49    0.49</time>
   <time name="total">    5.85    5.86</time>
   <dipole>
    <v name="dipole">      0.00000000       0.00000000       0.33762126 </v>
    <i name="Tr[quadrupol]"> -11053.61035793 </i>
    <i name="Echarged">      0.00000000 </i>
    <i name="Edipol_quadrupol">      0.00000000 </i>
    <i name="Eion">      0.00000000 </i>
   </dipole>
   <energy>
    <i name="e_fr_energy">   -232.91786806 </i>
    <i name="e_wo_entrp">   -232.69612938 </i>
    <i name="e_0_energy">   -232.80699872 </i>
   </energy>
  </scstep>
  <scstep>
   <time name="diag">    1.99    1.99</time>
   <time name="diis">    2.56    2.57</time>
   <time name="orth">    0.49    0.49</time>
   <time name="total">    5.47    5.47</time>
   <dipole>
    <v name="dipole">      0.00000000       0.00000000       0.33797318 </v>
    <i name="Tr[quadrupol]"> -11053.61438646 </i>
    <i name="Echarged">      0.00000000 </i>
    <i name="Edipol_quadrupol">      0.00000000 </i>
    <i name="Eion">      0.00000000 </i>
   </dipole>
   <energy>
    <i name="e_fr_energy">   -232.91787008 </i>
    <i name="e_wo_entrp">   -232.69613134 </i>
    <i name="e_0_energy">   -232.80700071 </i>
   </energy>
  </scstep>
  <scstep>
   <time name="diag">    1.99    1.99</time>
   <time name="diis">    2.35    2.35</time>
   <time name="orth">    0.49    0.49</time>
   <time name="total">    4.89    4.90</time>
   <dipole>
    <v name="dipole">      0.00000000       0.00000000       0.33815823 </v>
    <i name="Tr[quadrupol]"> -11053.61672909 </i>
    <i name="Echarged">      0.00000000 </i>
    <i name="Edipol_quadrupol">      0.00000000 </i>
    <i name="Eion">      0.00000000 </i>
   </dipole>
   <energy>
    <i name="alphaZ">    864.61563928 </i>
    <i name="ewald"> 225613.05173497 </i>
    <i name="hartreedc">-270990.33470048 </i>
    <i name="XCdc">   -131.53586495 </i>
    <i name="pawpsdc">  51489.48775286 </i>
    <i name="pawaedc"> -49575.24115736 </i>
    <i name="eentropy">     -0.22174334 </i>
    <i name="bandstr">  -2620.63097241 </i>
    <i name="atom">  45117.89144060 </i>
    <i name="e_fr_energy">   -232.91787081 </i>
    <i name="e_wo_entrp">   -232.69612748 </i>
    <i name="e_0_energy">   -232.80699914 </i>
   </energy>
  </scstep>
  <structure>
   <crystal>
    <varray name="basis" >
     <v>      11.00258152       0.00000000       0.00000000 </v>
     <v>       5.50129076       9.52851510       0.00000000 </v>
     <v>       0.00000000       0.00000000      26.19178509 </v>
    </varray>
    <i name="volume">   2745.90128299 </i>
    <varray name="rec_basis" >
     <v>       0.09088776      -0.05247407       0.00000000 </v>
     <v>       0.00000000       0.10494815       0.00000000 </v>
     <v>       0.00000000       0.00000000       0.03817991 </v>
    </varray>
   </crystal>
   <varray name="positions" >
    <v>       0.08333333       0.08333333       0.38179910 </v>
    <v>       0.17031247       0.65939574       0.47579385 </v>
    <v>       0.33333333       0.58333333       0.38179910 </v>
    <v>       0.92400327       0.15934388       0.47705907 </v>
    <v>       0.66700847       0.41021703       0.47037871 </v>
    <v>       0.83333333       0.33333333       0.38179910 </v>
    <v>       0.08333333       0.33333333       0.38179910 </v>
    <v>       0.58333333       0.83333333       0.38179910 </v>
    <v>       0.49460777       0.49421502       0.56394138 </v>
    <v>       0.91511919       0.65827772       0.47327824 </v>
    <v>       0.50598446       0.23911473       0.56317712 </v>
    <v>       0.08333333       0.83333333       0.38179910 </v>
    <v>       0.75919588       0.49411280       0.55570621 </v>
    <v>       0.00035782       0.70991696       0.56373490 </v>
    <v>       0.41513234       0.16526364       0.47269789 </v>
    <v>       0.33333333       0.08333333       0.38179910 </v>
    <v>       0.16591945       0.17029072       0.51440189 </v>
    <v>       0.24416138       0.97342064       0.60936756 </v>
    <v>       0.25208738       0.74789760       0.56792752 </v>
    <v>       0.33333333       0.33333333       0.38179910 </v>
    <v>       0.16979423       0.91926252       0.48243423 </v>
    <v>       0.31132154       0.22604940       0.64882899 </v>
    <v>       0.33333333       0.83333333       0.38179910 </v>
    <v>       0.42851184       0.04147010       0.56681616 </v>
    <v>       0.19248893       0.14414488       0.66379529 </v>
    <v>       0.97993142       0.44590103       0.63971705 </v>
    <v>       0.02704789       0.05400164       0.63098495 </v>
    <v>       0.43184551       0.31013765       0.63947526 </v>
    <v>       0.80390861       0.32780236       0.61390479 </v>
    <v>       0.13922814       0.69771162       0.62410700 </v>
    <v>       0.67797270       0.81867267       0.60015163 </v>
    <v>       0.58387285       0.60666983       0.60835525 </v>
    <v>       0.17010549       0.41113427       0.47883975 </v>
    <v>       0.82984410       0.63420795       0.61742619 </v>
    <v>       0.58333333       0.08333333       0.38179910 </v>
    <v>       0.91615718       0.90981861       0.47682684 </v>
    <v>       0.83333333       0.83333333       0.38179910 </v>
    <v>       0.58333333       0.33333333       0.38179910 </v>
    <v>       0.41800551       0.41356498       0.47471244 </v>
    <v>       0.08024529       0.42130166       0.57336475 </v>
    <v>       0.66813771       0.66213089       0.47173390 </v>
    <v>       0.58333333       0.58333333       0.38179910 </v>
    <v>       0.27951988       0.50032731       0.62315588 </v>
    <v>       0.75339859       0.23368215       0.56117394 </v>
    <v>       0.66639291       0.91012347       0.47008420 </v>
    <v>       0.99616827       0.25133620       0.63499816 </v>
    <v>       0.41534018       0.91863374       0.47557506 </v>
    <v>       0.50101260       0.77203687       0.56264960 </v>
    <v>       0.92976281       0.40330795       0.47597215 </v>
    <v>       0.83333333       0.08333333       0.38179910 </v>
    <v>       0.67108416       0.15445559       0.47554403 </v>
    <v>       0.73319823       0.94440842       0.56319232 </v>
    <v>       0.83333333       0.58333333       0.38179910 </v>
    <v>       0.97252422       0.98781999       0.56892611 </v>
    <v>       0.08333333       0.58333333       0.38179910 </v>
    <v>       0.41855197       0.66869700       0.47501288 </v>
   </varray>
  </structure>
  <varray name="forces" >
   <v>      -0.02429964       0.02131523      -0.06355211 </v>
   <v>       0.01952314       0.00609728      -0.04313851 </v>
   <v>       0.17628403      -0.19632422      -0.12356373 </v>
   <v>      -0.00953669       0.03076113      -0.06147413 </v>
   <v>      -0.01101357       0.01026321       0.01416846 </v>
   <v>      -0.02837649       0.05298700      -0.34747056 </v>
   <v>      -0.01455571       0.26894885      -0.01678395 </v>
   <v>       0.15775188      -0.24192851      -0.23996910 </v>
   <v>      -0.00227328       0.03292409       0.00563540 </v>
   <v>      -0.01858259       0.00815115       0.05046671 </v>
   <v>       0.01293819      -0.09063185       0.01578550 </v>
   <v>      -0.45378579       0.13034061      -0.08796997 </v>
   <v>       0.00764431       0.05540087       0.01801754 </v>
   <v>      -0.01913203      -0.03581979       0.01950192 </v>
   <v>      -0.02593380      -0.00297500       0.06709356 </v>
   <v>      -0.09606880       0.00626424      -0.28365466 </v>
   <v>       0.01172036      -0.01298675       0.00342506 </v>
   <v>      -0.00618444       0.01446594       0.06767273 </v>
   <v>       0.04602015      -0.00443372      -0.02558786 </v>
   <v>       0.14676869       0.16984935      -0.15579460 </v>
   <v>      -0.01355136       0.00423993      -0.00223207 </v>
   <v>      -0.10599525      -0.08004986      -0.00020309 </v>
   <v>       0.05738229      -0.07658580      -0.06722080 </v>
   <v>       0.01059319       0.01115800       0.03992171 </v>
   <v>       0.00339166       0.05104387       0.00795146 </v>
   <v>       0.03510203      -0.01479539      -0.01458614 </v>
   <v>      -0.03869286       0.06158555       0.02282316 </v>
   <v>      -0.00846233      -0.01668359      -0.01576969 </v>
   <v>       0.01324653       0.04781358      -0.02275933 </v>
   <v>       0.02880076      -0.04193054      -0.03562641 </v>
   <v>       0.10231154       0.04434573      -0.03219620 </v>
   <v>      -0.05324023       0.03876569      -0.03232855 </v>
   <v>      -0.00798017       0.00022801      -0.04389997 </v>
   <v>       0.03740025       0.07109661       0.05450165 </v>
   <v>       0.43584158       0.05342813       0.05383074 </v>
   <v>      -0.00656043       0.01409629      -0.02490860 </v>
   <v>       0.13988568       0.03884178       0.15826089 </v>
   <v>      -0.06452428      -0.23874506       0.14531929 </v>
   <v>       0.00194733      -0.05109930      -0.00698444 </v>
   <v>       0.04794264       0.01736974      -0.05667727 </v>
   <v>      -0.02443367       0.06419710       0.01051372 </v>
   <v>      -0.05010651      -0.05067189       0.06733050 </v>
   <v>       0.02921599       0.00700210       0.01793574 </v>
   <v>       0.00883594       0.00288595      -0.03446660 </v>
   <v>       0.03203492       0.01324145       0.01593984 </v>
   <v>      -0.01381215      -0.14682465      -0.00688876 </v>
   <v>      -0.02955254       0.01288332       0.00382613 </v>
   <v>       0.02950288      -0.09623887       0.08697718 </v>
   <v>       0.01823967       0.04467894      -0.01330418 </v>
   <v>      -0.34796969      -0.09140325       0.40396737 </v>
   <v>      -0.00387540       0.01619787      -0.00465750 </v>
   <v>      -0.09571355      -0.01884794       0.08751311 </v>
   <v>       0.15383035       0.04635882       0.21976362 </v>
   <v>       0.00715747      -0.00143692      -0.00283145 </v>
   <v>      -0.19155057       0.03135316       0.18301345 </v>
   <v>      -0.00554962       0.00983237       0.02534377 </v>
  </varray>
  <energy>
   <i name="e_fr_energy">   -232.91787081 </i>
   <i name="e_wo_entrp">   -232.80699914 </i>
   <i name="e_0_energy">     -0.22174334 </i>
  </energy>
  <time name="totalsc">  353.94  355.56</time>
 </calculation>
 <calculation>
  <scstep>
   <time name="dav">   11.54   11.54</time>
   <time name="total">   11.95   11.96</time>
   <dipole>
    <v name="dipole">      0.00000000       0.00000000       0.33828323 </v>
    <i name="Tr[quadrupol]"> -11052.93364509 </i>
    <i name="Echarged">      0.00000000 </i>
    <i name="Edipol_quadrupol">      0.00000000 </i>
    <i name="Eion">      0.00000000 </i>
   </dipole>
   <energy>
    <i name="alphaZ">    864.61473248 </i>
    <i name="ewald"> 225601.20238073 </i>
    <i name="hartreedc">-270978.34253558 </i>
    <i name="XCdc">   -131.53312260 </i>
    <i name="pawpsdc">  51489.48489220 </i>
    <i name="pawaedc"> -49575.23825687 </i>
    <i name="eentropy">     -0.22194737 </i>
    <i name="bandstr">  -2620.77806233 </i>
    <i name="atom">  45117.89144060 </i>
    <i name="e_fr_energy">   -232.92047874 </i>
    <i name="e_wo_entrp">   -232.69853136 </i>
    <i name="e_0_energy">   -232.80950505 </i>
   </energy>
  </scstep>
  <scstep>
   <time name="diag">    1.99    1.99</time>
   <time name="diis">    5.21    5.22</time>
   <time name="orth">    0.49    0.49</time>
   <time name="total">    8.11    8.12</time>
   <dipole>
    <v name="dipole">      0.00000000       0.00000000       0.33743303 </v>
    <i name="Tr[quadrupol]"> -11052.92491707 </i>
    <i name="Echarged">      0.00000000 </i>
    <i name="Edipol_quadrupol">      0.00000000 </i>
    <i name="Eion">      0.00000000 </i>
   </dipole>
   <energy>
    <i name="e_fr_energy">   -232.92392299 </i>
    <i name="e_wo_entrp">   -232.70153730 </i>
    <i name="e_0_energy">   -232.81273015 </i>
   </energy>
  </scstep>
  <scstep>
   <time name="diag">    2.00    2.00</time>
   <time name="diis">    5.61    5.64</time>
   <time name="orth">    0.59    0.59</time>
   <time name="total">    8.74    8.78</time>
   <dipole>
    <v name="dipole">      0.00000000       0.00000000       0.33883141 </v>
    <i name="Tr[quadrupol]"> -11052.93711664 </i>
    <i name="Echarged">      0.00000000 </i>
    <i name="Edipol_quadrupol">      0.00000000 </i>
    <i name="Eion">      0.00000000 </i>
   </dipole>
   <energy>
    <i name="e_fr_energy">   -232.92263315 </i>
    <i name="e_wo_entrp">   -232.70134709 </i>
    <i name="e_0_energy">   -232.81199012 </i>
   </energy>
  </scstep>
  <scstep>
   <time name="diag">    1.99    1.99</time>
   <time name="diis">    5.30    5.30</time>
   <time name="orth">    0.50    0.50</time>
   <time name="total">    8.21    8.22</time>
   <dipole>
    <v name="dipole">      0.00000000       0.00000000       0.33004391 </v>
    <i name="Tr[quadrupol]"> -11052.93335961 </i>
    <i name="Echarged">      0.00000000 </i>
    <i name="Edipol_quadrupol">      0.00000000 </i>
    <i name="Eion">      0.00000000 </i>
   </dipole>
   <energy>
    <i name="e_fr_energy">   -232.92352028 </i>
    <i name="e_wo_entrp">   -232.69827025 </i>
    <i name="e_0_energy">   -232.81089526 </i>
   </energy>
  </scstep>
  <scstep>
   <time name="diag">    1.98    2.01</time>
   <time name="diis">    5.22    5.27</time>
   <time name="orth">    0.49    0.49</time>
   <time name="total">    8.10    8.18</time>
   <dipole>
    <v name="dipole">      0.00000000       0.00000000       0.34193991 </v>
    <i name="Tr[quadrupol]"> -11052.93509911 </i>
    <i name="Echarged">      0.00000000 </i>
    <i name="Edipol_quadrupol">      0.00000000 </i>
    <i name="Eion">      0.00000000 </i>
   </dipole>
   <energy>
    <i name="e_fr_energy">   -232.92298964 </i>
    <i name="e_wo_entrp">   -232.70328293 </i>
    <i name="e_0_energy">   -232.81313628 </i>
   </energy>
  </scstep>
  <scstep>
   <time name="diag">    2.00    2.00</time>
   <time name="diis">    5.22    5.22</time>
   <time name="orth">    0.49    0.49</time>
   <time name="total">    8.12    8.13</time>
   <dipole>
    <v name="dipole">      0.00000000       0.00000000       0.33545890 </v>
    <i name="Tr[quadrupol]"> -11052.93915271 </i>
    <i name="Echarged">      0.00000000 </i>
    <i name="Edipol_quadrupol">      0.00000000 </i>
    <i name="Eion">      0.00000000 </i>
   </dipole>
   <energy>
    <i name="e_fr_energy">   -232.92266230 </i>
    <i name="e_wo_entrp">   -232.69979061 </i>
    <i name="e_0_energy">   -232.81122645 </i>
   </energy>
  </scstep>
  <scstep>
   <time name="diag">    2.02    2.02</time>
   <time name="diis">    5.14    5.15</time>
   <time name="orth">    0.49    0.49</time>
   <time name="total">    8.08    8.08</time>
   <dipole>
    <v name="dipole">      0.00000000       0.00000000       0.33699274 </v>
    <i name="Tr[quadrupol]"> -11052.94075771 </i>
    <i name="Echarged">      0.00000000 </i>
    <i name="Edipol_quadrupol">      0.00000000 </i>
    <i name="Eion">      0.00000000 </i>
   </dipole>
   <energy>
    <i name="e_fr_energy">   -232.92256696 </i>
    <i name="e_wo_entrp">   -232.70071925 </i>
    <i name="e_0_energy">   -232.81164310 </i>
   </energy>
  </scstep>
  <scstep>
   <time name="diag">    1.99    1.99</time>
   <time name="diis">    5.16    5.16</time>
   <time name="orth">    0.50    0.50</time>
   <time name="total">    8.07    8.07</time>
   <dipole>
    <v name="dipole">      0.00000000       0.00000000       0.33691951 </v>
    <i name="Tr[quadrupol]"> -11052.94180320 </i>
    <i name="Echarged">      0.00000000 </i>
    <i name="Edipol_quadrupol">      0.00000000 </i>
    <i name="Eion">      0.00000000 </i>
   </dipole>
   <energy>
    <i name="e_fr_energy">   -232.92253105 </i>
    <i name="e_wo_entrp">   -232.70061318 </i>
    <i name="e_0_energy">   -232.81157211 </i>
   </energy>
  </scstep>
  <scstep>
   <time name="diag">    1.99    1.99</time>
   <time name="diis">    5.20    5.21</time>
   <time name="orth">    0.49    0.49</time>
   <time name="total">    8.10    8.11</time>
   <dipole>
    <v name="dipole">      0.00000000       0.00000000       0.33706920 </v>
    <i name="Tr[quadrupol]"> -11052.94187760 </i>
    <i name="Echarged">      0.00000000 </i>
    <i name="Edipol_quadrupol">      0.00000000 </i>
    <i name="Eion">      0.00000000 </i>
   </dipole>
   <energy>
    <i name="e_fr_energy">   -232.92252406 </i>
    <i name="e_wo_entrp">   -232.70062944 </i>
    <i name="e_0_energy">   -232.81157675 </i>
   </energy>
  </scstep>
  <scstep>
   <time name="diag">    1.95    2.02</time>
   <time name="diis">    3.57    3.57</time>
   <time name="orth">    0.49    0.49</time>
   <time name="total">    6.44    6.51</time>
   <dipole>
    <v name="dipole">      0.00000000       0.00000000       0.33698425 </v>
    <i name="Tr[quadrupol]"> -11052.94225061 </i>
    <i name="Echarged">      0.00000000 </i>
    <i name="Edipol_quadrupol">      0.00000000 </i>
    <i name="Eion">      0.00000000 </i>
   </dipole>
   <energy>
    <i name="e_fr_energy">   -232.92252269 </i>
    <i name="e_wo_entrp">   -232.70062753 </i>
    <i name="e_0_energy">   -232.81157511 </i>
   </energy>
  </scstep>
  <scstep>
   <time name="diag">    2.01    2.01</time>
   <time name="diis">    3.90    3.94</time>
   <time name="orth">    0.51    0.51</time>
   <time name="total">    6.48    6.53</time>
   <dipole>
    <v name="dipole">      0.00000000       0.00000000       0.33696958 </v>
    <i name="Tr[quadrupol]"> -11052.94257724 </i>
    <i name="Echarged">      0.00000000 </i>
    <i name="Edipol_quadrupol">      0.00000000 </i>
    <i name="Eion">      0.00000000 </i>
   </dipole>
   <energy>
    <i name="alphaZ">    864.60683196 </i>
    <i name="ewald"> 225601.20238073 </i>
    <i name="hartreedc">-270978.77511318 </i>
    <i name="XCdc">   -131.52215207 </i>
    <i name="pawpsdc">  51492.41417543 </i>
    <i name="pawaedc"> -49578.17804624 </i>
    <i name="eentropy">     -0.22192067 </i>
    <i name="bandstr">  -2620.34011836 </i>
    <i name="atom">  45117.89144060 </i>
    <i name="e_fr_energy">   -232.92252179 </i>
    <i name="e_wo_entrp">   -232.70060112 </i>
    <i name="e_0_energy">   -232.81156145 </i>
   </energy>
  </scstep>
  <structure>
   <crystal>
    <varray name="basis" >
     <v>      11.00258152       0.00000000       0.00000000 </v>
     <v>       5.50129076       9.52851510       0.00000000 </v>
     <v>       0.00000000       0.00000000      26.19178509 </v>
    </varray>
    <i name="volume">   2745.90128299 </i>
    <varray name="rec_basis" >
     <v>       0.09088776      -0.05247407       0.00000000 </v>
     <v>       0.00000000       0.10494815       0.00000000 </v>
     <v>       0.00000000       0.00000000       0.03817991 </v>
    </varray>
   </crystal>
   <varray name="positions" >
    <v>       0.08333333       0.08333333       0.38179910 </v>
    <v>       0.17036159       0.65941735       0.47573823 </v>
    <v>       0.33333333       0.58333333       0.38179910 </v>
    <v>       0.92391949       0.15945290       0.47697981 </v>
    <v>       0.66695648       0.41025340       0.47039698 </v>
    <v>       0.83333333       0.33333333       0.38179910 </v>
    <v>       0.08333333       0.33333333       0.38179910 </v>
    <v>       0.58333333       0.83333333       0.38179910 </v>
    <v>       0.49454245       0.49433170       0.56394864 </v>
    <v>       0.91504772       0.65830661       0.47334330 </v>
    <v>       0.50618477       0.23879352       0.56319747 </v>
    <v>       0.08333333       0.83333333       0.38179910 </v>
    <v>       0.75912117       0.49430915       0.55572944 </v>
    <v>       0.00036258       0.70979001       0.56376005 </v>
    <v>       0.41505801       0.16525310       0.47278440 </v>
    <v>       0.33333333       0.08333333       0.38179910 </v>
    <v>       0.16597843       0.17024470       0.51440631 </v>
    <v>       0.24411677       0.97347190       0.60945481 </v>
    <v>       0.25223648       0.74788189       0.56789453 </v>
    <v>       0.33333333       0.33333333       0.38179910 </v>
    <v>       0.16974513       0.91927754       0.48243135 </v>
    <v>       0.31113806       0.22576569       0.64882873 </v>
    <v>       0.33333333       0.83333333       0.38179910 </v>
    <v>       0.42852458       0.04150965       0.56686763 </v>
    <v>       0.19240888       0.14432578       0.66380554 </v>
    <v>       0.98006538       0.44584859       0.63969824 </v>
    <v>       0.02682000       0.05421990       0.63101437 </v>
    <v>       0.43184910       0.31007852       0.63945493 </v>
    <v>       0.80386454       0.32797181       0.61387545 </v>
    <v>       0.13939084       0.69756301       0.62406107 </v>
    <v>       0.67820814       0.81882983       0.60011011 </v>
    <v>       0.58364075       0.60680721       0.60831357 </v>
    <v>       0.17008060       0.41113508       0.47878315 </v>
    <v>       0.82983291       0.63445992       0.61749646 </v>
    <v>       0.58333333       0.08333333       0.38179910 </v>
    <v>       0.91611206       0.90986857       0.47679472 </v>
    <v>       0.83333333       0.83333333       0.38179910 </v>
    <v>       0.58333333       0.33333333       0.38179910 </v>
    <v>       0.41810204       0.41338388       0.47470343 </v>
    <v>       0.08036166       0.42136322       0.57329167 </v>
    <v>       0.66794896       0.66235841       0.47174746 </v>
    <v>       0.58333333       0.58333333       0.38179910 </v>
    <v>       0.27959714       0.50035213       0.62317900 </v>
    <v>       0.75342060       0.23369238       0.56112950 </v>
    <v>       0.66646777       0.91017040       0.47010476 </v>
    <v>       0.99638606       0.25081584       0.63498928 </v>
    <v>       0.41522665       0.91867940       0.47557999 </v>
    <v>       0.50127369       0.77169579       0.56276174 </v>
    <v>       0.92973962       0.40346629       0.47595500 </v>
    <v>       0.83333333       0.08333333       0.38179910 </v>
    <v>       0.67104356       0.15451300       0.47553803 </v>
    <v>       0.73293786       0.94434162       0.56330515 </v>
    <v>       0.83333333       0.58333333       0.38179910 </v>
    <v>       0.97254873       0.98781489       0.56892246 </v>
    <v>       0.08333333       0.58333333       0.38179910 </v>
    <v>       0.41851751       0.66873185       0.47504556 </v>
   </varray>
  </structure>
  <varray name="forces" >
   <v>      -0.02257979       0.02023152      -0.06542359 </v>
   <v>       0.01019460       0.00162105      -0.03232830 </v>
   <v>       0.17845357      -0.19745661      -0.12426190 </v>
   <v>      -0.00434593       0.02481579      -0.05165699 </v>
   <v>      -0.00384490       0.01884162       0.01276793 </v>
   <v>      -0.02885409       0.05583213      -0.34767214 </v>
   <v>      -0.01436434       0.26796426      -0.01818532 </v>
   <v>       0.15923194      -0.24035557      -0.23774432 </v>
   <v>      -0.01515771       0.00149301      -0.00250001 </v>
   <v>      -0.01209655       0.01190219       0.04194947 </v>
   <v>       0.02591801      -0.06225580       0.02649730 </v>
   <v>      -0.45338237       0.13063893      -0.09049573 </v>
   <v>       0.02394213       0.04133906       0.01469445 </v>
   <v>      -0.00623154      -0.02351103       0.01197922 </v>
   <v>      -0.02325236      -0.00733680       0.05025037 </v>
   <v>      -0.09315131       0.00744652      -0.28116931 </v>
   <v>       0.00491915      -0.00933757       0.00275838 </v>
   <v>       0.00502247      -0.01473409       0.04457182 </v>
   <v>       0.03294491       0.00544433      -0.02185003 </v>
   <v>       0.14733335       0.16602018      -0.15449775 </v>
   <v>      -0.01792538       0.01056690      -0.00266677 </v>
   <v>       0.02755563       0.00088992      -0.01906627 </v>
   <v>       0.05770081      -0.07739019      -0.06697962 </v>
   <v>      -0.01097025      -0.01818455       0.03573502 </v>
   <v>      -0.05667739      -0.00581986       0.04067378 </v>
   <v>       0.02485250      -0.02655175      -0.03220655 </v>
   <v>      -0.05540879       0.01650177       0.02645597 </v>
   <v>      -0.05928556      -0.04068628      -0.01269452 </v>
   <v>       0.02717203       0.02241946      -0.02931025 </v>
   <v>       0.02719061      -0.02175331      -0.02928156 </v>
   <v>       0.06713296       0.02692060       0.00332589 </v>
   <v>      -0.04678694       0.00229164       0.01788040 </v>
   <v>      -0.00271066       0.00270977      -0.04321941 </v>
   <v>       0.05308085       0.02421662       0.04824961 </v>
   <v>       0.43334862       0.05460626       0.05748197 </v>
   <v>      -0.00238278       0.00923954      -0.01446096 </v>
   <v>       0.13915727       0.03742422       0.15937440 </v>
   <v>      -0.06394744      -0.23823677       0.14471823 </v>
   <v>       0.00108631      -0.04060269      -0.00101431 </v>
   <v>       0.03029235       0.01827897      -0.03471533 </v>
   <v>      -0.02214231       0.05344796       0.01059901 </v>
   <v>      -0.04981657      -0.05147772       0.06948193 </v>
   <v>       0.02855030      -0.02589185       0.01274507 </v>
   <v>       0.01128762       0.01620193      -0.02739115 </v>
   <v>       0.02213406       0.01691745       0.01665191 </v>
   <v>      -0.02864364      -0.00258814      -0.02220714 </v>
   <v>      -0.02122166       0.00817304       0.01885955 </v>
   <v>       0.01702896      -0.00903667       0.03629281 </v>
   <v>       0.00552837       0.03718584      -0.00869096 </v>
   <v>      -0.34843375      -0.09200159       0.40131652 </v>
   <v>      -0.00428928       0.01015909      -0.00476446 </v>
   <v>      -0.05339711       0.00339555       0.05318850 </v>
   <v>       0.15386522       0.04848132       0.22356041 </v>
   <v>       0.00494499      -0.00582227      -0.00714929 </v>
   <v>      -0.19348471       0.03200594       0.18387181 </v>
   <v>      -0.00508450       0.00540673       0.01767221 </v>
  </varray>
  <energy>
   <i name="e_fr_energy">   -232.92252179 </i>
   <i name="e_wo_entrp">   -232.81156145 </i>
   <i name="e_0_energy">     -0.22192067 </i>
  </energy>
  <time name="totalsc">   94.00   94.29</time>
 </calculation>
 <calculation>
  <scstep>
   <time name="dav">   11.57   11.58</time>
   <time name="total">   11.99   12.00</time>
   <dipole>
    <v name="dipole">      0.00000000       0.00000000       0.33694982 </v>
    <i name="Tr[quadrupol]"> -11052.37082479 </i>
    <i name="Echarged">      0.00000000 </i>
    <i name="Edipol_quadrupol">      0.00000000 </i>
    <i name="Eion">      0.00000000 </i>
   </dipole>
   <energy>
    <i name="alphaZ">    864.60532544 </i>
    <i name="ewald"> 225591.29502776 </i>
    <i name="hartreedc">-270968.73102437 </i>
    <i name="XCdc">   -131.51910951 </i>
    <i name="pawpsdc">  51492.41729998 </i>
    <i name="pawaedc"> -49578.18110218 </i>
    <i name="eentropy">     -0.22210910 </i>
    <i name="bandstr">  -2620.47821609 </i>
    <i name="atom">  45117.89144060 </i>
    <i name="e_fr_energy">   -232.92246749 </i>
    <i name="e_wo_entrp">   -232.70035838 </i>
    <i name="e_0_energy">   -232.81141293 </i>
   </energy>
  </scstep>
  <scstep>
   <time name="diag">    1.99    1.99</time>
   <time name="diis">    5.26    5.26</time>
   <time name="orth">    0.50    0.50</time>
   <time name="total">    8.17    8.18</time>
   <dipole>
    <v name="dipole">      0.00000000       0.00000000       0.33594384 </v>
    <i name="Tr[quadrupol]"> -11052.36400494 </i>
    <i name="Echarged">      0.00000000 </i>
    <i name="Edipol_quadrupol">      0.00000000 </i>
    <i name="Eion">      0.00000000 </i>
   </dipole>
   <energy>
    <i name="e_fr_energy">   -232.92490271 </i>
    <i name="e_wo_entrp">   -232.70235308 </i>
    <i name="e_0_energy">   -232.81362789 </i>
   </energy>
  </scstep>
  <scstep>
   <time name="diag">    2.00    2.00</time>
   <time name="diis">    5.10    5.17</time>
   <time name="orth">    0.49    0.49</time>
   <time name="total">    8.00    8.08</time>
   <dipole>
    <v name="dipole">      0.00000000       0.00000000       0.33750029 </v>
    <i name="Tr[quadrupol]"> -11052.37382739 </i>
    <i name="Echarged">      0.00000000 </i>
[...]
       <r>   -19.1063    15.2068    15.6534 </r>
       <r>   -19.0134     3.5071    15.9791 </r>
       <r>   -18.9206     0.2219    15.9997 </r>
       <r>   -18.8277     0.0030    16.0000 </r>
       <r>   -18.7348     0.0000    16.0000 </r>
       <r>   -18.6420     0.0000    16.0000 </r>
       <r>   -18.5491     0.0000    16.0000 </r>
       <r>   -18.4563     0.0000    16.0000 </r>
       <r>   -18.3634     0.0000    16.0000 </r>
       <r>   -18.2705     0.0000    16.0000 </r>
       <r>   -18.1777     0.0000    16.0000 </r>
       <r>   -18.0848     0.0000    16.0000 </r>
       <r>   -17.9919     0.0000    16.0000 </r>
       <r>   -17.8991     0.0000    16.0000 </r>
       <r>   -17.8062     0.0000    16.0000 </r>
       <r>   -17.7133     0.0000    16.0000 </r>
       <r>   -17.6205     0.0000    16.0000 </r>
       <r>   -17.5276     0.0000    16.0000 </r>
       <r>   -17.4348     0.0000    16.0000 </r>
       <r>   -17.3419     0.0000    16.0000 </r>
       <r>   -17.2490     0.0000    16.0000 </r>
       <r>   -17.1562     0.0000    16.0000 </r>
       <r>   -17.0633     0.0000    16.0000 </r>
       <r>   -16.9704     0.0000    16.0000 </r>
       <r>   -16.8776     0.0000    16.0000 </r>
       <r>   -16.7847     0.0000    16.0000 </r>
       <r>   -16.6918     0.0000    16.0000 </r>
       <r>   -16.5990     0.0000    16.0000 </r>
       <r>   -16.5061     0.0000    16.0000 </r>
       <r>   -16.4133     0.0000    16.0000 </r>
       <r>   -16.3204     0.0000    16.0000 </r>
       <r>   -16.2275     0.0000    16.0000 </r>
       <r>   -16.1347     0.0000    16.0000 </r>
       <r>   -16.0418     0.0000    16.0000 </r>
       <r>   -15.9489     0.0000    16.0000 </r>
       <r>   -15.8561     0.0000    16.0000 </r>
       <r>   -15.7632     0.0000    16.0000 </r>
       <r>   -15.6703     0.0000    16.0000 </r>
       <r>   -15.5775     0.0000    16.0000 </r>
       <r>   -15.4846     0.0000    16.0000 </r>
       <r>   -15.3918     0.0000    16.0000 </r>
       <r>   -15.2989     0.0000    16.0000 </r>
       <r>   -15.2060     0.0000    16.0000 </r>
       <r>   -15.1132     0.0000    16.0000 </r>
       <r>   -15.0203     0.0000    16.0000 </r>
       <r>   -14.9274     0.0000    16.0000 </r>
       <r>   -14.8346     0.0000    16.0000 </r>
       <r>   -14.7417     0.0000    16.0000 </r>
       <r>   -14.6488     0.0000    16.0000 </r>
       <r>   -14.5560     0.0000    16.0000 </r>
       <r>   -14.4631     0.0000    16.0000 </r>
       <r>   -14.3703     0.0000    16.0000 </r>
       <r>   -14.2774     0.0000    16.0000 </r>
       <r>   -14.1845     0.0000    16.0000 </r>
       <r>   -14.0917     0.0000    16.0000 </r>
       <r>   -13.9988     0.0000    16.0000 </r>
       <r>   -13.9059     0.0000    16.0000 </r>
       <r>   -13.8131     0.0000    16.0000 </r>
       <r>   -13.7202     0.0000    16.0000 </r>
       <r>   -13.6273     0.0000    16.0000 </r>
       <r>   -13.5345     0.0000    16.0000 </r>
       <r>   -13.4416     0.0000    16.0000 </r>
       <r>   -13.3487     0.0000    16.0000 </r>
       <r>   -13.2559     0.0000    16.0000 </r>
       <r>   -13.1630     0.0000    16.0000 </r>
       <r>   -13.0702     0.0000    16.0000 </r>
       <r>   -12.9773     0.0000    16.0000 </r>
       <r>   -12.8844     0.0000    16.0000 </r>
       <r>   -12.7916     0.0000    16.0000 </r>
       <r>   -12.6987     0.0000    16.0000 </r>
       <r>   -12.6058     0.0000    16.0000 </r>
       <r>   -12.5130     0.0000    16.0000 </r>
       <r>   -12.4201     0.0000    16.0000 </r>
       <r>   -12.3272     0.0000    16.0000 </r>
       <r>   -12.2344     0.0000    16.0000 </r>
       <r>   -12.1415     0.0000    16.0000 </r>
       <r>   -12.0487     0.0000    16.0000 </r>
       <r>   -11.9558     0.0000    16.0000 </r>
       <r>   -11.8629     0.0000    16.0000 </r>
       <r>   -11.7701     0.0000    16.0000 </r>
       <r>   -11.6772     0.0000    16.0000 </r>
       <r>   -11.5843     0.0000    16.0000 </r>
       <r>   -11.4915     0.0000    16.0000 </r>
       <r>   -11.3986     0.0000    16.0000 </r>
       <r>   -11.3057     0.0000    16.0000 </r>
       <r>   -11.2129     0.0000    16.0000 </r>
       <r>   -11.1200     0.0000    16.0000 </r>
       <r>   -11.0272     0.0000    16.0000 </r>
       <r>   -10.9343     0.0000    16.0000 </r>
       <r>   -10.8414     0.0000    16.0000 </r>
       <r>   -10.7486     0.0000    16.0000 </r>
       <r>   -10.6557     0.0000    16.0000 </r>
       <r>   -10.5628     0.0000    16.0000 </r>
       <r>   -10.4700     0.0000    16.0000 </r>
       <r>   -10.3771     0.0000    16.0000 </r>
       <r>   -10.2842     0.0000    16.0000 </r>
       <r>   -10.1914     0.0000    16.0000 </r>
       <r>   -10.0985     0.0000    16.0000 </r>
       <r>   -10.0057     0.0000    16.0000 </r>
       <r>    -9.9128     0.0000    16.0000 </r>
       <r>    -9.8199     0.0000    16.0000 </r>
       <r>    -9.7271     0.0000    16.0000 </r>
       <r>    -9.6342     0.0000    16.0000 </r>
       <r>    -9.5413     0.0000    16.0000 </r>
       <r>    -9.4485     0.0000    16.0000 </r>
       <r>    -9.3556     0.0000    16.0000 </r>
       <r>    -9.2627     0.0000    16.0000 </r>
       <r>    -9.1699     0.0000    16.0000 </r>
       <r>    -9.0770     0.0031    16.0003 </r>
       <r>    -8.9842     0.1732    16.0164 </r>
       <r>    -8.8913     2.0231    16.2042 </r>
       <r>    -8.7984     5.3993    16.7056 </r>
       <r>    -8.7056     5.2363    17.1919 </r>
       <r>    -8.6127     5.4890    17.7016 </r>
       <r>    -8.5198     2.9336    17.9741 </r>
       <r>    -8.4270     2.2839    18.1861 </r>
       <r>    -8.3341     8.8450    19.0075 </r>
       <r>    -8.2412    12.2105    20.1414 </r>
       <r>    -8.1484     9.6270    21.0354 </r>
       <r>    -8.0555    12.0497    22.1544 </r>
       <r>    -7.9627    13.8859    23.4439 </r>
       <r>    -7.8698    16.8911    25.0125 </r>
       <r>    -7.7769    23.0174    27.1500 </r>
       <r>    -7.6841    24.9853    29.4702 </r>
       <r>    -7.5912    26.1550    31.8990 </r>
       <r>    -7.4983    23.5204    34.0832 </r>
       <r>    -7.4055    23.6880    36.2830 </r>
       <r>    -7.3126    30.0528    39.0738 </r>
       <r>    -7.2197    32.3696    42.0798 </r>
       <r>    -7.1269    36.8643    45.5031 </r>
       <r>    -7.0340    49.2324    50.0750 </r>
       <r>    -6.9412    55.5879    55.2371 </r>
       <r>    -6.8483    53.9102    60.2434 </r>
       <r>    -6.7554    59.3277    65.7528 </r>
       <r>    -6.6626    71.4925    72.3919 </r>
       <r>    -6.5697    73.9026    79.2547 </r>
       <r>    -6.4768    76.0776    86.3196 </r>
       <r>    -6.3840    82.9000    94.0180 </r>
       <r>    -6.2911    85.8203   101.9876 </r>
       <r>    -6.1982    85.8208   109.9572 </r>
       <r>    -6.1054    82.4660   117.6153 </r>
       <r>    -6.0125    77.7156   124.8323 </r>
       <r>    -5.9197    79.9143   132.2534 </r>
       <r>    -5.8268    85.5333   140.1963 </r>
       <r>    -5.7339    82.3423   147.8430 </r>
       <r>    -5.6411    83.6323   155.6094 </r>
       <r>    -5.5482    85.8559   163.5823 </r>
       <r>    -5.4553    83.2681   171.3149 </r>
       <r>    -5.3625    83.1836   179.0396 </r>
       <r>    -5.2696    88.5937   187.2667 </r>
       <r>    -5.1767    91.8809   195.7991 </r>
       <r>    -5.0839    93.2968   204.4630 </r>
       <r>    -4.9910    91.9443   213.0013 </r>
       <r>    -4.8982    89.0485   221.2707 </r>
       <r>    -4.8053    88.3164   229.4721 </r>
       <r>    -4.7124    91.6316   237.9813 </r>
       <r>    -4.6196    94.6246   246.7685 </r>
       <r>    -4.5267    91.7870   255.2922 </r>
       <r>    -4.4338    89.3206   263.5868 </r>
       <r>    -4.3410    92.9853   272.2218 </r>
       <r>    -4.2481    93.3535   280.8909 </r>
       <r>    -4.1552    94.7924   289.6937 </r>
       <r>    -4.0624    97.5313   298.7508 </r>
       <r>    -3.9695    98.8280   307.9284 </r>
       <r>    -3.8767   100.9400   317.3020 </r>
       <r>    -3.7838   102.0597   326.7797 </r>
       <r>    -3.6909   100.3016   336.0940 </r>
       <r>    -3.5981   103.0200   345.6609 </r>
       <r>    -3.5052   103.4823   355.2706 </r>
       <r>    -3.4123    98.4972   364.4174 </r>
       <r>    -3.3195    92.4743   373.0049 </r>
       <r>    -3.2266    91.9334   381.5422 </r>
       <r>    -3.1337    96.5171   390.5051 </r>
       <r>    -3.0409    97.7696   399.5844 </r>
       <r>    -2.9480    94.2671   408.3384 </r>
       <r>    -2.8552    89.7258   416.6706 </r>
       <r>    -2.7623    90.3206   425.0581 </r>
       <r>    -2.6694    92.0302   433.6044 </r>
       <r>    -2.5766    95.9549   442.5151 </r>
       <r>    -2.4837    97.4762   451.5671 </r>
       <r>    -2.3908    98.6927   460.7321 </r>
       <r>    -2.2980   104.5247   470.4387 </r>
       <r>    -2.2051   105.3085   480.2180 </r>
       <r>    -2.1122   101.3899   489.6334 </r>
       <r>    -2.0194    99.1184   498.8379 </r>
       <r>    -1.9265    99.6235   508.0893 </r>
       <r>    -1.8337    96.8579   517.0839 </r>
       <r>    -1.7408    88.9493   525.3441 </r>
       <r>    -1.6479    76.4024   532.4391 </r>
       <r>    -1.5551    65.7050   538.5407 </r>
       <r>    -1.4622    60.7681   544.1838 </r>
       <r>    -1.3693    54.0140   549.1998 </r>
       <r>    -1.2765    48.7396   553.7259 </r>
       <r>    -1.1836    38.7809   557.3273 </r>
       <r>    -1.0907    28.1073   559.9374 </r>
       <r>    -0.9979    22.9626   562.0698 </r>
       <r>    -0.9050    21.6585   564.0811 </r>
       <r>    -0.8122    24.1318   566.3221 </r>
       <r>    -0.7193    26.0177   568.7382 </r>
       <r>    -0.6264    25.1860   571.0770 </r>
       <r>    -0.5336    23.3696   573.2472 </r>
       <r>    -0.4407    21.6284   575.2557 </r>
       <r>    -0.3478    21.6351   577.2648 </r>
       <r>    -0.2550    17.1969   578.8618 </r>
       <r>    -0.1621    10.7836   579.8632 </r>
       <r>    -0.0692     9.6742   580.7616 </r>
       <r>     0.0236    12.0418   581.8798 </r>
       <r>     0.1165    11.7028   582.9666 </r>
       <r>     0.2094    10.9224   583.9809 </r>
       <r>     0.3022    12.0610   585.1009 </r>
       <r>     0.3951    15.3708   586.5283 </r>
       <r>     0.4879    16.9133   588.0989 </r>
       <r>     0.5808    16.5147   589.6325 </r>
       <r>     0.6737    17.8437   591.2896 </r>
       <r>     0.7665    21.3345   593.2708 </r>
       <r>     0.8594    22.2750   595.3393 </r>
       <r>     0.9523    18.0914   597.0194 </r>
       <r>     1.0451    13.3405   598.2582 </r>
       <r>     1.1380    13.6645   599.5272 </r>
       <r>     1.2309    10.9487   600.5439 </r>
       <r>     1.3237     9.2628   601.4041 </r>
       <r>     1.4166    11.4048   602.4632 </r>
       <r>     1.5094    12.5335   603.6271 </r>
       <r>     1.6023    14.1454   604.9407 </r>
       <r>     1.6952    15.9295   606.4199 </r>
       <r>     1.7880    19.3129   608.2134 </r>
       <r>     1.8809    19.2490   610.0009 </r>
       <r>     1.9738    17.2547   611.6033 </r>
       <r>     2.0666    16.6857   613.1528 </r>
       <r>     2.1595    16.6121   614.6954 </r>
       <r>     2.2524    15.8025   616.1629 </r>
       <r>     2.3452    18.0280   617.8370 </r>
       <r>     2.4381    17.1506   619.4297 </r>
       <r>     2.5309    12.6603   620.6054 </r>
       <r>     2.6238    10.9957   621.6265 </r>
       <r>     2.7167    13.7423   622.9027 </r>
       <r>     2.8095    15.8420   624.3738 </r>
       <r>     2.9024    14.1915   625.6917 </r>
       <r>     2.9953    13.6370   626.9581 </r>
       <r>     3.0881    12.6512   628.1329 </r>
       <r>     3.1810    14.1949   629.4511 </r>
       <r>     3.2739    15.1611   630.8590 </r>
       <r>     3.3667    15.9801   632.3430 </r>
       <r>     3.4596    18.3111   634.0434 </r>
       <r>     3.5524    19.0817   635.8154 </r>
       <r>     3.6453    19.0022   637.5800 </r>
       <r>     3.7382    19.8872   639.4268 </r>
       <r>     3.8310    16.7197   640.9795 </r>
       <r>     3.9239    15.1182   642.3834 </r>
       <r>     4.0168    18.3174   644.0844 </r>
       <r>     4.1096    20.2420   645.9642 </r>
       <r>     4.2025    20.4401   647.8623 </r>
       <r>     4.2954    19.3616   649.6603 </r>
       <r>     4.3882    22.2644   651.7279 </r>
       <r>     4.4811    24.6028   654.0126 </r>
       <r>     4.5739    24.3351   656.2724 </r>
       <r>     4.6668    23.0057   658.4088 </r>
       <r>     4.7597    26.4182   660.8621 </r>
       <r>     4.8525    30.2277   663.6691 </r>
       <r>     4.9454    29.2759   666.3878 </r>
       <r>     5.0383    28.1486   669.0018 </r>
       <r>     5.1311    21.2095   670.9714 </r>
       <r>     5.2240     9.2147   671.8271 </r>
       <r>     5.3169     1.7572   671.9903 </r>
       <r>     5.4097     0.1033   671.9999 </r>
       <r>     5.5026     0.0015   672.0000 </r>
       <r>     5.5954     0.0000   672.0000 </r>
       <r>     5.6883     0.0000   672.0000 </r>
       <r>     5.7812     0.0000   672.0000 </r>
       <r>     5.8740     0.0000   672.0000 </r>
       <r>     5.9669     0.0000   672.0000 </r>
       <r>     6.0598     0.0000   672.0000 </r>
       <r>     6.1526     0.0000   672.0000 </r>
       <r>     6.2455     0.0000   672.0000 </r>
       <r>     6.3384     0.0000   672.0000 </r>
       <r>     6.4312     0.0000   672.0000 </r>
      </set>
     </set>
    </array>
   </total>
  </dos>
 </calculation>
 <structure name="finalpos" >
  <crystal>
   <varray name="basis" >
    <v>      11.00258152       0.00000000       0.00000000 </v>
    <v>       5.50129076       9.52851510       0.00000000 </v>
    <v>       0.00000000       0.00000000      26.19178509 </v>
   </varray>
   <i name="volume">   2745.90128299 </i>
   <varray name="rec_basis" >
    <v>       0.09088776      -0.05247407       0.00000000 </v>
    <v>       0.00000000       0.10494815       0.00000000 </v>
    <v>       0.00000000       0.00000000       0.03817991 </v>
   </varray>
  </crystal>
  <varray name="positions" >
   <v>       0.08333333       0.08333333       0.38179910 </v>
   <v>       0.16962166       0.65780965       0.47455212 </v>
   <v>       0.33333333       0.58333333       0.38179910 </v>
   <v>       0.92369378       0.16183994       0.47569295 </v>
   <v>       0.66563983       0.41438724       0.47152619 </v>
   <v>       0.83333333       0.33333333       0.38179910 </v>
   <v>       0.08333333       0.33333333       0.38179910 </v>
   <v>       0.58333333       0.83333333       0.38179910 </v>
   <v>       0.48572042       0.49598716       0.56346730 </v>
   <v>       0.91172764       0.66007388       0.47213752 </v>
   <v>       0.51282416       0.23167311       0.56411238 </v>
   <v>       0.08333333       0.83333333       0.38179910 </v>
   <v>       0.75270332       0.51395181       0.55962187 </v>
   <v>       0.00338256       0.70407316       0.56150483 </v>
   <v>       0.41313660       0.16401071       0.47504682 </v>
   <v>       0.33333333       0.08333333       0.38179910 </v>
   <v>       0.16888150       0.16813151       0.51536278 </v>
   <v>       0.24544264       0.97593861       0.60766016 </v>
   <v>       0.23560510       0.75059236       0.57005393 </v>
   <v>       0.33333333       0.33333333       0.38179910 </v>
   <v>       0.16829333       0.91850119       0.48390218 </v>
   <v>       0.31643874       0.21164223       0.64942497 </v>
   <v>       0.33333333       0.83333333       0.38179910 </v>
   <v>       0.45567042       0.01641444       0.56877479 </v>
   <v>       0.18913401       0.14057953       0.66472280 </v>
   <v>       0.98252924       0.44289270       0.63904382 </v>
   <v>       0.02139203       0.05801680       0.63066289 </v>
   <v>       0.44149163       0.29117630       0.64040781 </v>
   <v>       0.80157186       0.33817218       0.61336240 </v>
   <v>       0.14249628       0.67501908       0.62469162 </v>
   <v>       0.72492152       0.83914153       0.61620588 </v>
   <v>       0.56679438       0.61265517       0.60844551 </v>
   <v>       0.16810362       0.41007301       0.47697937 </v>
   <v>       0.84500081       0.64278522       0.62409285 </v>
   <v>       0.58333333       0.08333333       0.38179910 </v>
   <v>       0.91625674       0.91089787       0.47599207 </v>
   <v>       0.83333333       0.83333333       0.38179910 </v>
   <v>       0.58333333       0.33333333       0.38179910 </v>
   <v>       0.41852050       0.41000101       0.47483781 </v>
   <v>       0.07537922       0.42076753       0.57110269 </v>
   <v>       0.66326288       0.66705048       0.47225187 </v>
   <v>       0.58333333       0.58333333       0.38179910 </v>
   <v>       0.28770378       0.48049959       0.62440467 </v>
   <v>       0.75187666       0.24513201       0.55991783 </v>
   <v>       0.66406242       0.91279519       0.47218667 </v>
   <v>       0.99469135       0.25131461       0.63500346 </v>
   <v>       0.41122700       0.91919581       0.47505628 </v>
   <v>       0.47870442       0.76571380       0.55902007 </v>
   <v>       0.92490074       0.40797026       0.47854400 </v>
   <v>       0.83333333       0.08333333       0.38179910 </v>
   <v>       0.67079568       0.15615917       0.47574373 </v>
   <v>       0.74351169       0.95326275       0.56369674 </v>
   <v>       0.83333333       0.58333333       0.38179910 </v>
   <v>       0.96994982       0.99534015       0.56791135 </v>
   <v>       0.08333333       0.58333333       0.38179910 </v>
   <v>       0.41540934       0.66656866       0.47262373 </v>
  </varray>
  <varray name="selective"  type="logical" >
   <v type="logical" >  F  F  F </v>
   <v type="logical" >  T  T  T </v>
   <v type="logical" >  F  F  F </v>
   <v type="logical" >  T  T  T </v>
   <v type="logical" >  T  T  T </v>
   <v type="logical" >  F  F  F </v>
   <v type="logical" >  F  F  F </v>
   <v type="logical" >  F  F  F </v>
   <v type="logical" >  T  T  T </v>
   <v type="logical" >  T  T  T </v>
   <v type="logical" >  T  T  T </v>
   <v type="logical" >  F  F  F </v>
   <v type="logical" >  T  T  T </v>
   <v type="logical" >  T  T  T </v>
   <v type="logical" >  T  T  T </v>
   <v type="logical" >  F  F  F </v>
   <v type="logical" >  T  T  T </v>
   <v type="logical" >  T  T  T </v>
   <v type="logical" >  T  T  T </v>
   <v type="logical" >  F  F  F </v>
   <v type="logical" >  T  T  T </v>
   <v type="logical" >  T  T  T </v>
   <v type="logical" >  F  F  F </v>
   <v type="logical" >  T  T  T </v>
   <v type="logical" >  T  T  T </v>
   <v type="logical" >  T  T  T </v>
   <v type="logical" >  T  T  T </v>
   <v type="logical" >  T  T  T </v>
   <v type="logical" >  T  T  T </v>
   <v type="logical" >  T  T  T </v>
   <v type="logical" >  T  T  T </v>
   <v type="logical" >  T  T  T </v>
   <v type="logical" >  T  T  T </v>
   <v type="logical" >  T  T  T </v>
   <v type="logical" >  F  F  F </v>
   <v type="logical" >  T  T  T </v>
   <v type="logical" >  F  F  F </v>
   <v type="logical" >  F  F  F </v>
   <v type="logical" >  T  T  T </v>
   <v type="logical" >  T  T  T </v>
   <v type="logical" >  T  T  T </v>
   <v type="logical" >  F  F  F </v>
   <v type="logical" >  T  T  T </v>
   <v type="logical" >  T  T  T </v>
   <v type="logical" >  T  T  T </v>
   <v type="logical" >  T  T  T </v>
   <v type="logical" >  T  T  T </v>
   <v type="logical" >  T  T  T </v>
   <v type="logical" >  T  T  T </v>
   <v type="logical" >  F  F  F </v>
   <v type="logical" >  T  T  T </v>
   <v type="logical" >  T  T  T </v>
   <v type="logical" >  F  F  F </v>
   <v type="logical" >  T  T  T </v>
   <v type="logical" >  F  F  F </v>
   <v type="logical" >  T  T  T </v>
  </varray>
  <nose>
   <v>      -3.00000000       0.00000000       0.00010000       0.00010000 </v>
  </nose>
 </structure>
</modeling>
