unknown system                          
           1
    11.002582    0.000000    0.000000
     5.501291    9.528515    0.000000
     0.000000    0.000000   26.191785
   Au   O    Pd
  24   8  24
Direct configuration=     1
   0.08333333  0.08333333  0.38179910
   0.17031247  0.65939574  0.47579385
   0.33333333  0.58333333  0.38179910
   0.92400327  0.15934388  0.47705907
   0.66700847  0.41021703  0.47037871
   0.83333333  0.33333333  0.38179910
   0.08333333  0.33333333  0.38179910
   0.58333333  0.83333333  0.38179910
   0.49460777  0.49421502  0.56394138
   0.91511919  0.65827772  0.47327824
   0.50598446  0.23911473  0.56317712
   0.08333333  0.83333333  0.38179910
   0.75919588  0.49411280  0.55570621
   0.00035782  0.70991696  0.56373490
   0.41513234  0.16526364  0.47269789
   0.33333333  0.08333333  0.38179910
   0.16591945  0.17029072  0.51440189
   0.24416138  0.97342064  0.60936756
   0.25208738  0.74789760  0.56792752
   0.33333333  0.33333333  0.38179910
   0.16979423  0.91926252  0.48243423
   0.31132154  0.22604940  0.64882899
   0.33333333  0.83333333  0.38179910
   0.42851184  0.04147010  0.56681616
   0.19248893  0.14414488  0.66379529
   0.97993142  0.44590103  0.63971705
   0.02704789  0.05400164  0.63098495
   0.43184551  0.31013765  0.63947526
   0.80390861  0.32780236  0.61390479
   0.13922814  0.69771162  0.62410700
   0.67797270  0.81867267  0.60015163
   0.58387285  0.60666983  0.60835525
   0.17010549  0.41113427  0.47883975
   0.82984410  0.63420795  0.61742619
   0.58333333  0.08333333  0.38179910
   0.91615718  0.90981861  0.47682684
   0.83333333  0.83333333  0.38179910
   0.58333333  0.33333333  0.38179910
   0.41800551  0.41356498  0.47471244
   0.08024529  0.42130166  0.57336475
   0.66813771  0.66213089  0.47173390
   0.58333333  0.58333333  0.38179910
   0.27951988  0.50032731  0.62315588
   0.75339859  0.23368215  0.56117394
   0.66639291  0.91012347  0.47008420
   0.99616827  0.25133620  0.63499816
   0.41534018  0.91863374  0.47557506
   0.50101260  0.77203687  0.56264960
   0.92976281  0.40330795  0.47597215
   0.83333333  0.08333333  0.38179910
   0.67108416  0.15445559  0.47554403
   0.73319823  0.94440842  0.56319232
   0.83333333  0.58333333  0.38179910
   0.97252422  0.98781999  0.56892611
   0.08333333  0.58333333  0.38179910
   0.41855197  0.66869700  0.47501288
Direct configuration=     2
   0.08333333  0.08333333  0.38179910
   0.17036159  0.65941735  0.47573823
   0.33333333  0.58333333  0.38179910
   0.92391949  0.15945290  0.47697981
   0.66695648  0.41025340  0.47039698
   0.83333333  0.33333333  0.38179910
   0.08333333  0.33333333  0.38179910
   0.58333333  0.83333333  0.38179910
   0.49454245  0.49433170  0.56394864
   0.91504772  0.65830661  0.47334330
   0.50618477  0.23879352  0.56319747
   0.08333333  0.83333333  0.38179910
   0.75912117  0.49430915  0.55572944
   0.00036258  0.70979001  0.56376005
   0.41505801  0.16525310  0.47278440
   0.33333333  0.08333333  0.38179910
   0.16597843  0.17024470  0.51440631
   0.24411677  0.97347190  0.60945481
   0.25223648  0.74788189  0.56789453
   0.33333333  0.33333333  0.38179910
   0.16974513  0.91927754  0.48243135
   0.31113806  0.22576569  0.64882873
   0.33333333  0.83333333  0.38179910
   0.42852458  0.04150965  0.56686763
   0.19240888  0.14432578  0.66380554
   0.98006538  0.44584859  0.63969824
   0.02682000  0.05421990  0.63101437
   0.43184910  0.31007852  0.63945493
   0.80386454  0.32797181  0.61387545
   0.13939084  0.69756301  0.62406107
   0.67820814  0.81882983  0.60011011
   0.58364075  0.60680721  0.60831357
   0.17008060  0.41113508  0.47878315
   0.82983291  0.63445992  0.61749646
   0.58333333  0.08333333  0.38179910
   0.91611206  0.90986857  0.47679472
   0.83333333  0.83333333  0.38179910
   0.58333333  0.33333333  0.38179910
   0.41810204  0.41338388  0.47470343
   0.08036166  0.42136322  0.57329167
   0.66794896  0.66235841  0.47174746
   0.58333333  0.58333333  0.38179910
   0.27959714  0.50035213  0.62317900
   0.75342060  0.23369238  0.56112950
   0.66646777  0.91017040  0.47010476
   0.99638606  0.25081584  0.63498928
   0.41522665  0.91867940  0.47557999
   0.50127369  0.77169579  0.56276174
   0.92973962  0.40346629  0.47595500
   0.83333333  0.08333333  0.38179910
   0.67104356  0.15451300  0.47553803
   0.73293786  0.94434162  0.56330515
   0.83333333  0.58333333  0.38179910
   0.97254873  0.98781489  0.56892246
   0.08333333  0.58333333  0.38179910
   0.41851751  0.66873185  0.47504556
Direct configuration=     3
   0.08333333  0.08333333  0.38179910
   0.17040283  0.65943549  0.47569153
   0.33333333  0.58333333  0.38179910
   0.92384914  0.15954444  0.47691325
   0.66691282  0.41028394  0.47041232
   0.83333333  0.33333333  0.38179910
   0.08333333  0.33333333  0.38179910
   0.58333333  0.83333333  0.38179910
   0.49448760  0.49442968  0.56395474
   0.91498770  0.65833087  0.47339794
   0.50635296  0.23852382  0.56321456
   0.08333333  0.83333333  0.38179910
   0.75905844  0.49447401  0.55574895
   0.00036657  0.70968342  0.56378116
   0.41499560  0.16524424  0.47285703
   0.33333333  0.08333333  0.38179910
   0.16602796  0.17020605  0.51441002
   0.24407930  0.97351495  0.60952807
   0.25236168  0.74786870  0.56786683
   0.33333333  0.33333333  0.38179910
   0.16970390  0.91929016  0.48242893
   0.31098401  0.22552748  0.64882851
   0.33333333  0.83333333  0.38179910
   0.42853528  0.04154285  0.56691085
   0.19234168  0.14447768  0.66381415
   0.98017785  0.44580456  0.63968245
   0.02662866  0.05440317  0.63103908
   0.43185211  0.31002887  0.63943786
   0.80382754  0.32811410  0.61385081
   0.13952745  0.69743824  0.62402250
   0.67840582  0.81896179  0.60007526
   0.58344586  0.60692257  0.60827857
   0.17005969  0.41113575  0.47873562
   0.82982351  0.63467149  0.61755547
   0.58333333  0.08333333  0.38179910
   0.91607418  0.90991052  0.47676776
   0.83333333  0.83333333  0.38179910
   0.58333333  0.33333333  0.38179910
   0.41818309  0.41323182  0.47469587
   0.08045937  0.42141491  0.57323031
   0.66779047  0.66254945  0.47175884
   0.58333333  0.58333333  0.38179910
   0.27966202  0.50037296  0.62319842
   0.75343907  0.23370097  0.56109219
   0.66653063  0.91020981  0.47012201
   0.99656892  0.25037892  0.63498182
   0.41513132  0.91871774  0.47558413
   0.50149291  0.77140941  0.56285590
   0.92972014  0.40359925  0.47594059
   0.83333333  0.08333333  0.38179910
   0.67100947  0.15456120  0.47553299
   0.73271924  0.94428554  0.56339990
   0.83333333  0.58333333  0.38179910
   0.97256932  0.98781062  0.56891940
   0.08333333  0.58333333  0.38179910
   0.41848858  0.66876111  0.47507300
Direct configuration=     4
   0.08333333  0.08333333  0.38179910
   0.17044135  0.65944739  0.47563191
   0.33333333  0.58333333  0.38179910
   0.92376559  0.15967272  0.47681674
   0.66684809  0.41038060  0.47043557
   0.83333333  0.33333333  0.38179910
   0.08333333  0.33333333  0.38179910
   0.58333333  0.83333333  0.38179910
   0.49441777  0.49442897  0.56394992
   0.91489784  0.65839164  0.47347467
   0.50662973  0.23820972  0.56326376
   0.08333333  0.83333333  0.38179910
   0.75906644  0.49467279  0.55577553
   0.00039726  0.70956612  0.56380262
   0.41491277  0.16521088  0.47294847
   0.33333333  0.08333333  0.38179910
   0.16607098  0.17015947  0.51441516
   0.24414078  0.97343492  0.60961100
   0.25249067  0.74789998  0.56782788
   0.33333333  0.33333333  0.38179910
   0.16959366  0.91934657  0.48242433
   0.31112029  0.22554771  0.64879573
   0.33333333  0.83333333  0.38179910
   0.42852762  0.04144335  0.56697705
   0.19210129  0.14442863  0.66389250
   0.98035162  0.44566969  0.63962183
   0.02634600  0.05446881  0.63108746
   0.43168854  0.30981540  0.63941493
   0.80389574  0.32822020  0.61379610
   0.13969629  0.69733724  0.62396864
   0.67862580  0.81908915  0.60008560
   0.58323993  0.60692456  0.60831688
   0.17003950  0.41115219  0.47865309
   0.83001069  0.63477857  0.61764647
   0.58333333  0.08333333  0.38179910
   0.91603562  0.90996331  0.47674167
   0.83333333  0.83333333  0.38179910
   0.58333333  0.33333333  0.38179910
   0.41828885  0.41302974  0.47469293
   0.08054530  0.42150904  0.57316531
   0.66756203  0.66281557  0.47177659
   0.58333333  0.58333333  0.38179910
   0.27985482  0.50023410  0.62322050
   0.75345127  0.23379287  0.56104465
   0.66658467  0.91029675  0.47015328
   0.99644643  0.25038291  0.63494060
   0.41502044  0.91876002  0.47561961
   0.50158551  0.77137976  0.56291559
   0.92964806  0.40379369  0.47592578
   0.83333333  0.08333333  0.38179910
   0.67096523  0.15461317  0.47552201
   0.73248071  0.94431313  0.56349528
   0.83333333  0.58333333  0.38179910
   0.97260770  0.98778389  0.56890579
   0.08333333  0.58333333  0.38179910
   0.41845322  0.66879103  0.47510582
Direct configuration=     5
   0.08333333  0.08333333  0.38179910
   0.17049296  0.65946333  0.47555204
   0.33333333  0.58333333  0.38179910
   0.92365366  0.15984456  0.47668745
   0.66676138  0.41051007  0.47046673
   0.83333333  0.33333333  0.38179910
   0.08333333  0.33333333  0.38179910
   0.58333333  0.83333333  0.38179910
   0.49432422  0.49442802  0.56394346
   0.91477747  0.65847305  0.47357745
   0.50700049  0.23778894  0.56332967
   0.08333333  0.83333333  0.38179910
   0.75907714  0.49493908  0.55581114
   0.00043837  0.70940899  0.56383136
   0.41480180  0.16516618  0.47307096
   0.33333333  0.08333333  0.38179910
   0.16612860  0.17009707  0.51442206
   0.24422314  0.97332771  0.60972210
   0.25266346  0.74794189  0.56777570
   0.33333333  0.33333333  0.38179910
   0.16944599  0.91942213  0.48241816
   0.31130286  0.22557482  0.64875183
   0.33333333  0.83333333  0.38179910
   0.42851735  0.04131006  0.56706573
   0.19177927  0.14436292  0.66399746
   0.98058441  0.44548901  0.63954062
   0.02596736  0.05455676  0.63115228
   0.43146942  0.30952944  0.63938421
   0.80398709  0.32836233  0.61372281
   0.13992246  0.69720194  0.62389649
   0.67892050  0.81925976  0.60009946
   0.58296407  0.60692721  0.60836820
   0.17001246  0.41117422  0.47854252
   0.83026143  0.63492200  0.61776838
   0.58333333  0.08333333  0.38179910
   0.91598397  0.91003403  0.47670672
   0.83333333  0.83333333  0.38179910
   0.58333333  0.33333333  0.38179910
   0.41843053  0.41275903  0.47468900
   0.08066042  0.42163514  0.57307822
   0.66725602  0.66317207  0.47180037
   0.58333333  0.58333333  0.38179910
   0.28011310  0.50004809  0.62325007
   0.75346760  0.23391599  0.56098097
   0.66665706  0.91041322  0.47019518
   0.99628234  0.25038825  0.63488537
   0.41487191  0.91881667  0.47566713
   0.50170955  0.77134004  0.56299555
   0.92955150  0.40405417  0.47590593
   0.83333333  0.08333333  0.38179910
   0.67090597  0.15468279  0.47550730
   0.73216118  0.94435009  0.56362306
   0.83333333  0.58333333  0.38179910
   0.97265911  0.98774809  0.56888755
   0.08333333  0.58333333  0.38179910
   0.41840586  0.66883111  0.47514979
Direct configuration=     6
   0.08333333  0.08333333  0.38179910
   0.17050356  0.65945886  0.47550525
   0.33333333  0.58333333  0.38179910
   0.92358005  0.15997927  0.47659556
   0.66669597  0.41067349  0.47049028
   0.83333333  0.33333333  0.38179910
   0.08333333  0.33333333  0.38179910
   0.58333333  0.83333333  0.38179910
   0.49428418  0.49430529  0.56393051
   0.91467737  0.65856325  0.47364644
   0.50734905  0.23749696  0.56337691
   0.08333333  0.83333333  0.38179910
   0.75909033  0.49518412  0.55584253
   0.00051131  0.70935683  0.56384530
   0.41473849  0.16510869  0.47314594
   0.33333333  0.08333333  0.38179910
   0.16611118  0.17008828  0.51442558
   0.24426262  0.97323565  0.60983069
   0.25273870  0.74800198  0.56773963
   0.33333333  0.33333333  0.38179910
   0.16927997  0.91952118  0.48240945
   0.31105358  0.22540732  0.64877321
   0.33333333  0.83333333  0.38179910
   0.42847617  0.04113435  0.56714539
   0.19168317  0.14435745  0.66405759
   0.98077852  0.44531820  0.63946187
   0.02566802  0.05452887  0.63119445
   0.43152738  0.30934339  0.63936623
   0.80399583  0.32849511  0.61363303
   0.14014692  0.69710287  0.62383865
   0.67912706  0.81924611  0.60019388
   0.58280123  0.60683179  0.60844793
   0.16999814  0.41120621  0.47844279
   0.83055475  0.63492427  0.61785495
   0.58333333  0.08333333  0.38179910
   0.91596904  0.91007708  0.47669357
   0.83333333  0.83333333  0.38179910
   0.58333333  0.33333333  0.38179910
   0.41849919  0.41260869  0.47469281
   0.08071233  0.42173080  0.57301593
   0.66703660  0.66342972  0.47182227
   0.58333333  0.58333333  0.38179910
   0.28027283  0.49990635  0.62325489
   0.75350573  0.23405081  0.56092425
   0.66665987  0.91052948  0.47022802
   0.99619823  0.25055691  0.63486170
   0.41479046  0.91884503  0.47571707
   0.50167144  0.77148461  0.56302021
   0.92944005  0.40423984  0.47589821
   0.83333333  0.08333333  0.38179910
   0.67086456  0.15472903  0.47549451
   0.73204317  0.94449823  0.56367346
   0.83333333  0.58333333  0.38179910
   0.97269509  0.98772084  0.56886817
   0.08333333  0.58333333  0.38179910
   0.41836516  0.66885160  0.47517430
Direct configuration=     7
   0.08333333  0.08333333  0.38179910
   0.17052318  0.65945061  0.47541865
   0.33333333  0.58333333  0.38179910
   0.92344383  0.16022854  0.47642553
   0.66657492  0.41097591  0.47053386
   0.83333333  0.33333333  0.38179910
   0.08333333  0.33333333  0.38179910
   0.58333333  0.83333333  0.38179910
   0.49421008  0.49407818  0.56390654
   0.91449213  0.65873018  0.47377411
   0.50799408  0.23695664  0.56346432
   0.08333333  0.83333333  0.38179910
   0.75911474  0.49563757  0.55590062
   0.00064630  0.70926030  0.56387109
   0.41462133  0.16500229  0.47328469
   0.33333333  0.08333333  0.38179910
   0.16607893  0.17007203  0.51443208
   0.24433566  0.97306527  0.61003165
   0.25287794  0.74811319  0.56767289
   0.33333333  0.33333333  0.38179910
   0.16897273  0.91970448  0.48239331
   0.31059228  0.22509736  0.64881277
   0.33333333  0.83333333  0.38179910
   0.42839995  0.04080919  0.56729280
   0.19150531  0.14434732  0.66416887
   0.98113773  0.44500210  0.63931614
   0.02511407  0.05447726  0.63127250
   0.43163464  0.30899910  0.63933296
   0.80401200  0.32874082  0.61346687
   0.14056230  0.69691954  0.62373163
   0.67950931  0.81922083  0.60036861
   0.58249988  0.60665521  0.60859546
   0.16997164  0.41126542  0.47825824
   0.83109753  0.63492845  0.61801516
   0.58333333  0.08333333  0.38179910
   0.91594143  0.91015674  0.47666924
   0.83333333  0.83333333  0.38179910
   0.58333333  0.33333333  0.38179910
   0.41862626  0.41233049  0.47469986
   0.08080839  0.42190782  0.57290065
   0.66663054  0.66390651  0.47186279
   0.58333333  0.58333333  0.38179910
   0.28056844  0.49964407  0.62326380
   0.75357629  0.23430032  0.56081929
   0.66666508  0.91074463  0.47028880
   0.99604259  0.25086903  0.63481788
   0.41463975  0.91889752  0.47580949
   0.50160092  0.77175215  0.56306584
   0.92923380  0.40458344  0.47588394
   0.83333333  0.08333333  0.38179910
   0.67078794  0.15481461  0.47547084
   0.73182478  0.94477239  0.56376671
   0.83333333  0.58333333  0.38179910
   0.97276166  0.98767042  0.56883229
   0.08333333  0.58333333  0.38179910
   0.41828986  0.66888952  0.47521966
Direct configuration=     8
   0.08333333  0.08333333  0.38179910
   0.17053107  0.65944729  0.47538383
   0.33333333  0.58333333  0.38179910
   0.92338906  0.16032876  0.47635717
   0.66652625  0.41109750  0.47055138
   0.83333333  0.33333333  0.38179910
   0.08333333  0.33333333  0.38179910
   0.58333333  0.83333333  0.38179910
   0.49418029  0.49398688  0.56389691
   0.91441765  0.65879729  0.47382544
   0.50825341  0.23673942  0.56349947
   0.08333333  0.83333333  0.38179910
   0.75912456  0.49581988  0.55592398
   0.00070057  0.70922149  0.56388146
   0.41457423  0.16495951  0.47334047
   0.33333333  0.08333333  0.38179910
   0.16606597  0.17006549  0.51443470
   0.24436503  0.97299677  0.61011244
   0.25293392  0.74815789  0.56764606
   0.33333333  0.33333333  0.38179910
   0.16884921  0.91977817  0.48238683
   0.31040682  0.22497275  0.64882867
   0.33333333  0.83333333  0.38179910
   0.42836931  0.04067846  0.56735207
   0.19143381  0.14434325  0.66421361
   0.98128215  0.44487502  0.63925755
   0.02489137  0.05445651  0.63130388
   0.43167776  0.30886068  0.63931959
   0.80401850  0.32883960  0.61340007
   0.14072929  0.69684584  0.62368860
   0.67966299  0.81921067  0.60043886
   0.58237872  0.60658422  0.60865478
   0.16996099  0.41128923  0.47818404
   0.83131575  0.63493014  0.61807957
   0.58333333  0.08333333  0.38179910
   0.91593033  0.91018876  0.47665946
   0.83333333  0.83333333  0.38179910
   0.58333333  0.33333333  0.38179910
   0.41867735  0.41221864  0.47470269
   0.08084702  0.42197899  0.57285431
   0.66646729  0.66409820  0.47187908
   0.58333333  0.58333333  0.38179910
   0.28068729  0.49953862  0.62326738
   0.75360466  0.23440063  0.56077709
   0.66666717  0.91083112  0.47031324
   0.99598001  0.25099451  0.63480027
   0.41457916  0.91891863  0.47584664
   0.50157256  0.77185971  0.56308418
   0.92915089  0.40472158  0.47587820
   0.83333333  0.08333333  0.38179910
   0.67075713  0.15484902  0.47546132
   0.73173697  0.94488260  0.56380420
   0.83333333  0.58333333  0.38179910
   0.97278843  0.98765015  0.56881786
   0.08333333  0.58333333  0.38179910
   0.41825958  0.66890477  0.47523790
Direct configuration=     9
   0.08333333  0.08333333  0.38179910
   0.17051803  0.65942847  0.47535152
   0.33333333  0.58333333  0.38179910
   0.92330283  0.16048595  0.47627563
   0.66645613  0.41132215  0.47057316
   0.83333333  0.33333333  0.38179910
   0.08333333  0.33333333  0.38179910
   0.58333333  0.83333333  0.38179910
   0.49417911  0.49383719  0.56388842
   0.91430590  0.65891705  0.47387915
   0.50861837  0.23639848  0.56356107
   0.08333333  0.83333333  0.38179910
   0.75903057  0.49619055  0.55596906
   0.00081012  0.70926178  0.56388518
   0.41452606  0.16489860  0.47340995
   0.33333333  0.08333333  0.38179910
   0.16597731  0.17011556  0.51443667
   0.24426727  0.97291639  0.61026345
   0.25299027  0.74822877  0.56760871
   0.33333333  0.33333333  0.38179910
   0.16868753  0.91988553  0.48237100
   0.31030280  0.22492781  0.64885384
   0.33333333  0.83333333  0.38179910
   0.42830277  0.04058676  0.56744557
   0.19117478  0.14430287  0.66428836
   0.98151646  0.44472845  0.63919791
   0.02461335  0.05450488  0.63133478
   0.43168544  0.30855258  0.63931566
   0.80398764  0.32905345  0.61329417
   0.14102670  0.69671935  0.62363398
   0.67992519  0.81909921  0.60060182
   0.58218390  0.60653488  0.60868955
   0.16992772  0.41133123  0.47807524
   0.83158281  0.63492714  0.61814961
   0.58333333  0.08333333  0.38179910
   0.91592998  0.91022112  0.47665714
   0.83333333  0.83333333  0.38179910
   0.58333333  0.33333333  0.38179910
   0.41870911  0.41211487  0.47471020
   0.08091943  0.42205475  0.57275614
   0.66628428  0.66433105  0.47190184
   0.58333333  0.58333333  0.38179910
   0.28084127  0.49936067  0.62325437
   0.75372575  0.23450498  0.56068872
   0.66660499  0.91096619  0.47034493
   0.99602824  0.25091385  0.63478876
   0.41449482  0.91895244  0.47589196
   0.50157152  0.77180974  0.56314542
   0.92901797  0.40488970  0.47588100
   0.83333333  0.08333333  0.38179910
   0.67071728  0.15491071  0.47544703
   0.73173880  0.94506209  0.56383059
   0.83333333  0.58333333  0.38179910
   0.97279372  0.98767171  0.56879784
   0.08333333  0.58333333  0.38179910
   0.41818399  0.66894180  0.47525369
Direct configuration=    10
   0.08333333  0.08333333  0.38179910
   0.17047889  0.65937200  0.47525457
   0.33333333  0.58333333  0.38179910
   0.92304413  0.16095751  0.47603100
   0.66624575  0.41199609  0.47063848
   0.83333333  0.33333333  0.38179910
   0.08333333  0.33333333  0.38179910
   0.58333333  0.83333333  0.38179910
   0.49417557  0.49338812  0.56386298
   0.91397065  0.65927632  0.47404028
   0.50971326  0.23537566  0.56374588
   0.08333333  0.83333333  0.38179910
   0.75874863  0.49730258  0.55610431
   0.00113878  0.70938265  0.56389631
   0.41438154  0.16471587  0.47361838
   0.33333333  0.08333333  0.38179910
   0.16571133  0.17026576  0.51444257
   0.24397400  0.97267527  0.61071648
   0.25315933  0.74844139  0.56749666
   0.33333333  0.33333333  0.38179910
   0.16820251  0.92020761  0.48232353
   0.30999076  0.22479300  0.64892937
   0.33333333  0.83333333  0.38179910
   0.42810312  0.04031166  0.56772609
   0.19039768  0.14418172  0.66451261
   0.98221938  0.44428874  0.63901899
   0.02377928  0.05464998  0.63142746
   0.43170848  0.30762825  0.63930386
   0.80389509  0.32969500  0.61297645
   0.14191892  0.69633991  0.62347010
   0.68071178  0.81876481  0.60109069
   0.58159943  0.60638687  0.60879385
   0.16982790  0.41145724  0.47774882
   0.83238399  0.63491817  0.61835975
   0.58333333  0.08333333  0.38179910
   0.91592896  0.91031820  0.47665018
   0.83333333  0.83333333  0.38179910
   0.58333333  0.33333333  0.38179910
   0.41880438  0.41180355  0.47473272
   0.08113667  0.42228204  0.57246164
   0.66573525  0.66502959  0.47197009
   0.58333333  0.58333333  0.38179910
   0.28130322  0.49882681  0.62321534
   0.75408905  0.23481803  0.56042361
   0.66641844  0.91137140  0.47044001
   0.99617291  0.25067188  0.63475422
   0.41424181  0.91905389  0.47602790
   0.50156841  0.77165986  0.56332914
   0.92861920  0.40539407  0.47588940
   0.83333333  0.08333333  0.38179910
   0.67059772  0.15509580  0.47540413
   0.73174430  0.94560056  0.56390975
   0.83333333  0.58333333  0.38179910
   0.97280958  0.98773637  0.56873775
   0.08333333  0.58333333  0.38179910
   0.41795722  0.66905290  0.47530106
Direct configuration=    11
   0.08333333  0.08333333  0.38179910
   0.17040062  0.65925907  0.47506068
   0.33333333  0.58333333  0.38179910
   0.92252672  0.16190065  0.47554175
   0.66582500  0.41334399  0.47076913
   0.83333333  0.33333333  0.38179910
   0.08333333  0.33333333  0.38179910
   0.58333333  0.83333333  0.38179910
   0.49416850  0.49248998  0.56381210
   0.91330015  0.65999486  0.47436254
   0.51190304  0.23333002  0.56411549
   0.08333333  0.83333333  0.38179910
   0.75818474  0.49952662  0.55637481
   0.00179609  0.70962438  0.56391857
   0.41409252  0.16435042  0.47403523
   0.33333333  0.08333333  0.38179910
   0.16517937  0.17056617  0.51445438
   0.24338745  0.97219303  0.61162255
   0.25349743  0.74886663  0.56727255
   0.33333333  0.33333333  0.38179910
   0.16723247  0.92085177  0.48222859
   0.30936667  0.22452337  0.64908041
   0.33333333  0.83333333  0.38179910
   0.42770384  0.03976146  0.56828712
   0.18884349  0.14393943  0.66496110
   0.98362523  0.44340932  0.63866115
   0.02211115  0.05494018  0.63161282
   0.43175456  0.30577960  0.63928027
   0.80370998  0.33097810  0.61234102
   0.14370337  0.69558102  0.62314234
   0.68228495  0.81809602  0.60206843
   0.58043050  0.60609085  0.60900246
   0.16962827  0.41170924  0.47709600
   0.83398635  0.63490023  0.61878001
   0.58333333  0.08333333  0.38179910
   0.91592692  0.91051236  0.47663625
   0.83333333  0.83333333  0.38179910
   0.58333333  0.33333333  0.38179910
   0.41899491  0.41118093  0.47477775
   0.08157115  0.42273660  0.57187263
   0.66463720  0.66642667  0.47210660
   0.58333333  0.58333333  0.38179910
   0.28222713  0.49775910  0.62313728
   0.75481564  0.23544415  0.55989340
   0.66604533  0.91218182  0.47063016
   0.99646225  0.25018793  0.63468514
   0.41373578  0.91925677  0.47629979
   0.50156218  0.77136009  0.56369657
   0.92782167  0.40640280  0.47590620
   0.83333333  0.08333333  0.38179910
   0.67035861  0.15546596  0.47531835
   0.73175528  0.94667750  0.56406808
   0.83333333  0.58333333  0.38179910
   0.97284130  0.98786571  0.56861759
   0.08333333  0.58333333  0.38179910
   0.41750368  0.66927509  0.47539579
Direct configuration=    12
   0.08333333  0.08333333  0.38179910
   0.17045908  0.65934342  0.47520550
   0.33333333  0.58333333  0.38179910
   0.92291317  0.16119622  0.47590718
   0.66613926  0.41233724  0.47067155
   0.83333333  0.33333333  0.38179910
   0.08333333  0.33333333  0.38179910
   0.58333333  0.83333333  0.38179910
   0.49417378  0.49316080  0.56385010
   0.91380095  0.65945817  0.47412184
   0.51026748  0.23485792  0.56383942
   0.08333333  0.83333333  0.38179910
   0.75860591  0.49786547  0.55617277
   0.00130514  0.70944383  0.56390194
   0.41430839  0.16462338  0.47372388
   0.33333333  0.08333333  0.38179910
   0.16557669  0.17034180  0.51444556
   0.24382555  0.97255322  0.61094580
   0.25324490  0.74854901  0.56743994
   0.33333333  0.33333333  0.38179910
   0.16795700  0.92037064  0.48229950
   0.30983281  0.22472476  0.64896760
   0.33333333  0.83333333  0.38179910
   0.42800207  0.04017241  0.56786808
   0.19000433  0.14412040  0.66462612
   0.98257519  0.44406617  0.63892842
   0.02335709  0.05472343  0.63147437
   0.43172014  0.30716037  0.63929789
   0.80384824  0.33001975  0.61281563
   0.14237056  0.69614784  0.62338715
   0.68110994  0.81859555  0.60133815
   0.58130358  0.60631195  0.60884665
   0.16977738  0.41152102  0.47758360
   0.83278954  0.63491363  0.61846611
   0.58333333  0.08333333  0.38179910
   0.91592845  0.91036734  0.47664665
   0.83333333  0.83333333  0.38179910
   0.58333333  0.33333333  0.38179910
   0.41885260  0.41164597  0.47474411
   0.08124663  0.42239708  0.57231256
   0.66545734  0.66538318  0.47200464
   0.58333333  0.58333333  0.38179910
   0.28153706  0.49855658  0.62319558
   0.75427294  0.23497650  0.56028942
   0.66632401  0.91157652  0.47048813
   0.99624614  0.25054939  0.63473674
   0.41411373  0.91910524  0.47609672
   0.50156683  0.77158399  0.56342213
   0.92841735  0.40564937  0.47589365
   0.83333333  0.08333333  0.38179910
   0.67053721  0.15518948  0.47538242
   0.73174707  0.94587313  0.56394982
   0.83333333  0.58333333  0.38179910
   0.97281761  0.98776911  0.56870734
   0.08333333  0.58333333  0.38179910
   0.41784243  0.66910913  0.47532503
Direct configuration=    13
   0.08333333  0.08333333  0.38179910
   0.17041407  0.65930934  0.47521295
   0.33333333  0.58333333  0.38179910
   0.92280629  0.16138813  0.47582782
   0.66600541  0.41265855  0.47067697
   0.83333333  0.33333333  0.38179910
   0.08333333  0.33333333  0.38179910
   0.58333333  0.83333333  0.38179910
   0.49420828  0.49300017  0.56384934
   0.91363278  0.65965054  0.47413807
   0.51077184  0.23431831  0.56390594
   0.08333333  0.83333333  0.38179910
   0.75827043  0.49845928  0.55621856
   0.00145576  0.70972935  0.56388509
   0.41423875  0.16462866  0.47380371
   0.33333333  0.08333333  0.38179910
   0.16533407  0.17053164  0.51444845
   0.24357346  0.97233949  0.61117883
   0.25334154  0.74861349  0.56738357
   0.33333333  0.33333333  0.38179910
   0.16787175  0.92046728  0.48225802
   0.30955127  0.22451133  0.64907850
   0.33333333  0.83333333  0.38179910
   0.42781190  0.04021603  0.56800229
   0.18987856  0.14411292  0.66476494
   0.98302105  0.44388405  0.63888530
   0.02306809  0.05490747  0.63150181
   0.43170931  0.30678704  0.63932746
   0.80411487  0.33029995  0.61269525
   0.14290048  0.69590695  0.62336609
   0.68157748  0.81872259  0.60157678
   0.58098245  0.60633177  0.60879374
   0.16968010  0.41154461  0.47742588
   0.83319877  0.63477094  0.61852993
   0.58333333  0.08333333  0.38179910
   0.91589888  0.91043996  0.47665998
   0.83333333  0.83333333  0.38179910
   0.58333333  0.33333333  0.38179910
   0.41881277  0.41162660  0.47477394
   0.08128558  0.42245692  0.57216448
   0.66535036  0.66560636  0.47201445
   0.58333333  0.58333333  0.38179910
   0.28180834  0.49815833  0.62313645
   0.75454437  0.23509010  0.56011247
   0.66610779  0.91173420  0.47051329
   0.99590670  0.25040772  0.63467399
   0.41399262  0.91913870  0.47615530
   0.50149937  0.77128600  0.56357173
   0.92822325  0.40587289  0.47594089
   0.83333333  0.08333333  0.38179910
   0.67050052  0.15532212  0.47536261
   0.73197128  0.94576594  0.56401838
   0.83333333  0.58333333  0.38179910
   0.97275310  0.98794327  0.56868135
   0.08333333  0.58333333  0.38179910
   0.41763149  0.66924232  0.47531467
Direct configuration=    14
   0.08333333  0.08333333  0.38179910
   0.17037515  0.65927987  0.47521940
   0.33333333  0.58333333  0.38179910
   0.92271389  0.16155403  0.47575923
   0.66588969  0.41293631  0.47068167
   0.83333333  0.33333333  0.38179910
   0.08333333  0.33333333  0.38179910
   0.58333333  0.83333333  0.38179910
   0.49423810  0.49286131  0.56384868
   0.91348740  0.65981683  0.47415211
   0.51120783  0.23385185  0.56396344
   0.08333333  0.83333333  0.38179910
   0.75798042  0.49897260  0.55625813
   0.00158596  0.70997617  0.56387052
   0.41417855  0.16463322  0.47387271
   0.33333333  0.08333333  0.38179910
   0.16512433  0.17069575  0.51445094
   0.24335553  0.97215474  0.61138027
   0.25342509  0.74866923  0.56733484
   0.33333333  0.33333333  0.38179910
   0.16779806  0.92055082  0.48222216
   0.30930791  0.22432683  0.64917437
   0.33333333  0.83333333  0.38179910
   0.42764752  0.04025374  0.56811831
   0.18976983  0.14410646  0.66488495
   0.98340647  0.44372662  0.63884803
   0.02281827  0.05506657  0.63152553
   0.43169994  0.30646432  0.63935302
   0.80434536  0.33054218  0.61259118
   0.14335857  0.69569871  0.62334788
   0.68198164  0.81883241  0.60178306
   0.58070484  0.60634890  0.60874801
   0.16959600  0.41156501  0.47728954
   0.83355253  0.63464759  0.61858511
   0.58333333  0.08333333  0.38179910
   0.91587332  0.91050272  0.47667149
   0.83333333  0.83333333  0.38179910
   0.58333333  0.33333333  0.38179910
   0.41877834  0.41160986  0.47479973
   0.08131925  0.42250866  0.57203646
   0.66525788  0.66579930  0.47202293
   0.58333333  0.58333333  0.38179910
   0.28204285  0.49781406  0.62308533
   0.75477901  0.23518830  0.55995950
   0.66592088  0.91187051  0.47053503