  48  48   0   0
  0.5349325E+02  0.1100258E-08  0.1100258E-08  0.2449179E-08  0.3500000E-15
  1.000000000000000E-004
  CAR 
 unknown system                          
      6.39265416     -9.85302889  301     -1.06289058      1.00000000
     -9.853  0.0000E+00  0.0000E+00
     -9.799  0.0000E+00  0.0000E+00
     -9.745  0.0000E+00  0.0000E+00
     -9.691  0.0000E+00  0.0000E+00
     -9.636  0.0000E+00  0.0000E+00
     -9.582  0.0000E+00  0.0000E+00
     -9.528  0.0000E+00  0.0000E+00
     -9.474  0.0000E+00  0.0000E+00
     -9.420  0.1572E-16  0.8512E-18
     -9.366  0.6109E-14  0.3317E-15
     -9.312  0.1332E-11  0.7248E-13
     -9.257  0.1635E-09  0.8926E-11
     -9.203  0.1131E-07  0.6212E-09
     -9.149  0.4416E-06  0.2453E-07
     -9.095  0.9762E-05  0.5532E-06
     -9.041  0.1225E-03  0.7185E-05
     -8.987  0.8741E-03  0.5452E-04
     -8.932  0.3558E-02  0.2472E-03
     -8.878  0.8277E-02  0.6954E-03
     -8.824  0.1106E-01  0.1294E-02
     -8.770  0.8812E-02  0.1771E-02
     -8.716  0.5819E-02  0.2086E-02
     -8.662  0.7189E-02  0.2476E-02
     -8.608  0.1058E-01  0.3049E-02
     -8.553  0.1000E-01  0.3590E-02
     -8.499  0.5493E-02  0.3888E-02
     -8.445  0.1787E-02  0.3985E-02
     -8.391  0.7818E-03  0.4027E-02
     -8.337  0.2309E-02  0.4152E-02
     -8.283  0.6713E-02  0.4515E-02
     -8.228  0.1304E-01  0.5221E-02
     -8.174  0.1923E-01  0.6263E-02
     -8.120  0.2374E-01  0.7548E-02
     -8.066  0.2279E-01  0.8783E-02
     -8.012  0.1490E-01  0.9589E-02
     -7.958  0.6685E-02  0.9951E-02
     -7.904  0.4500E-02  0.1019E-01
     -7.849  0.8006E-02  0.1063E-01
     -7.795  0.1193E-01  0.1127E-01
     -7.741  0.1178E-01  0.1191E-01
     -7.687  0.9759E-02  0.1244E-01
     -7.633  0.1115E-01  0.1304E-01
     -7.579  0.1721E-01  0.1398E-01
     -7.524  0.2212E-01  0.1517E-01
     -7.470  0.2043E-01  0.1628E-01
     -7.416  0.1644E-01  0.1717E-01
     -7.362  0.1879E-01  0.1819E-01
     -7.308  0.2928E-01  0.1977E-01
     -7.254  0.4136E-01  0.2201E-01
     -7.200  0.4913E-01  0.2468E-01
     -7.145  0.5008E-01  0.2739E-01
     -7.091  0.4617E-01  0.2989E-01
     -7.037  0.4682E-01  0.3242E-01
     -6.983  0.5720E-01  0.3552E-01
     -6.929  0.7126E-01  0.3938E-01
     -6.875  0.8202E-01  0.4382E-01
     -6.821  0.8525E-01  0.4844E-01
     -6.766  0.8068E-01  0.5281E-01
     -6.712  0.7605E-01  0.5692E-01
     -6.658  0.7660E-01  0.6107E-01
     -6.604  0.7674E-01  0.6523E-01
     -6.550  0.7407E-01  0.6924E-01
     -6.496  0.7812E-01  0.7347E-01
     -6.441  0.9336E-01  0.7852E-01
     -6.387  0.1103E+00  0.8450E-01
     -6.333  0.1201E+00  0.9100E-01
     -6.279  0.1220E+00  0.9761E-01
     -6.225  0.1221E+00  0.1042E+00
     -6.171  0.1282E+00  0.1112E+00
     -6.117  0.1414E+00  0.1188E+00
     -6.062  0.1553E+00  0.1272E+00
     -6.008  0.1633E+00  0.1361E+00
     -5.954  0.1654E+00  0.1450E+00
     -5.900  0.1654E+00  0.1540E+00
     -5.846  0.1626E+00  0.1628E+00
     -5.792  0.1551E+00  0.1712E+00
     -5.737  0.1462E+00  0.1791E+00
     -5.683  0.1412E+00  0.1868E+00
     -5.629  0.1392E+00  0.1943E+00
     -5.575  0.1373E+00  0.2017E+00
     -5.521  0.1348E+00  0.2090E+00
     -5.467  0.1337E+00  0.2163E+00
     -5.413  0.1361E+00  0.2236E+00
     -5.358  0.1403E+00  0.2312E+00
     -5.304  0.1464E+00  0.2392E+00
     -5.250  0.1563E+00  0.2476E+00
     -5.196  0.1643E+00  0.2565E+00
     -5.142  0.1647E+00  0.2654E+00
     -5.088  0.1619E+00  0.2742E+00
     -5.033  0.1615E+00  0.2829E+00
     -4.979  0.1639E+00  0.2918E+00
     -4.925  0.1676E+00  0.3009E+00
     -4.871  0.1697E+00  0.3101E+00
     -4.817  0.1705E+00  0.3193E+00
     -4.763  0.1728E+00  0.3287E+00
     -4.709  0.1762E+00  0.3382E+00
     -4.654  0.1793E+00  0.3479E+00
     -4.600  0.1835E+00  0.3579E+00
     -4.546  0.1888E+00  0.3681E+00
     -4.492  0.1917E+00  0.3785E+00
     -4.438  0.1904E+00  0.3888E+00
     -4.384  0.1861E+00  0.3989E+00
     -4.329  0.1800E+00  0.4086E+00
     -4.275  0.1735E+00  0.4180E+00
     -4.221  0.1688E+00  0.4271E+00
     -4.167  0.1655E+00  0.4361E+00
     -4.113  0.1610E+00  0.4448E+00
     -4.059  0.1580E+00  0.4534E+00
     -4.005  0.1637E+00  0.4622E+00
     -3.950  0.1779E+00  0.4719E+00
     -3.896  0.1914E+00  0.4822E+00
     -3.842  0.1982E+00  0.4930E+00
     -3.788  0.2018E+00  0.5039E+00
     -3.734  0.2072E+00  0.5151E+00
     -3.680  0.2135E+00  0.5267E+00
     -3.626  0.2166E+00  0.5384E+00
     -3.571  0.2163E+00  0.5501E+00
     -3.517  0.2145E+00  0.5617E+00
     -3.463  0.2116E+00  0.5732E+00
     -3.409  0.2095E+00  0.5845E+00
     -3.355  0.2087E+00  0.5958E+00
     -3.301  0.2044E+00  0.6069E+00
     -3.246  0.1947E+00  0.6174E+00
     -3.192  0.1849E+00  0.6275E+00
     -3.138  0.1784E+00  0.6371E+00
     -3.084  0.1743E+00  0.6466E+00
     -3.030  0.1741E+00  0.6560E+00
     -2.976  0.1770E+00  0.6656E+00
     -2.922  0.1796E+00  0.6753E+00
     -2.867  0.1818E+00  0.6851E+00
     -2.813  0.1843E+00  0.6951E+00
     -2.759  0.1850E+00  0.7051E+00
     -2.705  0.1833E+00  0.7151E+00
     -2.651  0.1797E+00  0.7248E+00
     -2.597  0.1763E+00  0.7343E+00
     -2.542  0.1768E+00  0.7439E+00
     -2.488  0.1802E+00  0.7537E+00
     -2.434  0.1825E+00  0.7636E+00
     -2.380  0.1831E+00  0.7735E+00
     -2.326  0.1803E+00  0.7832E+00
     -2.272  0.1713E+00  0.7925E+00
     -2.218  0.1603E+00  0.8012E+00
     -2.163  0.1554E+00  0.8096E+00
     -2.109  0.1581E+00  0.8182E+00
     -2.055  0.1654E+00  0.8271E+00
     -2.001  0.1758E+00  0.8366E+00
     -1.947  0.1871E+00  0.8468E+00
     -1.893  0.1954E+00  0.8574E+00
     -1.838  0.1992E+00  0.8681E+00
     -1.784  0.2004E+00  0.8790E+00
     -1.730  0.2014E+00  0.8899E+00
     -1.676  0.2031E+00  0.9009E+00
     -1.622  0.2051E+00  0.9120E+00
     -1.568  0.2057E+00  0.9231E+00
     -1.514  0.2037E+00  0.9342E+00
     -1.459  0.2006E+00  0.9450E+00
     -1.405  0.1964E+00  0.9557E+00
     -1.351  0.1904E+00  0.9660E+00
     -1.297  0.1826E+00  0.9759E+00
     -1.243  0.1716E+00  0.9852E+00
     -1.189  0.1552E+00  0.9936E+00
     -1.135  0.1324E+00  0.1001E+01
     -1.080  0.1057E+00  0.1006E+01
     -1.026  0.7962E-01  0.1011E+01
     -0.972  0.5829E-01  0.1014E+01
     -0.918  0.4370E-01  0.1016E+01
     -0.864  0.3369E-01  0.1018E+01
     -0.810  0.2532E-01  0.1019E+01
     -0.755  0.2116E-01  0.1021E+01
     -0.701  0.2419E-01  0.1022E+01
     -0.647  0.3192E-01  0.1024E+01
     -0.593  0.4020E-01  0.1026E+01
     -0.539  0.4603E-01  0.1028E+01
     -0.485  0.4858E-01  0.1031E+01
     -0.431  0.4773E-01  0.1034E+01
     -0.376  0.4468E-01  0.1036E+01
     -0.322  0.4327E-01  0.1038E+01
     -0.268  0.4244E-01  0.1041E+01
     -0.214  0.3626E-01  0.1043E+01
     -0.160  0.2550E-01  0.1044E+01
     -0.106  0.1694E-01  0.1045E+01
     -0.051  0.1354E-01  0.1046E+01
      0.003  0.1348E-01  0.1046E+01
      0.057  0.1591E-01  0.1047E+01
      0.111  0.2175E-01  0.1048E+01
      0.165  0.2829E-01  0.1050E+01
      0.219  0.3068E-01  0.1052E+01
      0.273  0.3063E-01  0.1053E+01
      0.328  0.3365E-01  0.1055E+01
      0.382  0.3954E-01  0.1057E+01
      0.436  0.4477E-01  0.1060E+01
      0.490  0.4876E-01  0.1062E+01
      0.544  0.5267E-01  0.1065E+01
      0.598  0.5452E-01  0.1068E+01
      0.653  0.5040E-01  0.1071E+01
      0.707  0.4169E-01  0.1073E+01
      0.761  0.3466E-01  0.1075E+01
      0.815  0.3260E-01  0.1077E+01
      0.869  0.3149E-01  0.1078E+01
      0.923  0.2724E-01  0.1080E+01
      0.977  0.2241E-01  0.1081E+01
      1.032  0.1982E-01  0.1082E+01
      1.086  0.1834E-01  0.1083E+01
      1.140  0.1562E-01  0.1084E+01
      1.194  0.1213E-01  0.1085E+01
      1.248  0.1064E-01  0.1085E+01
      1.302  0.1153E-01  0.1086E+01
      1.356  0.1414E-01  0.1087E+01
      1.411  0.1876E-01  0.1088E+01
      1.465  0.2500E-01  0.1089E+01
      1.519  0.3115E-01  0.1091E+01
      1.573  0.3349E-01  0.1092E+01
      1.627  0.3079E-01  0.1094E+01
      1.681  0.2864E-01  0.1096E+01
      1.736  0.3194E-01  0.1097E+01
      1.790  0.3754E-01  0.1099E+01
      1.844  0.3739E-01  0.1102E+01
      1.898  0.2935E-01  0.1103E+01
      1.952  0.2074E-01  0.1104E+01
      2.006  0.1753E-01  0.1105E+01
      2.060  0.1847E-01  0.1106E+01
      2.115  0.2198E-01  0.1107E+01
      2.169  0.2815E-01  0.1109E+01
      2.223  0.3613E-01  0.1111E+01
      2.277  0.4391E-01  0.1113E+01
      2.331  0.4895E-01  0.1116E+01
      2.385  0.4964E-01  0.1119E+01
      2.440  0.4610E-01  0.1121E+01
      2.494  0.4144E-01  0.1123E+01
      2.548  0.4067E-01  0.1125E+01
      2.602  0.4513E-01  0.1128E+01
      2.656  0.4937E-01  0.1131E+01
      2.710  0.4708E-01  0.1133E+01
      2.764  0.3755E-01  0.1135E+01
      2.819  0.2511E-01  0.1137E+01
      2.873  0.1557E-01  0.1137E+01
      2.927  0.1211E-01  0.1138E+01
      2.981  0.1281E-01  0.1139E+01
      3.035  0.1305E-01  0.1139E+01
      3.089  0.1239E-01  0.1140E+01
      3.144  0.1483E-01  0.1141E+01
      3.198  0.2026E-01  0.1142E+01
      3.252  0.2431E-01  0.1143E+01
      3.306  0.2456E-01  0.1145E+01
      3.360  0.2155E-01  0.1146E+01
      3.414  0.1797E-01  0.1147E+01
      3.468  0.1728E-01  0.1148E+01
      3.523  0.2258E-01  0.1149E+01
      3.577  0.3330E-01  0.1151E+01
      3.631  0.4328E-01  0.1153E+01
      3.685  0.4524E-01  0.1156E+01
      3.739  0.3811E-01  0.1158E+01
      3.793  0.2819E-01  0.1159E+01
      3.847  0.2205E-01  0.1160E+01
      3.902  0.2224E-01  0.1162E+01
      3.956  0.2766E-01  0.1163E+01
      4.010  0.3300E-01  0.1165E+01
      4.064  0.3133E-01  0.1167E+01
      4.118  0.2377E-01  0.1168E+01
      4.172  0.1992E-01  0.1169E+01
      4.227  0.2133E-01  0.1170E+01
      4.281  0.1993E-01  0.1171E+01
      4.335  0.1561E-01  0.1172E+01
      4.389  0.1808E-01  0.1173E+01
      4.443  0.3093E-01  0.1175E+01
      4.497  0.4634E-01  0.1177E+01
      4.551  0.5725E-01  0.1180E+01
      4.606  0.6414E-01  0.1184E+01
      4.660  0.6651E-01  0.1187E+01
      4.714  0.6014E-01  0.1191E+01
      4.768  0.4853E-01  0.1193E+01
      4.822  0.4268E-01  0.1196E+01
      4.876  0.4660E-01  0.1198E+01
      4.931  0.5205E-01  0.1201E+01
      4.985  0.5252E-01  0.1204E+01
      5.039  0.5354E-01  0.1207E+01
      5.093  0.5721E-01  0.1210E+01
      5.147  0.5672E-01  0.1213E+01
      5.201  0.5265E-01  0.1216E+01
      5.255  0.4897E-01  0.1218E+01
      5.310  0.4267E-01  0.1221E+01
      5.364  0.3139E-01  0.1222E+01
      5.418  0.1888E-01  0.1223E+01
      5.472  0.8943E-02  0.1224E+01
      5.526  0.3020E-02  0.1224E+01
      5.580  0.6565E-03  0.1224E+01
      5.635  0.8623E-04  0.1224E+01
      5.689  0.6627E-05  0.1224E+01
      5.743  0.2932E-06  0.1224E+01
      5.797  0.7401E-08  0.1224E+01
      5.851  0.1060E-09  0.1224E+01
      5.905  0.8584E-12  0.1224E+01
      5.959  0.3919E-14  0.1224E+01
      6.014  0.9568E-17  0.1224E+01
      6.068  0.0000E+00  0.1224E+01
      6.122  0.0000E+00  0.1224E+01
      6.176  0.0000E+00  0.1224E+01
      6.230  0.0000E+00  0.1224E+01
      6.284  0.0000E+00  0.1224E+01
      6.339  0.0000E+00  0.1224E+01
      6.393  0.0000E+00  0.1224E+01
