<?xml version="1.0" encoding="ISO-8859-1"?>
<modeling>
 <generator>
  <i name="program" type="string">vasp </i>
  <i name="version" type="string">5.4.1  </i>
  <i name="subversion" type="string">24Jun15 (build Mar 14 2019 10:18:33) complex                          parallel </i>
  <i name="platform" type="string">INTEL-19.0.2+OPENMPI-3.1.3 </i>
  <i name="date" type="string">2022 07 11 </i>
  <i name="time" type="string">19:57:17 </i>
 </generator>
 <incar>
  <i type="int" name="ISTART">     0</i>
  <i type="string" name="PREC">normal</i>
  <i type="string" name="ALGO"> Fast</i>
  <i type="int" name="NELM">   500</i>
  <i type="int" name="IBRION">     2</i>
  <i type="int" name="NFREE">     2</i>
  <i name="EDIFF">      0.00000100</i>
  <i name="EDIFFG">     -0.02000000</i>
  <i type="int" name="NSW">   500</i>
  <i type="int" name="ISIF">     0</i>
  <i type="int" name="ISYM">     2</i>
  <i name="ENCUT">    400.00000000</i>
  <i name="POTIM">      0.35000000</i>
  <i type="string" name="LREAL"> Auto</i>
  <i type="logical" name="LPLANE"> T  </i>
  <i type="int" name="ISMEAR">     0</i>
  <i name="SIGMA">      0.10000000</i>
  <i type="int" name="NWRITE">     1</i>
  <i type="logical" name="LWAVE"> F  </i>
  <i type="logical" name="LCHARG"> F  </i>
  <i type="logical" name="LVTOT"> F  </i>
  <i type="logical" name="LORBIT"> F  </i>
  <i type="logical" name="LAECHG"> F  </i>
  <v type="int" name="KPOINT_BSE">    -1     0     0     0</v>
  <i type="int" name="NELM">   500</i>
  <i type="string" name="GGA"> PE          ! optPBE-vdW XC-functional</i>
  <i type="int" name="VOSKOWN">     1</i>
  <i type="logical" name="LDIPOL"> T  </i>
  <i type="logical" name="LMONO"> F  </i>
  <i type="int" name="IDIPOL">     3</i>
  <v name="DIPOL">      0.00000000      0.00000000      0.50000000</v>
 </incar>
 <kpoints>
  <generation param="Monkhorst-Pack">
   <v type="int" name="divisions">       2        2        1 </v>
   <v name="usershift">      0.00000000       0.00000000       0.00000000 </v>
   <v name="genvec1">      0.50000000      -0.00000000       0.00000000 </v>
   <v name="genvec2">      0.00000000       0.50000000       0.00000000 </v>
   <v name="genvec3">      0.00000000       0.00000000       1.00000000 </v>
   <v name="shift">      0.50000000       0.50000000       0.00000000 </v>
  </generation>
  <varray name="kpointlist" >
   <v>       0.25000000       0.25000000       0.00000000 </v>
   <v>       0.00000000       0.25000000       0.00000000 </v>
   <v>      -0.25000000       0.00000000       0.00000000 </v>
   <v>      -0.25000000       0.25000000       0.00000000 </v>
   <v>       0.50000000      -0.25000000       0.00000000 </v>
   <v>      -0.25000000       0.50000000       0.00000000 </v>
  </varray>
  <varray name="weights" >
   <v>       0.16666667 </v>
   <v>       0.16666667 </v>
   <v>       0.16666667 </v>
   <v>       0.16666667 </v>
   <v>       0.16666667 </v>
   <v>       0.16666667 </v>
  </varray>
 </kpoints>
 <parameters>
  <separator name="general" >
   <i type="string" name="SYSTEM">unknown system</i>
   <i type="logical" name="LCOMPAT"> F  </i>
  </separator>
  <separator name="electronic" >
   <i type="string" name="PREC">normal</i>
   <i name="ENMAX">    400.00000000</i>
   <i name="ENAUG">    416.23000000</i>
   <i name="EDIFF">      0.00000100</i>
   <i type="int" name="IALGO">    68</i>
   <i type="int" name="IWAVPR">    11</i>
   <i type="int" name="NBANDS">   306</i>
   <i name="NELECT">    504.00000000</i>
   <i type="int" name="TURBO">     0</i>
   <i type="int" name="IRESTART">     0</i>
   <i type="int" name="NREBOOT">     0</i>
   <i type="int" name="NMIN">     0</i>
   <i name="EREF">      0.00000000</i>
   <separator name="electronic smearing" >
    <i type="int" name="ISMEAR">     0</i>
    <i name="SIGMA">      0.10000000</i>
    <i name="KSPACING">      0.50000000</i>
    <i type="logical" name="KGAMMA"> T  </i>
   </separator>
   <separator name="electronic projectors" >
    <i type="logical" name="LREAL"> T  </i>
    <v name="ROPT">     -0.00050000     -0.00050000</v>
    <i type="int" name="LMAXPAW">  -100</i>
    <i type="int" name="LMAXMIX">     2</i>
    <i type="logical" name="NLSPLINE"> F  </i>
   </separator>
   <separator name="electronic startup" >
    <i type="int" name="ISTART">     0</i>
    <i type="int" name="ICHARG">     2</i>
    <i type="int" name="INIWAV">     1</i>
   </separator>
   <separator name="electronic spin" >
    <i type="int" name="ISPIN">     1</i>
    <i type="logical" name="LNONCOLLINEAR"> F  </i>
    <v name="MAGMOM">      1.00000000      1.00000000      1.00000000      1.00000000      1.00000000      1.00000000      1.00000000      1.00000000      1.00000000      1.00000000      1.00000000      1.00000000      1.00000000      1.00000000      1.00000000      1.00000000      1.00000000      1.00000000      1.00000000      1.00000000
      1.00000000      1.00000000      1.00000000      1.00000000      1.00000000      1.00000000      1.00000000      1.00000000      1.00000000      1.00000000      1.00000000      1.00000000      1.00000000      1.00000000      1.00000000      1.00000000      1.00000000      1.00000000      1.00000000      1.00000000
      1.00000000      1.00000000      1.00000000      1.00000000      1.00000000      1.00000000      1.00000000      1.00000000</v>
    <i name="NUPDOWN">     -1.00000000</i>
    <i type="logical" name="LSORBIT"> F  </i>
    <v name="SAXIS">      0.00000000      0.00000000      1.00000000</v>
    <i type="logical" name="LSPIRAL"> F  </i>
    <v name="QSPIRAL">      0.00000000      0.00000000      0.00000000</v>
    <i type="logical" name="LZEROZ"> F  </i>
   </separator>
   <separator name="electronic exchange-correlation" >
    <i type="logical" name="LASPH"> F  </i>
    <i type="logical" name="LMETAGGA"> F  </i>
   </separator>
   <separator name="electronic convergence" >
    <i type="int" name="NELM">   500</i>
    <i type="int" name="NELMDL">    -5</i>
    <i type="int" name="NELMIN">     2</i>
    <i name="ENINI">    400.00000000</i>
    <separator name="electronic convergence detail" >
     <i type="logical" name="LDIAG"> T  </i>
     <i type="logical" name="LSUBROT"> F  </i>
     <i name="WEIMIN">      0.00100000</i>
     <i name="EBREAK">      0.00000000</i>
     <i name="DEPER">      0.30000000</i>
     <i type="int" name="NRMM">     4</i>
     <i name="TIME">      0.40000000</i>
    </separator>
   </separator>
   <separator name="electronic mixer" >
    <i name="AMIX">      0.40000000</i>
    <i name="BMIX">      1.00000000</i>
    <i name="AMIN">      0.10000000</i>
    <i name="AMIX_MAG">      1.60000000</i>
    <i name="BMIX_MAG">      1.00000000</i>
    <separator name="electronic mixer details" >
     <i type="int" name="IMIX">     4</i>
     <i type="logical" name="MIXFIRST"> F  </i>
     <i type="int" name="MAXMIX">   -45</i>
     <i name="WC">    100.00000000</i>
     <i type="int" name="INIMIX">     1</i>
     <i type="int" name="MIXPRE">     1</i>
     <i type="int" name="MREMOVE">     5</i>
    </separator>
   </separator>
   <separator name="electronic dipolcorrection" >
    <i type="logical" name="LDIPOL"> T  </i>
    <i type="logical" name="LMONO"> F  </i>
    <i type="int" name="IDIPOL">     3</i>
    <i name="EPSILON">      1.00000000</i>
    <v name="DIPOL">      0.00000000      0.00000000      0.50000000</v>
    <i name="EFIELD">      0.00000000</i>
   </separator>
  </separator>
  <separator name="grids" >
   <i type="int" name="NGX">    54</i>
   <i type="int" name="NGY">    54</i>
   <i type="int" name="NGZ">   120</i>
   <i type="int" name="NGXF">   108</i>
   <i type="int" name="NGYF">   108</i>
   <i type="int" name="NGZF">   240</i>
   <i type="logical" name="ADDGRID"> F  </i>
  </separator>
  <separator name="ionic" >
   <i type="int" name="NSW">   500</i>
   <i type="int" name="IBRION">     2</i>
   <i type="int" name="ISIF">     0</i>
   <i name="PSTRESS">      0.00000000</i>
   <i name="EDIFFG">     -0.02000000</i>
   <i type="int" name="NFREE">     2</i>
   <i name="POTIM">      0.35000000</i>
   <i name="SMASS">     -3.00000000</i>
   <i name="SCALEE">      1.00000000</i>
  </separator>
  <separator name="ionic md" >
   <i name="TEBEG">      0.00010000</i>
   <i name="TEEND">      0.00010000</i>
   <i type="int" name="NBLOCK">     1</i>
   <i type="int" name="KBLOCK">   500</i>
   <i type="int" name="NPACO">   256</i>
   <i name="APACO">     16.00000000</i>
  </separator>
  <separator name="symmetry" >
   <i type="int" name="ISYM">     2</i>
   <i name="SYMPREC">      0.00001000</i>
  </separator>
  <separator name="dos" >
   <i type="logical" name="LORBIT"> F  </i>
   <v name="RWIGS">     -1.00000000     -1.00000000</v>
   <i type="int" name="NEDOS">   301</i>
   <i name="EMIN">     10.00000000</i>
   <i name="EMAX">    -10.00000000</i>
   <i name="EFERMI">      0.00000000</i>
  </separator>
  <separator name="writing" >
   <i type="int" name="NWRITE">     1</i>
   <i type="logical" name="LWAVE"> F  </i>
   <i type="logical" name="LCHARG"> F  </i>
   <i type="logical" name="LPARD"> F  </i>
   <i type="logical" name="LVTOT"> F  </i>
   <i type="logical" name="LVHAR"> F  </i>
   <i type="logical" name="LELF"> F  </i>
   <i type="logical" name="LOPTICS"> F  </i>
   <v name="STM">      0.00000000      0.00000000      0.00000000      0.00000000      0.00000000      0.00000000      0.00000000</v>
  </separator>
  <separator name="performance" >
   <i type="int" name="NPAR">     6</i>
   <i type="int" name="NSIM">     4</i>
   <i type="int" name="NBLK">    -1</i>
   <i type="logical" name="LPLANE"> T  </i>
   <i type="logical" name="LSCALAPACK"> T  </i>
   <i type="logical" name="LSCAAWARE"> F  </i>
   <i type="logical" name="LSCALU"> F  </i>
   <i type="logical" name="LASYNC"> F  </i>
   <i type="logical" name="LORBITALREAL"> F  </i>
  </separator>
  <separator name="miscellaneous" >
   <i type="int" name="IDIOT">     3</i>
   <i type="logical" name="LMUSIC"> F  </i>
   <v name="POMASS">    196.96600000    106.42000000</v>
   <v name="DARWINR">      0.00000000      0.00000000</v>
   <v name="DARWINV">      1.00000000      1.00000000</v>
   <i type="logical" name="LCORR"> T  </i>
  </separator>
  <i type="logical" name="GGA_COMPAT"> T  </i>
  <i type="logical" name="LBERRY"> F  </i>
  <i type="int" name="ICORELEVEL">     0</i>
  <i type="logical" name="LDAU"> F  </i>
  <i type="int" name="I_CONSTRAINED_M">     0</i>
  <separator name="electronic exchange-correlation" >
   <i type="string" name="GGA">PE</i>
   <i type="int" name="VOSKOWN">     1</i>
   <i type="logical" name="LHFCALC"> F  </i>
   <i type="string" name="PRECFOCK"></i>
   <i type="logical" name="LSYMGRAD"> F  </i>
   <i type="logical" name="LHFONE"> F  </i>
   <i type="logical" name="LRHFCALC"> F  </i>
   <i type="logical" name="LTHOMAS"> F  </i>
   <i type="logical" name="LMODELHF"> F  </i>
   <i name="ENCUT4O">     -1.00000000</i>
   <i type="int" name="EXXOEP">     0</i>
   <i type="int" name="FOURORBIT">     0</i>
   <i name="AEXX">      0.00000000</i>
   <i name="HFALPHA">      0.00000000</i>
   <i name="MCALPHA">      0.00000000</i>
   <i name="ALDAX">      1.00000000</i>
   <i name="AGGAX">      1.00000000</i>
   <i name="ALDAC">      1.00000000</i>
   <i name="AGGAC">      1.00000000</i>
   <i type="int" name="NKREDX">     1</i>
   <i type="int" name="NKREDY">     1</i>
   <i type="int" name="NKREDZ">     1</i>
   <i type="logical" name="SHIFTRED"> F  </i>
   <i type="logical" name="ODDONLY"> F  </i>
   <i type="logical" name="EVENONLY"> F  </i>
   <i type="int" name="LMAXFOCK">     0</i>
   <i type="int" name="NMAXFOCKAE">     0</i>
   <i type="logical" name="LFOCKAEDFT"> F  </i>
   <i name="HFSCREEN">      0.00000000</i>
   <i name="HFSCREENC">      0.00000000</i>
   <i type="int" name="NBANDSGWLOW">     0</i>
  </separator>
  <separator name="vdW DFT" >
   <i type="logical" name="LUSE_VDW"> F  </i>
   <i name="Zab_VDW">     -0.84910000</i>
   <i name="PARAM1">      0.12340000</i>
   <i name="PARAM2">      1.00000000</i>
   <i name="PARAM3">      0.00000000</i>
  </separator>
  <separator name="model GW" >
   <i type="int" name="MODEL_GW">     0</i>
   <i name="MODEL_EPS0">     32.09595293</i>
   <i name="MODEL_ALPHA">      1.00000000</i>
  </separator>
  <separator name="linear response parameters" >
   <i type="logical" name="LEPSILON"> F  </i>
   <i type="logical" name="LRPA"> F  </i>
   <i type="logical" name="LNABLA"> F  </i>
   <i type="logical" name="LVEL"> F  </i>
   <i type="int" name="KINTER">     0</i>
   <i name="CSHIFT">      0.10000000</i>
   <i name="OMEGAMAX">     -1.00000000</i>
   <i name="DEG_THRESHOLD">      0.00200000</i>
  </separator>
  <separator name="orbital magnetization" >
   <i type="logical" name="NUCIND"> F  </i>
   <v name="MAGPOS">      0.00000000      0.00000000      0.00000000</v>
   <i type="logical" name="LNICSALL"> T  </i>
   <i type="logical" name="ORBITALMAG"> F  </i>
   <i type="logical" name="LMAGBLOCH"> F  </i>
   <i type="logical" name="LCHIMAG"> F  </i>
   <i type="logical" name="LGAUGE"> T  </i>
   <i type="int" name="MAGATOM">     0</i>
   <v name="MAGDIPOL">      0.00000000      0.00000000      0.00000000</v>
   <v name="AVECCONST">      0.00000000      0.00000000      0.00000000</v>
  </separator>
  <separator name="response functions" >
   <i type="logical" name="LADDER"> F  </i>
   <i type="logical" name="LFXC"> F  </i>
   <i type="logical" name="LHARTREE"> T  </i>
   <i type="int" name="IBSE">     0</i>
   <v type="int" name="KPOINT">    -1     0     0     0</v>
   <i type="logical" name="LTCTE"> F  </i>
   <i type="logical" name="LTETE"> F  </i>
   <i type="logical" name="LTRIPLET"> F  </i>
   <i type="logical" name="LFXCEPS"> F  </i>
   <i type="logical" name="LFXHEG"> F  </i>
   <i type="int" name="NATURALO">     0</i>
   <i type="logical" name="L2ORDER"> F  </i>
   <i type="logical" name="LUSEW"> F  </i>
   <i name="ENCUTGW">     -2.00000000</i>
   <i name="ENCUTGWSOFT">     -2.00000000</i>
   <i name="ENCUTLF">     -1.00000000</i>
   <i type="int" name="LMAXMP2">    -1</i>
   <i name="SCISSOR">      0.00000000</i>
   <i type="int" name="NOMEGA">     0</i>
   <i type="int" name="NOMEGAR">     0</i>
   <i type="int" name="NBANDSGW">    -1</i>
   <i type="int" name="NBANDSO">    -1</i>
   <i type="int" name="NBANDSV">    -1</i>
   <i type="int" name="NELM">   500</i>
   <i type="int" name="NELMHF">     1</i>
   <i type="int" name="DIM">     3</i>
   <i type="int" name="ANTIRES">     0</i>
   <i name="OMEGAMAX">    -30.00000000</i>
   <i name="OMEGAMIN">    -30.00000000</i>
   <i name="OMEGATL">   -200.00000000</i>
   <i type="int" name="OMEGAGRID">     0</i>
   <i name="CSHIFT">     -0.10000000</i>
   <i type="logical" name="SELFENERGY"> F  </i>
   <i type="logical" name="LSPECTRAL"> F  </i>
   <i type="logical" name="LSPECTRALGW"> F  </i>
   <i type="logical" name="LSINGLES"> F  </i>
   <i type="logical" name="LFERMIGW"> F  </i>
   <i type="logical" name="ODDONLYGW"> F  </i>
   <i type="logical" name="EVENONLYGW"> F  </i>
   <i type="int" name="NKREDLFX">     1</i>
   <i type="int" name="NKREDLFY">     1</i>
   <i type="int" name="NKREDLFZ">     1</i>
   <i type="int" name="MAXMEM">  1800</i>
   <i type="int" name="TELESCOPE">     0</i>
   <i type="int" name="TAUPAR">     1</i>
   <i type="int" name="OMEGAPAR">    -1</i>
   <i name="LAMBDA">      1.00000000</i>
  </separator>
  <separator name="External order field" >
   <i name="OFIELD_KAPPA">      0.00000000</i>
   <v name="OFIELD_K">      0.00000000      0.00000000      0.00000000</v>
   <i name="OFIELD_Q6_NEAR">      0.00000000</i>
   <i name="OFIELD_Q6_FAR">      0.00000000</i>
   <i name="OFIELD_A">      0.00000000</i>
  </separator>
 </parameters>
 <atominfo>
  <atoms>      48 </atoms>
  <types>       2 </types>
  <array name="atoms" >
   <dimension dim="1">ion</dimension>
   <field type="string">element</field>
   <field type="int">atomtype</field>
   <set>
    <rc><c>Au</c><c>   1</c></rc>
    <rc><c>Au</c><c>   1</c></rc>
    <rc><c>Au</c><c>   1</c></rc>
    <rc><c>Au</c><c>   1</c></rc>
    <rc><c>Au</c><c>   1</c></rc>
    <rc><c>Au</c><c>   1</c></rc>
    <rc><c>Au</c><c>   1</c></rc>
    <rc><c>Au</c><c>   1</c></rc>
    <rc><c>Au</c><c>   1</c></rc>
    <rc><c>Au</c><c>   1</c></rc>
    <rc><c>Au</c><c>   1</c></rc>
    <rc><c>Au</c><c>   1</c></rc>
    <rc><c>Au</c><c>   1</c></rc>
    <rc><c>Au</c><c>   1</c></rc>
    <rc><c>Au</c><c>   1</c></rc>
    <rc><c>Au</c><c>   1</c></rc>
    <rc><c>Au</c><c>   1</c></rc>
    <rc><c>Au</c><c>   1</c></rc>
    <rc><c>Au</c><c>   1</c></rc>
    <rc><c>Au</c><c>   1</c></rc>
    <rc><c>Au</c><c>   1</c></rc>
    <rc><c>Au</c><c>   1</c></rc>
    <rc><c>Au</c><c>   1</c></rc>
    <rc><c>Au</c><c>   1</c></rc>
    <rc><c>Pd</c><c>   2</c></rc>
    <rc><c>Pd</c><c>   2</c></rc>
    <rc><c>Pd</c><c>   2</c></rc>
    <rc><c>Pd</c><c>   2</c></rc>
    <rc><c>Pd</c><c>   2</c></rc>
    <rc><c>Pd</c><c>   2</c></rc>
    <rc><c>Pd</c><c>   2</c></rc>
    <rc><c>Pd</c><c>   2</c></rc>
    <rc><c>Pd</c><c>   2</c></rc>
    <rc><c>Pd</c><c>   2</c></rc>
    <rc><c>Pd</c><c>   2</c></rc>
    <rc><c>Pd</c><c>   2</c></rc>
    <rc><c>Pd</c><c>   2</c></rc>
    <rc><c>Pd</c><c>   2</c></rc>
    <rc><c>Pd</c><c>   2</c></rc>
    <rc><c>Pd</c><c>   2</c></rc>
    <rc><c>Pd</c><c>   2</c></rc>
    <rc><c>Pd</c><c>   2</c></rc>
    <rc><c>Pd</c><c>   2</c></rc>
    <rc><c>Pd</c><c>   2</c></rc>
    <rc><c>Pd</c><c>   2</c></rc>
    <rc><c>Pd</c><c>   2</c></rc>
    <rc><c>Pd</c><c>   2</c></rc>
    <rc><c>Pd</c><c>   2</c></rc>
   </set>
  </array>
  <array name="atomtypes" >
   <dimension dim="1">type</dimension>
   <field type="int">atomspertype</field>
   <field type="string">element</field>
   <field>mass</field>
   <field>valence</field>
   <field type="string">pseudopotential</field>
   <set>
    <rc><c>  24</c><c>Au</c><c>    196.96600000</c><c>     11.00000000</c><c>  PAW_PBE Au 04Oct2007                  </c></rc>
    <rc><c>  24</c><c>Pd</c><c>    106.42000000</c><c>     10.00000000</c><c>  PAW_PBE Pd 04Jan2005                  </c></rc>
   </set>
  </array>
 </atominfo>
 <structure name="initialpos" >
  <crystal>
   <varray name="basis" >
    <v>      11.00258152       0.00000000       0.00000000 </v>
    <v>       5.50129076       9.52851510       0.00000000 </v>
    <v>       0.00000000       0.00000000      24.49178509 </v>
   </varray>
   <i name="volume">   2567.67623402 </i>
   <varray name="rec_basis" >
    <v>       0.09088776      -0.05247407       0.00000000 </v>
    <v>       0.00000000       0.10494815       0.00000000 </v>
    <v>       0.00000000       0.00000000       0.04083002 </v>
   </varray>
  </crystal>
  <varray name="positions" >
   <v>       0.08333333       0.08333333       0.40830017 </v>
   <v>       0.83333333       0.83333333       0.40830017 </v>
   <v>       0.75000000       0.50000000       0.59169983 </v>
   <v>       0.75000000       0.25000000       0.59169983 </v>
   <v>       0.75000000       0.00000000       0.59169983 </v>
   <v>       0.41666667       0.91666667       0.50000000 </v>
   <v>       0.50000000       0.50000000       0.59169983 </v>
   <v>       0.50000000       0.25000000       0.59169983 </v>
   <v>       0.41666667       0.41666667       0.50000000 </v>
   <v>       0.41666667       0.16666667       0.50000000 </v>
   <v>       0.58333333       0.08333333       0.40830017 </v>
   <v>       0.66666667       0.91666667       0.50000000 </v>
   <v>       0.16666667       0.91666667       0.50000000 </v>
   <v>       0.25000000       0.50000000       0.59169983 </v>
   <v>       0.16666667       0.66666667       0.50000000 </v>
   <v>       0.25000000       0.75000000       0.59169983 </v>
   <v>       0.75000000       0.75000000       0.59169983 </v>
   <v>       0.00000000       0.00000000       0.59169983 </v>
   <v>       0.16666667       0.16666667       0.50000000 </v>
   <v>       0.00000000       0.50000000       0.59169983 </v>
   <v>       0.08333333       0.33333333       0.40830017 </v>
   <v>       0.00000000       0.75000000       0.59169983 </v>
   <v>       0.00000000       0.25000000       0.59169983 </v>
   <v>       0.91666667       0.41666667       0.50000000 </v>
   <v>       0.50000000       0.75000000       0.59169983 </v>
   <v>       0.83333333       0.08333333       0.40830017 </v>
   <v>       0.66666667       0.16666667       0.50000000 </v>
   <v>       0.66666667       0.41666667       0.50000000 </v>
   <v>       0.83333333       0.58333333       0.40830017 </v>
   <v>       0.66666667       0.66666667       0.50000000 </v>
   <v>       0.91666667       0.16666667       0.50000000 </v>
   <v>       0.83333333       0.33333333       0.40830017 </v>
   <v>       0.58333333       0.83333333       0.40830017 </v>
   <v>       0.16666667       0.41666667       0.50000000 </v>
   <v>       0.33333333       0.33333333       0.40830017 </v>
   <v>       0.58333333       0.58333333       0.40830017 </v>
   <v>       0.91666667       0.66666667       0.50000000 </v>
   <v>       0.58333333       0.33333333       0.40830017 </v>
   <v>       0.50000000       0.00000000       0.59169983 </v>
   <v>       0.08333333       0.83333333       0.40830017 </v>
   <v>       0.91666667       0.91666667       0.50000000 </v>
   <v>       0.33333333       0.08333333       0.40830017 </v>
   <v>       0.33333333       0.83333333       0.40830017 </v>
   <v>       0.25000000       0.00000000       0.59169983 </v>
   <v>       0.33333333       0.58333333       0.40830017 </v>
   <v>       0.25000000       0.25000000       0.59169983 </v>
   <v>       0.08333333       0.58333333       0.40830017 </v>
   <v>       0.41666667       0.66666667       0.50000000 </v>
  </varray>
 </structure>
 <calculation>
  <scstep>
   <time name="dav">    8.61    8.73</time>
   <time name="total">    8.67    8.79</time>
   <dipole>
    <v name="dipole">      0.00000000       0.00000000      -0.00000592 </v>
    <i name="Tr[quadrupol]"> -10249.57993352 </i>
    <i name="Echarged">      0.00000000 </i>
    <i name="Edipol_quadrupol">      0.00000000 </i>
    <i name="Eion">      0.00000000 </i>
   </dipole>
   <energy>
    <i name="alphaZ">    805.86937178 </i>
    <i name="ewald"> 200195.03505381 </i>
    <i name="hartreedc">-242609.97123666 </i>
    <i name="XCdc">   -327.62242364 </i>
    <i name="pawpsdc">  40340.05962942 </i>
    <i name="pawaedc"> -38292.62782345 </i>
    <i name="eentropy">     -0.13443169 </i>
    <i name="bandstr">   1430.38484990 </i>
    <i name="atom">  41659.78587232 </i>
    <i name="e_fr_energy">   3200.77886180 </i>
    <i name="e_wo_entrp">   3200.91329349 </i>
    <i name="e_0_energy">   3200.84607765 </i>
   </energy>
  </scstep>
  <scstep>
   <time name="dav">   10.21   10.26</time>
   <time name="total">   10.21   10.27</time>
   <dipole>
    <v name="dipole">      0.00000000       0.00000000      -0.00000592 </v>
    <i name="Tr[quadrupol]"> -10249.57993352 </i>
    <i name="Echarged">      0.00000000 </i>
    <i name="Edipol_quadrupol">      0.00000000 </i>
    <i name="Eion">      0.00000000 </i>
   </dipole>
   <energy>
    <i name="e_fr_energy">     15.26493580 </i>
    <i name="e_wo_entrp">     15.40071654 </i>
    <i name="e_0_energy">     15.33282617 </i>
   </energy>
  </scstep>
  <scstep>
   <time name="dav">    9.70    9.76</time>
   <time name="total">    9.70    9.76</time>
   <dipole>
    <v name="dipole">      0.00000000       0.00000000      -0.00000592 </v>
    <i name="Tr[quadrupol]"> -10249.57993352 </i>
    <i name="Echarged">      0.00000000 </i>
    <i name="Edipol_quadrupol">      0.00000000 </i>
    <i name="Eion">      0.00000000 </i>
   </dipole>
   <energy>
    <i name="e_fr_energy">   -201.07504606 </i>
    <i name="e_wo_entrp">   -200.89663292 </i>
    <i name="e_0_energy">   -200.98583949 </i>
   </energy>
  </scstep>
  <scstep>
   <time name="dav">    9.97   10.03</time>
   <time name="total">    9.97   10.03</time>
   <dipole>
    <v name="dipole">      0.00000000       0.00000000      -0.00000592 </v>
    <i name="Tr[quadrupol]"> -10249.57993352 </i>
    <i name="Echarged">      0.00000000 </i>
    <i name="Edipol_quadrupol">      0.00000000 </i>
    <i name="Eion">      0.00000000 </i>
   </dipole>
   <energy>
    <i name="e_fr_energy">   -206.99229886 </i>
    <i name="e_wo_entrp">   -206.80759286 </i>
    <i name="e_0_energy">   -206.89994586 </i>
   </energy>
  </scstep>
  <scstep>
   <time name="dav">   10.30   10.45</time>
   <time name="total">   10.52   10.68</time>
   <dipole>
    <v name="dipole">      0.00000000       0.00000000      -0.00000592 </v>
    <i name="Tr[quadrupol]"> -10249.57993352 </i>
    <i name="Echarged">      0.00000000 </i>
    <i name="Edipol_quadrupol">      0.00000000 </i>
    <i name="Eion">      0.00000000 </i>
   </dipole>
   <energy>
    <i name="e_fr_energy">   -207.18286070 </i>
    <i name="e_wo_entrp">   -206.99768296 </i>
    <i name="e_0_energy">   -207.09027183 </i>
   </energy>
  </scstep>
  <scstep>
   <time name="diag">    1.48    1.50</time>
   <time name="diis">    4.43    4.45</time>
   <time name="orth">    0.38    0.38</time>
   <time name="total">    6.58    6.64</time>
   <dipole>
    <v name="dipole">      0.00000000       0.00000000      -2.65596804 </v>
    <i name="Tr[quadrupol]"> -10251.00941949 </i>
    <i name="Echarged">      0.00000000 </i>
    <i name="Edipol_quadrupol">      0.00000000 </i>
    <i name="Eion">      0.00000000 </i>
   </dipole>
   <energy>
    <i name="e_fr_energy">   -233.13192438 </i>
    <i name="e_wo_entrp">   -232.87172689 </i>
    <i name="e_0_energy">   -233.00182563 </i>
   </energy>
  </scstep>
  <scstep>
   <time name="diag">    1.49    1.50</time>
   <time name="diis">    4.39    4.41</time>
   <time name="orth">    0.38    0.38</time>
   <time name="total">    6.55    6.58</time>
   <dipole>
    <v name="dipole">      0.00000000       0.00000000       0.34444537 </v>
    <i name="Tr[quadrupol]"> -10250.98924260 </i>
    <i name="Echarged">      0.00000000 </i>
    <i name="Edipol_quadrupol">      0.00000000 </i>
    <i name="Eion">      0.00000000 </i>
   </dipole>
   <energy>
    <i name="e_fr_energy">   -202.60408615 </i>
    <i name="e_wo_entrp">   -202.37662194 </i>
    <i name="e_0_energy">   -202.49035404 </i>
   </energy>
  </scstep>
  <scstep>
   <time name="diag">    1.53    1.54</time>
   <time name="diis">    4.40    4.42</time>
   <time name="orth">    0.38    0.38</time>
   <time name="total">    6.60    6.64</time>
   <dipole>
    <v name="dipole">      0.00000000       0.00000000      -1.29328423 </v>
    <i name="Tr[quadrupol]"> -10249.35452965 </i>
    <i name="Echarged">      0.00000000 </i>
    <i name="Edipol_quadrupol">      0.00000000 </i>
    <i name="Eion">      0.00000000 </i>
   </dipole>
   <energy>
    <i name="e_fr_energy">   -211.67540679 </i>
    <i name="e_wo_entrp">   -211.42061994 </i>
    <i name="e_0_energy">   -211.54801336 </i>
   </energy>
  </scstep>
  <scstep>
   <time name="diag">    1.49    1.49</time>
   <time name="diis">    4.35    4.37</time>
   <time name="orth">    0.38    0.38</time>
   <time name="total">    6.50    6.54</time>
   <dipole>
    <v name="dipole">      0.00000000       0.00000000       0.06023347 </v>
    <i name="Tr[quadrupol]"> -10251.28074700 </i>
    <i name="Echarged">      0.00000000 </i>
    <i name="Edipol_quadrupol">      0.00000000 </i>
    <i name="Eion">      0.00000000 </i>
   </dipole>
   <energy>
    <i name="e_fr_energy">   -221.28991185 </i>
    <i name="e_wo_entrp">   -221.15355094 </i>
    <i name="e_0_energy">   -221.22173139 </i>
   </energy>
  </scstep>
  <scstep>
   <time name="diag">    1.48    1.49</time>
   <time name="diis">    4.32    4.37</time>
   <time name="orth">    0.37    0.40</time>
   <time name="total">    6.46    6.57</time>
   <dipole>
    <v name="dipole">      0.00000000       0.00000000      -0.43768616 </v>
    <i name="Tr[quadrupol]"> -10251.59742612 </i>
    <i name="Echarged">      0.00000000 </i>
    <i name="Edipol_quadrupol">      0.00000000 </i>
    <i name="Eion">      0.00000000 </i>
   </dipole>
   <energy>
    <i name="e_fr_energy">   -201.88210785 </i>
    <i name="e_wo_entrp">   -201.65427572 </i>
    <i name="e_0_energy">   -201.76819178 </i>
   </energy>
  </scstep>
  <scstep>
   <time name="diag">    1.48    1.50</time>
   <time name="diis">    4.42    4.45</time>
   <time name="orth">    0.38    0.38</time>
   <time name="total">    6.57    6.62</time>
   <dipole>
    <v name="dipole">      0.00000000       0.00000000      -0.31506320 </v>
    <i name="Tr[quadrupol]"> -10251.73545146 </i>
    <i name="Echarged">      0.00000000 </i>
    <i name="Edipol_quadrupol">      0.00000000 </i>
    <i name="Eion">      0.00000000 </i>
   </dipole>
   <energy>
    <i name="e_fr_energy">   -192.95433561 </i>
    <i name="e_wo_entrp">   -192.80318598 </i>
    <i name="e_0_energy">   -192.87876079 </i>
   </energy>
  </scstep>
  <scstep>
   <time name="diag">    1.52    1.53</time>
   <time name="diis">    4.43    4.45</time>
   <time name="orth">    0.38    0.38</time>
   <time name="total">    6.62    6.66</time>
   <dipole>
    <v name="dipole">      0.00000000       0.00000000      -0.27219054 </v>
    <i name="Tr[quadrupol]"> -10251.92363890 </i>
    <i name="Echarged">      0.00000000 </i>
    <i name="Edipol_quadrupol">      0.00000000 </i>
    <i name="Eion">      0.00000000 </i>
   </dipole>
   <energy>
    <i name="e_fr_energy">   -190.20513116 </i>
    <i name="e_wo_entrp">   -190.02836474 </i>
    <i name="e_0_energy">   -190.11674795 </i>
   </energy>
  </scstep>
  <scstep>
   <time name="diag">    1.49    1.50</time>
   <time name="diis">    4.43    4.45</time>
   <time name="orth">    0.38    0.38</time>
   <time name="total">    6.58    6.62</time>
   <dipole>
    <v name="dipole">      0.00000000       0.00000000      -0.20100978 </v>
    <i name="Tr[quadrupol]"> -10252.38086021 </i>
    <i name="Echarged">      0.00000000 </i>
    <i name="Edipol_quadrupol">      0.00000000 </i>
    <i name="Eion">      0.00000000 </i>
   </dipole>
   <energy>
    <i name="e_fr_energy">   -188.64091125 </i>
    <i name="e_wo_entrp">   -188.43725350 </i>
    <i name="e_0_energy">   -188.53908237 </i>
   </energy>
  </scstep>
  <scstep>
   <time name="diag">    1.49    1.50</time>
   <time name="diis">    4.43    4.45</time>
   <time name="orth">    0.38    0.39</time>
   <time name="total">    6.59    6.63</time>
   <dipole>
    <v name="dipole">      0.00000000       0.00000000      -0.25235640 </v>
    <i name="Tr[quadrupol]"> -10252.67410992 </i>
    <i name="Echarged">      0.00000000 </i>
    <i name="Edipol_quadrupol">      0.00000000 </i>
    <i name="Eion">      0.00000000 </i>
   </dipole>
   <energy>
    <i name="e_fr_energy">   -188.65952299 </i>
    <i name="e_wo_entrp">   -188.44541848 </i>
    <i name="e_0_energy">   -188.55247074 </i>
   </energy>
  </scstep>
  <scstep>
   <time name="diag">    1.47    1.50</time>
   <time name="diis">    4.43    4.45</time>
   <time name="orth">    0.38    0.38</time>
   <time name="total">    6.56    6.62</time>
   <dipole>
    <v name="dipole">      0.00000000       0.00000000      -0.28011580 </v>
    <i name="Tr[quadrupol]"> -10252.82793487 </i>
    <i name="Echarged">      0.00000000 </i>
    <i name="Edipol_quadrupol">      0.00000000 </i>
    <i name="Eion">      0.00000000 </i>
   </dipole>
   <energy>
    <i name="e_fr_energy">   -188.51844797 </i>
    <i name="e_wo_entrp">   -188.33217641 </i>
    <i name="e_0_energy">   -188.42531219 </i>
   </energy>
  </scstep>
  <scstep>
   <time name="diag">    1.53    1.54</time>
   <time name="diis">    4.38    4.40</time>
   <time name="orth">    0.37    0.40</time>
   <time name="total">    6.56    6.65</time>
   <dipole>
    <v name="dipole">      0.00000000       0.00000000      -0.28605277 </v>
    <i name="Tr[quadrupol]"> -10253.07943436 </i>
    <i name="Echarged">      0.00000000 </i>
    <i name="Edipol_quadrupol">      0.00000000 </i>
    <i name="Eion">      0.00000000 </i>
   </dipole>
   <energy>
    <i name="e_fr_energy">   -188.47921656 </i>
    <i name="e_wo_entrp">   -188.27684159 </i>
    <i name="e_0_energy">   -188.37802907 </i>
   </energy>
  </scstep>
  <scstep>
   <time name="diag">    1.48    1.51</time>
   <time name="diis">    4.38    4.40</time>
   <time name="orth">    0.38    0.38</time>
   <time name="total">    6.52    6.58</time>
   <dipole>
    <v name="dipole">      0.00000000       0.00000000      -0.26159882 </v>
    <i name="Tr[quadrupol]"> -10253.59484354 </i>
    <i name="Echarged">      0.00000000 </i>
    <i name="Edipol_quadrupol">      0.00000000 </i>
    <i name="Eion">      0.00000000 </i>
   </dipole>
   <energy>
    <i name="e_fr_energy">   -188.34086631 </i>
    <i name="e_wo_entrp">   -188.12221020 </i>
    <i name="e_0_energy">   -188.23153826 </i>
   </energy>
  </scstep>
  <scstep>
   <time name="diag">    1.49    1.50</time>
   <time name="diis">    4.38    4.40</time>
   <time name="orth">    0.38    0.38</time>
   <time name="total">    6.54    6.57</time>
   <dipole>
    <v name="dipole">      0.00000000       0.00000000      -0.19882008 </v>
    <i name="Tr[quadrupol]"> -10253.76658297 </i>
    <i name="Echarged">      0.00000000 </i>
    <i name="Edipol_quadrupol">      0.00000000 </i>
    <i name="Eion">      0.00000000 </i>
   </dipole>
   <energy>
    <i name="e_fr_energy">   -188.26215537 </i>
    <i name="e_wo_entrp">   -188.03715607 </i>
    <i name="e_0_energy">   -188.14965572 </i>
   </energy>
  </scstep>
  <scstep>
   <time name="diag">    1.49    1.50</time>
   <time name="diis">    4.43    4.46</time>
   <time name="orth">    0.38    0.38</time>
   <time name="total">    6.59    6.63</time>
   <dipole>
    <v name="dipole">      0.00000000       0.00000000      -0.17679357 </v>
    <i name="Tr[quadrupol]"> -10253.85578874 </i>
    <i name="Echarged">      0.00000000 </i>
    <i name="Edipol_quadrupol">      0.00000000 </i>
    <i name="Eion">      0.00000000 </i>
   </dipole>
   <energy>
    <i name="e_fr_energy">   -188.24014073 </i>
    <i name="e_wo_entrp">   -188.01337253 </i>
    <i name="e_0_energy">   -188.12675663 </i>
   </energy>
  </scstep>
  <scstep>
   <time name="diag">    1.53    1.54</time>
   <time name="diis">    4.40    4.43</time>
   <time name="orth">    0.38    0.38</time>
   <time name="total">    6.60    6.64</time>
   <dipole>
    <v name="dipole">      0.00000000       0.00000000      -0.16873388 </v>
    <i name="Tr[quadrupol]"> -10253.92706929 </i>
    <i name="Echarged">      0.00000000 </i>
    <i name="Edipol_quadrupol">      0.00000000 </i>
    <i name="Eion">      0.00000000 </i>
   </dipole>
   <energy>
    <i name="e_fr_energy">   -188.23506637 </i>
    <i name="e_wo_entrp">   -188.01001641 </i>
    <i name="e_0_energy">   -188.12254139 </i>
   </energy>
  </scstep>
  <scstep>
   <time name="diag">    1.48    1.49</time>
   <time name="diis">    4.42    4.44</time>
   <time name="orth">    0.37    0.38</time>
   <time name="total">    6.56    6.59</time>
   <dipole>
    <v name="dipole">      0.00000000       0.00000000      -0.15916965 </v>
    <i name="Tr[quadrupol]"> -10254.04743721 </i>
    <i name="Echarged">      0.00000000 </i>
    <i name="Edipol_quadrupol">      0.00000000 </i>
    <i name="Eion">      0.00000000 </i>
   </dipole>
   <energy>
    <i name="e_fr_energy">   -188.23268969 </i>
    <i name="e_wo_entrp">   -188.00920955 </i>
    <i name="e_0_energy">   -188.12094962 </i>
   </energy>
  </scstep>
  <scstep>
   <time name="diag">    1.48    1.48</time>
   <time name="diis">    4.40    4.44</time>
   <time name="orth">    0.37    0.38</time>
   <time name="total">    6.52    6.69</time>
   <dipole>
    <v name="dipole">      0.00000000       0.00000000      -0.15047337 </v>
    <i name="Tr[quadrupol]"> -10254.14107242 </i>
    <i name="Echarged">      0.00000000 </i>
    <i name="Edipol_quadrupol">      0.00000000 </i>
    <i name="Eion">      0.00000000 </i>
   </dipole>
   <energy>
    <i name="e_fr_energy">   -188.23019524 </i>
    <i name="e_wo_entrp">   -188.00924181 </i>
    <i name="e_0_energy">   -188.11971853 </i>
   </energy>
  </scstep>
  <scstep>
   <time name="diag">    1.46    1.51</time>
   <time name="diis">    4.33    4.42</time>
   <time name="orth">    0.37    0.38</time>
   <time name="total">    6.44    6.60</time>
   <dipole>
    <v name="dipole">      0.00000000       0.00000000      -0.14006888 </v>
    <i name="Tr[quadrupol]"> -10254.22771114 </i>
    <i name="Echarged">      0.00000000 </i>
    <i name="Edipol_quadrupol">      0.00000000 </i>
    <i name="Eion">      0.00000000 </i>
   </dipole>
   <energy>
    <i name="e_fr_energy">   -188.22804763 </i>
    <i name="e_wo_entrp">   -188.00664786 </i>
    <i name="e_0_energy">   -188.11734775 </i>
   </energy>
  </scstep>
  <scstep>
   <time name="diag">    1.52    1.53</time>
   <time name="diis">    4.38    4.43</time>
   <time name="orth">    0.37    0.37</time>
   <time name="total">    6.55    6.62</time>
   <dipole>
    <v name="dipole">      0.00000000       0.00000000      -0.13421976 </v>
    <i name="Tr[quadrupol]"> -10254.27356066 </i>
    <i name="Echarged">      0.00000000 </i>
    <i name="Edipol_quadrupol">      0.00000000 </i>
    <i name="Eion">      0.00000000 </i>
   </dipole>
   <energy>
    <i name="e_fr_energy">   -188.22776968 </i>
    <i name="e_wo_entrp">   -188.00624897 </i>
    <i name="e_0_energy">   -188.11700933 </i>
   </energy>
  </scstep>
  <scstep>
   <time name="diag">    1.49    1.49</time>
   <time name="diis">    4.41    4.43</time>
   <time name="orth">    0.37    0.37</time>
   <time name="total">    6.55    6.59</time>
   <dipole>
    <v name="dipole">      0.00000000       0.00000000      -0.12181733 </v>
    <i name="Tr[quadrupol]"> -10254.37675398 </i>
    <i name="Echarged">      0.00000000 </i>
    <i name="Edipol_quadrupol">      0.00000000 </i>
    <i name="Eion">      0.00000000 </i>
   </dipole>
   <energy>
    <i name="e_fr_energy">   -188.22780555 </i>
    <i name="e_wo_entrp">   -188.00557405 </i>
    <i name="e_0_energy">   -188.11668980 </i>
   </energy>
  </scstep>
  <scstep>
   <time name="diag">    1.48    1.49</time>
   <time name="diis">    4.34    4.36</time>
   <time name="orth">    0.38    0.38</time>
   <time name="total">    6.49    6.52</time>
   <dipole>
    <v name="dipole">      0.00000000       0.00000000      -0.11069645 </v>
    <i name="Tr[quadrupol]"> -10254.47774068 </i>
    <i name="Echarged">      0.00000000 </i>
    <i name="Edipol_quadrupol">      0.00000000 </i>
    <i name="Eion">      0.00000000 </i>
   </dipole>
   <energy>
    <i name="e_fr_energy">   -188.22800268 </i>
    <i name="e_wo_entrp">   -188.00546628 </i>
    <i name="e_0_energy">   -188.11673448 </i>
   </energy>
  </scstep>
  <scstep>
   <time name="diag">    1.48    1.49</time>
   <time name="diis">    4.37    4.39</time>
   <time name="orth">    0.37    0.37</time>
   <time name="total">    6.51    6.55</time>
   <dipole>
    <v name="dipole">      0.00000000       0.00000000      -0.10395379 </v>
    <i name="Tr[quadrupol]"> -10254.53958700 </i>
    <i name="Echarged">      0.00000000 </i>
    <i name="Edipol_quadrupol">      0.00000000 </i>
    <i name="Eion">      0.00000000 </i>
   </dipole>
   <energy>
    <i name="e_fr_energy">   -188.22818172 </i>
    <i name="e_wo_entrp">   -188.00601492 </i>
    <i name="e_0_energy">   -188.11709832 </i>
   </energy>
  </scstep>
  <scstep>
   <time name="diag">    1.52    1.53</time>
   <time name="diis">    4.37    4.39</time>
   <time name="orth">    0.37    0.37</time>
   <time name="total">    6.55    6.59</time>
   <dipole>
    <v name="dipole">      0.00000000       0.00000000      -0.09681079 </v>
    <i name="Tr[quadrupol]"> -10254.60714414 </i>
    <i name="Echarged">      0.00000000 </i>
    <i name="Edipol_quadrupol">      0.00000000 </i>
    <i name="Eion">      0.00000000 </i>
   </dipole>
   <energy>
    <i name="e_fr_energy">   -188.22859016 </i>
    <i name="e_wo_entrp">   -188.00655291 </i>
    <i name="e_0_energy">   -188.11757153 </i>
   </energy>
  </scstep>
  <scstep>
   <time name="diag">    1.43    1.52</time>
   <time name="diis">    4.35    4.37</time>
   <time name="orth">    0.37    0.37</time>
   <time name="total">    6.44    6.56</time>
   <dipole>
    <v name="dipole">      0.00000000       0.00000000      -0.09044457 </v>
    <i name="Tr[quadrupol]"> -10254.66224044 </i>
    <i name="Echarged">      0.00000000 </i>
    <i name="Edipol_quadrupol">      0.00000000 </i>
    <i name="Eion">      0.00000000 </i>
   </dipole>
   <energy>
    <i name="e_fr_energy">   -188.22902196 </i>
    <i name="e_wo_entrp">   -188.00702017 </i>
    <i name="e_0_energy">   -188.11802106 </i>
   </energy>
  </scstep>
  <scstep>
   <time name="diag">    1.48    1.49</time>
   <time name="diis">    4.35    4.37</time>
   <time name="orth">    0.38    0.38</time>
   <time name="total">    6.50    6.54</time>
   <dipole>
    <v name="dipole">      0.00000000       0.00000000      -0.08399318 </v>
    <i name="Tr[quadrupol]"> -10254.71045707 </i>
    <i name="Echarged">      0.00000000 </i>
    <i name="Edipol_quadrupol">      0.00000000 </i>
    <i name="Eion">      0.00000000 </i>
   </dipole>
   <energy>
    <i name="e_fr_energy">   -188.22951565 </i>
    <i name="e_wo_entrp">   -188.00747141 </i>
    <i name="e_0_energy">   -188.11849353 </i>
   </energy>
  </scstep>
  <scstep>
   <time name="diag">    1.48    1.51</time>
   <time name="diis">    4.21    4.26</time>
   <time name="orth">    0.37    0.37</time>
   <time name="total">    6.34    6.43</time>
   <dipole>
    <v name="dipole">      0.00000000       0.00000000      -0.07827063 </v>
    <i name="Tr[quadrupol]"> -10254.75052066 </i>
    <i name="Echarged">      0.00000000 </i>
    <i name="Edipol_quadrupol">      0.00000000 </i>
    <i name="Eion">      0.00000000 </i>
   </dipole>
   <energy>
    <i name="e_fr_energy">   -188.22995613 </i>
    <i name="e_wo_entrp">   -188.00783710 </i>
    <i name="e_0_energy">   -188.11889661 </i>
   </energy>
  </scstep>
  <scstep>
   <time name="diag">    1.52    1.53</time>
   <time name="diis">    3.96    3.98</time>
   <time name="orth">    0.37    0.37</time>
   <time name="total">    6.14    6.18</time>
   <dipole>
    <v name="dipole">      0.00000000       0.00000000      -0.07205043 </v>
    <i name="Tr[quadrupol]"> -10254.79232722 </i>
    <i name="Echarged">      0.00000000 </i>
    <i name="Edipol_quadrupol">      0.00000000 </i>
    <i name="Eion">      0.00000000 </i>
   </dipole>
   <energy>
    <i name="e_fr_energy">   -188.23038300 </i>
    <i name="e_wo_entrp">   -188.00834540 </i>
    <i name="e_0_energy">   -188.11936420 </i>
   </energy>
  </scstep>
  <scstep>
   <time name="diag">    1.48    1.49</time>
   <time name="diis">    3.58    3.64</time>
   <time name="orth">    0.37    0.37</time>
   <time name="total">    5.72    5.80</time>
   <dipole>
    <v name="dipole">      0.00000000       0.00000000      -0.06797808 </v>
    <i name="Tr[quadrupol]"> -10254.81895969 </i>
    <i name="Echarged">      0.00000000 </i>
    <i name="Edipol_quadrupol">      0.00000000 </i>
    <i name="Eion">      0.00000000 </i>
   </dipole>
   <energy>
    <i name="e_fr_energy">   -188.23060574 </i>
    <i name="e_wo_entrp">   -188.00853834 </i>
    <i name="e_0_energy">   -188.11957204 </i>
   </energy>
  </scstep>
  <scstep>
   <time name="diag">    1.49    1.50</time>
   <time name="diis">    3.44    3.46</time>
   <time name="orth">    0.37    0.37</time>
   <time name="total">    5.59    5.62</time>
   <dipole>
    <v name="dipole">      0.00000000       0.00000000      -0.06361703 </v>
    <i name="Tr[quadrupol]"> -10254.84136777 </i>
    <i name="Echarged">      0.00000000 </i>
    <i name="Edipol_quadrupol">      0.00000000 </i>
    <i name="Eion">      0.00000000 </i>
   </dipole>
   <energy>
    <i name="e_fr_energy">   -188.23079336 </i>
    <i name="e_wo_entrp">   -188.00874652 </i>
    <i name="e_0_energy">   -188.11976994 </i>
   </energy>
  </scstep>
  <scstep>
   <time name="diag">    1.48    1.49</time>
   <time name="diis">    2.89    3.00</time>
   <time name="orth">    0.37    0.37</time>
   <time name="total">    5.03    5.15</time>
   <dipole>
    <v name="dipole">      0.00000000       0.00000000      -0.06188839 </v>
    <i name="Tr[quadrupol]"> -10254.84972640 </i>
    <i name="Echarged">      0.00000000 </i>
    <i name="Edipol_quadrupol">      0.00000000 </i>
    <i name="Eion">      0.00000000 </i>
   </dipole>
   <energy>
    <i name="e_fr_energy">   -188.23085478 </i>
    <i name="e_wo_entrp">   -188.00880229 </i>
    <i name="e_0_energy">   -188.11982853 </i>
   </energy>
  </scstep>
  <scstep>
   <time name="diag">    1.52    1.53</time>
   <time name="diis">    2.88    2.89</time>
   <time name="orth">    0.37    0.37</time>
   <time name="total">    5.06    5.08</time>
   <dipole>
    <v name="dipole">      0.00000000       0.00000000      -0.05942663 </v>
    <i name="Tr[quadrupol]"> -10254.85950523 </i>
    <i name="Echarged">      0.00000000 </i>
    <i name="Edipol_quadrupol">      0.00000000 </i>
    <i name="Eion">      0.00000000 </i>
   </dipole>
   <energy>
    <i name="e_fr_energy">   -188.23093388 </i>
    <i name="e_wo_entrp">   -188.00889904 </i>
    <i name="e_0_energy">   -188.11991646 </i>
   </energy>
  </scstep>
  <scstep>
   <time name="diag">    1.48    1.49</time>
   <time name="diis">    2.68    2.70</time>
   <time name="orth">    0.37    0.37</time>
   <time name="total">    4.82    4.85</time>
   <dipole>
    <v name="dipole">      0.00000000       0.00000000      -0.05800756 </v>
    <i name="Tr[quadrupol]"> -10254.86419935 </i>
    <i name="Echarged">      0.00000000 </i>
    <i name="Edipol_quadrupol">      0.00000000 </i>
    <i name="Eion">      0.00000000 </i>
   </dipole>
   <energy>
    <i name="e_fr_energy">   -188.23097068 </i>
    <i name="e_wo_entrp">   -188.00894341 </i>
    <i name="e_0_energy">   -188.11995705 </i>
   </energy>
  </scstep>
  <scstep>
   <time name="diag">    1.48    1.49</time>
   <time name="diis">    2.70    2.71</time>
   <time name="orth">    0.37    0.37</time>
   <time name="total">    4.84    4.87</time>
   <dipole>
    <v name="dipole">      0.00000000       0.00000000      -0.05645168 </v>
    <i name="Tr[quadrupol]"> -10254.86808862 </i>
    <i name="Echarged">      0.00000000 </i>
    <i name="Edipol_quadrupol">      0.00000000 </i>
    <i name="Eion">      0.00000000 </i>
   </dipole>
   <energy>
    <i name="e_fr_energy">   -188.23100394 </i>
    <i name="e_wo_entrp">   -188.00897664 </i>
    <i name="e_0_energy">   -188.11999029 </i>
   </energy>
  </scstep>
  <scstep>
   <time name="diag">    1.48    1.48</time>
   <time name="diis">    2.51    2.53</time>
   <time name="orth">    0.37    0.37</time>
   <time name="total">    4.65    4.67</time>
   <dipole>
    <v name="dipole">      0.00000000       0.00000000      -0.05514967 </v>
    <i name="Tr[quadrupol]"> -10254.87199785 </i>
    <i name="Echarged">      0.00000000 </i>
    <i name="Edipol_quadrupol">      0.00000000 </i>
    <i name="Eion">      0.00000000 </i>
   </dipole>
   <energy>
    <i name="e_fr_energy">   -188.23102266 </i>
    <i name="e_wo_entrp">   -188.00900435 </i>
    <i name="e_0_energy">   -188.12001350 </i>
   </energy>
  </scstep>
  <scstep>
   <time name="diag">    1.52    1.53</time>
   <time name="diis">    2.35    2.36</time>
   <time name="orth">    0.37    0.37</time>
   <time name="total">    4.52    4.55</time>
   <dipole>
    <v name="dipole">      0.00000000       0.00000000      -0.05422292 </v>
    <i name="Tr[quadrupol]"> -10254.87493129 </i>
    <i name="Echarged">      0.00000000 </i>
    <i name="Edipol_quadrupol">      0.00000000 </i>
    <i name="Eion">      0.00000000 </i>
   </dipole>
   <energy>
    <i name="e_fr_energy">   -188.23103090 </i>
    <i name="e_wo_entrp">   -188.00901569 </i>
    <i name="e_0_energy">   -188.12002329 </i>
   </energy>
  </scstep>
  <scstep>
   <time name="diag">    1.48    1.48</time>
   <time name="diis">    2.20    2.21</time>
   <time name="orth">    0.37    0.37</time>
   <time name="total">    4.34    4.36</time>
   <dipole>
    <v name="dipole">      0.00000000       0.00000000      -0.05361007 </v>
    <i name="Tr[quadrupol]"> -10254.87699412 </i>
    <i name="Echarged">      0.00000000 </i>
    <i name="Edipol_quadrupol">      0.00000000 </i>
    <i name="Eion">      0.00000000 </i>
   </dipole>
   <energy>
    <i name="e_fr_energy">   -188.23103565 </i>
    <i name="e_wo_entrp">   -188.00902255 </i>
    <i name="e_0_energy">   -188.12002910 </i>
   </energy>
  </scstep>
  <scstep>
   <time name="diag">    1.47    1.48</time>
   <time name="diis">    2.03    2.04</time>
   <time name="orth">    0.37    0.37</time>
   <time name="total">    4.17    4.19</time>
   <dipole>
    <v name="dipole">      0.00000000       0.00000000      -0.05329392 </v>
    <i name="Tr[quadrupol]"> -10254.87814347 </i>
    <i name="Echarged">      0.00000000 </i>
    <i name="Edipol_quadrupol">      0.00000000 </i>
    <i name="Eion">      0.00000000 </i>
   </dipole>
   <energy>
    <i name="e_fr_energy">   -188.23103780 </i>
    <i name="e_wo_entrp">   -188.00902673 </i>
    <i name="e_0_energy">   -188.12003226 </i>
   </energy>
  </scstep>
  <scstep>
   <time name="diag">    1.48    1.48</time>
   <time name="diis">    1.93    1.94</time>
   <time name="orth">    0.37    0.37</time>
   <time name="total">    4.06    4.08</time>
   <dipole>
    <v name="dipole">      0.00000000       0.00000000      -0.05301942 </v>
    <i name="Tr[quadrupol]"> -10254.87930195 </i>
    <i name="Echarged">      0.00000000 </i>
    <i name="Edipol_quadrupol">      0.00000000 </i>
    <i name="Eion">      0.00000000 </i>
   </dipole>
   <energy>
    <i name="e_fr_energy">   -188.23103972 </i>
    <i name="e_wo_entrp">   -188.00902916 </i>
    <i name="e_0_energy">   -188.12003444 </i>
   </energy>
  </scstep>
  <scstep>
   <time name="diag">    1.49    1.53</time>
   <time name="diis">    1.86    1.93</time>
   <time name="orth">    0.37    0.37</time>
   <time name="total">    4.01    4.12</time>
   <dipole>
    <v name="dipole">      0.00000000       0.00000000      -0.05280614 </v>
    <i name="Tr[quadrupol]"> -10254.88036664 </i>
    <i name="Echarged">      0.00000000 </i>
    <i name="Edipol_quadrupol">      0.00000000 </i>
    <i name="Eion">      0.00000000 </i>
   </dipole>
   <energy>
    <i name="e_fr_energy">   -188.23104140 </i>
    <i name="e_wo_entrp">   -188.00903160 </i>
    <i name="e_0_energy">   -188.12003650 </i>
   </energy>
  </scstep>
  <scstep>
   <time name="diag">    1.47    1.48</time>
   <time name="diis">    1.71    1.72</time>
   <time name="orth">    0.37    0.37</time>
   <time name="total">    3.61    3.63</time>
   <dipole>
    <v name="dipole">      0.00000000       0.00000000      -0.05268682 </v>
    <i name="Tr[quadrupol]"> -10254.88104408 </i>
    <i name="Echarged">      0.00000000 </i>
    <i name="Edipol_quadrupol">      0.00000000 </i>
    <i name="Eion">      0.00000000 </i>
   </dipole>
   <energy>
    <i name="alphaZ">    805.93597999 </i>
    <i name="ewald"> 200195.03505381 </i>
    <i name="hartreedc">-242379.32651379 </i>
    <i name="XCdc">   -343.40714382 </i>
    <i name="pawpsdc">  49404.87929408 </i>
    <i name="pawaedc"> -47483.11939515 </i>
    <i name="eentropy">     -0.22201019 </i>
    <i name="bandstr">  -2047.79217932 </i>
    <i name="atom">  41659.78587232 </i>
    <i name="e_fr_energy">   -188.23104208 </i>
    <i name="e_wo_entrp">   -188.00903189 </i>
    <i name="e_0_energy">   -188.12003698 </i>
   </energy>
  </scstep>
  <structure>
   <crystal>
    <varray name="basis" >
     <v>      11.00258152       0.00000000       0.00000000 </v>
     <v>       5.50129076       9.52851510       0.00000000 </v>
     <v>       0.00000000       0.00000000      24.49178509 </v>
    </varray>
    <i name="volume">   2567.67623402 </i>
    <varray name="rec_basis" >
     <v>       0.09088776      -0.05247407       0.00000000 </v>
     <v>       0.00000000       0.10494815       0.00000000 </v>
     <v>       0.00000000       0.00000000       0.04083002 </v>
    </varray>
   </crystal>
   <varray name="positions" >
    <v>       0.08333333       0.08333333       0.40830017 </v>
    <v>       0.83333333       0.83333333       0.40830017 </v>
    <v>       0.75000000       0.50000000       0.59169983 </v>
    <v>       0.75000000       0.25000000       0.59169983 </v>
    <v>       0.75000000       0.00000000       0.59169983 </v>
    <v>       0.41666667       0.91666667       0.50000000 </v>
    <v>       0.50000000       0.50000000       0.59169983 </v>
    <v>       0.50000000       0.25000000       0.59169983 </v>
    <v>       0.41666667       0.41666667       0.50000000 </v>
    <v>       0.41666667       0.16666667       0.50000000 </v>
    <v>       0.58333333       0.08333333       0.40830017 </v>
    <v>       0.66666667       0.91666667       0.50000000 </v>
    <v>       0.16666667       0.91666667       0.50000000 </v>
    <v>       0.25000000       0.50000000       0.59169983 </v>
    <v>       0.16666667       0.66666667       0.50000000 </v>
    <v>       0.25000000       0.75000000       0.59169983 </v>
    <v>       0.75000000       0.75000000       0.59169983 </v>
    <v>       0.00000000       0.00000000       0.59169983 </v>
    <v>       0.16666667       0.16666667       0.50000000 </v>
    <v>       0.00000000       0.50000000       0.59169983 </v>
    <v>       0.08333333       0.33333333       0.40830017 </v>
    <v>       0.00000000       0.75000000       0.59169983 </v>
    <v>       0.00000000       0.25000000       0.59169983 </v>
    <v>       0.91666667       0.41666667       0.50000000 </v>
    <v>       0.50000000       0.75000000       0.59169983 </v>
    <v>       0.83333333       0.08333333       0.40830017 </v>
    <v>       0.66666667       0.16666667       0.50000000 </v>
    <v>       0.66666667       0.41666667       0.50000000 </v>
    <v>       0.83333333       0.58333333       0.40830017 </v>
    <v>       0.66666667       0.66666667       0.50000000 </v>
    <v>       0.91666667       0.16666667       0.50000000 </v>
    <v>       0.83333333       0.33333333       0.40830017 </v>
    <v>       0.58333333       0.83333333       0.40830017 </v>
    <v>       0.16666667       0.41666667       0.50000000 </v>
    <v>       0.33333333       0.33333333       0.40830017 </v>
    <v>       0.58333333       0.58333333       0.40830017 </v>
    <v>       0.91666667       0.66666667       0.50000000 </v>
    <v>       0.58333333       0.33333333       0.40830017 </v>
    <v>       0.50000000       0.00000000       0.59169983 </v>
    <v>       0.08333333       0.83333333       0.40830017 </v>
    <v>       0.91666667       0.91666667       0.50000000 </v>
    <v>       0.33333333       0.08333333       0.40830017 </v>
    <v>       0.33333333       0.83333333       0.40830017 </v>
    <v>       0.25000000       0.00000000       0.59169983 </v>
    <v>       0.33333333       0.58333333       0.40830017 </v>
    <v>       0.25000000       0.25000000       0.59169983 </v>
    <v>       0.08333333       0.58333333       0.40830017 </v>
    <v>       0.41666667       0.66666667       0.50000000 </v>
   </varray>
  </structure>
  <varray name="forces" >
   <v>      -0.30202483      -0.14691540      -1.59783256 </v>
   <v>       0.23636738      -0.28619788      -1.30902893 </v>
   <v>      -0.26958063       0.33012823       1.35438068 </v>
   <v>       0.00004845      -0.02017736       1.13084840 </v>
   <v>      -0.10625647       0.07392305       1.36875960 </v>
   <v>       0.01079343      -0.51352278       0.00307122 </v>
   <v>       0.27352407       0.32226443       1.37843770 </v>
   <v>      -0.24917246      -0.29771533       1.59663919 </v>
   <v>       0.28276045      -0.00021310      -0.90015327 </v>
   <v>      -0.21701316       0.23617031      -0.03870008 </v>
   <v>       0.03379145       0.28967666      -1.59284880 </v>
   <v>       0.00561029      -0.28819572      -0.03487985 </v>
   <v>      -0.06204712      -0.13381965      -0.32929548 </v>
   <v>      -0.27570495      -0.31433240       1.65986013 </v>
   <v>      -0.28539298      -0.01368994      -0.91152185 </v>
   <v>       0.51871644       0.14783758       1.64434701 </v>
   <v>      -0.36544643       0.04927462       1.36174053 </v>
   <v>       0.10649524       0.08956103       1.39350578 </v>
   <v>       0.26013891       0.02751423       0.23456192 </v>
   <v>       0.26292266      -0.14888005       1.39999649 </v>
   <v>       0.26671669       0.30354552      -1.58967127 </v>
   <v>      -0.14344384       0.07862341       1.39558869 </v>
   <v>       0.25427471      -0.30262087       1.59239902 </v>
   <v>      -0.33029567       0.39223890      -0.61539110 </v>
   <v>      -0.00669432       0.10881206       0.70376950 </v>
   <v>       0.11166725       0.22561772      -0.58978174 </v>
   <v>       0.51768076       0.08476727      -0.34430299 </v>
   <v>      -0.00698853       0.05753305      -0.63018761 </v>
   <v>      -0.23223156       0.06602054      -0.65725263 </v>
   <v>      -0.22784591      -0.10256508      -0.39039342 </v>
   <v>      -0.54920723       0.08006467      -0.36777871 </v>
   <v>      -0.36738220       0.11442758      -0.68794606 </v>
   <v>      -0.29179949      -0.25815413      -0.86033412 </v>
   <v>       0.02147146       0.08713452      -0.22875197 </v>
   <v>       0.03377836       0.15159510      -0.88270834 </v>
   <v>       0.01673522      -0.01311501      -0.53794849 </v>
   <v>      -0.01645315      -0.12820483      -0.40964642 </v>
   <v>       0.19970405       0.13308221      -0.65233388 </v>
   <v>      -0.27028808      -0.00967515       1.01194331 </v>
   <v>       0.01592452      -0.09365047      -0.81804100 </v>
   <v>       0.03379663       0.22864659      -0.37238474 </v>
   <v>       0.07575813      -0.12203594      -1.08619151 </v>
   <v>       0.13527614      -0.23851748      -0.86753564 </v>
   <v>       0.26572530      -0.02280794       1.01812453 </v>
   <v>       0.12146943       0.03507764      -0.76096240 </v>
   <v>      -0.00406495      -0.10211647       0.93638688 </v>
   <v>       0.07291581      -0.03823759      -0.66953900 </v>
   <v>       0.44527075      -0.11817635      -0.45101672 </v>
  </varray>
  <energy>
   <i name="e_fr_energy">   -188.23104208 </i>
   <i name="e_wo_entrp">   -188.12003698 </i>
   <i name="e_0_energy">     -0.22201019 </i>
  </energy>
  <time name="totalsc">  288.49  291.20</time>
 </calculation>
 <calculation>
  <scstep>
   <time name="dav">    8.59    8.64</time>
   <time name="total">    8.86    8.92</time>
   <dipole>
    <v name="dipole">      0.00000000       0.00000000      -0.05261149 </v>
    <i name="Tr[quadrupol]"> -10260.22424663 </i>
    <i name="Echarged">      0.00000000 </i>
    <i name="Edipol_quadrupol">      0.00000000 </i>
    <i name="Eion">      0.00000000 </i>
   </dipole>
   <energy>
    <i name="alphaZ">    805.93696106 </i>
    <i name="ewald"> 197472.36120243 </i>
    <i name="hartreedc">-239673.04647598 </i>
    <i name="XCdc">   -345.63992333 </i>
    <i name="pawpsdc">  49404.87726467 </i>
    <i name="pawaedc"> -47483.11732917 </i>
    <i name="eentropy">     -0.22015241 </i>
    <i name="bandstr">  -2030.27497932 </i>
    <i name="atom">  41659.78587232 </i>
    <i name="e_fr_energy">   -189.33755973 </i>
    <i name="e_wo_entrp">   -189.11740732 </i>
    <i name="e_0_energy">   -189.22748353 </i>
   </energy>
  </scstep>
  <scstep>
   <time name="diag">    1.47    1.47</time>
   <time name="diis">    4.53    4.55</time>
   <time name="orth">    0.37    0.37</time>
   <time name="total">    6.65    6.69</time>
   <dipole>
    <v name="dipole">      0.00000000       0.00000000      -0.04953390 </v>
    <i name="Tr[quadrupol]"> -10259.97055095 </i>
    <i name="Echarged">      0.00000000 </i>
    <i name="Edipol_quadrupol">      0.00000000 </i>
    <i name="Eion">      0.00000000 </i>
   </dipole>
   <energy>
    <i name="e_fr_energy">   -189.74258586 </i>
    <i name="e_wo_entrp">   -189.53142657 </i>
    <i name="e_0_energy">   -189.63700622 </i>
   </energy>
  </scstep>
  <scstep>
   <time name="diag">    1.49    1.50</time>
   <time name="diis">    4.71    4.74</time>
   <time name="orth">    0.36    0.37</time>
   <time name="total">    6.84    6.88</time>
   <dipole>
    <v name="dipole">      0.00000000       0.00000000      -0.03118664 </v>
    <i name="Tr[quadrupol]"> -10260.45798855 </i>
    <i name="Echarged">      0.00000000 </i>
    <i name="Edipol_quadrupol">      0.00000000 </i>
    <i name="Eion">      0.00000000 </i>
   </dipole>
   <energy>
    <i name="e_fr_energy">   -189.87553504 </i>
    <i name="e_wo_entrp">   -189.63499137 </i>
    <i name="e_0_energy">   -189.75526320 </i>
   </energy>
  </scstep>
  <scstep>
   <time name="diag">    1.52    1.53</time>
   <time name="diis">    4.57    4.61</time>
   <time name="orth">    0.37    0.37</time>
   <time name="total">    6.75    6.80</time>
   <dipole>
    <v name="dipole">      0.00000000       0.00000000      -0.09810776 </v>
    <i name="Tr[quadrupol]"> -10260.33406914 </i>
    <i name="Echarged">      0.00000000 </i>
    <i name="Edipol_quadrupol">      0.00000000 </i>
    <i name="Eion">      0.00000000 </i>
   </dipole>
   <energy>
    <i name="e_fr_energy">   -189.73712356 </i>
    <i name="e_wo_entrp">   -189.52667332 </i>
    <i name="e_0_energy">   -189.63189844 </i>
   </energy>
  </scstep>
  <scstep>
   <time name="diag">    1.47    1.51</time>
   <time name="diis">    4.47    4.55</time>
   <time name="orth">    0.37    0.37</time>
   <time name="total">    6.59    6.71</time>
   <dipole>
    <v name="dipole">      0.00000000       0.00000000       0.02600089 </v>
    <i name="Tr[quadrupol]"> -10260.31957322 </i>
    <i name="Echarged">      0.00000000 </i>
    <i name="Edipol_quadrupol">      0.00000000 </i>
    <i name="Eion">      0.00000000 </i>
   </dipole>
   <energy>
    <i name="e_fr_energy">   -189.78978507 </i>
    <i name="e_wo_entrp">   -189.56131438 </i>
    <i name="e_0_energy">   -189.67554972 </i>
   </energy>
  </scstep>
  <scstep>
   <time name="diag">    1.47    1.47</time>
   <time name="diis">    4.54    4.56</time>
   <time name="orth">    0.37    0.37</time>
   <time name="total">    6.67    6.70</time>
   <dipole>
    <v name="dipole">      0.00000000       0.00000000      -0.05058306 </v>
    <i name="Tr[quadrupol]"> -10260.29893687 </i>
    <i name="Echarged">      0.00000000 </i>
    <i name="Edipol_quadrupol">      0.00000000 </i>
    <i name="Eion">      0.00000000 </i>
   </dipole>
   <energy>
    <i name="e_fr_energy">   -189.71913609 </i>
    <i name="e_wo_entrp">   -189.50204275 </i>
    <i name="e_0_energy">   -189.61058942 </i>
   </energy>
  </scstep>
  <scstep>
   <time name="diag">    1.49    1.50</time>
   <time name="diis">    4.53    4.56</time>
   <time name="orth">    0.37    0.37</time>
   <time name="total">    6.67    6.71</time>
   <dipole>
    <v name="dipole">      0.00000000       0.00000000      -0.04463041 </v>
    <i name="Tr[quadrupol]"> -10260.29300431 </i>
    <i name="Echarged">      0.00000000 </i>
    <i name="Edipol_quadrupol">      0.00000000 </i>
    <i name="Eion">      0.00000000 </i>
   </dipole>
   <energy>
    <i name="e_fr_energy">   -189.71159470 </i>
    <i name="e_wo_entrp">   -189.48991643 </i>
    <i name="e_0_energy">   -189.60075556 </i>
   </energy>
  </scstep>
  <scstep>
   <time name="diag">    1.52    1.53</time>
   <time name="diis">    4.48    4.51</time>
   <time name="orth">    0.36    0.37</time>
   <time name="total">    6.66    6.70</time>
   <dipole>
    <v name="dipole">      0.00000000       0.00000000      -0.05340575 </v>
    <i name="Tr[quadrupol]"> -10260.26978058 </i>
    <i name="Echarged">      0.00000000 </i>
    <i name="Edipol_quadrupol">      0.00000000 </i>
    <i name="Eion">      0.00000000 </i>
   </dipole>
   <energy>
    <i name="e_fr_energy">   -189.70984441 </i>
    <i name="e_wo_entrp">   -189.48967310 </i>
    <i name="e_0_energy">   -189.59975876 </i>
   </energy>
  </scstep>
  <scstep>
   <time name="diag">    1.48    1.49</time>
   <time name="diis">    4.49    4.52</time>
   <time name="orth">    0.37    0.37</time>
   <time name="total">    6.62    6.66</time>
   <dipole>
    <v name="dipole">      0.00000000       0.00000000      -0.05161390 </v>
    <i name="Tr[quadrupol]"> -10260.25755242 </i>
    <i name="Echarged">      0.00000000 </i>
    <i name="Edipol_quadrupol">      0.00000000 </i>
    <i name="Eion">      0.00000000 </i>
   </dipole>
   <energy>
    <i name="e_fr_energy">   -189.70907367 </i>
    <i name="e_wo_entrp">   -189.48868255 </i>
    <i name="e_0_energy">   -189.59887811 </i>
   </energy>
  </scstep>
  <scstep>
   <time name="diag">    1.47    1.48</time>
   <time name="diis">    4.54    4.56</time>
   <time name="orth">    0.37    0.37</time>
   <time name="total">    6.66    6.70</time>
   <dipole>
    <v name="dipole">      0.00000000       0.00000000      -0.04794430 </v>
    <i name="Tr[quadrupol]"> -10260.25300756 </i>
    <i name="Echarged">      0.00000000 </i>
    <i name="Edipol_quadrupol">      0.00000000 </i>
    <i name="Eion">      0.00000000 </i>
   </dipole>
   <energy>
    <i name="e_fr_energy">   -189.70888646 </i>
    <i name="e_wo_entrp">   -189.48793499 </i>
    <i name="e_0_energy">   -189.59841073 </i>
   </energy>
  </scstep>
  <scstep>
   <time name="diag">    1.46    1.51</time>
   <time name="diis">    4.56    4.62</time>
   <time name="orth">    0.37    0.37</time>
   <time name="total">    6.67    6.79</time>
   <dipole>
    <v name="dipole">      0.00000000       0.00000000      -0.04846894 </v>
    <i name="Tr[quadrupol]"> -10260.25522144 </i>
    <i name="Echarged">      0.00000000 </i>
    <i name="Edipol_quadrupol">      0.00000000 </i>
    <i name="Eion">      0.00000000 </i>
   </dipole>
   <energy>
    <i name="e_fr_energy">   -189.70885256 </i>
    <i name="e_wo_entrp">   -189.48748256 </i>
    <i name="e_0_energy">   -189.59816756 </i>
   </energy>
  </scstep>
  <scstep>
   <time name="diag">    1.52    1.53</time>
   <time name="diis">    4.56    4.59</time>
   <time name="orth">    0.37    0.37</time>
   <time name="total">    6.75    6.78</time>
   <dipole>
    <v name="dipole">      0.00000000       0.00000000      -0.04925259 </v>
    <i name="Tr[quadrupol]"> -10260.25894449 </i>
    <i name="Echarged">      0.00000000 </i>
    <i name="Edipol_quadrupol">      0.00000000 </i>
    <i name="Eion">      0.00000000 </i>
   </dipole>
   <energy>
    <i name="e_fr_energy">   -189.70883509 </i>
    <i name="e_wo_entrp">   -189.48781335 </i>
    <i name="e_0_energy">   -189.59832422 </i>
   </energy>
  </scstep>
  <scstep>
   <time name="diag">    1.49    1.50</time>
   <time name="diis">    4.54    4.56</time>
   <time name="orth">    0.37    0.38</time>
   <time name="total">    6.69    6.72</time>
   <dipole>
    <v name="dipole">      0.00000000       0.00000000      -0.04921170 </v>
    <i name="Tr[quadrupol]"> -10260.26301139 </i>
    <i name="Echarged">      0.00000000 </i>
    <i name="Edipol_quadrupol">      0.00000000 </i>
    <i name="Eion">      0.00000000 </i>
   </dipole>
   <energy>
    <i name="e_fr_energy">   -189.70883112 </i>
    <i name="e_wo_entrp">   -189.48772095 </i>
    <i name="e_0_energy">   -189.59827603 </i>
   </energy>
  </scstep>
  <scstep>
   <time name="diag">    1.47    1.48</time>
   <time name="diis">    4.36    4.38</time>
   <time name="orth">    0.37    0.37</time>
   <time name="total">    6.49    6.52</time>
   <dipole>
    <v name="dipole">      0.00000000       0.00000000      -0.04906012 </v>
    <i name="Tr[quadrupol]"> -10260.26662479 </i>
    <i name="Echarged">      0.00000000 </i>
    <i name="Edipol_quadrupol">      0.00000000 </i>
    <i name="Eion">      0.00000000 </i>
   </dipole>
   <energy>
    <i name="e_fr_energy">   -189.70882619 </i>
    <i name="e_wo_entrp">   -189.48781084 </i>
    <i name="e_0_energy">   -189.59831852 </i>
   </energy>
  </scstep>
  <scstep>
   <time name="diag">    1.50    1.50</time>
   <time name="diis">    3.08    3.10</time>
   <time name="orth">    0.37    0.37</time>
   <time name="total">    5.00    5.02</time>
   <dipole>
    <v name="dipole">      0.00000000       0.00000000      -0.04902581 </v>
    <i name="Tr[quadrupol]"> -10260.26833964 </i>
    <i name="Echarged">      0.00000000 </i>
    <i name="Edipol_quadrupol">      0.00000000 </i>
    <i name="Eion">      0.00000000 </i>
   </dipole>
   <energy>
    <i name="alphaZ">    805.93236027 </i>
    <i name="ewald"> 197472.36120243 </i>
    <i name="hartreedc">-239675.41967199 </i>
    <i name="XCdc">   -345.57958228 </i>
    <i name="pawpsdc">  48951.60195980 </i>
    <i name="pawaedc"> -47026.70149176 </i>
    <i name="eentropy">     -0.22101639 </i>
    <i name="bandstr">  -2031.46845917 </i>
    <i name="atom">  41659.78587232 </i>
    <i name="e_fr_energy">   -189.70882678 </i>
    <i name="e_wo_entrp">   -189.48781039 </i>
    <i name="e_0_energy">   -189.59831858 </i>
   </energy>
  </scstep>
  <structure>
   <crystal>
    <varray name="basis" >
     <v>      11.00258152       0.00000000       0.00000000 </v>
     <v>       5.50129076       9.52851510       0.00000000 </v>
     <v>       0.00000000       0.00000000      24.49178509 </v>
    </varray>
    <i name="volume">   2567.67623402 </i>
    <varray name="rec_basis" >
     <v>       0.09088776      -0.05247407       0.00000000 </v>
     <v>       0.00000000       0.10494815       0.00000000 </v>
     <v>       0.00000000       0.00000000       0.04083002 </v>
    </varray>
   </crystal>
   <varray name="positions" >
    <v>       0.08266668       0.08281265       0.40609704 </v>
    <v>       0.83456596       0.83231902       0.40649525 </v>
    <v>       0.74858758       0.50117000       0.59356728 </v>
    <v>       0.75003590       0.24992849       0.59325907 </v>
    <v>       0.74954288       0.00026199       0.59358711 </v>
    <v>       0.41760978       0.91484670       0.50000423 </v>
    <v>       0.50026845       0.50114213       0.59360045 </v>
    <v>       0.49976279       0.24894487       0.59390131 </v>
    <v>       0.41753491       0.41666591       0.49875885 </v>
    <v>       0.41558209       0.16750367       0.49994664 </v>
    <v>       0.58292373       0.08435997       0.40610391 </v>
    <v>       0.66719458       0.91564528       0.49995191 </v>
    <v>       0.16671336       0.91619240       0.49954596 </v>
    <v>       0.24971080       0.49888598       0.59398849 </v>
    <v>       0.16581498       0.66661815       0.49874317 </v>
    <v>       0.25133010       0.75052395       0.59396710 </v>
    <v>       0.74879103       0.75017463       0.59357743 </v>
    <v>       0.00016816       0.00031741       0.59362123 </v>
    <v>       0.16741635       0.16676418       0.50032342 </v>
    <v>       0.00107080       0.49947236       0.59363018 </v>
    <v>       0.08361406       0.33440912       0.40610829 </v>
    <v>      -0.00057959       0.75027865       0.59362410 </v>
    <v>       0.00131669       0.24892749       0.59389547 </v>
    <v>       0.91495784       0.41805679       0.49915148 </v>
    <v>       0.49978663       0.75038564       0.59267020 </v>
    <v>       0.83327627       0.08413294       0.40748696 </v>
    <v>       0.66810536       0.16696709       0.49952527 </v>
    <v>       0.66654327       0.41687057       0.49913108 </v>
    <v>       0.83250356       0.58356732       0.40739393 </v>
    <v>       0.66614910       0.66630317       0.49946172 </v>
    <v>       0.91483913       0.16695042       0.49949290 </v>
    <v>       0.83200297       0.33373887       0.40735161 </v>
    <v>       0.58289518       0.83241841       0.40711392 </v>
    <v>       0.16657816       0.41697548       0.49968459 </v>
    <v>       0.33316838       0.33387060       0.40708307 </v>
    <v>       0.58340794       0.58328685       0.40755843 </v>
    <v>       0.91684335       0.66621230       0.49943517 </v>
    <v>       0.58371045       0.33380499       0.40740072 </v>
    <v>       0.49918756      -0.00003429       0.59309512 </v>
    <v>       0.08354816       0.83300143       0.40717223 </v>
    <v>       0.91636523       0.91747701       0.49948655 </v>
    <v>       0.33378211       0.08290083       0.40680250 </v>
    <v>       0.33417119       0.83248801       0.40710399 </v>
    <v>       0.25085600      -0.00008083       0.59310365 </v>
    <v>       0.33364400       0.58345765       0.40725094 </v>
    <v>       0.25016848       0.24963809       0.59299094 </v>
    <v>       0.08362489       0.58319782       0.40737699 </v>
    <v>       0.41824273       0.66624784       0.49937813 </v>
   </varray>
  </structure>
  <varray name="forces" >
   <v>      -0.09658858      -0.01676188      -1.13971427 </v>
   <v>       0.08689773      -0.11190230      -1.00704374 </v>
   <v>      -0.05716193       0.11348212       0.93273778 </v>
   <v>       0.00205309       0.06767717       0.79787430 </v>
   <v>      -0.10128331       0.02592103       0.94852055 </v>
   <v>       0.01515935      -0.21832282      -0.00907658 </v>
   <v>       0.01051095       0.10757887       0.89829177 </v>
   <v>      -0.12534270      -0.09442883       1.04734107 </v>
   <v>       0.15708581       0.01032328      -0.19782014 </v>
   <v>       0.05238486       0.05513957      -0.03735539 </v>
   <v>       0.01458783       0.12052337      -1.11304804 </v>
   <v>       0.06172065      -0.08305289      -0.06938367 </v>
   <v>      -0.04798059      -0.03940436      -0.09878307 </v>
   <v>       0.00820439      -0.11801428       1.04700992 </v>
   <v>      -0.08811811      -0.01704125      -0.16675668 </v>
   <v>       0.20596560       0.03446285       1.04891056 </v>
   <v>      -0.21351973       0.01282067       0.96584897 </v>
   <v>       0.10257632      -0.00593215       0.94714848 </v>
   <v>      -0.05984766       0.05775370       0.01010785 </v>
   <v>       0.01731358      -0.10826936       0.93321898 </v>
   <v>       0.11733605       0.09999264      -1.16648858 </v>
   <v>      -0.00301676       0.04048439       0.89146215 </v>
   <v>       0.12413198      -0.08025318       1.04696920 </v>
   <v>      -0.13753620       0.10284327      -0.15651146 </v>
   <v>       0.01026826       0.11227238       0.56897750 </v>
   <v>       0.03285463       0.11856439      -0.57604440 </v>
   <v>       0.15035885       0.00116372      -0.09808349 </v>
   <v>      -0.01222003       0.05297748      -0.17621489 </v>
   <v>      -0.15891539       0.05838757      -0.63296954 </v>
   <v>      -0.07662788      -0.09211496      -0.12945015 </v>
   <v>      -0.14981390       0.06559566      -0.10460741 </v>
   <v>      -0.17250231       0.05769996      -0.65090699 </v>
   <v>      -0.14015748      -0.11212254      -0.70397554 </v>
   <v>      -0.03131369       0.07831978      -0.06533101 </v>
   <v>       0.02388001       0.08131610      -0.75198610 </v>
   <v>       0.00197631      -0.01362281      -0.57517549 </v>
   <v>      -0.04252527      -0.03253438      -0.08082943 </v>
   <v>       0.13432952       0.08680727      -0.67257233 </v>
   <v>      -0.17706463      -0.00735394       0.71044149 </v>
   <v>       0.03999710      -0.04187274      -0.75111658 </v>
   <v>      -0.02535310       0.10755747      -0.09335280 </v>
   <v>       0.00450928      -0.09244949      -0.77679883 </v>
   <v>       0.07507839      -0.12470250      -0.72043727 </v>
   <v>       0.17396252      -0.03210461       0.73677848 </v>
   <v>       0.10944145       0.04682348      -0.73671530 </v>
   <v>       0.00117215      -0.09128138       0.74135584 </v>
   <v>       0.04019056      -0.05098781      -0.66367115 </v>
   <v>       0.14294203      -0.13195770      -0.15077458 </v>
  </varray>
  <energy>
   <i name="e_fr_energy">   -189.70882678 </i>
   <i name="e_wo_entrp">   -189.59831858 </i>
   <i name="e_0_energy">     -0.22101639 </i>
  </energy>
  <time name="totalsc">  103.59  104.36</time>
 </calculation>
 <calculation>
  <scstep>
   <time name="dav">    8.66    8.78</time>
   <time name="total">    8.93    9.06</time>
   <dipole>
    <v name="dipole">      0.00000000       0.00000000      -0.04897692 </v>
    <i name="Tr[quadrupol]"> -10277.14845747 </i>
    <i name="Echarged">      0.00000000 </i>
    <i name="Edipol_quadrupol">      0.00000000 </i>
    <i name="Eion">      0.00000000 </i>
   </dipole>
   <energy>
    <i name="alphaZ">    805.93530300 </i>
    <i name="ewald"> 189433.67493076 </i>
    <i name="hartreedc">-231678.42432143 </i>
    <i name="XCdc">   -351.03893591 </i>
    <i name="pawpsdc">  48951.45159502 </i>
    <i name="pawaedc"> -47026.55131360 </i>
    <i name="eentropy">     -0.21650657 </i>
    <i name="bandstr">  -1982.58655420 </i>
    <i name="atom">  41659.78587232 </i>
    <i name="e_fr_energy">   -187.96993062 </i>
    <i name="e_wo_entrp">   -187.75342405 </i>
    <i name="e_0_energy">   -187.86167733 </i>
   </energy>
  </scstep>
  <scstep>
   <time name="diag">    1.53    1.53</time>
   <time name="diis">    4.58    4.61</time>
   <time name="orth">    0.36    0.37</time>
   <time name="total">    6.76    6.81</time>
   <dipole>
    <v name="dipole">      0.00000000       0.00000000      -0.04822759 </v>
    <i name="Tr[quadrupol]"> -10276.27682040 </i>
    <i name="Echarged">      0.00000000 </i>
    <i name="Edipol_quadrupol">      0.00000000 </i>
    <i name="Eion">      0.00000000 </i>
   </dipole>
   <energy>
    <i name="e_fr_energy">   -191.59866653 </i>
    <i name="e_wo_entrp">   -191.41719014 </i>
    <i name="e_0_energy">   -191.50792834 </i>
   </energy>
  </scstep>
  <scstep>
   <time name="diag">    1.47    1.50</time>
   <time name="diis">    4.66    4.69</time>
   <time name="orth">    0.37    0.37</time>
   <time name="total">    6.78    6.85</time>
   <dipole>
    <v name="dipole">      0.00000000       0.00000000       0.10309209 </v>
    <i name="Tr[quadrupol]"> -10277.45842512 </i>
    <i name="Echarged">      0.00000000 </i>
    <i name="Edipol_quadrupol">      0.00000000 </i>
    <i name="Eion">      0.00000000 </i>
   </dipole>
   <energy>
    <i name="e_fr_energy">   -192.51659162 </i>
    <i name="e_wo_entrp">   -192.30831870 </i>
    <i name="e_0_energy">   -192.41245516 </i>
   </energy>
  </scstep>
  <scstep>
   <time name="diag">    1.47    1.48</time>
   <time name="diis">    4.54    4.56</time>
   <time name="orth">    0.37    0.37</time>
   <time name="total">    6.67    6.71</time>
   <dipole>
    <v name="dipole">      0.00000000       0.00000000      -0.13673931 </v>
    <i name="Tr[quadrupol]"> -10277.24680818 </i>
    <i name="Echarged">      0.00000000 </i>
    <i name="Edipol_quadrupol">      0.00000000 </i>
    <i name="Eion">      0.00000000 </i>
   </dipole>
   <energy>
    <i name="e_fr_energy">   -191.41327983 </i>
    <i name="e_wo_entrp">   -191.21677324 </i>
    <i name="e_0_energy">   -191.31502654 </i>
   </energy>
  </scstep>
  <scstep>
   <time name="diag">    1.49    1.50</time>
   <time name="diis">    4.50    4.53</time>
   <time name="orth">    0.37    0.37</time>
   <time name="total">    6.64    6.68</time>
   <dipole>
    <v name="dipole">      0.00000000       0.00000000       0.10923088 </v>
    <i name="Tr[quadrupol]"> -10277.27676201 </i>
    <i name="Echarged">      0.00000000 </i>
    <i name="Edipol_quadrupol">      0.00000000 </i>
    <i name="Eion">      0.00000000 </i>
[...]
       <r>    2.3258    0.0000 </r>
       <r>    2.3780    0.0000 </r>
       <r>    2.4681    0.0000 </r>
       <r>    2.5248    0.0000 </r>
       <r>    2.6398    0.0000 </r>
       <r>    3.0221    0.0000 </r>
       <r>    3.1625    0.0000 </r>
       <r>    3.2484    0.0000 </r>
       <r>    3.5420    0.0000 </r>
       <r>    3.6211    0.0000 </r>
       <r>    3.6815    0.0000 </r>
       <r>    3.9656    0.0000 </r>
       <r>    4.0271    0.0000 </r>
       <r>    4.1943    0.0000 </r>
       <r>    4.4709    0.0000 </r>
       <r>    4.5074    0.0000 </r>
       <r>    4.5845    0.0000 </r>
       <r>    4.6005    0.0000 </r>
       <r>    4.6310    0.0000 </r>
       <r>    4.6628    0.0000 </r>
       <r>    4.8200    0.0000 </r>
       <r>    4.8823    0.0000 </r>
       <r>    4.9245    0.0000 </r>
       <r>    4.9756    0.0000 </r>
       <r>    5.0540    0.0000 </r>
       <r>    5.0888    0.0000 </r>
       <r>    5.1475    0.0000 </r>
       <r>    5.2535    0.0000 </r>
      </set>
     </set>
    </set>
   </array>
  </eigenvalues>
  <separator name="orbital magnetization" >
   <v name="MAGDIPOLOUT">      0.00000000      0.00000000      0.00000000</v>
  </separator>
  <dos>
   <i name="efermi">     -1.06289058 </i>
   <total>
    <array>
     <dimension dim="1">gridpoints</dimension>
     <dimension dim="2">spin</dimension>
     <field>energy</field>
     <field>total</field>
     <field>integrated</field>
     <set>
      <set comment="spin 1">
       <r>    -9.8530     0.0000     0.0000 </r>
       <r>    -9.7989     0.0000     0.0000 </r>
       <r>    -9.7447     0.0000     0.0000 </r>
       <r>    -9.6906     0.0000     0.0000 </r>
       <r>    -9.6364     0.0000     0.0000 </r>
       <r>    -9.5823     0.0000     0.0000 </r>
       <r>    -9.5281     0.0000     0.0000 </r>
       <r>    -9.4740     0.0000     0.0000 </r>
       <r>    -9.4198     0.0000     0.0000 </r>
       <r>    -9.3657     0.0000     0.0000 </r>
       <r>    -9.3115     0.0000     0.0000 </r>
       <r>    -9.2574     0.0000     0.0000 </r>
       <r>    -9.2032     0.0000     0.0000 </r>
       <r>    -9.1490     0.0002     0.0000 </r>
       <r>    -9.0949     0.0049     0.0003 </r>
       <r>    -9.0407     0.0612     0.0036 </r>
       <r>    -8.9866     0.4370     0.0273 </r>
       <r>    -8.9324     1.7789     0.1236 </r>
       <r>    -8.8783     4.1383     0.3477 </r>
       <r>    -8.8241     5.5283     0.6471 </r>
       <r>    -8.7700     4.4059     0.8857 </r>
       <r>    -8.7158     2.9094     1.0432 </r>
       <r>    -8.6617     3.5945     1.2378 </r>
       <r>    -8.6075     5.2902     1.5243 </r>
       <r>    -8.5534     5.0017     1.7952 </r>
       <r>    -8.4992     2.7463     1.9439 </r>
       <r>    -8.4451     0.8933     1.9923 </r>
       <r>    -8.3909     0.3909     2.0134 </r>
       <r>    -8.3368     1.1546     2.0760 </r>
       <r>    -8.2826     3.3567     2.2577 </r>
       <r>    -8.2285     6.5187     2.6107 </r>
       <r>    -8.1743     9.6130     3.1313 </r>
       <r>    -8.1202    11.8721     3.7742 </r>
       <r>    -8.0660    11.3950     4.3913 </r>
       <r>    -8.0119     7.4475     4.7946 </r>
       <r>    -7.9577     3.3423     4.9756 </r>
       <r>    -7.9035     2.2502     5.0974 </r>
       <r>    -7.8494     4.0031     5.3142 </r>
       <r>    -7.7952     5.9632     5.6371 </r>
       <r>    -7.7411     5.8904     5.9561 </r>
       <r>    -7.6869     4.8794     6.2203 </r>
       <r>    -7.6328     5.5756     6.5223 </r>
       <r>    -7.5786     8.6035     6.9882 </r>
       <r>    -7.5245    11.0580     7.5870 </r>
       <r>    -7.4703    10.2153     8.1402 </r>
       <r>    -7.4162     8.2222     8.5854 </r>
       <r>    -7.3620     9.3965     9.0943 </r>
       <r>    -7.3079    14.6423     9.8872 </r>
       <r>    -7.2537    20.6824    11.0072 </r>
       <r>    -7.1996    24.5673    12.3375 </r>
       <r>    -7.1454    25.0420    13.6936 </r>
       <r>    -7.0913    23.0852    14.9437 </r>
       <r>    -7.0371    23.4085    16.2114 </r>
       <r>    -6.9830    28.5982    17.7600 </r>
       <r>    -6.9288    35.6278    19.6893 </r>
       <r>    -6.8747    41.0108    21.9102 </r>
       <r>    -6.8205    42.6235    24.2183 </r>
       <r>    -6.7663    40.3398    26.4028 </r>
       <r>    -6.7122    38.0269    28.4621 </r>
       <r>    -6.6580    38.2979    30.5360 </r>
       <r>    -6.6039    38.3721    32.6139 </r>
       <r>    -6.5497    37.0367    34.6195 </r>
       <r>    -6.4956    39.0593    36.7347 </r>
       <r>    -6.4414    46.6786    39.2625 </r>
       <r>    -6.3873    55.1536    42.2491 </r>
       <r>    -6.3331    60.0268    45.4997 </r>
       <r>    -6.2790    60.9972    48.8029 </r>
       <r>    -6.2248    61.0511    52.1089 </r>
       <r>    -6.1707    64.0967    55.5799 </r>
       <r>    -6.1165    70.6954    59.4082 </r>
       <r>    -6.0624    77.6580    63.6136 </r>
       <r>    -6.0082    81.6544    68.0353 </r>
       <r>    -5.9541    82.7039    72.5139 </r>
       <r>    -5.8999    82.6978    76.9922 </r>
       <r>    -5.8458    81.3201    81.3959 </r>
       <r>    -5.7916    77.5267    85.5941 </r>
       <r>    -5.7375    73.1010    89.5527 </r>
       <r>    -5.6833    70.5923    93.3755 </r>
       <r>    -5.6292    69.6124    97.1451 </r>
       <r>    -5.5750    68.6352   100.8619 </r>
       <r>    -5.5208    67.3858   104.5110 </r>
       <r>    -5.4667    66.8655   108.1319 </r>
       <r>    -5.4125    68.0257   111.8156 </r>
       <r>    -5.3584    70.1311   115.6134 </r>
       <r>    -5.3042    73.1880   119.5767 </r>
       <r>    -5.2501    78.1261   123.8074 </r>
       <r>    -5.1959    82.1282   128.2548 </r>
       <r>    -5.1418    82.3351   132.7135 </r>
       <r>    -5.0876    80.9660   137.0980 </r>
       <r>    -5.0335    80.7429   141.4704 </r>
       <r>    -4.9793    81.9608   145.9087 </r>
       <r>    -4.9252    83.8018   150.4468 </r>
       <r>    -4.8710    84.8363   155.0409 </r>
       <r>    -4.8169    85.2254   159.6560 </r>
       <r>    -4.7627    86.3882   164.3341 </r>
       <r>    -4.7086    88.1083   169.1054 </r>
       <r>    -4.6544    89.6624   173.9608 </r>
       <r>    -4.6003    91.7566   178.9297 </r>
       <r>    -4.5461    94.4203   184.0427 </r>
       <r>    -4.4920    95.8461   189.2330 </r>
       <r>    -4.4378    95.1872   194.3876 </r>
       <r>    -4.3836    93.0472   199.4263 </r>
       <r>    -4.3295    90.0089   204.3005 </r>
       <r>    -4.2753    86.7436   208.9979 </r>
       <r>    -4.2212    84.3937   213.5680 </r>
       <r>    -4.1670    82.7348   218.0483 </r>
       <r>    -4.1129    80.4813   222.4065 </r>
       <r>    -4.0587    79.0110   226.6852 </r>
       <r>    -4.0046    81.8477   231.1174 </r>
       <r>    -3.9504    88.9408   235.9337 </r>
       <r>    -3.8963    95.6783   241.1149 </r>
       <r>    -3.8421    99.1123   246.4821 </r>
       <r>    -3.7880   100.8920   251.9456 </r>
       <r>    -3.7338   103.5827   257.5549 </r>
       <r>    -3.6797   106.7568   263.3360 </r>
       <r>    -3.6255   108.2882   269.2000 </r>
       <r>    -3.5714   108.1556   275.0569 </r>
       <r>    -3.5172   107.2591   280.8652 </r>
       <r>    -3.4631   105.8129   286.5952 </r>
       <r>    -3.4089   104.7353   292.2669 </r>
       <r>    -3.3548   104.3279   297.9165 </r>
       <r>    -3.3006   102.2213   303.4520 </r>
       <r>    -3.2465    97.3463   308.7235 </r>
       <r>    -3.1923    92.4614   313.7305 </r>
       <r>    -3.1381    89.1960   318.5607 </r>
       <r>    -3.0840    87.1518   323.2802 </r>
       <r>    -3.0298    87.0305   327.9931 </r>
       <r>    -2.9757    88.4874   332.7849 </r>
       <r>    -2.9215    89.7987   337.6477 </r>
       <r>    -2.8674    90.9146   342.5709 </r>
       <r>    -2.8132    92.1355   347.5602 </r>
       <r>    -2.7591    92.5077   352.5697 </r>
       <r>    -2.7049    91.6630   357.5335 </r>
       <r>    -2.6508    89.8337   362.3982 </r>
       <r>    -2.5966    88.1381   367.1711 </r>
       <r>    -2.5425    88.4136   371.9589 </r>
       <r>    -2.4883    90.0880   376.8374 </r>
       <r>    -2.4342    91.2583   381.7792 </r>
       <r>    -2.3800    91.5468   386.7367 </r>
       <r>    -2.3259    90.1552   391.6188 </r>
       <r>    -2.2717    85.6690   396.2579 </r>
       <r>    -2.2176    80.1300   400.5972 </r>
       <r>    -2.1634    77.6850   404.8040 </r>
       <r>    -2.1093    79.0591   409.0852 </r>
       <r>    -2.0551    82.6794   413.5625 </r>
       <r>    -2.0009    87.8901   418.3219 </r>
       <r>    -1.9468    93.5559   423.3882 </r>
       <r>    -1.8926    97.7064   428.6792 </r>
       <r>    -1.8385    99.6152   434.0736 </r>
       <r>    -1.7843   100.1946   439.4994 </r>
       <r>    -1.7302   100.6839   444.9517 </r>
       <r>    -1.6760   101.5336   450.4499 </r>
       <r>    -1.6219   102.5292   456.0021 </r>
       <r>    -1.5677   102.8305   461.5706 </r>
       <r>    -1.5136   101.8541   467.0863 </r>
       <r>    -1.4594   100.3125   472.5184 </r>
       <r>    -1.4053    98.1927   477.8358 </r>
       <r>    -1.3511    95.1848   482.9902 </r>
       <r>    -1.2970    91.3046   487.9346 </r>
       <r>    -1.2428    85.8101   492.5814 </r>
       <r>    -1.1887    77.5888   496.7830 </r>
       <r>    -1.1345    66.2096   500.3684 </r>
       <r>    -1.0804    52.8715   503.2315 </r>
       <r>    -1.0262    39.8088   505.3873 </r>
       <r>    -0.9721    29.1458   506.9656 </r>
       <r>    -0.9179    21.8520   508.1489 </r>
       <r>    -0.8638    16.8432   509.0610 </r>
       <r>    -0.8096    12.6589   509.7465 </r>
       <r>    -0.7554    10.5785   510.3194 </r>
       <r>    -0.7013    12.0927   510.9742 </r>
       <r>    -0.6471    15.9618   511.8386 </r>
       <r>    -0.5930    20.1013   512.9271 </r>
       <r>    -0.5388    23.0141   514.1734 </r>
       <r>    -0.4847    24.2889   515.4887 </r>
       <r>    -0.4305    23.8637   516.7810 </r>
       <r>    -0.3764    22.3380   517.9906 </r>
       <r>    -0.3222    21.6371   519.1623 </r>
       <r>    -0.2681    21.2205   520.3114 </r>
       <r>    -0.2139    18.1296   521.2932 </r>
       <r>    -0.1598    12.7514   521.9837 </r>
       <r>    -0.1056     8.4676   522.4423 </r>
       <r>    -0.0515     6.7720   522.8090 </r>
       <r>     0.0027     6.7377   523.1738 </r>
       <r>     0.0568     7.9559   523.6047 </r>
       <r>     0.1110    10.8775   524.1937 </r>
       <r>     0.1651    14.1438   524.9596 </r>
       <r>     0.2193    15.3383   525.7902 </r>
       <r>     0.2734    15.3170   526.6197 </r>
       <r>     0.3276    16.8238   527.5307 </r>
       <r>     0.3818    19.7675   528.6012 </r>
       <r>     0.4359    22.3869   529.8135 </r>
       <r>     0.4901    24.3778   531.1336 </r>
       <r>     0.5442    26.3350   532.5597 </r>
       <r>     0.5984    27.2589   534.0358 </r>
       <r>     0.6525    25.1996   535.4005 </r>
       <r>     0.7067    20.8459   536.5293 </r>
       <r>     0.7608    17.3280   537.4677 </r>
       <r>     0.8150    16.2982   538.3502 </r>
       <r>     0.8691    15.7470   539.2030 </r>
       <r>     0.9233    13.6208   539.9406 </r>
       <r>     0.9774    11.2050   540.5474 </r>
       <r>     1.0316     9.9118   541.0841 </r>
       <r>     1.0857     9.1709   541.5807 </r>
       <r>     1.1399     7.8087   542.0036 </r>
       <r>     1.1940     6.0628   542.3319 </r>
       <r>     1.2482     5.3209   542.6200 </r>
       <r>     1.3023     5.7629   542.9321 </r>
       <r>     1.3565     7.0685   543.3149 </r>
       <r>     1.4106     9.3819   543.8229 </r>
       <r>     1.4648    12.4989   544.4998 </r>
       <r>     1.5189    15.5751   545.3432 </r>
       <r>     1.5731    16.7426   546.2499 </r>
       <r>     1.6273    15.3967   547.0836 </r>
       <r>     1.6814    14.3218   547.8592 </r>
       <r>     1.7356    15.9683   548.7239 </r>
       <r>     1.7897    18.7696   549.7403 </r>
       <r>     1.8439    18.6959   550.7527 </r>
       <r>     1.8980    14.6739   551.5474 </r>
       <r>     1.9522    10.3715   552.1090 </r>
       <r>     2.0063     8.7673   552.5838 </r>
       <r>     2.0605     9.2343   553.0838 </r>
       <r>     2.1146    10.9887   553.6789 </r>
       <r>     2.1688    14.0736   554.4410 </r>
       <r>     2.2229    18.0652   555.4193 </r>
       <r>     2.2771    21.9528   556.6081 </r>
       <r>     2.3312    24.4736   557.9334 </r>
       <r>     2.3854    24.8224   559.2776 </r>
       <r>     2.4395    23.0476   560.5256 </r>
       <r>     2.4937    20.7179   561.6476 </r>
       <r>     2.5478    20.3330   562.7486 </r>
       <r>     2.6020    22.5654   563.9706 </r>
       <r>     2.6561    24.6848   565.3074 </r>
       <r>     2.7103    23.5389   566.5820 </r>
       <r>     2.7645    18.7772   567.5989 </r>
       <r>     2.8186    12.5570   568.2789 </r>
       <r>     2.8728     7.7837   568.7004 </r>
       <r>     2.9269     6.0567   569.0283 </r>
       <r>     2.9811     6.4035   569.3751 </r>
       <r>     3.0352     6.5242   569.7284 </r>
       <r>     3.0894     6.1951   570.0639 </r>
       <r>     3.1435     7.4172   570.4655 </r>
       <r>     3.1977    10.1286   571.0140 </r>
       <r>     3.2518    12.1575   571.6724 </r>
       <r>     3.3060    12.2800   572.3374 </r>
       <r>     3.3601    10.7768   572.9210 </r>
       <r>     3.4143     8.9835   573.4074 </r>
       <r>     3.4684     8.6394   573.8753 </r>
       <r>     3.5226    11.2893   574.4866 </r>
       <r>     3.5767    16.6499   575.3883 </r>
       <r>     3.6309    21.6377   576.5600 </r>
       <r>     3.6850    22.6187   577.7848 </r>
       <r>     3.7392    19.0553   578.8167 </r>
       <r>     3.7933    14.0928   579.5799 </r>
       <r>     3.8475    11.0249   580.1769 </r>
       <r>     3.9016    11.1210   580.7791 </r>
       <r>     3.9558    13.8281   581.5280 </r>
       <r>     4.0100    16.5023   582.4216 </r>
       <r>     4.0641    15.6632   583.2698 </r>
       <r>     4.1183    11.8833   583.9133 </r>
       <r>     4.1724     9.9618   584.4528 </r>
       <r>     4.2266    10.6650   585.0303 </r>
       <r>     4.2807     9.9637   585.5698 </r>
       <r>     4.3349     7.8037   585.9924 </r>
       <r>     4.3890     9.0392   586.4819 </r>
       <r>     4.4432    15.4629   587.3193 </r>
       <r>     4.4973    23.1725   588.5741 </r>
       <r>     4.5515    28.6229   590.1241 </r>
       <r>     4.6056    32.0700   591.8608 </r>
       <r>     4.6598    33.2560   593.6617 </r>
       <r>     4.7139    30.0707   595.2901 </r>
       <r>     4.7681    24.2661   596.6041 </r>
       <r>     4.8222    21.3405   597.7598 </r>
       <r>     4.8764    23.3013   599.0216 </r>
       <r>     4.9305    26.0259   600.4309 </r>
       <r>     4.9847    26.2604   601.8530 </r>
       <r>     5.0388    26.7708   603.3027 </r>
       <r>     5.0930    28.6039   604.8517 </r>
       <r>     5.1472    28.3612   606.3875 </r>
       <r>     5.2013    26.3271   607.8132 </r>
       <r>     5.2555    24.4870   609.1392 </r>
       <r>     5.3096    21.3333   610.2944 </r>
       <r>     5.3638    15.6974   611.1445 </r>
       <r>     5.4179     9.4422   611.6558 </r>
       <r>     5.4721     4.4714   611.8979 </r>
       <r>     5.5262     1.5100   611.9797 </r>
       <r>     5.5804     0.3283   611.9975 </r>
       <r>     5.6345     0.0431   611.9998 </r>
       <r>     5.6887     0.0033   612.0000 </r>
       <r>     5.7428     0.0001   612.0000 </r>
       <r>     5.7970     0.0000   612.0000 </r>
       <r>     5.8511     0.0000   612.0000 </r>
       <r>     5.9053     0.0000   612.0000 </r>
       <r>     5.9594     0.0000   612.0000 </r>
       <r>     6.0136     0.0000   612.0000 </r>
       <r>     6.0677     0.0000   612.0000 </r>
       <r>     6.1219     0.0000   612.0000 </r>
       <r>     6.1760     0.0000   612.0000 </r>
       <r>     6.2302     0.0000   612.0000 </r>
       <r>     6.2843     0.0000   612.0000 </r>
       <r>     6.3385     0.0000   612.0000 </r>
       <r>     6.3927     0.0000   612.0000 </r>
      </set>
     </set>
    </array>
   </total>
  </dos>
 </calculation>
 <structure name="finalpos" >
  <crystal>
   <varray name="basis" >
    <v>      11.00258152       0.00000000       0.00000000 </v>
    <v>       5.50129076       9.52851510       0.00000000 </v>
    <v>       0.00000000       0.00000000      24.49178509 </v>
   </varray>
   <i name="volume">   2567.67623402 </i>
   <varray name="rec_basis" >
    <v>       0.09088776      -0.05247407       0.00000000 </v>
    <v>       0.00000000       0.10494815       0.00000000 </v>
    <v>       0.00000000       0.00000000       0.04083002 </v>
   </varray>
  </crystal>
  <varray name="positions" >
   <v>       0.08260309       0.08301840       0.39427132 </v>
   <v>       0.83657127       0.83164375       0.39772033 </v>
   <v>       0.74781409       0.50168830       0.60335473 </v>
   <v>       0.74926130       0.25028045       0.60019781 </v>
   <v>       0.74755623       0.00005242       0.60091587 </v>
   <v>       0.41831573       0.91286484       0.49729837 </v>
   <v>       0.49875301       0.50186236       0.60286192 </v>
   <v>       0.49797168       0.24772489       0.60354710 </v>
   <v>       0.41797742       0.41622005       0.49935360 </v>
   <v>       0.41687407       0.16733353       0.49735497 </v>
   <v>       0.58318554       0.08613702       0.39472456 </v>
   <v>       0.66917721       0.91422319       0.49784940 </v>
   <v>       0.16557273       0.91584614       0.49819678 </v>
   <v>       0.24993029       0.49751824       0.60552916 </v>
   <v>       0.16501085       0.66614930       0.49968884 </v>
   <v>       0.25187316       0.75127643       0.60501978 </v>
   <v>       0.74596965       0.75095108       0.60218536 </v>
   <v>       0.00123514      -0.00018269       0.60141067 </v>
   <v>       0.16481537       0.16793962       0.49692326 </v>
   <v>       0.00116563       0.49818475       0.60147363 </v>
   <v>       0.08431055       0.33629073       0.39387483 </v>
   <v>      -0.00079991       0.75004526       0.60205590 </v>
   <v>       0.00304813       0.24775191       0.60219614 </v>
   <v>       0.91444293       0.41809341       0.49838204 </v>
   <v>       0.49827099       0.75174402       0.59631292 </v>
   <v>       0.83345421       0.08561863       0.40340224 </v>
   <v>       0.66852176       0.16649870       0.49943396 </v>
   <v>       0.66620662       0.41727619       0.50022533 </v>
   <v>       0.83197144       0.58439548       0.40289402 </v>
   <v>       0.66703413       0.66446760       0.50026438 </v>
   <v>       0.91370701       0.16728191       0.49919099 </v>
   <v>       0.83161157       0.33483505       0.40240840 </v>
   <v>       0.58328790       0.83201096       0.40052257 </v>
   <v>       0.16520838       0.41762814       0.49901031 </v>
   <v>       0.33407316       0.33550145       0.40105347 </v>
   <v>       0.58417771       0.58376133       0.40378189 </v>
   <v>       0.91598540       0.66654108       0.49999671 </v>
   <v>       0.58460446       0.33586493       0.40308302 </v>
   <v>       0.49707034      -0.00010535       0.59530313 </v>
   <v>       0.08528637       0.83260040       0.40186157 </v>
   <v>       0.91526234       0.91781226       0.49944481 </v>
   <v>       0.33471101       0.08245002       0.39827408 </v>
   <v>       0.33578254       0.83149107       0.40045121 </v>
   <v>       0.25181756      -0.00048727       0.59538559 </v>
   <v>       0.33512052       0.58423626       0.40277979 </v>
   <v>       0.25033320       0.24822782       0.59556528 </v>
   <v>       0.08525582       0.58315929       0.40300684 </v>
   <v>       0.41861040       0.66427664       0.49996108 </v>
  </varray>
 </structure>
</modeling>
