unknown system                          
           1
    11.002582    0.000000    0.000000
     5.501291    9.528515    0.000000
     0.000000    0.000000   24.491785
   Au   Pd
  24  24
Direct configuration=     1
   0.08333333  0.08333333  0.40830017
   0.83333333  0.83333333  0.40830017
   0.75000000  0.50000000  0.59169983
   0.75000000  0.25000000  0.59169983
   0.75000000  0.00000000  0.59169983
   0.41666667  0.91666667  0.50000000
   0.50000000  0.50000000  0.59169983
   0.50000000  0.25000000  0.59169983
   0.41666667  0.41666667  0.50000000
   0.41666667  0.16666667  0.50000000
   0.58333333  0.08333333  0.40830017
   0.66666667  0.91666667  0.50000000
   0.16666667  0.91666667  0.50000000
   0.25000000  0.50000000  0.59169983
   0.16666667  0.66666667  0.50000000
   0.25000000  0.75000000  0.59169983
   0.75000000  0.75000000  0.59169983
   0.00000000  0.00000000  0.59169983
   0.16666667  0.16666667  0.50000000
   0.00000000  0.50000000  0.59169983
   0.08333333  0.33333333  0.40830017
   0.00000000  0.75000000  0.59169983
   0.00000000  0.25000000  0.59169983
   0.91666667  0.41666667  0.50000000
   0.50000000  0.75000000  0.59169983
   0.83333333  0.08333333  0.40830017
   0.66666667  0.16666667  0.50000000
   0.66666667  0.41666667  0.50000000
   0.83333333  0.58333333  0.40830017
   0.66666667  0.66666667  0.50000000
   0.91666667  0.16666667  0.50000000
   0.83333333  0.33333333  0.40830017
   0.58333333  0.83333333  0.40830017
   0.16666667  0.41666667  0.50000000
   0.33333333  0.33333333  0.40830017
   0.58333333  0.58333333  0.40830017
   0.91666667  0.66666667  0.50000000
   0.58333333  0.33333333  0.40830017
   0.50000000  0.00000000  0.59169983
   0.08333333  0.83333333  0.40830017
   0.91666667  0.91666667  0.50000000
   0.33333333  0.08333333  0.40830017
   0.33333333  0.83333333  0.40830017
   0.25000000  0.00000000  0.59169983
   0.33333333  0.58333333  0.40830017
   0.25000000  0.25000000  0.59169983
   0.08333333  0.58333333  0.40830017
   0.41666667  0.66666667  0.50000000
Direct configuration=     2
   0.08266668  0.08281265  0.40609704
   0.83456596  0.83231902  0.40649525
   0.74858758  0.50117000  0.59356728
   0.75003590  0.24992849  0.59325907
   0.74954288  0.00026199  0.59358711
   0.41760978  0.91484670  0.50000423
   0.50026845  0.50114213  0.59360045
   0.49976279  0.24894487  0.59390131
   0.41753491  0.41666591  0.49875885
   0.41558209  0.16750367  0.49994664
   0.58292373  0.08435997  0.40610391
   0.66719458  0.91564528  0.49995191
   0.16671336  0.91619240  0.49954596
   0.24971080  0.49888598  0.59398849
   0.16581498  0.66661815  0.49874317
   0.25133010  0.75052395  0.59396710
   0.74879103  0.75017463  0.59357743
   0.00016816  0.00031741  0.59362123
   0.16741635  0.16676418  0.50032342
   0.00107080  0.49947236  0.59363018
   0.08361406  0.33440912  0.40610829
  -0.00057959  0.75027865  0.59362410
   0.00131669  0.24892749  0.59389547
   0.91495784  0.41805679  0.49915148
   0.49978663  0.75038564  0.59267020
   0.83327627  0.08413294  0.40748696
   0.66810536  0.16696709  0.49952527
   0.66654327  0.41687057  0.49913108
   0.83250356  0.58356732  0.40739393
   0.66614910  0.66630317  0.49946172
   0.91483913  0.16695042  0.49949290
   0.83200297  0.33373887  0.40735161
   0.58289518  0.83241841  0.40711392
   0.16657816  0.41697548  0.49968459
   0.33316838  0.33387060  0.40708307
   0.58340794  0.58328685  0.40755843
   0.91684335  0.66621230  0.49943517
   0.58371045  0.33380499  0.40740072
   0.49918756 -0.00003429  0.59309512
   0.08354816  0.83300143  0.40717223
   0.91636523  0.91747701  0.49948655
   0.33378211  0.08290083  0.40680250
   0.33417119  0.83248801  0.40710399
   0.25085600 -0.00008083  0.59310365
   0.33364400  0.58345765  0.40725094
   0.25016848  0.24963809  0.59299094
   0.08362489  0.58319782  0.40737699
   0.41824273  0.66624784  0.49937813
Direct configuration=     3
   0.08066672  0.08125061  0.39948765
   0.83826385  0.82927610  0.40108049
   0.74435034  0.50468001  0.59916964
   0.75014362  0.24971396  0.59793679
   0.74817150  0.00104796  0.59924894
   0.42043911  0.90938680  0.50001694
   0.50107381  0.50456853  0.59930232
   0.49905115  0.24577949  0.60050577
   0.42013965  0.41666365  0.49503539
   0.41232837  0.17001470  0.49978656
   0.58169492  0.08743989  0.39951514
   0.66877832  0.91258111  0.49980763
   0.16685345  0.91476959  0.49818384
   0.24884319  0.49554392  0.60085445
   0.16325991  0.66647259  0.49497269
   0.25532042  0.75209580  0.60076889
   0.74516412  0.75069853  0.59921023
   0.00067263  0.00126965  0.59938543
   0.16966538  0.16705672  0.50129368
   0.00428321  0.49788943  0.59942123
   0.08445625  0.33763650  0.39953266
  -0.00231837  0.75111459  0.59939691
   0.00526678  0.24570994  0.60048238
   0.90983135  0.42222718  0.49660594
   0.49914654  0.75154256  0.59558133
   0.83310506  0.08653177  0.40504735
   0.67242142  0.16786836  0.49810107
   0.66617306  0.41748227  0.49652433
   0.83001425  0.58426926  0.40467523
   0.66459639  0.66521267  0.49784686
   0.90935650  0.16780169  0.49797159
   0.82801188  0.33495550  0.40450594
   0.58158073  0.82967365  0.40355517
   0.16631265  0.41790191  0.49873837
   0.33267350  0.33548240  0.40343177
   0.58363175  0.58314741  0.40533322
   0.91737341  0.66484919  0.49774068
   0.58484180  0.33521995  0.40470236
   0.49675023 -0.00013716  0.59728100
   0.08419265  0.83200571  0.40378843
   0.91546090  0.91990804  0.49794619
   0.33512843  0.08160331  0.40230950
   0.33668478  0.82995203  0.40351545
   0.25342399 -0.00032333  0.59731509
   0.33457599  0.58383061  0.40410324
   0.25067391  0.24855236  0.59686428
   0.08449956  0.58279126  0.40460746
   0.42297094  0.66499136  0.49751251
Direct configuration=     4
   0.08149299  0.08239298  0.39775403
   0.83668596  0.83050459  0.39930394
   0.74742923  0.50287342  0.60046406
   0.74949362  0.25106267  0.59905666
   0.74795642  0.00045850  0.60052463
   0.41936598  0.91178043  0.49998082
   0.49922582  0.50288802  0.60046615
   0.49875552  0.24722743  0.60190501
   0.41957397  0.41683082  0.49639172
   0.41620337  0.16835900  0.49969454
   0.58219099  0.08649415  0.39793230
   0.66877231  0.91406604  0.49957917
   0.16651690  0.91552603  0.49855841
   0.25105228  0.49680704  0.60222011
   0.16439113  0.66650387  0.49648842
   0.25371978  0.75163893  0.60216904
   0.74569211  0.75068614  0.60063164
   0.00182036 -0.00004179  0.60065288
   0.16603965  0.16741336  0.50079735
   0.00174678  0.49776638  0.60062055
   0.08432450  0.33620842  0.39763988
  -0.00117196  0.75106246  0.60040103
   0.00402034  0.24744208  0.60188000
   0.91247618  0.41943797  0.49739396
   0.49888761  0.75267454  0.59654121
   0.83259981  0.08591675  0.40340925
   0.66969476  0.16701861  0.49861763
   0.66592960  0.41780029  0.49763060
   0.82976512  0.58458005  0.40290379
   0.66600945  0.66480850  0.49851264
   0.91265653  0.16817622  0.49855019
   0.82938630  0.33465710  0.40270381
   0.58183630  0.83070168  0.40221491
   0.16536031  0.41836003  0.49908696
   0.33289162  0.33529124  0.40181443
   0.58349571  0.58302829  0.40341334
   0.91641732  0.66578230  0.49845642
   0.58479280  0.33518134  0.40256032
   0.49676148 -0.00026041  0.59813194
   0.08455091  0.83242817  0.40194381
   0.91499380  0.91912815  0.49843222
   0.33460636  0.08138971  0.40129471
   0.33613794  0.83048542  0.40206064
   0.25359436 -0.00054388  0.59826935
   0.33491282  0.58431989  0.40207641
   0.25103563  0.24781320  0.59808648
   0.08467198  0.58215730  0.40266095
   0.42123727  0.66371659  0.49812172
Direct configuration=     5
   0.08187287  0.08291818  0.39695701
   0.83596053  0.83106938  0.39848719
   0.74884473  0.50204285  0.60105916
   0.74919479  0.25168273  0.59957151
   0.74785753  0.00018750  0.60111112
   0.41887261  0.91288088  0.49996422
   0.49837622  0.50211542  0.60100121
   0.49861961  0.24789311  0.60254831
   0.41931391  0.41690768  0.49701528
   0.41798487  0.16759781  0.49965223
   0.58241905  0.08605935  0.39720460
   0.66876955  0.91474873  0.49947414
   0.16636218  0.91587380  0.49873062
   0.25206789  0.49738776  0.60284797
   0.16491120  0.66651825  0.49718526
   0.25298389  0.75142889  0.60281275
   0.74593486  0.75068044  0.60128512
   0.00234803 -0.00064471  0.60123558
   0.16437274  0.16757733  0.50056917
   0.00058067  0.49770981  0.60117193
   0.08426393  0.33555187  0.39676968
  -0.00064491  0.75103849  0.60086266
   0.00344730  0.24823842  0.60252255
   0.91369212  0.41815565  0.49775625
   0.49876857  0.75319496  0.59698251
   0.83236753  0.08563400  0.40265615
   0.66844120  0.16662795  0.49885512
   0.66581767  0.41794650  0.49813920
   0.82965059  0.58472293  0.40208938
   0.66665910  0.66462268  0.49881872
   0.91417370  0.16834840  0.49881619
   0.83001818  0.33451991  0.40187530
   0.58195380  0.83117430  0.40159873
   0.16492248  0.41857065  0.49924722
   0.33299190  0.33520336  0.40107086
   0.58343316  0.58297352  0.40253069
   0.91597776  0.66621129  0.49878548
   0.58477027  0.33516359  0.40157553
   0.49676665 -0.00031707  0.59852316
   0.08471562  0.83262239  0.40109576
   0.91477905  0.91876961  0.49865567
   0.33436634  0.08129151  0.40082816
   0.33588653  0.83073064  0.40139180
   0.25367268 -0.00064528  0.59870806
   0.33506767  0.58454483  0.40114460
   0.25120193  0.24747337  0.59864837
   0.08475125  0.58186584  0.40176605
   0.42044022  0.66313052  0.49840179
Direct configuration=     6
   0.08214793  0.08308271  0.39659873
   0.83560719  0.83138008  0.39817579
   0.74805388  0.50188063  0.60128271
   0.74955716  0.25104212  0.59956722
   0.74797045  0.00041331  0.60124393
   0.41830087  0.91357318  0.49969957
   0.49923834  0.50207564  0.60116905
   0.49889846  0.24775289  0.60278768
   0.41854800  0.41661548  0.49733988
   0.41684441  0.16786496  0.49953997
   0.58233912  0.08564226  0.39684718
   0.66893388  0.91456250  0.49932249
   0.16626318  0.91561928  0.49877824
   0.25056037  0.49800870  0.60300603
   0.16497562  0.66663608  0.49764697
   0.25263298  0.75125917  0.60300339
   0.74658828  0.75089547  0.60150412
   0.00179409  0.00009555  0.60132233
   0.16530636  0.16774791  0.50028697
   0.00147910  0.49842364  0.60125547
   0.08405775  0.33511748  0.39639014
  -0.00012743  0.74995995  0.60084912
   0.00317848  0.24775516  0.60280610
   0.91422236  0.41818664  0.49785143
   0.49903384  0.75191620  0.59702563
   0.83265111  0.08533394  0.40256119
   0.66879950  0.16674973  0.49903149
   0.66630510  0.41734645  0.49855539
   0.83029192  0.58429566  0.40185553
   0.66684414  0.66478625  0.49910814
   0.91382851  0.16785654  0.49899216
   0.83073580  0.33444132  0.40159440
   0.58200350  0.83183269  0.40148770
   0.16545699  0.41777394  0.49941053
   0.33334680  0.33491241  0.40100157
   0.58347111  0.58303852  0.40217304
   0.91581430  0.66650150  0.49902359
   0.58444694  0.33515651  0.40127704
   0.49734462  0.00001408  0.59845555
   0.08469191  0.83267413  0.40092856
   0.91509229  0.91861373  0.49882581
   0.33420012  0.08156876  0.40089421
   0.33543562  0.83132825  0.40126687
   0.25280998 -0.00043286  0.59865028
   0.33480590  0.58433300  0.40081062
   0.25103622  0.24808047  0.59851281
   0.08464286  0.58228103  0.40159430
   0.41954012  0.66400697  0.49868907
Direct configuration=     7
   0.08219443  0.08311052  0.39653816
   0.83554745  0.83143261  0.39812314
   0.74792018  0.50185321  0.60132051
   0.74961843  0.25093382  0.59956650
   0.74798954  0.00045149  0.60126639
   0.41820421  0.91369022  0.49965483
   0.49938410  0.50206891  0.60119743
   0.49894560  0.24772918  0.60282814
   0.41841852  0.41656608  0.49739476
   0.41665160  0.16791013  0.49952100
   0.58232560  0.08557174  0.39678675
   0.66896167  0.91453102  0.49929685
   0.16624644  0.91557625  0.49878629
   0.25030551  0.49811368  0.60303275
   0.16498651  0.66665600  0.49772502
   0.25257365  0.75123048  0.60303563
   0.74669875  0.75093182  0.60154114
   0.00170043  0.00022070  0.60133700
   0.16546420  0.16777675  0.50023925
   0.00163099  0.49854432  0.60126959
   0.08402290  0.33504404  0.39632598
  -0.00003994  0.74977761  0.60084683
   0.00313303  0.24767346  0.60285404
   0.91431200  0.41819187  0.49786753
   0.49907869  0.75170001  0.59703292
   0.83269906  0.08528321  0.40254514
   0.66886007  0.16677032  0.49906131
   0.66638751  0.41724501  0.49862575
   0.83040034  0.58422342  0.40181600
   0.66687542  0.66481390  0.49915707
   0.91377016  0.16777339  0.49902191
   0.83085712  0.33442803  0.40154692
   0.58201190  0.83194400  0.40146893
   0.16554736  0.41763925  0.49943814
   0.33340680  0.33486322  0.40098986
   0.58347752  0.58304951  0.40211258
   0.91578667  0.66655056  0.49906385
   0.58439227  0.33515531  0.40122658
   0.49744234  0.00007007  0.59844412
   0.08468790  0.83268288  0.40090029
   0.91514524  0.91858738  0.49885458
   0.33417202  0.08161563  0.40090538
   0.33535938  0.83142928  0.40124575
   0.25266413 -0.00039695  0.59864051
   0.33476164  0.58429719  0.40075416
   0.25100820  0.24818311  0.59848989
   0.08462454  0.58235122  0.40156526
   0.41938795  0.66415515  0.49873764
Direct configuration=     8
   0.08225327  0.08298589  0.39634832
   0.83563145  0.83140614  0.39800300
   0.74816808  0.50185600  0.60146105
   0.74972625  0.25049877  0.59956193
   0.74841440  0.00029915  0.60128806
   0.41823058  0.91356470  0.49953786
   0.49931328  0.50187553  0.60127929
   0.49875704  0.24811587  0.60295247
   0.41827160  0.41658784  0.49751247
   0.41655792  0.16784785  0.49943329
   0.58225941  0.08553274  0.39658933
   0.66883251  0.91469039  0.49918135
   0.16601068  0.91580149  0.49875761
   0.25045968  0.49796200  0.60317184
   0.16495027  0.66645061  0.49784213
   0.25242550  0.75118920  0.60317472
   0.74682885  0.75087447  0.60164714
   0.00141080  0.00007801  0.60135841
   0.16546938  0.16778601  0.50006601
   0.00150804  0.49837594  0.60128291
   0.08406461  0.33511113  0.39607619
  -0.00018562  0.75012297  0.60082051
   0.00304787  0.24801508  0.60296442
   0.91447451  0.41826100  0.49791115
   0.49910616  0.75149709  0.59694163
   0.83289390  0.08525093  0.40262494
   0.66885680  0.16685493  0.49908102
   0.66640181  0.41714357  0.49870724
   0.83077744  0.58408049  0.40181945
   0.66672040  0.66485760  0.49926258
   0.91380223  0.16748154  0.49902743
   0.83099361  0.33442243  0.40156255
   0.58208344  0.83204379  0.40148730
   0.16556189  0.41764799  0.49941731
   0.33344826  0.33478474  0.40104870
   0.58350373  0.58313672  0.40212976
   0.91598215  0.66651983  0.49910718
   0.58430672  0.33515172  0.40127921
   0.49765639  0.00001751  0.59823217
   0.08464579  0.83266919  0.40094972
   0.91531083  0.91842503  0.49893462
   0.33408856  0.08191885  0.40091517
   0.33520585  0.83164198  0.40124852
   0.25251626 -0.00039908  0.59843945
   0.33458496  0.58415000  0.40075465
   0.25080724  0.24844365  0.59830637
   0.08457314  0.58259141  0.40169462
   0.41929206  0.66437932  0.49880698
Direct configuration=     9
   0.08230283  0.08288092  0.39618842
   0.83570220  0.83138383  0.39790180
   0.74837688  0.50185836  0.60157943
   0.74981706  0.25013235  0.59955808
   0.74877225  0.00017085  0.60130632
   0.41825280  0.91345898  0.49943934
   0.49925364  0.50171265  0.60134825
   0.49859822  0.24844156  0.60305718
   0.41814785  0.41660616  0.49761162
   0.41647902  0.16779539  0.49935941
   0.58220366  0.08549988  0.39642304
   0.66872372  0.91482463  0.49908406
   0.16581211  0.91599119  0.49873345
   0.25058953  0.49783424  0.60328899
   0.16491975  0.66627762  0.49794076
   0.25230072  0.75115444  0.60329187
   0.74693843  0.75082616  0.60173642
   0.00116685 -0.00004216  0.60137644
   0.16547373  0.16779380  0.49992009
   0.00140448  0.49823412  0.60129412
   0.08409974  0.33516765  0.39586580
  -0.00030832  0.75041387  0.60079835
   0.00297615  0.24830281  0.60305739
   0.91461139  0.41831923  0.49794789
   0.49912930  0.75132617  0.59686474
   0.83305802  0.08522374  0.40269216
   0.66885405  0.16692619  0.49909762
   0.66641386  0.41705812  0.49877587
   0.83109506  0.58396011  0.40182236
   0.66658982  0.66489441  0.49935144
   0.91382924  0.16723573  0.49903208
   0.83110858  0.33441771  0.40157571
   0.58214370  0.83212783  0.40150277
   0.16557413  0.41765536  0.49939976
   0.33348318  0.33471864  0.40109826
   0.58352579  0.58321018  0.40214422
   0.91614679  0.66649395  0.49914368
   0.58423467  0.33514868  0.40132355
   0.49783669 -0.00002676  0.59805364
   0.08461032  0.83265766  0.40099136
   0.91545030  0.91828829  0.49900204
   0.33401826  0.08217423  0.40092341
   0.33507654  0.83182113  0.40125086
   0.25239172 -0.00040087  0.59827010
   0.33443615  0.58402604  0.40075506
   0.25063798  0.24866309  0.59815181
   0.08452985  0.58279372  0.40180358
   0.41921129  0.66456814  0.49886539
Direct configuration=    10
   0.08234443  0.08283291  0.39592446
   0.83579112  0.83141335  0.39778583
   0.74837685  0.50175109  0.60176882
   0.74985011  0.25012855  0.59955723
   0.74858859  0.00016588  0.60132203
   0.41827045  0.91330352  0.49931439
   0.49937469  0.50159247  0.60144072
   0.49860940  0.24833990  0.60321034
   0.41820737  0.41668204  0.49772540
   0.41666137  0.16773002  0.49926237
   0.58231969  0.08551164  0.39616881
   0.66877975  0.91490939  0.49893802
   0.16566492  0.91609987  0.49869346
   0.25041362  0.49795353  0.60350639
   0.16507198  0.66617281  0.49807346
   0.25224048  0.75114287  0.60347804
   0.74690868  0.75084495  0.60183848
   0.00133581  0.00000104  0.60141136
   0.16513228  0.16786335  0.49968560
   0.00135785  0.49837314  0.60132234
   0.08415906  0.33532609  0.39553648
  -0.00025956  0.75026201  0.60080264
   0.00292413  0.24827640  0.60315539
   0.91457456  0.41829021  0.49795175
   0.49909050  0.75128693  0.59674242
   0.83310444  0.08526074  0.40281897
   0.66866519  0.16693624  0.49908417
   0.66641712  0.41708255  0.49883871
   0.83133806  0.58392270  0.40190719
   0.66666378  0.66476518  0.49944258
   0.91391674  0.16723315  0.49902906
   0.83116490  0.33444150  0.40168351
   0.58228428  0.83204893  0.40152671
   0.16552024  0.41765158  0.49933754
   0.33344939  0.33475475  0.40117716
   0.58354670  0.58332266  0.40227572
   0.91605064  0.66660349  0.49919621
   0.58423429  0.33517614  0.40148107
   0.49794563 -0.00001873  0.59773185
   0.08461995  0.83261102  0.40110753
   0.91543604  0.91808322  0.49904100
   0.33391412  0.08245521  0.40086623
   0.33503859  0.83183870  0.40126179
   0.25223786 -0.00036824  0.59794563
   0.33434353  0.58396779  0.40086785
   0.25063318  0.24861153  0.59788561
   0.08458520  0.58284327  0.40198145
   0.41910201  0.66452264  0.49889623
Direct configuration=    11
   0.08241224  0.08275464  0.39549419
   0.83593604  0.83146145  0.39759679
   0.74837681  0.50157625  0.60207754
   0.74990398  0.25012237  0.59955584
   0.74828922  0.00015779  0.60134763
   0.41829923  0.91305014  0.49911073
   0.49957201  0.50139658  0.60159146
   0.49862760  0.24817419  0.60346000
   0.41830439  0.41680572  0.49791087
   0.41695861  0.16762346  0.49910420
   0.58250882  0.08553081  0.39575441
   0.66887108  0.91504753  0.49869996
   0.16542500  0.91627702  0.49862827
   0.25012688  0.49814798  0.60386076
   0.16532011  0.66600196  0.49828975
   0.25214229  0.75112401  0.60378151
   0.74686020  0.75087558  0.60200485
   0.00161120  0.00007145  0.60146827
   0.16457572  0.16797671  0.49930337
   0.00128183  0.49859975  0.60136834
   0.08425574  0.33558435  0.39499968
  -0.00018009  0.75001449  0.60080964
   0.00283933  0.24823336  0.60331514
   0.91451453  0.41824292  0.49795803
   0.49902726  0.75122297  0.59654303
   0.83318012  0.08532105  0.40302567
   0.66835735  0.16695263  0.49906225
   0.66642242  0.41712237  0.49894113
   0.83173415  0.58386172  0.40204546
   0.66678434  0.66455454  0.49959114
   0.91405935  0.16722894  0.49902414
   0.83125671  0.33448026  0.40185923
   0.58251343  0.83192032  0.40156572
   0.16543239  0.41764543  0.49923612
   0.33339430  0.33481361  0.40130577
   0.58358078  0.58350600  0.40249005
   0.91589390  0.66678205  0.49928183
   0.58423368  0.33522089  0.40173783
   0.49812321 -0.00000563  0.59720732
   0.08463565  0.83253500  0.40129689
   0.91541279  0.91774897  0.49910449
   0.33374437  0.08291319  0.40077303
   0.33497673  0.83186734  0.40127961
   0.25198707 -0.00031505  0.59741674
   0.33419255  0.58387285  0.40105170
   0.25062536  0.24852750  0.59745170
   0.08467541  0.58292402  0.40227138
   0.41892388  0.66444847  0.49894649
Direct configuration=    12
   0.08243601  0.08272720  0.39534332
   0.83598686  0.83147832  0.39753050
   0.74837679  0.50151495  0.60218579
   0.74992287  0.25012020  0.59955536
   0.74818424  0.00015495  0.60135661
   0.41830932  0.91296129  0.49903931
   0.49964120  0.50132789  0.60164431
   0.49863399  0.24811608  0.60354754
   0.41833841  0.41684909  0.49797590
   0.41706283  0.16758610  0.49904874
   0.58257514  0.08553753  0.39560910
   0.66890310  0.91509598  0.49861649
   0.16534087  0.91633914  0.49860541
   0.25002633  0.49821616  0.60398502
   0.16540712  0.66594206  0.49836560
   0.25210786  0.75111740  0.60388792
   0.74684320  0.75088632  0.60206319
   0.00170777  0.00009614  0.60148823
   0.16438056  0.16801646  0.49916935
   0.00125518  0.49867922  0.60138448
   0.08428965  0.33567491  0.39481145
  -0.00015223  0.74992770  0.60081210
   0.00280960  0.24821827  0.60337115
   0.91449348  0.41822634  0.49796024
   0.49900509  0.75120054  0.59647311
   0.83320665  0.08534220  0.40309815
   0.66824940  0.16695837  0.49905456
   0.66642428  0.41713634  0.49897705
   0.83187305  0.58384034  0.40209395
   0.66682661  0.66448068  0.49964324
   0.91410936  0.16722747  0.49902242
   0.83128890  0.33449386  0.40192085
   0.58259379  0.83187522  0.40157941
   0.16540158  0.41764328  0.49920056
   0.33337499  0.33483424  0.40135086
   0.58359273  0.58357029  0.40256521
   0.91583894  0.66684466  0.49931185
   0.58423347  0.33523658  0.40182787
   0.49818548 -0.00000104  0.59702339
   0.08464116  0.83250835  0.40136329
   0.91540464  0.91763176  0.49912675
   0.33368485  0.08307379  0.40074035
   0.33495504  0.83187739  0.40128586
   0.25189913 -0.00029639  0.59723129
   0.33413961  0.58383955  0.40111617
   0.25062261  0.24849803  0.59729954
   0.08470705  0.58295234  0.40237305
   0.41886142  0.66442247  0.49896412
Direct configuration=    13
   0.08242776  0.08287088  0.39504188
   0.83604594  0.83150894  0.39743024
   0.74831466  0.50155218  0.60239597
   0.74991989  0.25008847  0.59955007
   0.74819044  0.00014336  0.60133245
   0.41825760  0.91307023  0.49883105
   0.49947594  0.50144164  0.60175333
   0.49851468  0.24806473  0.60369963
   0.41839593  0.41670962  0.49819609
   0.41685452  0.16770724  0.49889118
   0.58270293  0.08560520  0.39532592
   0.66903565  0.91482058  0.49843957
   0.16533780  0.91607724  0.49853811
   0.25018643  0.49804256  0.60425632
   0.16546765  0.66607449  0.49858142
   0.25231734  0.75102057  0.60411245
   0.74657416  0.75087684  0.60213886
   0.00166121  0.00004172  0.60152133
   0.16446707  0.16811708  0.49883888
   0.00123836  0.49853152  0.60138918
   0.08419238  0.33582902  0.39444592
  -0.00030093  0.75011362  0.60088125
   0.00293221  0.24821993  0.60342436
   0.91442136  0.41827340  0.49800623
   0.49891525  0.75130571  0.59637078
   0.83316669  0.08537463  0.40322768
   0.66834811  0.16689696  0.49907630
   0.66646349  0.41715370  0.49909122
   0.83182286  0.58398902  0.40223094
   0.66704294  0.66440182  0.49974510
   0.91382598  0.16734273  0.49905484
   0.83132805  0.33454600  0.40201282
   0.58267454  0.83184192  0.40155963
   0.16537010  0.41750377  0.49916848
   0.33349786  0.33489734  0.40140084
   0.58364088  0.58361380  0.40275786
   0.91567022  0.66681985  0.49938017
   0.58428363  0.33532827  0.40200563
   0.49789659 -0.00007744  0.59668302
   0.08472021  0.83253312  0.40151411
   0.91532360  0.91769713  0.49918857
   0.33379908  0.08298148  0.40059674
   0.33506018  0.83178190  0.40125164
   0.25209712 -0.00030412  0.59684960
   0.33429648  0.58389166  0.40130144
   0.25059680  0.24843072  0.59695875
   0.08476347  0.58290714  0.40252744
   0.41876489  0.66434184  0.49902470
Direct configuration=    14
   0.08242153  0.08297922  0.39481458
   0.83609048  0.83153202  0.39735464
   0.74826781  0.50158026  0.60255446
   0.74991764  0.25006454  0.59954609
   0.74819512  0.00013461  0.60131423
   0.41821860  0.91315237  0.49867402
   0.49935134  0.50152740  0.60183554
   0.49842471  0.24802602  0.60381431
   0.41843929  0.41660446  0.49836212
   0.41669745  0.16779858  0.49877238
   0.58279928  0.08565621  0.39511239
   0.66913560  0.91461292  0.49830617
   0.16533549  0.91587976  0.49848737
   0.25030715  0.49791166  0.60446089
   0.16551328  0.66617434  0.49874416
   0.25247529  0.75094755  0.60428175
   0.74637131  0.75086969  0.60219591
   0.00162611  0.00000069  0.60154629
   0.16453231  0.16819295  0.49858970
   0.00122568  0.49842015  0.60139273
   0.08411904  0.33594523  0.39417030
  -0.00041306  0.75025381  0.60093339
   0.00302466  0.24822119  0.60346448
   0.91436697  0.41830888  0.49804091
   0.49884751  0.75138501  0.59629362
   0.83313655  0.08539909  0.40332534
   0.66842254  0.16685066  0.49909269
   0.66649306  0.41716680  0.49917731
   0.83178502  0.58410114  0.40233424
   0.66720606  0.66434236  0.49982191
   0.91361230  0.16742964  0.49907929
   0.83135758  0.33458531  0.40208217
   0.58273543  0.83181682  0.40154471
   0.16534636  0.41739858  0.49914430
   0.33359050  0.33494491  0.40143853
   0.58367719  0.58364661  0.40290312
   0.91554299  0.66680115  0.49943169
   0.58432145  0.33539740  0.40213967
   0.49767877 -0.00013505  0.59642637
   0.08477982  0.83255180  0.40162782
   0.91526250  0.91774643  0.49923518
   0.33388521  0.08291187  0.40048846
   0.33513945  0.83170991  0.40122584
   0.25224640 -0.00030995  0.59656180
   0.33441477  0.58393094  0.40144114
   0.25057734  0.24837996  0.59670179
   0.08480601  0.58287305  0.40264385
   0.41869210  0.66428105  0.49907038
Direct configuration=    15
   0.08235887  0.08309717  0.39470072
   0.83616130  0.83152869  0.39734180
   0.74814296  0.50163555  0.60268338
   0.74979522  0.25013743  0.59956914
   0.74806477  0.00014351  0.60124121
   0.41819708  0.91316902  0.49844693
   0.49929372  0.50161854  0.60192934
   0.49843183  0.24785399  0.60385119
   0.41835049  0.41638350  0.49856126
   0.41683460  0.16776188  0.49857888
   0.58276895  0.08577554  0.39500411
   0.66905995  0.91455946  0.49824073
   0.16534795  0.91599796  0.49844811
   0.25028575  0.49778381  0.60462604
   0.16529354  0.66605086  0.49892702
   0.25247287  0.75108566  0.60441854
   0.74621677  0.75094792  0.60220794
   0.00164946 -0.00006006  0.60153565
   0.16449992  0.16810372  0.49830221
   0.00131345  0.49836631  0.60137415
   0.08402914  0.33600120  0.39400442
  -0.00048002  0.75024866  0.60104405
   0.00321540  0.24802602  0.60338587
   0.91451224  0.41815285  0.49811825
   0.49878682  0.75141134  0.59626838
   0.83315529  0.08539924  0.40333863
   0.66846334  0.16666666  0.49916883
   0.66642685  0.41725348  0.49934488
   0.83151924  0.58428176  0.40241131
   0.66709717  0.66444043  0.49990949
   0.91365525  0.16741614  0.49914875
   0.83139147  0.33463367  0.40208585
   0.58271196  0.83191059  0.40142993
   0.16521284  0.41765140  0.49914811
   0.33375989  0.33498379  0.40140051
   0.58380239  0.58357244  0.40303734
   0.91577905  0.66661749  0.49951368
   0.58438425  0.33552596  0.40223817
   0.49750244 -0.00016572  0.59627132
   0.08487021  0.83264012  0.40168410
   0.91517278  0.91793738  0.49928743
   0.33415700  0.08256081  0.40025223
   0.33523981  0.83167051  0.40114080
   0.25222199 -0.00036383  0.59635572
   0.33464172  0.58401715  0.40162512
   0.25051410  0.24845701  0.59653031
   0.08484608  0.58285744  0.40270391
   0.41887186  0.66425558  0.49916429
Direct configuration=    16
   0.08230990  0.08318935  0.39461173
   0.83621664  0.83152609  0.39733177
   0.74804538  0.50167876  0.60278414
   0.74969955  0.25019439  0.59958715
   0.74796289  0.00015047  0.60118414
   0.41818027  0.91318204  0.49826945
   0.49924869  0.50168977  0.60200264
   0.49843739  0.24771954  0.60388001
   0.41828109  0.41621081  0.49871691
   0.41694180  0.16773320  0.49842764
   0.58274524  0.08586880  0.39491948
   0.66900082  0.91451768  0.49818959
   0.16535768  0.91609034  0.49841742
   0.25026904  0.49768388  0.60475511
   0.16512180  0.66595436  0.49906992
   0.25247098  0.75119359  0.60452544
   0.74609599  0.75100906  0.60221734
   0.00166772 -0.00010754  0.60152733
   0.16447461  0.16803397  0.49807752
   0.00138204  0.49832424  0.60135962
   0.08395889  0.33604494  0.39387478
  -0.00053235  0.75024463  0.60113053
   0.00336446  0.24787349  0.60332444
   0.91462577  0.41803090  0.49817870
   0.49873939  0.75143191  0.59624865
   0.83316994  0.08539935  0.40334901
   0.66849522  0.16652286  0.49922834
   0.66637511  0.41732123  0.49947585
   0.83131153  0.58442293  0.40247155
   0.66701206  0.66451708  0.49997793
   0.91368881  0.16740558  0.49920303
   0.83141795  0.33467146  0.40208874
   0.58269362  0.83198387  0.40134022
   0.16510850  0.41784898  0.49915109
   0.33389227  0.33501417  0.40137080
   0.58390024  0.58351448  0.40314224
   0.91596354  0.66647395  0.49957777
   0.58443333  0.33562644  0.40231515
   0.49736463 -0.00018969  0.59615014
   0.08494085  0.83270915  0.40172809
   0.91510267  0.91808661  0.49932826
   0.33436942  0.08228644  0.40006760
   0.33531824  0.83163972  0.40107434
   0.25220292 -0.00040593  0.59619466
   0.33481909  0.58408453  0.40176891
   0.25046468  0.24851722  0.59639629
   0.08487740  0.58284524  0.40275085
   0.41901234  0.66423568  0.49923768
Direct configuration=    17
   0.08228212  0.08319098  0.39455597
   0.83630722  0.83153480  0.39739893
   0.74812269  0.50164763  0.60290631
   0.74965383  0.25023374  0.59964977