unknown system                          
           1
    11.002582    0.000000    0.000000
     5.501291    9.528515    0.000000
     0.000000    0.000000   24.491785
   Au   Pd
  24  24
Direct configuration=     1
   0.08333333  0.08333333  0.40830017
   0.00000000  0.25000000  0.59169983
   0.08333333  0.58333333  0.40830017
   0.91666667  0.66666667  0.50000000
   0.08333333  0.83333333  0.40830017
   0.91666667  0.91666667  0.50000000
   0.00000000  0.75000000  0.59169983
   0.33333333  0.08333333  0.40830017
   0.33333333  0.33333333  0.40830017
   0.58333333  0.58333333  0.40830017
   0.16666667  0.41666667  0.50000000
   0.75000000  0.00000000  0.59169983
   0.83333333  0.33333333  0.40830017
   0.16666667  0.66666667  0.50000000
   0.25000000  0.50000000  0.59169983
   0.33333333  0.83333333  0.40830017
   0.66666667  0.91666667  0.50000000
   0.83333333  0.08333333  0.40830017
   0.50000000  0.75000000  0.59169983
   0.41666667  0.91666667  0.50000000
   0.58333333  0.33333333  0.40830017
   0.58333333  0.83333333  0.40830017
   0.50000000  0.25000000  0.59169983
   0.33333333  0.58333333  0.40830017
   0.16666667  0.91666667  0.50000000
   0.25000000  0.25000000  0.59169983
   0.25000000  0.00000000  0.59169983
   0.16666667  0.16666667  0.50000000
   0.91666667  0.16666667  0.50000000
   0.91666667  0.41666667  0.50000000
   0.08333333  0.33333333  0.40830017
   0.00000000  0.00000000  0.59169983
   0.58333333  0.08333333  0.40830017
   0.00000000  0.50000000  0.59169983
   0.41666667  0.16666667  0.50000000
   0.83333333  0.83333333  0.40830017
   0.41666667  0.41666667  0.50000000
   0.25000000  0.75000000  0.59169983
   0.50000000  0.50000000  0.59169983
   0.75000000  0.50000000  0.59169983
   0.66666667  0.66666667  0.50000000
   0.83333333  0.58333333  0.40830017
   0.66666667  0.16666667  0.50000000
   0.75000000  0.25000000  0.59169983
   0.66666667  0.41666667  0.50000000
   0.41666667  0.66666667  0.50000000
   0.50000000  0.00000000  0.59169983
   0.75000000  0.75000000  0.59169983
Direct configuration=     2
   0.08333333  0.08333333  0.40830017
  -0.00005416  0.24991782  0.59312805
   0.08333333  0.58333333  0.40830017
   0.91454524  0.66553339  0.50000227
   0.08333333  0.83333333  0.40830017
   0.91654744  0.91867037  0.50006077
  -0.00000359  0.75006366  0.59425833
   0.33333333  0.08333333  0.40830017
   0.33333333  0.33333333  0.40830017
   0.58333333  0.58333333  0.40830017
   0.16674179  0.41405789  0.50035911
   0.74962884  0.00068630  0.59390591
   0.83333333  0.33333333  0.40830017
   0.16898683  0.66712557  0.50050563
   0.25071305  0.49957167  0.59386272
   0.33333333  0.83333333  0.40830017
   0.66571632  0.91753279  0.49995523
   0.83333333  0.08333333  0.40830017
   0.50026805  0.74936522  0.59341593
   0.41540687  0.91747227  0.50088209
   0.58333333  0.33333333  0.40830017
   0.58333333  0.83333333  0.40830017
   0.50002972  0.25004208  0.59327026
   0.33333333  0.58333333  0.40830017
   0.16665839  0.91722230  0.50072425
   0.25016855  0.24926915  0.59267571
   0.24955499  0.00029633  0.59256073
   0.16611356  0.16702694  0.50033858
   0.91654646  0.16714785  0.50059287
   0.91595826  0.41684853  0.50009684
   0.08333333  0.33333333  0.40830017
   0.00069732  0.00021516  0.59267878
   0.58333333  0.08333333  0.40830017
  -0.00078113  0.49980439  0.59288893
   0.41675975  0.16683277  0.50025142
   0.83333333  0.83333333  0.40830017
   0.41826381  0.41632227  0.50033023
   0.25013480  0.75060816  0.59268673
   0.50081873  0.49983117  0.59241327
   0.74992910  0.49985081  0.59241572
   0.66786869  0.66467178  0.50031148
   0.83333333  0.58333333  0.40830017
   0.66611975  0.16792107  0.50009264
   0.74983833  0.25076952  0.59238031
   0.66663463  0.41677178  0.50076417
   0.41705511  0.66567333  0.50060327
   0.49923320  0.00034708  0.59288139
   0.74995923  0.74918495  0.59292346
Direct configuration=     3
   0.08333333  0.08333333  0.40830017
  -0.00021663  0.24967126  0.59741270
   0.08333333  0.58333333  0.40830017
   0.90818096  0.66213356  0.50000908
   0.08333333  0.83333333  0.40830017
   0.91618975  0.92468149  0.50024306
  -0.00001436  0.75025465  0.60193382
   0.33333333  0.08333333  0.40830017
   0.33333333  0.33333333  0.40830017
   0.58333333  0.58333333  0.40830017
   0.16696717  0.40623155  0.50143645
   0.74851535  0.00274521  0.60052413
   0.83333333  0.33333333  0.40830017
   0.17594733  0.66850226  0.50202253
   0.25285220  0.49828670  0.60035138
   0.33333333  0.83333333  0.40830017
   0.66286528  0.92013115  0.49982091
   0.83333333  0.08333333  0.40830017
   0.50107219  0.74746087  0.59856421
   0.41162748  0.91988907  0.50352838
   0.58333333  0.33333333  0.40830017
   0.58333333  0.83333333  0.40830017
   0.50011889  0.25016834  0.59798154
   0.33333333  0.58333333  0.40830017
   0.16663358  0.91888918  0.50289699
   0.25067420  0.24707659  0.59560335
   0.24821997  0.00118532  0.59514343
   0.16445423  0.16810777  0.50135431
   0.91618586  0.16859142  0.50237147
   0.91383304  0.41739412  0.50038736
   0.08333333  0.33333333  0.40830017
   0.00278927  0.00086065  0.59561562
   0.58333333  0.08333333  0.40830017
  -0.00312453  0.49921754  0.59645623
   0.41703902  0.16733110  0.50100568
   0.83333333  0.83333333  0.40830017
   0.42305523  0.41528909  0.50132092
   0.25053919  0.75243264  0.59564744
   0.50327492  0.49932469  0.59455361
   0.74971642  0.49940325  0.59456337
   0.67147478  0.65868713  0.50124592
   0.83333333  0.58333333  0.40830017
   0.66447901  0.17168429  0.50037056
   0.74935331  0.25307810  0.59442175
   0.66653850  0.41708712  0.50305668
   0.41822043  0.66269331  0.50241308
   0.49693281  0.00138831  0.59642607
   0.74983694  0.74673979  0.59659434
Direct configuration=     4
   0.08333333  0.08333333  0.40830017
  -0.00030903  0.25002882  0.59931078
   0.08333333  0.58333333  0.40830017
   0.91010406  0.66334959  0.50145893
   0.08333333  0.83333333  0.40830017
   0.91578359  0.92335686  0.50209731
  -0.00023357  0.75016411  0.60419157
   0.33333333  0.08333333  0.40830017
   0.33333333  0.33333333  0.40830017
   0.58333333  0.58333333  0.40830017
   0.16689099  0.40803266  0.50288456
   0.74882999  0.00239717  0.60273230
   0.83333333  0.33333333  0.40830017
   0.17410178  0.66757412  0.50389592
   0.25244596  0.49844960  0.60250153
   0.33333333  0.83333333  0.40830017
   0.66319330  0.92052182  0.50133216
   0.83333333  0.08333333  0.40830017
   0.50127098  0.74752923  0.60062647
   0.41230254  0.91870502  0.50483328
   0.58333333  0.33333333  0.40830017
   0.58333333  0.83333333  0.40830017
   0.50015431  0.25004215  0.59989656
   0.33333333  0.58333333  0.40830017
   0.16663226  0.91973596  0.50374769
   0.25070196  0.24688977  0.59710760
   0.24804752  0.00138251  0.59682856
   0.16324835  0.16760691  0.50220661
   0.91615028  0.16996268  0.50339391
   0.91391010  0.41532876  0.50120505
   0.08333333  0.33333333  0.40830017
   0.00260456  0.00077282  0.59710193
   0.58333333  0.08333333  0.40830017
  -0.00303451  0.49921796  0.59783127
   0.41761628  0.16759262  0.50206394
   0.83333333  0.83333333  0.40830017
   0.42245637  0.41488080  0.50260772
   0.25058140  0.75258992  0.59733689
   0.50345198  0.49915012  0.59595430
   0.75004149  0.49910099  0.59596111
   0.66874954  0.65927761  0.50222599
   0.83333333  0.58333333  0.40830017
   0.66434878  0.17170017  0.50158209
   0.74939969  0.25302709  0.59562438
   0.66708496  0.41682078  0.50370619
   0.42024297  0.66314573  0.50346929
   0.49706966  0.00106287  0.59795780
   0.74965330  0.74714402  0.59796037
Direct configuration=     5
   0.08333333  0.08333333  0.40830017
  -0.00058625  0.25110147  0.60500499
   0.08333333  0.58333333  0.40830017
   0.91587333  0.66699769  0.50580847
   0.08333333  0.83333333  0.40830017
   0.91456511  0.91938297  0.50766005
  -0.00089119  0.74989249  0.61096481
   0.33333333  0.08333333  0.40830017
   0.33333333  0.33333333  0.40830017
   0.58333333  0.58333333  0.40830017
   0.16666245  0.41343601  0.50722892
   0.74977393  0.00135306  0.60935680
   0.83333333  0.33333333  0.40830017
   0.16856514  0.66478968  0.50951609
   0.25122723  0.49893830  0.60895199
   0.33333333  0.83333333  0.40830017
   0.66417735  0.92169386  0.50586589
   0.83333333  0.08333333  0.40830017
   0.50186736  0.74773431  0.60681323
   0.41432772  0.91515289  0.50874797
   0.58333333  0.33333333  0.40830017
   0.58333333  0.83333333  0.40830017
   0.50026058  0.24966359  0.60564165
   0.33333333  0.58333333  0.40830017
   0.16662831  0.92227629  0.50629979
   0.25078525  0.24632930  0.60162035
   0.24753017  0.00197408  0.60188394
   0.15963072  0.16610432  0.50476352
   0.91604353  0.17407646  0.50646120
   0.91414127  0.40913269  0.50365812
   0.08333333  0.33333333  0.40830017
   0.00205044  0.00050933  0.60156086
   0.58333333  0.08333333  0.40830017
  -0.00276446  0.49921923  0.60195640
   0.41934807  0.16837718  0.50523874
   0.83333333  0.83333333  0.40830017
   0.42065978  0.41365594  0.50646812
   0.25070802  0.75306176  0.60240525
   0.50398315  0.49862641  0.60015640
   0.75101668  0.49819422  0.60015433
   0.66057385  0.66104902  0.50516621
   0.83333333  0.58333333  0.40830017
   0.66395809  0.17174780  0.50521667
   0.74953881  0.25287409  0.59923227
   0.66872433  0.41602174  0.50565473
   0.42631058  0.66450298  0.50663793
   0.49748020  0.00008655  0.60255297
   0.74910239  0.74835671  0.60205847
Direct configuration=     6
   0.08333333  0.08333333  0.40830017
  -0.00016359  0.25111491  0.60793165
   0.08333333  0.58333333  0.40830017
   0.91485617  0.66677971  0.50800306
   0.08333333  0.83333333  0.40830017
   0.91512067  0.91958569  0.51033625
  -0.00096432  0.74973377  0.61429760
   0.33333333  0.08333333  0.40830017
   0.33333333  0.33333333  0.40830017
   0.58333333  0.58333333  0.40830017
   0.16647130  0.41395333  0.50929912
   0.74996314  0.00095822  0.61247775
   0.83333333  0.33333333  0.40830017
   0.16902651  0.66522761  0.51221559
   0.25082722  0.49916684  0.61209339
   0.33333333  0.83333333  0.40830017
   0.66466144  0.92012462  0.50817401
   0.83333333  0.08333333  0.40830017
   0.50179021  0.74819159  0.61012154
   0.41551592  0.91663492  0.51044153
   0.58333333  0.33333333  0.40830017
   0.58333333  0.83333333  0.40830017
   0.50026816  0.24927699  0.60839640
   0.33333333  0.58333333  0.40830017
   0.16574983  0.91935252  0.50767180
   0.25063690  0.24684850  0.60373526
   0.24776611  0.00182353  0.60466698
   0.16176728  0.16694897  0.50654872
   0.91545747  0.17047768  0.50815846
   0.91490883  0.41273263  0.50539374
   0.08333333  0.33333333  0.40830017
   0.00110887  0.00043798  0.60385711
   0.58333333  0.08333333  0.40830017
  -0.00229050  0.49958675  0.60389094
   0.41769426  0.16836994  0.50713480
   0.83333333  0.83333333  0.40830017
   0.41854504  0.41553283  0.50871416
   0.25087628  0.75246672  0.60471565
   0.50295756  0.49874463  0.60242816
   0.75128037  0.49863017  0.60240002
   0.66420504  0.66308897  0.50696149
   0.83333333  0.58333333  0.40830017
   0.66561551  0.17036153  0.50743918
   0.74974951  0.25154626  0.60146534
   0.66749019  0.41537841  0.50644469
   0.42152726  0.66461707  0.50852254
   0.49839422 -0.00034094  0.60495018
   0.74904119  0.74901612  0.60383560
Direct configuration=     7
   0.08333333  0.08333333  0.40830017
   0.00005105  0.25112173  0.60941792
   0.08333333  0.58333333  0.40830017
   0.91433961  0.66666901  0.50911755
   0.08333333  0.83333333  0.40830017
   0.91540280  0.91968863  0.51169532
  -0.00100146  0.74965316  0.61599012
   0.33333333  0.08333333  0.40830017
   0.33333333  0.33333333  0.40830017
   0.58333333  0.58333333  0.40830017
   0.16637422  0.41421605  0.51035045
   0.75005924  0.00075771  0.61406268
   0.83333333  0.33333333  0.40830017
   0.16926082  0.66545000  0.51358650
   0.25062408  0.49928290  0.61368871
   0.33333333  0.83333333  0.40830017
   0.66490728  0.91932771  0.50934616
   0.83333333  0.08333333  0.40830017
   0.50175103  0.74842381  0.61180163
   0.41611932  0.91738755  0.51130159
   0.58333333  0.33333333  0.40830017
   0.58333333  0.83333333  0.40830017
   0.50027201  0.24908067  0.60979537
   0.33333333  0.58333333  0.40830017
   0.16530371  0.91786773  0.50836856
   0.25056157  0.24711217  0.60480929
   0.24788593  0.00174707  0.60608031
   0.16285231  0.16737792  0.50745531
   0.91515985  0.16865009  0.50902039
   0.91529863  0.41456081  0.50627515
   0.08333333  0.33333333  0.40830017
   0.00063071  0.00040175  0.60502322
   0.58333333  0.08333333  0.40830017
  -0.00204981  0.49977340  0.60487337
   0.41685440  0.16836627  0.50809770
   0.83333333  0.83333333  0.40830017
   0.41747110  0.41648598  0.50985478
   0.25096173  0.75216453  0.60588895
   0.50243672  0.49880467  0.60358184
   0.75141429  0.49885157  0.60354047
   0.66604909  0.66412493  0.50787321
   0.83333333  0.58333333  0.40830017
   0.66645720  0.16965753  0.50856785
   0.74985651  0.25087194  0.60259938
   0.66686345  0.41505170  0.50684586
   0.41909812  0.66467500  0.50947962
   0.49885840 -0.00055804  0.60616757
   0.74901011  0.74935100  0.60473809
Direct configuration=     8
   0.08333333  0.08333333  0.40830017
   0.00003607  0.25112125  0.60931417
   0.08333333  0.58333333  0.40830017
   0.91437567  0.66667674  0.50903975
   0.08333333  0.83333333  0.40830017
   0.91538311  0.91968145  0.51160045
  -0.00099886  0.74965879  0.61587198
   0.33333333  0.08333333  0.40830017
   0.33333333  0.33333333  0.40830017
   0.58333333  0.58333333  0.40830017
   0.16638100  0.41419771  0.51027706
   0.75005253  0.00077171  0.61395205
   0.83333333  0.33333333  0.40830017
   0.16924446  0.66543447  0.51349080
   0.25063826  0.49927480  0.61357735
   0.33333333  0.83333333  0.40830017
   0.66489012  0.91938333  0.50926434
   0.83333333  0.08333333  0.40830017
   0.50175376  0.74840760  0.61168435
   0.41607720  0.91733502  0.51124155
   0.58333333  0.33333333  0.40830017
   0.58333333  0.83333333  0.40830017
   0.50027174  0.24909437  0.60969772
   0.33333333  0.58333333  0.40830017
   0.16533485  0.91797137  0.50831992
   0.25056683  0.24709377  0.60473432
   0.24787756  0.00175241  0.60598166
   0.16277657  0.16734798  0.50739203
   0.91518063  0.16877766  0.50896022
   0.91527142  0.41443320  0.50621362
   0.08333333  0.33333333  0.40830017
   0.00066409  0.00040428  0.60494183
   0.58333333  0.08333333  0.40830017
  -0.00206661  0.49976037  0.60480480
   0.41691302  0.16836653  0.50803048
   0.83333333  0.83333333  0.40830017
   0.41754606  0.41641945  0.50977516
   0.25095577  0.75218563  0.60580705
   0.50247308  0.49880048  0.60350131
   0.75140494  0.49883611  0.60346086
   0.66592037  0.66405262  0.50780957
   0.83333333  0.58333333  0.40830017
   0.66639845  0.16970667  0.50848906
   0.74984904  0.25091901  0.60252023
   0.66690720  0.41507451  0.50681786
   0.41926768  0.66467096  0.50941282
   0.49882600 -0.00054289  0.60608259
   0.74901228  0.74932762  0.60467510
Direct configuration=     9
   0.08333333  0.08333333  0.40830017
  -0.00007479  0.25054568  0.60915675
   0.08333333  0.58333333  0.40830017
   0.91372697  0.66591431  0.50851420
   0.08333333  0.83333333  0.40830017
   0.91559331  0.91952197  0.51115226
  -0.00068543  0.74968228  0.61631688
   0.33333333  0.08333333  0.40830017
   0.33333333  0.33333333  0.40830017
   0.58333333  0.58333333  0.40830017
   0.16669603  0.41307859  0.50984658
   0.74951257  0.00098643  0.61429451
   0.83333333  0.33333333  0.40830017
   0.16946205  0.66645275  0.51321567
   0.25109099  0.49885853  0.61400664
   0.33333333  0.83333333  0.40830017
   0.66495500  0.92001311  0.50879967
   0.83333333  0.08333333  0.40830017
   0.50137809  0.74817064  0.61164804
   0.41433690  0.91753700  0.51126918
   0.58333333  0.33333333  0.40830017
   0.58333333  0.83333333  0.40830017
   0.50008344  0.24914253  0.60975313
   0.33333333  0.58333333  0.40830017
   0.16633140  0.91738767  0.50860976
   0.25071409  0.24734932  0.60505920
   0.24813631  0.00112281  0.60596507
   0.16342156  0.16724225  0.50780848
   0.91628509  0.16826242  0.50903359
   0.91488633  0.41550134  0.50650902
   0.08333333  0.33333333  0.40830017
   0.00132593  0.00044214  0.60558931
   0.58333333  0.08333333  0.40830017
  -0.00203767  0.49993382  0.60532507
   0.41670569  0.16850295  0.50817771
   0.83333333  0.83333333  0.40830017
   0.41824642  0.41585517  0.50991806
   0.25090223  0.75224096  0.60630138
   0.50260144  0.49888218  0.60379416
   0.75059122  0.49905338  0.60348503
   0.66695652  0.66331032  0.50798917
   0.83333333  0.58333333  0.40830017
   0.66525384  0.16938471  0.50859799
   0.74971300  0.25131331  0.60305636
   0.66622652  0.41653543  0.50714110
   0.41831625  0.66514944  0.50962831
   0.49877854 -0.00004071  0.60663665
   0.74932078  0.74900536  0.60525310
Direct configuration=    10
   0.08333333  0.08333333  0.40830017
  -0.00010700  0.25037846  0.60911101
   0.08333333  0.58333333  0.40830017
   0.91353851  0.66569280  0.50836152
   0.08333333  0.83333333  0.40830017
   0.91565437  0.91947564  0.51102205
  -0.00059437  0.74968910  0.61644614
   0.33333333  0.08333333  0.40830017
   0.33333333  0.33333333  0.40830017
   0.58333333  0.58333333  0.40830017
   0.16678756  0.41275345  0.50972152
   0.74935570  0.00104881  0.61439400
   0.83333333  0.33333333  0.40830017
   0.16952526  0.66674859  0.51313573
   0.25122252  0.49873759  0.61413136
   0.33333333  0.83333333  0.40830017
   0.66497385  0.92019608  0.50866467
   0.83333333  0.08333333  0.40830017
   0.50126894  0.74810180  0.61163749
   0.41383130  0.91759568  0.51127720
   0.58333333  0.33333333  0.40830017
   0.58333333  0.83333333  0.40830017
   0.50002874  0.24915651  0.60976923
   0.33333333  0.58333333  0.40830017
   0.16662092  0.91721809  0.50869396
   0.25075688  0.24742357  0.60515358
   0.24821149  0.00093990  0.60596026
   0.16360894  0.16721153  0.50792947
   0.91660597  0.16811273  0.50905491
   0.91477445  0.41581166  0.50659484
   0.08333333  0.33333333  0.40830017
   0.00151822  0.00045313  0.60577742
   0.58333333  0.08333333  0.40830017
  -0.00202926  0.49998421  0.60547622
   0.41664546  0.16854259  0.50822049
   0.83333333  0.83333333  0.40830017
   0.41844989  0.41569124  0.50995958
   0.25088668  0.75225704  0.60644499
   0.50263873  0.49890591  0.60387924
   0.75035481  0.49911650  0.60349205
   0.66725755  0.66309466  0.50804135
   0.83333333  0.58333333  0.40830017
   0.66492131  0.16929117  0.50862963
   0.74967348  0.25142787  0.60321212
   0.66602877  0.41695987  0.50723501
   0.41803983  0.66528845  0.50969091
   0.49876476  0.00010518  0.60679762
   0.74941040  0.74891173  0.60542103
Direct configuration=    11
   0.08333333  0.08333333  0.40830017
  -0.00017551  0.25037051  0.60880123
   0.08333333  0.58333333  0.40830017
   0.91386645  0.66557924  0.50808024
   0.08333333  0.83333333  0.40830017
   0.91586759  0.91951831  0.51077820
  -0.00042526  0.74981903  0.61655959
   0.33333333  0.08333333  0.40830017
   0.33333333  0.33333333  0.40830017
   0.58333333  0.58333333  0.40830017
   0.16680969  0.41302249  0.50946853
   0.74954691  0.00093647  0.61445547
   0.83333333  0.33333333  0.40830017
   0.16930560  0.66646379  0.51293060
   0.25123046  0.49883710  0.61424705
   0.33333333  0.83333333  0.40830017
   0.66432958  0.92008653  0.50843151
   0.83333333  0.08333333  0.40830017
   0.50121569  0.74823265  0.61140379
   0.41424123  0.91733449  0.51128085
   0.58333333  0.33333333  0.40830017
   0.58333333  0.83333333  0.40830017
   0.50007700  0.24933540  0.60973594
   0.33333333  0.58333333  0.40830017
   0.16647983  0.91746302  0.50892985
   0.25050113  0.24766826  0.60536123
   0.24854413  0.00069603  0.60598645
   0.16358305  0.16724624  0.50815740
   0.91675823  0.16824671  0.50912789
   0.91473621  0.41543016  0.50678519
   0.08333333  0.33333333  0.40830017
   0.00147204  0.00021062  0.60609073
   0.58333333  0.08333333  0.40830017
  -0.00184150  0.49999620  0.60570811
   0.41663462  0.16810835  0.50831389
   0.83333333  0.83333333  0.40830017
   0.41851053  0.41572580  0.51002250
   0.25070526  0.75195817  0.60682792
   0.50256176  0.49885332  0.60411644
   0.75012711  0.49911119  0.60355830
   0.66653501  0.66364332  0.50812725
   0.83333333  0.58333333  0.40830017
   0.66479903  0.16959179  0.50870136
   0.74958238  0.25145265  0.60345811
   0.66599709  0.41714662  0.50746938
   0.41820834  0.66530449  0.50977834
   0.49877259 -0.00006045  0.60696441
   0.74954651  0.74888421  0.60567473
Direct configuration=    12
   0.08333333  0.08333333  0.40830017
  -0.00020342  0.25036727  0.60867504
   0.08333333  0.58333333  0.40830017
   0.91400005  0.66553298  0.50796565
   0.08333333  0.83333333  0.40830017
   0.91595444  0.91953570  0.51067887
  -0.00035636  0.74987196  0.61660580
   0.33333333  0.08333333  0.40830017
   0.33333333  0.33333333  0.40830017
   0.58333333  0.58333333  0.40830017
   0.16681870  0.41313209  0.50936547
   0.74962481  0.00089071  0.61448051
   0.83333333  0.33333333  0.40830017
   0.16921612  0.66634778  0.51284704
   0.25123370  0.49887764  0.61429418
   0.33333333  0.83333333  0.40830017
   0.66406712  0.92004190  0.50833653
   0.83333333  0.08333333  0.40830017
   0.50119400  0.74828596  0.61130858
   0.41440822  0.91722809  0.51128233
   0.58333333  0.33333333  0.40830017
   0.58333333  0.83333333  0.40830017
   0.50009666  0.24940827  0.60972239
   0.33333333  0.58333333  0.40830017
   0.16642236  0.91756280  0.50902594
   0.25039695  0.24776794  0.60544581
   0.24867963  0.00059668  0.60599712
   0.16357250  0.16726038  0.50825025
   0.91682026  0.16830130  0.50915762
   0.91472063  0.41527475  0.50686273
   0.08333333  0.33333333  0.40830017
   0.00145323  0.00011183  0.60621836
   0.58333333  0.08333333  0.40830017
  -0.00176501  0.50000109  0.60580257
   0.41663020  0.16793145  0.50835194
   0.83333333  0.83333333  0.40830017
   0.41853523  0.41573988  0.51004813
   0.25063135  0.75183642  0.60698392
   0.50253041  0.49883190  0.60421307
   0.75003435  0.49910903  0.60358530
   0.66624067  0.66386683  0.50816225
   0.83333333  0.58333333  0.40830017
   0.66474921  0.16971426  0.50873058
   0.74954526  0.25146275  0.60355832
   0.66598419  0.41722270  0.50756486
   0.41827699  0.66531103  0.50981395
   0.49877579 -0.00012793  0.60703236
   0.74960195  0.74887300  0.60577808
Direct configuration=    13
   0.08333333  0.08333333  0.40830017
  -0.00022119  0.25037243  0.60848788
   0.08333333  0.58333333  0.40830017
   0.91365580  0.66568037  0.50798616
   0.08333333  0.83333333  0.40830017
   0.91560793  0.91982309  0.51061461
  -0.00037824  0.74986816  0.61661904
   0.33333333  0.08333333  0.40830017
   0.33333333  0.33333333  0.40830017
   0.58333333  0.58333333  0.40830017
   0.16686083  0.41304152  0.50936405
   0.74973671  0.00075166  0.61440363
   0.83333333  0.33333333  0.40830017
   0.16940811  0.66624902  0.51283740
   0.25112322  0.49897272  0.61431872
   0.33333333  0.83333333  0.40830017
   0.66444355  0.91971269  0.50832659
   0.83333333  0.08333333  0.40830017
   0.50120763  0.74827001  0.61112486
   0.41433956  0.91730303  0.51126072
   0.58333333  0.33333333  0.40830017
   0.58333333  0.83333333  0.40830017
   0.50012278  0.24925968  0.60968119
   0.33333333  0.58333333  0.40830017
   0.16635879  0.91754483  0.50926546
   0.25025876  0.24795714  0.60553701
   0.24871896  0.00054070  0.60607096
   0.16367886  0.16727340  0.50834723
   0.91656050  0.16836881  0.50925065
   0.91468210  0.41532662  0.50696617
   0.08333333  0.33333333  0.40830017
   0.00132239 -0.00001594  0.60636942
   0.58333333  0.08333333  0.40830017
  -0.00167934  0.50013788  0.60582615
   0.41641134  0.16794645  0.50848053
   0.83333333  0.83333333  0.40830017
   0.41843018  0.41588333  0.51008959
   0.25053281  0.75157135  0.60715700
   0.50235772  0.49891665  0.60444723
   0.75006380  0.49919383  0.60369526
   0.66618066  0.66403997  0.50823027
   0.83333333  0.58333333  0.40830017
   0.66503028  0.16967472  0.50879832
   0.74956898  0.25130237  0.60372124
   0.66603250  0.41708338  0.50771918
   0.41805865  0.66527507  0.50992091
   0.49887884 -0.00012968  0.60707634
   0.74988009  0.74882544  0.60580722
Direct configuration=    14
   0.08333333  0.08333333  0.40830017
  -0.00022948  0.25037483  0.60840056
   0.08333333  0.58333333  0.40830017
   0.91349520  0.66574913  0.50799572
   0.08333333  0.83333333  0.40830017
   0.91544628  0.91995716  0.51058463
  -0.00038844  0.74986639  0.61662521
   0.33333333  0.08333333  0.40830017
   0.33333333  0.33333333  0.40830017
   0.58333333  0.58333333  0.40830017
   0.16688048  0.41299926  0.50936338
   0.74978891  0.00068679  0.61436776
   0.83333333  0.33333333  0.40830017
   0.16949767  0.66620295  0.51283290
   0.25107168  0.49901709  0.61433017
   0.33333333  0.83333333  0.40830017
   0.66461917  0.91955910  0.50832195
   0.83333333  0.08333333  0.40830017
   0.50121398  0.74826257  0.61103915
   0.41430753  0.91733799  0.51125063
   0.58333333  0.33333333  0.40830017
   0.58333333  0.83333333  0.40830017
   0.50013497  0.24919036  0.60966197
   0.33333333  0.58333333  0.40830017
   0.16632913  0.91753645  0.50937720
   0.25019430  0.24804541  0.60557956
   0.24873730  0.00051459  0.60610540
   0.16372848  0.16727948  0.50839247
   0.91643932  0.16840031  0.50929404
   0.91466412  0.41535082  0.50701443
   0.08333333  0.33333333  0.40830017
   0.00126136 -0.00007554  0.60643989
   0.58333333  0.08333333  0.40830017
  -0.00163938  0.50020170  0.60583716
   0.41630923  0.16795344  0.50854053
   0.83333333  0.83333333  0.40830017
   0.41838117  0.41595025  0.51010893
   0.25048684  0.75144769  0.60723775
   0.50227716  0.49895619  0.60455647
   0.75007754  0.49923339  0.60374657
   0.66615266  0.66412073  0.50826200
   0.83333333  0.58333333  0.40830017
   0.66516140  0.16965628  0.50882992
   0.74958004  0.25122755  0.60379724
   0.66605504  0.41701838  0.50779117
   0.41795678  0.66525830  0.50997081
   0.49892692 -0.00013049  0.60709685
   0.75000985  0.74880325  0.60582081
Direct configuration=    15
   0.08333333  0.08333333  0.40830017
  -0.00021653  0.25033746  0.60828532
   0.08333333  0.58333333  0.40830017
   0.91359529  0.66563376  0.50806975
   0.08333333  0.83333333  0.40830017
   0.91557323  0.91986090  0.51059535
  -0.00041530  0.74980955  0.61661483
   0.33333333  0.08333333  0.40830017
   0.33333333  0.33333333  0.40830017
   0.58333333  0.58333333  0.40830017
   0.16669906  0.41310353  0.50942998
   0.74974454  0.00064368  0.61427899
   0.83333333  0.33333333  0.40830017
   0.16924499  0.66642302  0.51287995
   0.25106385  0.49892611  0.61434991
   0.33333333  0.83333333  0.40830017
   0.66454526  0.91980022  0.50837186
   0.83333333  0.08333333  0.40830017
   0.50124415  0.74825175  0.61088601
   0.41415978  0.91746064  0.51122293
   0.58333333  0.33333333  0.40830017
   0.58333333  0.83333333  0.40830017
   0.50007911  0.24914981  0.60963240
   0.33333333  0.58333333  0.40830017
   0.16618778  0.91755366  0.50958106
   0.25016263  0.24813063  0.60567858
   0.24867140  0.00048219  0.60621147
   0.16370608  0.16720636  0.50839632
   0.91633208  0.16840846  0.50935552
   0.91456559  0.41551778  0.50704413
   0.08333333  0.33333333  0.40830017
   0.00123084 -0.00015640  0.60654588
   0.58333333  0.08333333  0.40830017
  -0.00163831  0.50027289  0.60580707
   0.41647969  0.16792399  0.50864752
   0.83333333  0.83333333  0.40830017
   0.41847815  0.41579836  0.51015555
   0.25043469  0.75136654  0.60739829
   0.50223592  0.49889129  0.60480520
   0.75017308  0.49925854  0.60387344
   0.66610762  0.66395589  0.50828992
   0.83333333  0.58333333  0.40830017
   0.66504138  0.16966875  0.50887306
   0.74957699  0.25119388  0.60397372
   0.66597371  0.41705416  0.50793316
   0.41790067  0.66520078  0.51006301
   0.49901420 -0.00016582  0.60707268
   0.75010347  0.74875705  0.60582658
Direct configuration=    16
   0.08333333  0.08333333  0.40830017
  -0.00020958  0.25031744  0.60822355
   0.08333333  0.58333333  0.40830017
   0.91364892  0.66557193  0.50810943
   0.08333333  0.83333333  0.40830017
   0.91564127  0.91980931  0.51060109
  -0.00042969  0.74977909  0.61660926
   0.33333333  0.08333333  0.40830017
   0.33333333  0.33333333  0.40830017
   0.58333333  0.58333333  0.40830017
   0.16660183  0.41315941  0.50946567
   0.74972076  0.00062058  0.61423142
   0.83333333  0.33333333  0.40830017
   0.16910956  0.66654097  0.51290517
   0.25105965  0.49887735  0.61436049
   0.33333333  0.83333333  0.40830017
   0.66450566  0.91992945  0.50839860
   0.83333333  0.08333333  0.40830017
   0.50126032  0.74824595  0.61080393
   0.41408059  0.91752637  0.51120808
   0.58333333  0.33333333  0.40830017
   0.58333333  0.83333333  0.40830017
   0.50004917  0.24912807  0.60961655
   0.33333333  0.58333333  0.40830017
   0.16611202  0.91756288  0.50969032
   0.25014566  0.24817631  0.60573166
   0.24863607  0.00046483  0.60626831
   0.16369407  0.16716717  0.50839839
   0.91627460  0.16841282  0.50938847
   0.91451278  0.41560727  0.50706005
   0.08333333  0.33333333  0.40830017
   0.00121448 -0.00019974  0.60660268
   0.58333333  0.08333333  0.40830017
  -0.00163773  0.50031104  0.60579095
   0.41657104  0.16790821  0.50870486
   0.83333333  0.83333333  0.40830017
   0.41853012  0.41571696  0.51018054
   0.25040674  0.75132304  0.60748432
   0.50221381  0.49885651  0.60493851
   0.75022429  0.49927203  0.60394144
   0.66608348  0.66386755  0.50830489
   0.83333333  0.58333333  0.40830017
   0.66497706  0.16967543  0.50889619
   0.74957536  0.25117583  0.60406830
   0.66593012  0.41707333  0.50800926
   0.41787059  0.66516996  0.51011243
   0.49906098 -0.00018475  0.60705972
   0.75015364  0.74873228  0.60582966
Direct configuration=    17
   0.08333333  0.08333333  0.40830017
  -0.00019552  0.25027448  0.60818144
   0.08333333  0.58333333  0.40830017
   0.91353181  0.66572503  0.50812607