  56  56   0   0
  0.4903395E+02  0.1100258E-08  0.1100258E-08  0.2619179E-08  0.3500000E-15
  1.000000000000000E-004
  CAR 
 unknown system                          
      6.43744827    -21.51645160  301     -1.43113355      1.00000000
    -21.516  0.0000E+00  0.0000E+00
    -21.423  0.0000E+00  0.0000E+00
    -21.330  0.0000E+00  0.0000E+00
    -21.237  0.0000E+00  0.0000E+00
    -21.144  0.0000E+00  0.0000E+00
    -21.051  0.0000E+00  0.0000E+00
    -20.957  0.0000E+00  0.0000E+00
    -20.864  0.0000E+00  0.0000E+00
    -20.771  0.2317E-14  0.2159E-15
    -20.678  0.2104E-10  0.1961E-11
    -20.585  0.3525E-07  0.3287E-08
    -20.491  0.1121E-04  0.1048E-05
    -20.398  0.7153E-03  0.6770E-04
    -20.305  0.1017E-01  0.1016E-02
    -20.212  0.3861E-01  0.4613E-02
    -20.119  0.5001E-01  0.9273E-02
    -20.026  0.2547E-01  0.1165E-01
    -19.932  0.1216E-01  0.1278E-01
    -19.839  0.3743E-01  0.1627E-01
    -19.746  0.5829E-01  0.2170E-01
    -19.653  0.4919E-01  0.2628E-01
    -19.560  0.1691E-01  0.2786E-01
    -19.466  0.1512E-02  0.2800E-01
    -19.373  0.4180E-03  0.2804E-01
    -19.280  0.6002E-02  0.2860E-01
    -19.187  0.1975E-01  0.3044E-01
    -19.094  0.1440E-01  0.3178E-01
    -19.001  0.2301E-02  0.3199E-01
    -18.907  0.7646E-04  0.3200E-01
    -18.814  0.5004E-06  0.3200E-01
    -18.721  0.6200E-09  0.3200E-01
    -18.628  0.1419E-12  0.3200E-01
    -18.535  0.5560E-17  0.3200E-01
    -18.442  0.0000E+00  0.3200E-01
    -18.348  0.0000E+00  0.3200E-01
    -18.255  0.0000E+00  0.3200E-01
    -18.162  0.0000E+00  0.3200E-01
    -18.069  0.0000E+00  0.3200E-01
    -17.976  0.0000E+00  0.3200E-01
    -17.882  0.0000E+00  0.3200E-01
    -17.789  0.0000E+00  0.3200E-01
    -17.696  0.0000E+00  0.3200E-01
    -17.603  0.0000E+00  0.3200E-01
    -17.510  0.0000E+00  0.3200E-01
    -17.417  0.0000E+00  0.3200E-01
    -17.323  0.0000E+00  0.3200E-01
    -17.230  0.0000E+00  0.3200E-01
    -17.137  0.0000E+00  0.3200E-01
    -17.044  0.0000E+00  0.3200E-01
    -16.951  0.0000E+00  0.3200E-01
    -16.857  0.0000E+00  0.3200E-01
    -16.764  0.0000E+00  0.3200E-01
    -16.671  0.0000E+00  0.3200E-01
    -16.578  0.0000E+00  0.3200E-01
    -16.485  0.0000E+00  0.3200E-01
    -16.392  0.0000E+00  0.3200E-01
    -16.298  0.0000E+00  0.3200E-01
    -16.205  0.0000E+00  0.3200E-01
    -16.112  0.0000E+00  0.3200E-01
    -16.019  0.0000E+00  0.3200E-01
    -15.926  0.0000E+00  0.3200E-01
    -15.832  0.0000E+00  0.3200E-01
    -15.739  0.0000E+00  0.3200E-01
    -15.646  0.0000E+00  0.3200E-01
    -15.553  0.0000E+00  0.3200E-01
    -15.460  0.0000E+00  0.3200E-01
    -15.367  0.0000E+00  0.3200E-01
    -15.273  0.0000E+00  0.3200E-01
    -15.180  0.0000E+00  0.3200E-01
    -15.087  0.0000E+00  0.3200E-01
    -14.994  0.0000E+00  0.3200E-01
    -14.901  0.0000E+00  0.3200E-01
    -14.808  0.0000E+00  0.3200E-01
    -14.714  0.0000E+00  0.3200E-01
    -14.621  0.0000E+00  0.3200E-01
    -14.528  0.0000E+00  0.3200E-01
    -14.435  0.0000E+00  0.3200E-01
    -14.342  0.0000E+00  0.3200E-01
    -14.248  0.0000E+00  0.3200E-01
    -14.155  0.0000E+00  0.3200E-01
    -14.062  0.0000E+00  0.3200E-01
    -13.969  0.0000E+00  0.3200E-01
    -13.876  0.0000E+00  0.3200E-01
    -13.783  0.0000E+00  0.3200E-01
    -13.689  0.0000E+00  0.3200E-01
    -13.596  0.0000E+00  0.3200E-01
    -13.503  0.0000E+00  0.3200E-01
    -13.410  0.0000E+00  0.3200E-01
    -13.317  0.0000E+00  0.3200E-01
    -13.223  0.0000E+00  0.3200E-01
    -13.130  0.0000E+00  0.3200E-01
    -13.037  0.0000E+00  0.3200E-01
    -12.944  0.0000E+00  0.3200E-01
    -12.851  0.0000E+00  0.3200E-01
    -12.758  0.0000E+00  0.3200E-01
    -12.664  0.0000E+00  0.3200E-01
    -12.571  0.0000E+00  0.3200E-01
    -12.478  0.0000E+00  0.3200E-01
    -12.385  0.0000E+00  0.3200E-01
    -12.292  0.0000E+00  0.3200E-01
    -12.198  0.0000E+00  0.3200E-01
    -12.105  0.0000E+00  0.3200E-01
    -12.012  0.0000E+00  0.3200E-01
    -11.919  0.0000E+00  0.3200E-01
    -11.826  0.0000E+00  0.3200E-01
    -11.733  0.0000E+00  0.3200E-01
    -11.639  0.0000E+00  0.3200E-01
    -11.546  0.0000E+00  0.3200E-01
    -11.453  0.0000E+00  0.3200E-01
    -11.360  0.0000E+00  0.3200E-01
    -11.267  0.0000E+00  0.3200E-01
    -11.174  0.0000E+00  0.3200E-01
    -11.080  0.0000E+00  0.3200E-01
    -10.987  0.0000E+00  0.3200E-01
    -10.894  0.0000E+00  0.3200E-01
    -10.801  0.0000E+00  0.3200E-01
    -10.708  0.0000E+00  0.3200E-01
    -10.614  0.0000E+00  0.3200E-01
    -10.521  0.0000E+00  0.3200E-01
    -10.428  0.0000E+00  0.3200E-01
    -10.335  0.0000E+00  0.3200E-01
    -10.242  0.0000E+00  0.3200E-01
    -10.149  0.0000E+00  0.3200E-01
    -10.055  0.0000E+00  0.3200E-01
     -9.962  0.0000E+00  0.3200E-01
     -9.869  0.0000E+00  0.3200E-01
     -9.776  0.0000E+00  0.3200E-01
     -9.683  0.0000E+00  0.3200E-01
     -9.589  0.1362E-15  0.3200E-01
     -9.496  0.1716E-11  0.3200E-01
     -9.403  0.4004E-08  0.3200E-01
     -9.310  0.1758E-05  0.3200E-01
     -9.217  0.1494E-03  0.3201E-01
     -9.124  0.2576E-02  0.3225E-01
     -9.030  0.9740E-02  0.3316E-01
     -8.937  0.1117E-01  0.3420E-01
     -8.844  0.1128E-01  0.3525E-01
     -8.751  0.7116E-02  0.3592E-01
     -8.658  0.4228E-02  0.3631E-01
     -8.564  0.1037E-01  0.3728E-01
     -8.471  0.1401E-01  0.3858E-01
     -8.378  0.1308E-01  0.3980E-01
     -8.285  0.1840E-01  0.4151E-01
     -8.192  0.3934E-01  0.4518E-01
     -8.099  0.4487E-01  0.4936E-01
     -8.005  0.3793E-01  0.5290E-01
     -7.912  0.3155E-01  0.5583E-01
     -7.819  0.3900E-01  0.5947E-01
     -7.726  0.5978E-01  0.6504E-01
     -7.633  0.6950E-01  0.7151E-01
     -7.540  0.6734E-01  0.7779E-01
     -7.446  0.7216E-01  0.8451E-01
     -7.353  0.8863E-01  0.9277E-01
     -7.260  0.9892E-01  0.1020E+00
     -7.167  0.1111E+00  0.1123E+00
     -7.074  0.1341E+00  0.1248E+00
     -6.980  0.1492E+00  0.1387E+00
     -6.887  0.1536E+00  0.1531E+00
     -6.794  0.1484E+00  0.1669E+00
     -6.701  0.1513E+00  0.1810E+00
     -6.608  0.1684E+00  0.1967E+00
     -6.515  0.1682E+00  0.2124E+00
     -6.421  0.1588E+00  0.2272E+00
     -6.328  0.1597E+00  0.2420E+00
     -6.235  0.1615E+00  0.2571E+00
     -6.142  0.1644E+00  0.2724E+00
     -6.049  0.1641E+00  0.2877E+00
     -5.955  0.1640E+00  0.3030E+00
     -5.862  0.1624E+00  0.3181E+00
     -5.769  0.1565E+00  0.3327E+00
     -5.676  0.1610E+00  0.3477E+00
     -5.583  0.1671E+00  0.3633E+00
     -5.490  0.1731E+00  0.3794E+00
     -5.396  0.1784E+00  0.3960E+00
     -5.303  0.1726E+00  0.4121E+00
     -5.210  0.1677E+00  0.4277E+00
     -5.117  0.1702E+00  0.4436E+00
     -5.024  0.1742E+00  0.4598E+00
     -4.930  0.1877E+00  0.4773E+00
     -4.837  0.1912E+00  0.4951E+00
     -4.744  0.1965E+00  0.5134E+00
     -4.651  0.2023E+00  0.5323E+00
     -4.558  0.1982E+00  0.5508E+00
     -4.465  0.1894E+00  0.5684E+00
     -4.371  0.1910E+00  0.5862E+00
     -4.278  0.1995E+00  0.6048E+00
     -4.185  0.1949E+00  0.6229E+00
     -4.092  0.1858E+00  0.6403E+00
     -3.999  0.1834E+00  0.6574E+00
     -3.905  0.1888E+00  0.6749E+00
     -3.812  0.1943E+00  0.6931E+00
     -3.719  0.1871E+00  0.7105E+00
     -3.626  0.1796E+00  0.7272E+00
     -3.533  0.1819E+00  0.7442E+00
     -3.440  0.1802E+00  0.7610E+00
     -3.346  0.1734E+00  0.7771E+00
     -3.253  0.1799E+00  0.7939E+00
     -3.160  0.1888E+00  0.8115E+00
     -3.067  0.1924E+00  0.8294E+00
     -2.974  0.1882E+00  0.8469E+00
     -2.881  0.1839E+00  0.8641E+00
     -2.787  0.1834E+00  0.8812E+00
     -2.694  0.1841E+00  0.8983E+00
     -2.601  0.1936E+00  0.9164E+00
     -2.508  0.1980E+00  0.9348E+00
     -2.415  0.1922E+00  0.9527E+00
     -2.321  0.1812E+00  0.9696E+00
     -2.228  0.1753E+00  0.9859E+00
     -2.135  0.1830E+00  0.1003E+01
     -2.042  0.1873E+00  0.1020E+01
     -1.949  0.1855E+00  0.1038E+01
     -1.856  0.1685E+00  0.1053E+01
     -1.762  0.1467E+00  0.1067E+01
     -1.669  0.1326E+00  0.1079E+01
     -1.576  0.1170E+00  0.1090E+01
     -1.483  0.9875E-01  0.1100E+01
     -1.390  0.8200E-01  0.1107E+01
     -1.296  0.7016E-01  0.1114E+01
     -1.203  0.6172E-01  0.1119E+01
     -1.110  0.4574E-01  0.1124E+01
     -1.017  0.4762E-01  0.1128E+01
     -0.924  0.5096E-01  0.1133E+01
     -0.831  0.5098E-01  0.1138E+01
     -0.737  0.5968E-01  0.1143E+01
     -0.644  0.6340E-01  0.1149E+01
     -0.551  0.5579E-01  0.1154E+01
     -0.458  0.4965E-01  0.1159E+01
     -0.365  0.4065E-01  0.1163E+01
     -0.271  0.2532E-01  0.1165E+01
     -0.178  0.1564E-01  0.1167E+01
     -0.085  0.1876E-01  0.1168E+01
      0.008  0.1976E-01  0.1170E+01
      0.101  0.2424E-01  0.1172E+01
      0.194  0.2980E-01  0.1175E+01
      0.288  0.2641E-01  0.1178E+01
      0.381  0.3265E-01  0.1181E+01
      0.474  0.3900E-01  0.1184E+01
      0.567  0.3699E-01  0.1188E+01
      0.660  0.3394E-01  0.1191E+01
      0.753  0.3054E-01  0.1194E+01
      0.847  0.2714E-01  0.1196E+01
      0.940  0.2600E-01  0.1199E+01
      1.033  0.2746E-01  0.1201E+01
      1.126  0.2609E-01  0.1204E+01
      1.219  0.2669E-01  0.1206E+01
      1.313  0.2868E-01  0.1209E+01
      1.406  0.2409E-01  0.1211E+01
      1.499  0.2513E-01  0.1213E+01
      1.592  0.3148E-01  0.1216E+01
      1.685  0.3448E-01  0.1220E+01
      1.778  0.3054E-01  0.1222E+01
      1.872  0.2936E-01  0.1225E+01
      1.965  0.3880E-01  0.1229E+01
      2.058  0.4218E-01  0.1233E+01
      2.151  0.3560E-01  0.1236E+01
      2.244  0.2755E-01  0.1239E+01
      2.338  0.2473E-01  0.1241E+01
      2.431  0.2729E-01  0.1244E+01
      2.524  0.2641E-01  0.1246E+01
      2.617  0.2869E-01  0.1249E+01
      2.710  0.2741E-01  0.1251E+01
      2.803  0.2363E-01  0.1253E+01
      2.897  0.1963E-01  0.1255E+01
      2.990  0.1988E-01  0.1257E+01
      3.083  0.2378E-01  0.1259E+01
      3.176  0.2984E-01  0.1262E+01
      3.269  0.3188E-01  0.1265E+01
      3.363  0.2910E-01  0.1268E+01
      3.456  0.3068E-01  0.1271E+01
      3.549  0.3384E-01  0.1274E+01
      3.642  0.3560E-01  0.1277E+01
      3.735  0.3260E-01  0.1280E+01
      3.828  0.3192E-01  0.1283E+01
      3.922  0.3540E-01  0.1286E+01
      4.015  0.4082E-01  0.1290E+01
      4.108  0.4519E-01  0.1294E+01
      4.201  0.3950E-01  0.1298E+01
      4.294  0.3209E-01  0.1301E+01
      4.387  0.3653E-01  0.1304E+01
      4.481  0.4273E-01  0.1308E+01
      4.574  0.4525E-01  0.1313E+01
      4.667  0.4812E-01  0.1317E+01
      4.760  0.5182E-01  0.1322E+01
      4.853  0.5480E-01  0.1327E+01
      4.947  0.5666E-01  0.1332E+01
      5.040  0.5653E-01  0.1338E+01
      5.133  0.4485E-01  0.1342E+01
      5.226  0.1970E-01  0.1344E+01
      5.319  0.3458E-02  0.1344E+01
      5.412  0.1860E-03  0.1344E+01
      5.506  0.2475E-05  0.1344E+01
      5.599  0.7051E-08  0.1344E+01
      5.692  0.3969E-11  0.1344E+01
      5.785  0.4218E-15  0.1344E+01
      5.878  0.0000E+00  0.1344E+01
      5.972  0.0000E+00  0.1344E+01
      6.065  0.0000E+00  0.1344E+01
      6.158  0.0000E+00  0.1344E+01
      6.251  0.0000E+00  0.1344E+01
      6.344  0.0000E+00  0.1344E+01
      6.437  0.0000E+00  0.1344E+01
