unknown system                          
           1
    11.002582    0.000000    0.000000
     5.501291    9.528515    0.000000
     0.000000    0.000000   26.191785
   Au   O    Pd
  24   8  24
Direct configuration=     1
   0.08333333  0.08333333  0.38179910
   0.33333333  0.83333333  0.38179910
   0.08333333  0.83333333  0.38179910
   0.91666667  0.16666667  0.46754708
   0.75000000  0.50000000  0.55329505
   0.83333333  0.58333333  0.38179910
   0.08333333  0.33333333  0.38179910
   0.75000000  0.25000000  0.55329505
   0.83333333  0.33333333  0.38179910
   0.91666667  0.66666667  0.46754708
   0.00000000  0.50000000  0.55329505
   0.50000000  0.75000000  0.55329505
   0.83333333  0.08333333  0.38179910
   0.41666667  0.66666667  0.46754708
   0.58333333  0.58333333  0.38179910
   0.33333333  0.08333333  0.38179910
   0.16666667  0.16666667  0.46754708
   0.58333333  0.33333333  0.38179910
   0.33333333  0.33333333  0.38179910
   0.16666667  0.41666667  0.46754708
   0.25000000  0.25000000  0.55329505
   0.16666667  0.91666667  0.46754708
   0.33333333  0.58333333  0.38179910
   0.16666667  0.66666667  0.46754708
   0.33333333  0.08333333  0.61820090
   0.08333333  0.83333333  0.61820090
   0.08333333  0.33333333  0.61820090
   0.33333333  0.33333333  0.61820090
   0.33333333  0.83333333  0.61820090
   0.83333333  0.33333333  0.61820090
   0.58333333  0.33333333  0.61820090
   0.83333333  0.08333333  0.61820090
   0.50000000  0.00000000  0.55329505
   0.58333333  0.83333333  0.38179910
   0.41666667  0.41666667  0.46754708
   0.50000000  0.25000000  0.55329505
   0.25000000  0.00000000  0.55329505
   0.00000000  0.75000000  0.55329505
   0.50000000  0.50000000  0.55329505
   0.75000000  0.75000000  0.55329505
   0.25000000  0.75000000  0.55329505
   0.41666667  0.91666667  0.46754708
   0.91666667  0.91666667  0.46754708
   0.66666667  0.16666667  0.46754708
   0.75000000  0.00000000  0.55329505
   0.08333333  0.58333333  0.38179910
   0.66666667  0.41666667  0.46754708
   0.00000000  0.25000000  0.55329505
   0.91666667  0.41666667  0.46754708
   0.66666667  0.66666667  0.46754708
   0.00000000  0.00000000  0.55329505
   0.83333333  0.83333333  0.38179910
   0.66666667  0.91666667  0.46754708
   0.25000000  0.50000000  0.55329505
   0.58333333  0.08333333  0.38179910
   0.41666667  0.16666667  0.46754708
Direct configuration=     2
   0.08333333  0.08333333  0.38179910
   0.33333333  0.83333333  0.38179910
   0.08333333  0.83333333  0.38179910
   0.91522432  0.16744447  0.46882790
   0.74943560  0.50136808  0.55536942
   0.83333333  0.58333333  0.38179910
   0.08333333  0.33333333  0.38179910
   0.74945462  0.24944164  0.55605298
   0.83333333  0.33333333  0.38179910
   0.91487398  0.66859046  0.46810055
  -0.00126832  0.50180981  0.55599233
   0.50046421  0.75068922  0.55566937
   0.83333333  0.08333333  0.38179910
   0.41811908  0.66504598  0.46871639
   0.58333333  0.58333333  0.38179910
   0.33333333  0.08333333  0.38179910
   0.16742040  0.16637560  0.46881999
   0.58333333  0.33333333  0.38179910
   0.33333333  0.33333333  0.38179910
   0.16788166  0.41649919  0.46770995
   0.25131433  0.24900464  0.55635079
   0.16652516  0.91685938  0.46890505
   0.33333333  0.58333333  0.38179910
   0.16668566  0.66605361  0.46862525
   0.33594963  0.08015674  0.61473291
   0.08270031  0.83263309  0.61381805
   0.08130871  0.33395341  0.61538549
   0.33450629  0.33507124  0.61481534
   0.33355961  0.83343059  0.61446180
   0.83467482  0.33406809  0.61536649
   0.58048397  0.33505306  0.61483185
   0.83375621  0.08012454  0.61468773
   0.49971266  0.00015498  0.55520565
   0.58333333  0.83333333  0.38179910
   0.41787591  0.41534610  0.46804781
   0.49971553  0.25068323  0.55623821
   0.25141922 -0.00070383  0.55711241
   0.00000271  0.75185784  0.55574863
   0.49958617  0.49844942  0.55545093
   0.74964705  0.75137718  0.55399438
   0.24901463  0.75006566  0.55687246
   0.41817810  0.91710175  0.46752557
   0.91500099  0.91699878  0.46776279
   0.66528244  0.16660668  0.46815138
   0.75080889 -0.00040694  0.55526563
   0.08333333  0.58333333  0.38179910
   0.66621554  0.41644094  0.46786347
  -0.00030182  0.25035290  0.55698611
   0.91580649  0.41683416  0.46756632
   0.66639666  0.66733439  0.46831512
  -0.00052648 -0.00146809  0.55700038
   0.83333333  0.83333333  0.38179910
   0.66590243  0.91760606  0.46847831
   0.25170164  0.49923782  0.55572857
   0.58333333  0.08333333  0.38179910
   0.41876336  0.16595753  0.46813628
Direct configuration=     3
   0.08333333  0.08333333  0.38179910
   0.33333333  0.83333333  0.38179910
   0.08333333  0.83333333  0.38179910
   0.91268391  0.16881442  0.47108381
   0.74844152  0.50377769  0.55902302
   0.83333333  0.58333333  0.38179910
   0.08333333  0.33333333  0.38179910
   0.74849403  0.24845821  0.56091051
   0.83333333  0.33333333  0.38179910
   0.91171653  0.67197885  0.46907537
  -0.00350223  0.50499744  0.56074304
   0.50128181  0.75190315  0.55985127
   0.83333333  0.08333333  0.38179910
   0.42067722  0.66219145  0.47077590
   0.58333333  0.58333333  0.38179910
   0.33333333  0.08333333  0.38179910
   0.16874794  0.16586295  0.47106198
   0.58333333  0.33333333  0.38179910
   0.33333333  0.33333333  0.38179910
   0.17002164  0.41620420  0.46799681
   0.25362927  0.24725152  0.56173288
   0.16627592  0.91719880  0.47129687
   0.33333333  0.58333333  0.38179910
   0.16671911  0.66497383  0.47052425
   0.34055771  0.07456180  0.60862473
   0.08158537  0.83139975  0.60609854
   0.07774274  0.33504554  0.61042670
   0.33657223  0.33813222  0.60885234
   0.33395816  0.83360190  0.60787613
   0.83703757  0.33536221  0.61037425
   0.57546538  0.33808203  0.60889792
   0.83450103  0.07447289  0.60849997
   0.49920657  0.00042795  0.55857079
   0.58333333  0.83333333  0.38179910
   0.42000575  0.41302018  0.46892975
   0.49921450  0.25188660  0.56142199
   0.25391891 -0.00194348  0.56383593
   0.00000748  0.75513007  0.56007012
   0.49885729  0.49571837  0.55924808
   0.74902541  0.75380280  0.55522610
   0.24727910  0.75018131  0.56317335
   0.42084020  0.91786806  0.46748769
   0.91206724  0.91758372  0.46814273
   0.66284440  0.16650103  0.46921575
   0.75223358 -0.00112369  0.55873641
   0.08333333  0.58333333  0.38179910
   0.66542097  0.41604338  0.46842073
  -0.00083342  0.25097446  0.56348717
   0.91429146  0.41712915  0.46760022
   0.66592110  0.66851047  0.46966788
  -0.00145377 -0.00405385  0.56352657
   0.83333333  0.83333333  0.38179910
   0.66455638  0.91926061  0.47011849
   0.25469875  0.49789538  0.56001473
   0.58333333  0.08333333  0.38179910
   0.42245627  0.16470854  0.46917406
Direct configuration=     4
   0.08333333  0.08333333  0.38179910
   0.33333333  0.83333333  0.38179910
   0.08333333  0.83333333  0.38179910
   0.91309400  0.16859328  0.47071964
   0.74860199  0.50338872  0.55843323
   0.83333333  0.58333333  0.38179910
   0.08333333  0.33333333  0.38179910
   0.74864910  0.24861696  0.56012638
   0.83333333  0.33333333  0.38179910
   0.91222623  0.67143187  0.46891801
  -0.00314161  0.50448287  0.55997615
   0.50114983  0.75170719  0.55917620
   0.83333333  0.08333333  0.38179910
   0.42026427  0.66265225  0.47044344
   0.58333333  0.58333333  0.38179910
   0.33333333  0.08333333  0.38179910
   0.16853364  0.16594570  0.47070007
   0.58333333  0.33333333  0.38179910
   0.33333333  0.33333333  0.38179910
   0.16967619  0.41625182  0.46795050
   0.25325558  0.24753452  0.56086407
   0.16631615  0.91714401  0.47091076
   0.33333333  0.58333333  0.38179910
   0.16671371  0.66514814  0.47021770
   0.33981384  0.07546497  0.60961076
   0.08176535  0.83159884  0.60734468
   0.07831838  0.33486924  0.61122718
   0.33623873  0.33763809  0.60981493
   0.33389382  0.83357425  0.60893923
   0.83665616  0.33515330  0.61118014
   0.57627552  0.33759307  0.60985582
   0.83438080  0.07538522  0.60949884
   0.49928827  0.00038388  0.55802757
   0.58333333  0.83333333  0.38179910
   0.41966194  0.41339564  0.46878738
   0.49929538  0.25169235  0.56058519
   0.25351539 -0.00174336  0.56275057
   0.00000671  0.75460184  0.55937252
   0.49897495  0.49615923  0.55863512
   0.74912576  0.75341124  0.55502727
   0.24755926  0.75016265  0.56215621
   0.42041046  0.91774436  0.46749381
   0.91254083  0.91748929  0.46808140
   0.66323796  0.16651809  0.46904393
   0.75200359 -0.00100799  0.55817614
   0.08333333  0.58333333  0.38179910
   0.66554923  0.41610755  0.46833078
  -0.00074761  0.25087413  0.56243773
   0.91453602  0.41708153  0.46759474
   0.66599787  0.66832062  0.46944951
  -0.00130408 -0.00363644  0.56247307
   0.83333333  0.83333333  0.38179910
   0.66477367  0.91899352  0.46985372
   0.25421494  0.49811208  0.55932283
   0.58333333  0.08333333  0.38179910
   0.42186014  0.16491016  0.46900653
Direct configuration=     5
   0.08333333  0.08333333  0.38179910
   0.33333333  0.83333333  0.38179910
   0.08333333  0.83333333  0.38179910
   0.91297601  0.16865690  0.47082442
   0.74855582  0.50350063  0.55860292
   0.83333333  0.58333333  0.38179910
   0.08333333  0.33333333  0.38179910
   0.74860448  0.24857129  0.56035198
   0.83333333  0.33333333  0.38179910
   0.91207958  0.67158924  0.46896329
  -0.00324537  0.50463092  0.56019680
   0.50118780  0.75176357  0.55937043
   0.83333333  0.08333333  0.38179910
   0.42038308  0.66251967  0.47053910
   0.58333333  0.58333333  0.38179910
   0.33333333  0.08333333  0.38179910
   0.16859530  0.16592189  0.47080420
   0.58333333  0.33333333  0.38179910
   0.33333333  0.33333333  0.38179910
   0.16977558  0.41623812  0.46796382
   0.25336309  0.24745310  0.56111404
   0.16630457  0.91715978  0.47102185
   0.33333333  0.58333333  0.38179910
   0.16671526  0.66509799  0.47030590
   0.34002786  0.07520511  0.60932706
   0.08171356  0.83154156  0.60698615
   0.07815276  0.33491997  0.61099687
   0.33633468  0.33778026  0.60953798
   0.33391234  0.83358220  0.60863336
   0.83676590  0.33521341  0.61094827
   0.57604243  0.33773375  0.60958022
   0.83441539  0.07512273  0.60921145
   0.49926476  0.00039656  0.55818386
   0.58333333  0.83333333  0.38179910
   0.41976086  0.41328762  0.46882834
   0.49927211  0.25174824  0.56082595
   0.25363149 -0.00180094  0.56306285
   0.00000694  0.75475382  0.55957323
   0.49894110  0.49603239  0.55881148
   0.74909689  0.75352390  0.55508447
   0.24747865  0.75016802  0.56244886
   0.42053410  0.91777995  0.46749205
   0.91240457  0.91751646  0.46809904
   0.66312473  0.16651318  0.46909337
   0.75206976 -0.00104128  0.55833734
   0.08333333  0.58333333  0.38179910
   0.66551233  0.41608909  0.46835666
  -0.00077230  0.25090300  0.56273967
   0.91446566  0.41709523  0.46759632
   0.66597578  0.66837524  0.46951234
  -0.00134715 -0.00375653  0.56277618
   0.83333333  0.83333333  0.38179910
   0.66471115  0.91907037  0.46992990
   0.25435413  0.49804974  0.55952190
   0.58333333  0.08333333  0.38179910
   0.42203165  0.16485215  0.46905473
Direct configuration=     6
   0.08333333  0.08333333  0.38179910
   0.33333333  0.83333333  0.38179910
   0.08333333  0.83333333  0.38179910
   0.91243127  0.16842647  0.47326341
   0.74445924  0.50990264  0.55933073
   0.83333333  0.58333333  0.38179910
   0.08333333  0.33333333  0.38179910
   0.74872480  0.24960573  0.55994666
   0.83333333  0.33333333  0.38179910
   0.91258802  0.67121100  0.47046242
  -0.00565539  0.51253259  0.56130525
   0.50855539  0.74739963  0.56007452
   0.83333333  0.08333333  0.38179910
   0.42015278  0.66267971  0.47275791
   0.58333333  0.58333333  0.38179910
   0.33333333  0.08333333  0.38179910
   0.16907574  0.16598829  0.47329766
   0.58333333  0.33333333  0.38179910
   0.33333333  0.33333333  0.38179910
   0.16947390  0.41591050  0.46992767
   0.25182123  0.24955274  0.56055808
   0.16646738  0.91702607  0.47343171
   0.33333333  0.58333333  0.38179910
   0.16700554  0.66520064  0.47224416
   0.34656493  0.06884713  0.60873488
   0.08141103  0.82842934  0.60610037
   0.07514849  0.33518536  0.61044116
   0.33745997  0.34129544  0.60793283
   0.33414421  0.83195703  0.60791768
   0.83901378  0.33578295  0.61027023
   0.57164664  0.34109553  0.60798401
   0.83393498  0.06931439  0.60832245
   0.50390996 -0.00138571  0.55901602
   0.58333333  0.83333333  0.38179910
   0.42039073  0.41254283  0.47009381
   0.50197309  0.24625692  0.56246291
   0.24822873  0.00120167  0.56438892
  -0.00263004  0.75048850  0.56043379
   0.49650079  0.50087306  0.56002008
   0.74884454  0.75521167  0.55633990
   0.25170327  0.74439896  0.56358438
   0.42065821  0.91763706  0.46859516
   0.91184648  0.91845824  0.46916496
   0.66296092  0.16645048  0.47046854
   0.74973540 -0.00311669  0.55933390
   0.08333333  0.58333333  0.38179910
   0.66575350  0.41557413  0.46984633
   0.00084294  0.24757806  0.56490914
   0.91471561  0.41725081  0.46910967
   0.66516964  0.66867394  0.47106107
   0.00024594  0.00111980  0.56382899
   0.83333333  0.83333333  0.38179910
   0.66395549  0.92017852  0.47145904
   0.25162870  0.50233464  0.56096538
   0.58333333  0.08333333  0.38179910
   0.42220179  0.16504179  0.47047609
Direct configuration=     7
   0.08333333  0.08333333  0.38179910
   0.33333333  0.83333333  0.38179910
   0.08333333  0.83333333  0.38179910
   0.91212333  0.16829621  0.47464217
   0.74214344  0.51352171  0.55974216
   0.83333333  0.58333333  0.38179910
   0.08333333  0.33333333  0.38179910
   0.74879281  0.25019051  0.55971752
   0.83333333  0.33333333  0.38179910
   0.91287544  0.67099718  0.47130989
  -0.00701777  0.51699943  0.56193186
   0.51272030  0.74493268  0.56047254
   0.83333333  0.08333333  0.38179910
   0.42002259  0.66277018  0.47401221
   0.58333333  0.58333333  0.38179910
   0.33333333  0.08333333  0.38179910
   0.16934734  0.16602583  0.47470723
   0.58333333  0.33333333  0.38179910
   0.33333333  0.33333333  0.38179910
   0.16930335  0.41572529  0.47103784
   0.25094961  0.25073967  0.56024380
   0.16655941  0.91695049  0.47479402
   0.33333333  0.58333333  0.38179910
   0.16716964  0.66525866  0.47333987
   0.35026035  0.06525296  0.60840012
   0.08124001  0.82666999  0.60559963
   0.07345017  0.33533538  0.61012702
   0.33809609  0.34328259  0.60702544
   0.33427529  0.83103832  0.60751310
   0.84028451  0.33610491  0.60988693
   0.56916169  0.34299595  0.60708166
   0.83366340  0.06603093  0.60781989
   0.50653591 -0.00239324  0.55948645
   0.58333333  0.83333333  0.38179910
   0.42074681  0.41212180  0.47080918
   0.50349997  0.24315267  0.56338828
   0.24517454  0.00289906  0.56513855
  -0.00412073  0.74807731  0.56092027
   0.49512128  0.50360950  0.56070331
   0.74870188  0.75616578  0.55704959
   0.25409146  0.74113770  0.56422630
   0.42072836  0.91755629  0.46921875
   0.91153099  0.91899062  0.46976752
   0.66286833  0.16641504  0.47124593
   0.74841578 -0.00428992  0.55989726
   0.08333333  0.58333333  0.38179910
   0.66588984  0.41528302  0.47068844
   0.00175603  0.24569847  0.56613555
   0.91485691  0.41733876  0.46996517
   0.66471393  0.66884279  0.47193657
   0.00114652  0.00387640  0.56442414
   0.83333333  0.83333333  0.38179910
   0.66352832  0.92080496  0.47232347
   0.25008801  0.50475691  0.56178139
   0.58333333  0.08333333  0.38179910
   0.42229796  0.16514899  0.47127959
Direct configuration=     8
   0.08333333  0.08333333  0.38179910
   0.33333333  0.83333333  0.38179910
   0.08333333  0.83333333  0.38179910
   0.91356055  0.16774839  0.47540342
   0.74610153  0.51073084  0.56065657
   0.83333333  0.58333333  0.38179910
   0.08333333  0.33333333  0.38179910
   0.74743121  0.25204775  0.55938472
   0.83333333  0.33333333  0.38179910
   0.91299026  0.67099493  0.47142895
  -0.00758120  0.51664233  0.56332307
   0.50955074  0.74980695  0.56160630
   0.83333333  0.08333333  0.38179910
   0.41918932  0.66365853  0.47476895
   0.58333333  0.58333333  0.38179910
   0.33333333  0.08333333  0.38179910
   0.16871273  0.16559170  0.47573785
   0.58333333  0.33333333  0.38179910
   0.33333333  0.33333333  0.38179910
   0.16871740  0.41613081  0.47209353
   0.25009438  0.25160496  0.55985836
   0.16665001  0.91697515  0.47614724
   0.33333333  0.58333333  0.38179910
   0.16718138  0.66574934  0.47418018
   0.35573859  0.06171405  0.60914001
   0.08065064  0.82481145  0.60584159
   0.07328619  0.33785211  0.61098802
   0.33695596  0.34513006  0.60780517
   0.33615163  0.82910022  0.60805505
   0.83752007  0.33874954  0.61085826
   0.56858485  0.34516535  0.60762088
   0.83209888  0.06270486  0.60882830
   0.50782400 -0.00428264  0.55977781
   0.58333333  0.83333333  0.38179910
   0.42047198  0.41222970  0.47182746
   0.50591569  0.23867215  0.56302566
   0.24460562  0.00223650  0.56537591
  -0.00597375  0.75009183  0.56141391
   0.49319563  0.50668258  0.56109786
   0.74823797  0.75801909  0.55850924
   0.25531095  0.73861591  0.56446104
   0.41987245  0.91757174  0.47030098
   0.91199947  0.91916797  0.47075239
   0.66345779  0.16614931  0.47209320
   0.74887066 -0.00650824  0.56006682
   0.08333333  0.58333333  0.38179910
   0.66596613  0.41556618  0.47159604
   0.00277005  0.24436437  0.56569812
   0.91533779  0.41705747  0.47146144
   0.66484631  0.66925272  0.47198191
   0.00367334  0.00213867  0.56469224
   0.83333333  0.83333333  0.38179910
   0.66372844  0.92067274  0.47291752
   0.24793162  0.50867320  0.56214355
   0.58333333  0.08333333  0.38179910
   0.42135462  0.16539798  0.47211608
Direct configuration=     9
   0.08333333  0.08333333  0.38179910
   0.33333333  0.83333333  0.38179910
   0.08333333  0.83333333  0.38179910
   0.91386197  0.16763350  0.47556308
   0.74693166  0.51014551  0.56084835
   0.83333333  0.58333333  0.38179910
   0.08333333  0.33333333  0.38179910
   0.74714564  0.25243727  0.55931493
   0.83333333  0.33333333  0.38179910
   0.91301434  0.67099446  0.47145392
  -0.00769937  0.51656743  0.56361485
   0.50888599  0.75082923  0.56184409
   0.83333333  0.08333333  0.38179910
   0.41901455  0.66384484  0.47492766
   0.58333333  0.58333333  0.38179910
   0.33333333  0.08333333  0.38179910
   0.16857963  0.16550065  0.47595400
   0.58333333  0.33333333  0.38179910
   0.33333333  0.33333333  0.38179910
   0.16859451  0.41621586  0.47231494
   0.24991501  0.25178644  0.55977752
   0.16666901  0.91698033  0.47643106
   0.33333333  0.58333333  0.38179910
   0.16718385  0.66585225  0.47435642
   0.35688755  0.06097184  0.60929519
   0.08052704  0.82442166  0.60589234
   0.07325180  0.33837994  0.61116859
   0.33671684  0.34551754  0.60796870
   0.33654516  0.82869374  0.60816871
   0.83694029  0.33930420  0.61106198
   0.56846387  0.34562034  0.60773397
   0.83177075  0.06200729  0.60903979
   0.50809415 -0.00467890  0.55983892
   0.58333333  0.83333333  0.38179910
   0.42041434  0.41225233  0.47204103
   0.50642234  0.23773245  0.56294961
   0.24448631  0.00209754  0.56542570
  -0.00636239  0.75051433  0.56151744
   0.49279176  0.50732710  0.56118061
   0.74814068  0.75840778  0.55881538
   0.25556672  0.73808701  0.56451028
   0.41969294  0.91757499  0.47052796
   0.91209773  0.91920516  0.47095894
   0.66358142  0.16609358  0.47227089
   0.74896606 -0.00697349  0.56010238
   0.08333333  0.58333333  0.38179910
   0.66598213  0.41562557  0.47178639
   0.00298272  0.24408457  0.56560638
   0.91543864  0.41699848  0.47177525
   0.66487408  0.66933869  0.47199142
   0.00420330  0.00177422  0.56474847
   0.83333333  0.83333333  0.38179910
   0.66377041  0.92064501  0.47304211
   0.24747937  0.50949457  0.56221951
   0.58333333  0.08333333  0.38179910
   0.42115677  0.16545020  0.47229152
Direct configuration=    10
   0.08333333  0.08333333  0.38179910
   0.33333333  0.83333333  0.38179910
   0.08333333  0.83333333  0.38179910
   0.91499596  0.16724828  0.47564699
   0.74740680  0.51126588  0.56147627
   0.83333333  0.58333333  0.38179910
   0.08333333  0.33333333  0.38179910
   0.74685032  0.25198550  0.55984557
   0.83333333  0.33333333  0.38179910
   0.91276737  0.67109630  0.47155379
  -0.00800531  0.51616525  0.56510997
   0.50980991  0.75197558  0.56244922
   0.83333333  0.08333333  0.38179910
   0.41892502  0.66461962  0.47499570
   0.58333333  0.58333333  0.38179910
   0.33333333  0.08333333  0.38179910
   0.16801804  0.16506191  0.47604567
   0.58333333  0.33333333  0.38179910
   0.33333333  0.33333333  0.38179910
   0.16779037  0.41718334  0.47270307
   0.25074601  0.25165240  0.56041191
   0.16688341  0.91658222  0.47697987
   0.33333333  0.58333333  0.38179910
   0.16667252  0.66652313  0.47445699
   0.36055174  0.05862824  0.60995475
   0.08092642  0.82332850  0.60666696
   0.07354517  0.33939144  0.61182571
   0.33624090  0.34659749  0.60807586
   0.33655067  0.82775127  0.60934199
   0.83588042  0.33987876  0.61190820
   0.56772882  0.34677716  0.60792449
   0.83096571  0.05966536  0.60967693
   0.50749033 -0.00542192  0.56012844
   0.58333333  0.83333333  0.38179910
   0.42005843  0.41248209  0.47280536
   0.50570535  0.23887399  0.56345611
   0.24676458  0.00108368  0.56637339
  -0.00840740  0.75256933  0.56166835
   0.49329656  0.50726967  0.56183248
   0.74804525  0.75765532  0.56009191
   0.25462354  0.73913689  0.56516031
   0.41891109  0.91767077  0.47123508
   0.91274391  0.91913365  0.47160620
   0.66403943  0.16586641  0.47267885
   0.75092584 -0.00782398  0.56040314
   0.08333333  0.58333333  0.38179910
   0.66572054  0.41661018  0.47218696
   0.00183769  0.24594642  0.56623792
   0.91578878  0.41691165  0.47282001
   0.66511429  0.66962282  0.47237347
   0.00331518 -0.00001559  0.56573478
   0.83333333  0.83333333  0.38179910
   0.66412755  0.92000571  0.47317873
   0.24719831  0.50884204  0.56309090
   0.58333333  0.08333333  0.38179910
   0.42041378  0.16547863  0.47272052
Direct configuration=    11
   0.08333333  0.08333333  0.38179910
   0.33333333  0.83333333  0.38179910
   0.08333333  0.83333333  0.38179910
   0.91589646  0.16694238  0.47571361
   0.74778411  0.51215557  0.56197490
   0.83333333  0.58333333  0.38179910
   0.08333333  0.33333333  0.38179910
   0.74661581  0.25162675  0.56026695
   0.83333333  0.33333333  0.38179910
   0.91257125  0.67117717  0.47163310
  -0.00824826  0.51584588  0.56629724
   0.51054361  0.75288590  0.56292977
   0.83333333  0.08333333  0.38179910
   0.41885393  0.66523487  0.47504973
   0.58333333  0.58333333  0.38179910
   0.33333333  0.08333333  0.38179910
   0.16757208  0.16471349  0.47611846
   0.58333333  0.33333333  0.38179910
   0.33333333  0.33333333  0.38179910
   0.16715179  0.41795163  0.47301128
   0.25140591  0.25154596  0.56091569
   0.16705366  0.91626607  0.47741569
   0.33333333  0.58333333  0.38179910
   0.16626647  0.66705588  0.47453686
   0.36346149  0.05676717  0.61047850
   0.08124358  0.82246043  0.60728210
   0.07377814  0.34019467  0.61234753
   0.33586296  0.34745510  0.60816096
   0.33655504  0.82700285  0.61027370
   0.83503878  0.34033502  0.61258019
   0.56714511  0.34769580  0.60807578
   0.83032642  0.05780562  0.61018288
   0.50701083 -0.00601195  0.56035835
   0.58333333  0.83333333  0.38179910
   0.41977580  0.41266455  0.47341231
   0.50513599  0.23978050  0.56385832
   0.24857377  0.00027857  0.56712596
  -0.01003136  0.75420121  0.56178820
   0.49369743  0.50722406  0.56235014
   0.74796947  0.75705779  0.56110561
   0.25387457  0.73997061  0.56567650
   0.41829022  0.91774683  0.47179660
   0.91325704  0.91907686  0.47212020
   0.66440314  0.16568601  0.47300281
   0.75248211 -0.00849935  0.56064197
   0.08333333  0.58333333  0.38179910
   0.66551281  0.41739206  0.47250505
   0.00092842  0.24742492  0.56673943
   0.91606683  0.41684270  0.47364967
   0.66530505  0.66984844  0.47267685
   0.00260992 -0.00143689  0.56651802
   0.83333333  0.83333333  0.38179910
   0.66441116  0.91949804  0.47328723
   0.24697511  0.50832387  0.56378288
   0.58333333  0.08333333  0.38179910
   0.41982377  0.16550121  0.47306120
Direct configuration=    12
   0.08333333  0.08333333  0.38179910
   0.33333333  0.83333333  0.38179910
   0.08333333  0.83333333  0.38179910
   0.91598635  0.16698732  0.47590605
   0.74685273  0.51326355  0.56265575
   0.83333333  0.58333333  0.38179910
   0.08333333  0.33333333  0.38179910
   0.74772860  0.25070525  0.56089326
   0.83333333  0.33333333  0.38179910
   0.91221173  0.67125481  0.47198658
  -0.00846025  0.51744352  0.56755326
   0.51110646  0.75200138  0.56353892
   0.83333333  0.08333333  0.38179910
   0.41902585  0.66555841  0.47523431
   0.58333333  0.58333333  0.38179910
   0.33333333  0.08333333  0.38179910
   0.16749140  0.16477921  0.47628407
   0.58333333  0.33333333  0.38179910
   0.33333333  0.33333333  0.38179910
   0.16658801  0.41854180  0.47326943
   0.25169081  0.25037333  0.56150125
   0.16715791  0.91601124  0.47785610
   0.33333333  0.58333333  0.38179910
   0.16606019  0.66727285  0.47467191
   0.36548443  0.05530632  0.61166083
   0.08140123  0.82134133  0.60841750
   0.07458059  0.33979425  0.61318292
   0.33606102  0.34750654  0.60879768
   0.33657194  0.82626346  0.61141468
   0.83441230  0.34030701  0.61322004
   0.56672424  0.34809367  0.60859966
   0.83021600  0.05635549  0.61136469
   0.50820396 -0.00591180  0.56019262
   0.58333333  0.83333333  0.38179910
   0.41951521  0.41297524  0.47394007
   0.50457671  0.24097464  0.56431671
   0.24967268  0.00004101  0.56823197
  -0.01045329  0.75383907  0.56187008
   0.49382088  0.50823159  0.56269390
   0.74844351  0.75648773  0.56212300
   0.25360711  0.74056446  0.56623316
   0.41781445  0.91791269  0.47216624
   0.91367142  0.91910586  0.47239352
   0.66450246  0.16564125  0.47326980
   0.75173746 -0.00874378  0.56049173
   0.08333333  0.58333333  0.38179910
   0.66544452  0.41803712  0.47278975
   0.00003268  0.24832900  0.56768179
   0.91625416  0.41692600  0.47430212
   0.66547944  0.67015061  0.47312726
   0.00172298 -0.00128239  0.56748540
   0.83333333  0.83333333  0.38179910
   0.66462644  0.91899951  0.47348262
   0.24591861  0.50924777  0.56427065
   0.58333333  0.08333333  0.38179910
   0.41948179  0.16550858  0.47331949
Direct configuration=    13
   0.08333333  0.08333333  0.38179910
   0.33333333  0.83333333  0.38179910
   0.08333333  0.83333333  0.38179910
   0.91614786  0.16706807  0.47625178
   0.74517941  0.51525417  0.56387899
   0.83333333  0.58333333  0.38179910
   0.08333333  0.33333333  0.38179910
   0.74972784  0.24904967  0.56201849
   0.83333333  0.33333333  0.38179910
   0.91156580  0.67139430  0.47262164
  -0.00884111  0.52031387  0.56980986
   0.51211770  0.75041224  0.56463335
   0.83333333  0.08333333  0.38179910
   0.41933473  0.66613968  0.47556592
   0.58333333  0.58333333  0.38179910
   0.33333333  0.08333333  0.38179910
   0.16734645  0.16489727  0.47658161
   0.58333333  0.33333333  0.38179910
   0.33333333  0.33333333  0.38179910
   0.16557511  0.41960212  0.47373323
   0.25220265  0.24826658  0.56255327
   0.16734521  0.91555341  0.47864735
   0.33333333  0.58333333  0.38179910
   0.16568960  0.66766267  0.47491456
   0.36911887  0.05268172  0.61378503
   0.08168447  0.81933074  0.61045737
   0.07602229  0.33907485  0.61468380
   0.33641688  0.34759897  0.60994163
   0.33660231  0.82493506  0.61346459
   0.83328676  0.34025669  0.61436961
   0.56596810  0.34880849  0.60954086
   0.83001761  0.05375018  0.61348794
   0.51034757 -0.00573188  0.55989486
   0.58333333  0.83333333  0.38179910
   0.41904701  0.41353343  0.47488825
   0.50357190  0.24312005  0.56514026
   0.25164702 -0.00038580  0.57021905
  -0.01121133  0.75318843  0.56201719
   0.49404268  0.51004174  0.56331150
   0.74929519  0.75546356  0.56395085
   0.25312659  0.74163139  0.56723326
   0.41695967  0.91821068  0.47283034
   0.91441589  0.91915797  0.47288459
   0.66468089  0.16556083  0.47374948
   0.75039960 -0.00918292  0.56022180
   0.08333333  0.58333333  0.38179910
   0.66532184  0.41919604  0.47330124
  -0.00157664  0.24995329  0.56937487
   0.91659072  0.41707565  0.47547435
   0.66579277  0.67069349  0.47393648
   0.00012950 -0.00100481  0.56922341
   0.83333333  0.83333333  0.38179910
   0.66501322  0.91810383  0.47383366
   0.24402046  0.51090768  0.56514700
   0.58333333  0.08333333  0.38179910
   0.41886739  0.16552182  0.47378353
Direct configuration=    14
   0.08333333  0.08333333  0.38179910
   0.33333333  0.83333333  0.38179910
   0.08333333  0.83333333  0.38179910
   0.91535638  0.16762443  0.47671767
   0.74546247  0.51374092  0.56500939
   0.83333333  0.58333333  0.38179910
   0.08333333  0.33333333  0.38179910
   0.75051090  0.24826050  0.56303024
   0.83333333  0.33333333  0.38179910
   0.91125820  0.67150234  0.47322158
  -0.00786010  0.52031254  0.57173549
   0.50992746  0.75074523  0.56563683
   0.83333333  0.08333333  0.38179910
   0.41943011  0.66616450  0.47595196
   0.58333333  0.58333333  0.38179910
   0.33333333  0.08333333  0.38179910
   0.16744421  0.16545462  0.47714830
   0.58333333  0.33333333  0.38179910
   0.33333333  0.33333333  0.38179910
   0.16554853  0.41934026  0.47420322
   0.25192798  0.24690734  0.56344416
   0.16707851  0.91607957  0.47941610
   0.33333333  0.58333333  0.38179910
   0.16603420  0.66745603  0.47518949
   0.37248123  0.05049324  0.61486224
   0.08095750  0.81791938  0.61126285
   0.07710810  0.33797844  0.61561608
   0.33611893  0.34778863  0.61076522
   0.33671125  0.82439293  0.61452416
   0.83226508  0.34032461  0.61519220
   0.56596856  0.34949619  0.61010741
   0.82927459  0.05146316  0.61451454
   0.50996264 -0.00435228  0.56027951
   0.58333333  0.83333333  0.38179910
   0.41894799  0.41386317  0.47525911
   0.50326142  0.24452921  0.56560511
   0.25239908 -0.00056528  0.57209900
  -0.00894479  0.75319415  0.56257384
   0.49415813  0.51045679  0.56381385
   0.74912132  0.75606123  0.56502298
   0.25257857  0.74246554  0.56818748
   0.41687656  0.91834684  0.47304492
   0.91445444  0.91939501  0.47284276
   0.66436910  0.16614728  0.47402400
   0.74939774 -0.00722909  0.56066852