 vasp.5.4.1 24Jun15 (build Mar 14 2019 10:18:33) complex                        
  
 executed on INTEL-19.0.2+OPENMPI date 2022.07.11  21:03:48
 running on   36 total cores
 distrk:  each k-point on   36 cores,    1 groups
 distr:  one band on NCORES_PER_BAND=   6 cores,    6 groups


--------------------------------------------------------------------------------------------------------


 INCAR:
 POTCAR:    PAW_PBE Au 04Oct2007                  
 POTCAR:    PAW_PBE Pd 04Jan2005                  
 POTCAR:    PAW_PBE Au 04Oct2007                  
  local pseudopotential read in
  partial core-charges read in
  partial kinetic energy density read in
  atomic valenz-charges read in
  non local Contribution for L=           2  read in
    real space projection operators read in
  non local Contribution for L=           2  read in
    real space projection operators read in
  non local Contribution for L=           0  read in
    real space projection operators read in
  non local Contribution for L=           0  read in
    real space projection operators read in
  non local Contribution for L=           1  read in
    real space projection operators read in
  non local Contribution for L=           1  read in
    real space projection operators read in
    PAW grid and wavefunctions read in
 
   number of l-projection  operators is LMAX  =           6
   number of lm-projection operators is LMMAX =          18
 
 POTCAR:    PAW_PBE Pd 04Jan2005                  
  local pseudopotential read in
  partial core-charges read in
  partial kinetic energy density read in
  atomic valenz-charges read in
  non local Contribution for L=           2  read in
    real space projection operators read in
  non local Contribution for L=           2  read in
    real space projection operators read in
  non local Contribution for L=           0  read in
    real space projection operators read in
  non local Contribution for L=           0  read in
    real space projection operators read in
  non local Contribution for L=           1  read in
    real space projection operators read in
  non local Contribution for L=           1  read in
    real space projection operators read in
    PAW grid and wavefunctions read in
 
   number of l-projection  operators is LMAX  =           6
   number of lm-projection operators is LMMAX =          18
 
 Optimization of the real space projectors (new method)

 maximal supplied QI-value         = 15.12
 optimisation between [QCUT,QGAM] = [ 10.13, 20.41] = [ 28.73,116.64] Ry 
 Optimized for a Real-space Cutoff    1.51 Angstroem

   l    n(q)    QCUT    max X(q) W(low)/X(q) W(high)/X(q)  e(spline) 
   2      8    10.129    60.898    0.46E-03    0.46E-03    0.14E-06
   2      8    10.129    58.894    0.47E-03    0.47E-03    0.14E-06
   0      9    10.129   109.617    0.16E-03    0.11E-03    0.54E-07
   0      9    10.129    75.026    0.15E-03    0.11E-03    0.52E-07
   1      9    10.129    16.344    0.96E-04    0.15E-03    0.14E-06
   1      9    10.129    10.160    0.81E-04    0.12E-03    0.11E-06
 Optimization of the real space projectors (new method)

 maximal supplied QI-value         = 14.36
 optimisation between [QCUT,QGAM] = [ 10.20, 20.39] = [ 29.12,116.47] Ry 
 Optimized for a Real-space Cutoff    1.51 Angstroem

   l    n(q)    QCUT    max X(q) W(low)/X(q) W(high)/X(q)  e(spline) 
   2      8    10.197    59.108    0.26E-03    0.14E-03    0.96E-07
   2      8    10.197    58.101    0.27E-03    0.14E-03    0.98E-07
   0      9    10.197   102.235    0.54E-04    0.60E-05    0.72E-07
   0      9    10.197    58.388    0.52E-04    0.60E-05    0.68E-07
   1      9    10.197    22.191    0.18E-03    0.25E-03    0.79E-07
   1      9    10.197    15.590    0.15E-03    0.21E-03    0.69E-07
  PAW_PBE Au 04Oct2007                  :
 energy of atom  1       EATOM= -926.0867
 kinetic energy error for atom=    0.0062 (will be added to EATOM!!)
  PAW_PBE Pd 04Jan2005                  :
 energy of atom  2       EATOM= -809.7530
 kinetic energy error for atom=    0.0091 (will be added to EATOM!!)
 
 
 POSCAR: Au Pd                                   
  positions in cartesian coordinates
  No initial velocities read in
 exchange correlation table for  LEXCH =        8
   RHO(1)=    0.500       N(1)  =     2000
   RHO(2)=  100.500       N(2)  =     4000

 VTST: version 3.2, (02/03/18)

 CHAIN: initializing optimizer
 
 OPT: Using VASP Conjugate-Gradient optimizer
 CHAIN: Read ICHAIN            0
 
 POSCAR: Au Pd                                   
  positions in cartesian coordinates
  No initial velocities read in
 


--------------------------------------------------------------------------------------------------------


 ion  position               nearest neighbor table
   1  0.250  0.750  0.592-   7 2.75  30 2.75   4 2.75  35 2.75  37 2.75  45 2.75  16 2.75  26 2.75
                            10 2.75
   2  0.417  0.417  0.500-  15 2.75  13 2.75  35 2.75  25 2.75  30 2.75  33 2.75  10 2.75  27 2.75
                            12 2.75  11 2.75   3 2.75   4 2.75
   3  0.583  0.333  0.408-  27 2.75  11 2.75  14 2.75  24 2.75   5 2.75  15 2.75  18 2.75  25 2.75
                             2 2.75
   4  0.500  0.500  0.592-  30 2.75  27 2.75  26 2.75   1 2.75  28 2.75  13 2.75  22 2.75  35 2.75
                             2 2.75
   5  0.583  0.083  0.408-  25 2.75   6 2.75  15 2.75   3 2.75  31 2.75  14 2.75  38 2.75  34 2.75
                            33 2.75
   6  0.583  0.833  0.408-  34 2.75  21 2.75  24 2.75   5 2.75  38 2.75   8 2.75  31 2.75  29 2.75
                             9 2.75
   7  0.167  0.917  0.500-  40 2.75   1 2.75  45 2.75  30 2.75  10 2.75  23 2.75  46 2.75  39 2.75
                             9 2.75  32 2.75   8 2.75  37 2.75
   8  0.333  0.833  0.408-   9 2.75  11 2.75  24 2.75  32 2.75  38 2.75   6 2.75  40 2.75  30 2.75
                             7 2.75
   9  0.417  0.917  0.500-   8 2.75  26 2.75  37 2.75  29 2.75  30 2.75  33 2.75  23 2.75  34 2.75
                             7 2.75  38 2.75   6 2.75  47 2.75
  10  0.167  0.667  0.500-  42 2.75  35 2.75  16 2.75   2 2.75   7 2.75  39 2.75  12 2.75  41 2.75
                            30 2.75  40 2.75   1 2.75  11 2.75
  11  0.333  0.583  0.408-  30 2.75   8 2.75  15 2.75   3 2.75  40 2.75  24 2.75  42 2.75   2 2.75
                            10 2.75
  12  0.167  0.417  0.500-  44 2.75  36 2.75  19 2.75  33 2.75  10 2.75  41 2.75  23 2.75  43 2.75
                             2 2.75  42 2.75  35 2.75  15 2.75
  13  0.500  0.250  0.592-   2 2.75  25 2.75  17 2.75   4 2.75  35 2.75  47 2.75  36 2.75  28 2.75
                            33 2.75
  14  0.833  0.083  0.408-  46 2.75  18 2.75  31 2.75  40 2.75   3 2.75   5 2.75  32 2.75  39 2.75
                            25 2.75
  15  0.333  0.333  0.408-   2 2.75   5 2.75  11 2.75  38 2.75  42 2.75   3 2.75  44 2.75  33 2.75
                            12 2.75
  16  0.000  0.750  0.592-  39 2.75  10 2.75  19 2.75  35 2.75  17 2.75  45 2.75   1 2.75  48 2.75
                            41 2.75
  17  0.750  0.000  0.592-  25 2.75  39 2.75  13 2.75  28 2.75  16 2.75  48 2.75  47 2.75  45 2.75
                            34 2.75
  18  0.833  0.333  0.408-  43 2.75  21 2.75  24 2.75  32 2.75  14 2.75   3 2.75  44 2.75  46 2.75
                            27 2.75
  19  0.000  0.500  0.592-  41 2.75  12 2.75  20 2.75  36 2.75  16 2.75  48 2.75  35 2.75  22 2.75
                            43 2.75
  20  0.000  0.250  0.592-  43 2.75  23 2.75  19 2.75  37 2.75  22 2.75  45 2.75  36 2.75  28 2.75
                            46 2.75
  21  0.833  0.583  0.408-  41 2.75  18 2.75  31 2.75   6 2.75  44 2.75  42 2.75  24 2.75  43 2.75
                            29 2.75
  22  0.750  0.500  0.592-  29 2.75  43 2.75  28 2.75  20 2.75  26 2.75  48 2.75   4 2.75  19 2.75
                            27 2.75
  23  0.167  0.167  0.500-  32 2.75  37 2.75  20 2.75   7 2.75   9 2.75  12 2.75  43 2.75  33 2.75
                            46 2.75  44 2.75  38 2.75  36 2.75
  24  0.583  0.583  0.408-  29 2.75   6 2.75   8 2.75  18 2.75   3 2.75  21 2.75  11 2.75  27 2.75
                            30 2.75
  25  0.667  0.167  0.500-   5 2.75  17 2.75  13 2.75   2 2.75  27 2.75  34 2.75  39 2.75  33 2.75
                            46 2.75   3 2.75  14 2.75  28 2.75
  26  0.500  0.750  0.592-   9 2.75  29 2.75  22 2.75   4 2.75  37 2.75  47 2.75   1 2.75  48 2.75
                            30 2.75
  27  0.667  0.417  0.500-   3 2.75  28 2.75   4 2.75  25 2.75  29 2.75  30 2.75  46 2.75  43 2.75
                             2 2.75  24 2.75  22 2.75  18 2.75
  28  0.750  0.250  0.592-  27 2.75  46 2.75  22 2.75   4 2.75  45 2.75  17 2.75  13 2.75  20 2.75
                            25 2.75
  29  0.667  0.667  0.500-  24 2.75  22 2.75  26 2.75   9 2.75  27 2.75  34 2.75  43 2.75  41 2.75
                            30 2.75   6 2.75  21 2.75  48 2.75
  30  0.417  0.667  0.500-  11 2.75   4 2.75   1 2.75   7 2.75   9 2.75   2 2.75  27 2.75  10 2.75
                            29 2.75   8 2.75  24 2.75  26 2.75
  31  0.833  0.833  0.408-  39 2.75  14 2.75  21 2.75   5 2.75  42 2.75  40 2.75   6 2.75  41 2.75
                            34 2.75
  32  0.083  0.083  0.408-  23 2.75  18 2.75   8 2.75  40 2.75  44 2.75  14 2.75  38 2.75   7 2.75
                            46 2.75
  33  0.417  0.167  0.500-  38 2.75  47 2.75  36 2.75  34 2.75   2 2.75   9 2.75  12 2.75  23 2.75
                            25 2.75  15 2.75  13 2.75   5 2.75
  34  0.667  0.917  0.500-   6 2.75  48 2.75  47 2.75  33 2.75  41 2.75  25 2.75  29 2.75  39 2.75
                             9 2.75   5 2.75  31 2.75  17 2.75
  35  0.250  0.500  0.592-  10 2.75   2 2.75   1 2.75  13 2.75  16 2.75  36 2.75  19 2.75   4 2.75
                            12 2.75
  36  0.250  0.250  0.592-  12 2.75  33 2.75  19 2.75  35 2.75  37 2.75  47 2.75  13 2.75  20 2.75
                            23 2.75
  37  0.250  0.000  0.592-  23 2.75   9 2.75  20 2.75   1 2.75  26 2.75  36 2.75  45 2.75  47 2.75
                             7 2.75
  38  0.333  0.083  0.408-  33 2.75   8 2.75  15 2.75   6 2.75  44 2.75   5 2.75  32 2.75   9 2.75
                            23 2.75
  39  0.917  0.917  0.500-  31 2.75  16 2.75  17 2.75  25 2.75  10 2.75  41 2.75  46 2.75   7 2.75
                            34 2.75  14 2.75  45 2.75  40 2.75
  40  0.083  0.833  0.408-   7 2.75  11 2.75  14 2.75  32 2.75  42 2.75   8 2.75  31 2.75  10 2.75
                            39 2.75
  41  0.917  0.667  0.500-  21 2.75  19 2.75  48 2.75  34 2.75  39 2.75  43 2.75  12 2.75  10 2.75
                            29 2.75  31 2.75  16 2.75  42 2.75
  42  0.083  0.583  0.408-  10 2.75  15 2.75  31 2.75  40 2.75  44 2.75  21 2.75  11 2.75  12 2.75
                            41 2.75
  43  0.917  0.417  0.500-  18 2.75  20 2.75  22 2.75  23 2.75  29 2.75  41 2.75  46 2.75  27 2.75
                            12 2.75  21 2.75  44 2.75  19 2.75
  44  0.083  0.333  0.408-  12 2.75  21 2.75  32 2.75  38 2.75  42 2.75  15 2.75  18 2.75  23 2.75
                            43 2.75
  45  0.000  0.000  0.592-  46 2.75   7 2.75  16 2.75  20 2.75  28 2.75   1 2.75  37 2.75  17 2.75
                            39 2.75
  46  0.917  0.167  0.500-  14 2.75  45 2.75  28 2.75   7 2.75  39 2.75  43 2.75  27 2.75  25 2.75
                            23 2.75  18 2.75  32 2.75  20 2.75
  47  0.500  0.000  0.592-  33 2.75  34 2.75  13 2.75  26 2.75  36 2.75  48 2.75  37 2.75  17 2.75
                             9 2.75
  48  0.750  0.750  0.592-  34 2.75  41 2.75  22 2.75  17 2.75  19 2.75  47 2.75  26 2.75  16 2.75
                            29 2.75
 
  LATTYP: Found a hexagonal cell.
 ALAT       =    11.0025815153
 C/A-ratio  =     2.2260035120
  
  Lattice vectors:
  
 A1 = (   5.5012907576,  -9.5285150994,   0.0000000000)
 A2 = ( -11.0025815153,   0.0000000000,   0.0000000000)
 A3 = (   0.0000000000,   0.0000000000, -24.4917850943)


Analysis of symmetry for initial positions (statically):
=====================================================================
 Subroutine PRICEL returns:
 Original cell was already a primitive cell.
 

 Routine SETGRP: Setting up the symmetry group for a 
 hexagonal supercell.


 Subroutine GETGRP returns: Found  1 space group operations
 (whereof  1 operations were pure point group operations)
 out of a pool of 24 trial point group operations.


The static configuration has the point symmetry C_1 .


Analysis of symmetry for dynamics (positions and initial velocities):
=====================================================================
 Subroutine PRICEL returns:
 Original cell was already a primitive cell.
 

 Routine SETGRP: Setting up the symmetry group for a 
 hexagonal supercell.


 Subroutine GETGRP returns: Found  1 space group operations
 (whereof  1 operations were pure point group operations)
 out of a pool of 24 trial point group operations.


The dynamic configuration has the point symmetry C_1 .
 
 
 KPOINTS: Automatic mesh                          

Automatic generation of k-mesh.
Space group operators:
 irot       det(A)        alpha          n_x          n_y          n_z        tau_x        tau_y        tau_z
    1     1.000000     0.000000     1.000000     0.000000     0.000000     0.000000     0.000000     0.000000
 
 Subroutine IBZKPT returns following result:
 ===========================================
 
 Found      6 irreducible k-points:
 
 Following reciprocal coordinates:
            Coordinates               Weight
  0.250000  0.250000  0.000000     16.000000
  0.000000  0.250000  0.000000     16.000000
 -0.250000  0.000000  0.000000     16.000000
 -0.250000  0.250000  0.000000     16.000000
  0.500000 -0.250000  0.000000     16.000000
 -0.250000  0.500000  0.000000     16.000000
 
 Following cartesian coordinates:
            Coordinates               Weight
  0.022722  0.013119  0.000000     16.000000
  0.000000  0.026237  0.000000     16.000000
 -0.022722  0.013119  0.000000     16.000000
 -0.022722  0.039356  0.000000     16.000000
  0.045444 -0.052474  0.000000     16.000000
 -0.022722  0.065593  0.000000     16.000000
 


--------------------------------------------------------------------------------------------------------




 Dimension of arrays:
   k-points           NKPTS =      6   k-points in BZ     NKDIM =      6   number of bands    NBANDS=    306
   number of dos      NEDOS =    301   number of ions     NIONS =     48
   non local maximal  LDIM  =      6   non local SUM 2l+1 LMDIM =     18
   total plane-waves  NPLWV = 349920
   max r-space proj   IRMAX =   2009   max aug-charges    IRDMAX=   8532
   dimension x,y,z NGX =    54 NGY =   54 NGZ =  120
   dimension x,y,z NGXF=   108 NGYF=  108 NGZF=  240
   support grid    NGXF=   108 NGYF=  108 NGZF=  240
   ions per type =              24  24
 NGX,Y,Z   is equivalent  to a cutoff of   8.16,  8.16,  8.15 a.u.
 NGXF,Y,Z  is equivalent  to a cutoff of  16.32, 16.32, 16.29 a.u.


 I would recommend the setting:
   dimension x,y,z NGX =    54 NGY =   54 NGZ =  120
 SYSTEM =  unknown system                          
 POSCAR =  Au Pd                                   

 Startparameter for this run:
   NWRITE =      1    write-flag & timer
   PREC   = normal    normal or accurate (medium, high low for compatibility)
   ISTART =      0    job   : 0-new  1-cont  2-samecut
   ICHARG =      2    charge: 1-file 2-atom 10-const
   ISPIN  =      1    spin polarized calculation?
   LNONCOLLINEAR =      F non collinear calculations
   LSORBIT =      F    spin-orbit coupling
   INIWAV =      1    electr: 0-lowe 1-rand  2-diag
   LASPH  =      F    aspherical Exc in radial PAW
   METAGGA=      F    non-selfconsistent MetaGGA calc.

 Electronic Relaxation 1
   ENCUT  =  400.0 eV  29.40 Ry    5.42 a.u.  17.94 17.94 39.94*2*pi/ulx,y,z
   ENINI  =  400.0     initial cutoff
   ENAUG  =  416.2 eV  augmentation charge cutoff
   NELM   =    500;   NELMIN=  2; NELMDL= -5     # of ELM steps 
   EDIFF  = 0.1E-05   stopping-criterion for ELM
   LREAL  =      T    real-space projection
   NLSPLINE    = F    spline interpolate recip. space projectors
   LCOMPAT=      F    compatible to vasp.4.4
   GGA_COMPAT  = T    GGA compatible to vasp.4.4-vasp.4.6
   LMAXPAW     = -100 max onsite density
   LMAXMIX     =    2 max onsite mixed and CHGCAR
   VOSKOWN=      1    Vosko Wilk Nusair interpolation
   ROPT   =   -0.00050  -0.00050
 Ionic relaxation
   EDIFFG = -.2E-01   stopping-criterion for IOM
   NSW    =    500    number of steps for IOM
   NBLOCK =      1;   KBLOCK =    500    inner block; outer block 
   IBRION =      2    ionic relax: 0-MD 1-quasi-New 2-CG
   NFREE  =      2    steps in history (QN), initial steepest desc. (CG)
   ISIF   =      0    stress and relaxation
   IWAVPR =     11    prediction:  0-non 1-charg 2-wave 3-comb
   ISYM   =      2    0-nonsym 1-usesym 2-fastsym
   LCORR  =      T    Harris-Foulkes like correction to forces

   POTIM  = 0.3500    time-step for ionic-motion
   TEIN   =    0.0    initial temperature
   TEBEG  =    0.0;   TEEND  =   0.0 temperature during run
   SMASS  =  -3.00    Nose mass-parameter (am)
   estimated Nose-frequenzy (Omega)   =  0.10E-29 period in steps =****** mass=  -0.277E-26a.u.
   SCALEE = 1.0000    scale energy and forces
   NPACO  =    256;   APACO  = 16.0  distance and # of slots for P.C.
   PSTRESS=    0.0 pullay stress

  Mass of Ions in am
   POMASS = 196.97106.42
  Ionic Valenz
   ZVAL   =  11.00 10.00
  Atomic Wigner-Seitz radii
   RWIGS  =  -1.00 -1.00
  virtual crystal weights 
   VCA    =   1.00  1.00
   NELECT =     504.0000    total number of electrons
   NUPDOWN=      -1.0000    fix difference up-down

 DOS related values:
   EMIN   =  10.00;   EMAX   =-10.00  energy-range for DOS
   EFERMI =   0.00
   ISMEAR =     0;   SIGMA  =   0.10  broadening in eV -4-tet -1-fermi 0-gaus

 Electronic relaxation 2 (details)
   IALGO  =     68    algorithm
   LDIAG  =      T    sub-space diagonalisation (order eigenvalues)
   LSUBROT=      F    optimize rotation matrix (better conditioning)
   TURBO    =      0    0=normal 1=particle mesh
   IRESTART =      0    0=no restart 2=restart with 2 vectors
   NREBOOT  =      0    no. of reboots
   NMIN     =      0    reboot dimension
   EREF     =   0.00    reference energy to select bands
   IMIX   =      4    mixing-type and parameters
     AMIX     =   0.40;   BMIX     =  1.00
     AMIX_MAG =   1.60;   BMIX_MAG =  1.00
     AMIN     =   0.10
     WC   =   100.;   INIMIX=   1;  MIXPRE=   1;  MAXMIX= -45

 Intra band minimization:
   WEIMIN = 0.0010     energy-eigenvalue tresh-hold
   EBREAK =  0.82E-09  absolut break condition
   DEPER  =   0.30     relativ break condition  

   TIME   =   0.40     timestep for ELM

  volume/ion in A,a.u.               =      53.49       360.99
  Fermi-wavevector in a.u.,A,eV,Ry     =   0.951418  1.797920 12.315955  0.905197
  Thomas-Fermi vector in A             =   2.079887
 
 Write flags
   LWAVE  =      F    write WAVECAR
   LCHARG =      F    write CHGCAR
   LVTOT  =      F    write LOCPOT, total local potential
   LVHAR  =      F    write LOCPOT, Hartree potential only
   LELF   =      F    write electronic localiz. function (ELF)
   LORBIT =      0    0 simple, 1 ext, 2 COOP (PROOUT)


 Dipole corrections
   LMONO  =      F    monopole corrections only (constant potential shift)
   LDIPOL =      T    correct potential (dipole corrections)
   IDIPOL =      3    1-x, 2-y, 3-z, 4-all directions 
   EPSILON=  1.0000000 bulk dielectric constant

 Exchange correlation treatment:
   GGA     =    PE    GGA type
   LEXCH   =     8    internal setting for exchange type
   VOSKOWN=      1    Vosko Wilk Nusair interpolation
   LHFCALC =     F    Hartree Fock is set to
   LHFONE  =     F    Hartree Fock one center treatment
   AEXX    =    0.0000 exact exchange contribution

 Linear response parameters
   LEPSILON=     F    determine dielectric tensor
   LRPA    =     F    only Hartree local field effects (RPA)
   LNABLA  =     F    use nabla operator in PAW spheres
   LVEL    =     F    velocity operator in full k-point grid
   LINTERFAST=   F  fast interpolation
   KINTER  =     0    interpolate to denser k-point grid
   CSHIFT  =0.1000    complex shift for real part using Kramers Kronig
   OMEGAMAX=  -1.0    maximum frequency
   DEG_THRESHOLD= 0.2000000E-02 threshold for treating states as degnerate
   RTIME   =    0.100 relaxation time in fs

 Orbital magnetization related:
   ORBITALMAG=     F  switch on orbital magnetization
   LCHIMAG   =     F  perturbation theory with respect to B field
   DQ        =  0.001000  dq finite difference perturbation B field



--------------------------------------------------------------------------------------------------------


 conjugate gradient relaxation of ions
 charge density and potential will be updated during run
 non-spin polarized calculation
 RMM-DIIS sequential band-by-band and
  variant of blocked Davidson during initial phase
 perform sub-space diagonalisation
    before iterative eigenvector-optimisation
 modified Broyden-mixing scheme, WC =      100.0
 initial mixing is a Kerker type mixing with AMIX =  0.4000 and BMIX =      1.0000
 Hartree-type preconditioning will be used
 using additional bands           54
 real space projection scheme for non local part
 use partial core corrections
 calculate Harris-corrections to forces 
   (improved forces if not selfconsistent)
 use gradient corrections 
 use of overlap-Matrix (Vanderbilt PP)
 Gauss-broadening in eV      SIGMA  =   0.10


--------------------------------------------------------------------------------------------------------


  energy-cutoff  :      400.00
  volume of cell :     2567.68
      direct lattice vectors                 reciprocal lattice vectors
    11.002581515  0.000000000  0.000000000     0.090887761 -0.052474073  0.000000000
     5.501290758  9.528515099  0.000000000     0.000000000  0.104948147  0.000000000
     0.000000000  0.000000000 24.491785094     0.000000000  0.000000000  0.040830017

  length of vectors
    11.002581515 11.002581515 24.491785094     0.104948147  0.104948147  0.040830017


 
 k-points in units of 2pi/SCALE and weight: Automatic mesh                          
   0.02272194  0.01311852  0.00000000       0.167
   0.00000000  0.02623704  0.00000000       0.167
  -0.02272194  0.01311852  0.00000000       0.167
  -0.02272194  0.03935555  0.00000000       0.167
   0.04544388 -0.05247407  0.00000000       0.167
  -0.02272194  0.06559259  0.00000000       0.167
 
 k-points in reciprocal lattice and weights: Automatic mesh                          
   0.25000000  0.25000000  0.00000000       0.167
   0.00000000  0.25000000  0.00000000       0.167
  -0.25000000  0.00000000  0.00000000       0.167
  -0.25000000  0.25000000  0.00000000       0.167
   0.50000000 -0.25000000  0.00000000       0.167
  -0.25000000  0.50000000  0.00000000       0.167
 
 position of ions in fractional coordinates (direct lattice) 
   0.25000000  0.75000000  0.59169983
   0.41666667  0.41666667  0.50000000
   0.58333333  0.33333333  0.40830017
   0.50000000  0.50000000  0.59169983
   0.58333333  0.08333333  0.40830017
   0.58333333  0.83333333  0.40830017
   0.16666667  0.91666667  0.50000000
   0.33333333  0.83333333  0.40830017
   0.41666667  0.91666667  0.50000000
   0.16666667  0.66666667  0.50000000
   0.33333333  0.58333333  0.40830017
   0.16666667  0.41666667  0.50000000
   0.50000000  0.25000000  0.59169983
   0.83333333  0.08333333  0.40830017
   0.33333333  0.33333333  0.40830017
   0.00000000  0.75000000  0.59169983
   0.75000000  0.00000000  0.59169983
   0.83333333  0.33333333  0.40830017
   0.00000000  0.50000000  0.59169983
   0.00000000  0.25000000  0.59169983
   0.83333333  0.58333333  0.40830017
   0.75000000  0.50000000  0.59169983
   0.16666667  0.16666667  0.50000000
   0.58333333  0.58333333  0.40830017
   0.66666667  0.16666667  0.50000000
   0.50000000  0.75000000  0.59169983
   0.66666667  0.41666667  0.50000000
   0.75000000  0.25000000  0.59169983
   0.66666667  0.66666667  0.50000000
   0.41666667  0.66666667  0.50000000
   0.83333333  0.83333333  0.40830017
   0.08333333  0.08333333  0.40830017
   0.41666667  0.16666667  0.50000000
   0.66666667  0.91666667  0.50000000
   0.25000000  0.50000000  0.59169983
   0.25000000  0.25000000  0.59169983
   0.25000000  0.00000000  0.59169983
   0.33333333  0.08333333  0.40830017
   0.91666667  0.91666667  0.50000000
   0.08333333  0.83333333  0.40830017
   0.91666667  0.66666667  0.50000000
   0.08333333  0.58333333  0.40830017
   0.91666667  0.41666667  0.50000000
   0.08333333  0.33333333  0.40830017
   0.00000000  0.00000000  0.59169983
   0.91666667  0.16666667  0.50000000
   0.50000000  0.00000000  0.59169983
   0.75000000  0.75000000  0.59169983
 
 position of ions in cartesian coordinates  (Angst):
   6.87661345  7.14638632 14.49178509
   6.87661345  3.97021462 12.24589255
   8.25193614  3.17617170 10.00000000
   8.25193614  4.76425755 14.49178509
   6.87661345  0.79404292 10.00000000
  11.00258152  7.94042925 10.00000000
   6.87661345  8.73447217 12.24589255
   8.25193614  7.94042925 10.00000000
   9.62725883  8.73447217 12.24589255
   5.50129076  6.35234340 12.24589255
   6.87661345  5.55830047 10.00000000
   4.12596807  3.97021462 12.24589255
   6.87661345  2.38212877 14.49178509
   9.62725883  0.79404292 10.00000000
   5.50129076  3.17617170 10.00000000
   4.12596807  7.14638632 14.49178509
   8.25193614  0.00000000 14.49178509
  11.00258152  3.17617170 10.00000000
   2.75064538  4.76425755 14.49178509
   1.37532269  2.38212877 14.49178509
  12.37790420  5.55830047 10.00000000
  11.00258152  4.76425755 14.49178509
   2.75064538  1.58808585 12.24589255
   9.62725883  5.55830047 10.00000000
   8.25193614  1.58808585 12.24589255
   9.62725883  7.14638632 14.49178509
   9.62725883  3.97021462 12.24589255
   9.62725883  2.38212877 14.49178509
  11.00258152  6.35234340 12.24589255
   8.25193614  6.35234340 12.24589255
  13.75322689  7.94042925 10.00000000
   1.37532269  0.79404292 10.00000000
   5.50129076  1.58808585 12.24589255
  12.37790420  8.73447217 12.24589255
   5.50129076  4.76425755 14.49178509
   4.12596807  2.38212877 14.49178509
   2.75064538  0.00000000 14.49178509
   4.12596807  0.79404292 10.00000000
  15.12854958  8.73447217 12.24589255
   5.50129076  7.94042925 10.00000000
  13.75322689  6.35234340 12.24589255
   4.12596807  5.55830047 10.00000000
  12.37790420  3.97021462 12.24589255
   2.75064538  3.17617170 10.00000000
   0.00000000  0.00000000 14.49178509
  11.00258152  1.58808585 12.24589255
   5.50129076  0.00000000 14.49178509
  12.37790420  7.14638632 14.49178509
 


--------------------------------------------------------------------------------------------------------


 k-point  1 :   0.2500 0.2500 0.0000  plane waves:   46635
 k-point  2 :   0.0000 0.2500 0.0000  plane waves:   46635
 k-point  3 :  -0.2500 0.0000 0.0000  plane waves:   46635
 k-point  4 :  -0.2500 0.2500 0.0000  plane waves:   46644
 k-point  5 :   0.5000-0.2500 0.0000  plane waves:   46644
 k-point  6 :  -0.2500 0.5000 0.0000  plane waves:   46644

 maximum and minimum number of plane-waves per node :      7818     7732

 maximum number of plane-waves:     46644
 maximum index in each direction: 
   IXMAX=   18   IYMAX=   18   IZMAX=   39
   IXMIN=  -18   IYMIN=  -18   IZMIN=  -39

 WARNING: aliasing errors must be expected set NGX to  74 to avoid them
 WARNING: aliasing errors must be expected set NGY to  74 to avoid them
 WARNING: aliasing errors must be expected set NGZ to 158 to avoid them
 aliasing errors are usually negligible using standard VASP settings
 and one can safely disregard these warnings

 real space projection operators:
  total allocation   :      12803.06 KBytes
  max/ min on nodes  :       2145.66       2127.94


 parallel 3D FFT for wavefunctions:
    minimum data exchange during FFTs selected (reduces bandwidth)
 parallel 3D FFT for charge:
    minimum data exchange during FFTs selected (reduces bandwidth)


 total amount of memory used by VASP on root node    84353. kBytes
========================================================================

   base      :      30000. kBytes
   nonlr-proj:       4285. kBytes
   fftplans  :       4447. kBytes
   grid      :       6721. kBytes
   one-center:        124. kBytes
   wavefun   :      38776. kBytes
 
     INWAV:  cpu time    0.0000: real time    0.0000
 Broyden mixing: mesh for mixing (old mesh)
   NGX = 35   NGY = 35   NGZ = 79
  (NGX  =108   NGY  =108   NGZ  =240)
  gives a total of  96775 points

 initial charge density was supplied:
 charge density of overlapping atoms calculated
 number of electron     504.0000000 magnetization 
 keeping initial charge density in first step


--------------------------------------------------------------------------------------------------------


 Maximum index for non-local projection operator          355
 Maximum index for augmentation-charges          437 (set IRDMAX)


--------------------------------------------------------------------------------------------------------


 First call to EWALD:  gamma=   0.129
 Maximum number of real-space cells 4x 4x 2
 Maximum number of reciprocal cells 2x 2x 5

 FEWALD executed in parallel
    FEWALD:  cpu time    0.0024: real time    0.0025


----------------------------------------- Iteration    1(   1)  ---------------------------------------


    POTLOK:  cpu time    0.0546: real time    0.0548
    SETDIJ:  cpu time    0.0067: real time    0.0067
     EDDAV:  cpu time    9.5247: real time    9.5306
       DOS:  cpu time    0.0016: real time    0.0016
    --------------------------------------------
      LOOP:  cpu time    9.5916: real time    9.6001

 eigenvalue-minimisations  :  3672
 total energy-change (2. order) : 0.3201948E+04  (-0.1898576E+05)
 number of electron     504.0000000 magnetization 
 augmentation part      504.0000000 magnetization 

 DIPCOR: dipole corrections for dipol
 direction  3 min pos     1,
 dipolmoment           0.000000      0.000000      0.000001 electrons x Angstroem
 Tr[quadrupol]    -10347.097921

 energy correction for charged system         0.000000 eV
 dipol+quadrupol energy correction           -0.000000 eV
 added-field ion interaction          0.000000 eV  (added to PSCEN)


 Free energy of the ion-electron system (eV)
  ---------------------------------------------------
  alpha Z        PSCENC =       805.86936475
  Ewald energy   TEWEN  =    199691.75951167
  -Hartree energ DENC   =   -242103.96589197
  -exchange      EXHF   =         0.00000000
  -V(xc)+E(xc)   XCENC  =      -327.76026910
  PAW double counting   =     40340.05962942   -38292.62782345
  entropy T*S    EENTRO =        -0.11676873
  eigenvalues    EBANDS =      1428.94456286
  atomic energy  EATOM  =     41659.78587232
  Solvation  Ediel_sol  =         0.00000000
  ---------------------------------------------------
  free energy    TOTEN  =      3201.94818778 eV

  energy without entropy =     3202.06495651  energy(sigma->0) =     3202.00657215


--------------------------------------------------------------------------------------------------------




----------------------------------------- Iteration    1(   2)  ---------------------------------------


     EDDAV:  cpu time   11.2792: real time   11.2860
       DOS:  cpu time    0.0016: real time    0.0016
    --------------------------------------------
      LOOP:  cpu time   11.2821: real time   11.2907

 eigenvalue-minimisations  :  4380
 total energy-change (2. order) :-0.3187504E+04  (-0.2935407E+04)
 number of electron     504.0000000 magnetization 
 augmentation part      504.0000000 magnetization 

 DIPCOR: dipole corrections for dipol
 direction  3 min pos     1,
 dipolmoment           0.000000      0.000000      0.000001 electrons x Angstroem
 Tr[quadrupol]    -10347.097921

 energy correction for charged system         0.000000 eV
 dipol+quadrupol energy correction           -0.000000 eV
 added-field ion interaction          0.000000 eV  (added to PSCEN)


 Free energy of the ion-electron system (eV)
  ---------------------------------------------------
  alpha Z        PSCENC =       805.86936475
  Ewald energy   TEWEN  =    199691.75951167
  -Hartree energ DENC   =   -242103.96589197
  -exchange      EXHF   =         0.00000000
  -V(xc)+E(xc)   XCENC  =      -327.76026910
  PAW double counting   =     40340.05962942   -38292.62782345
  entropy T*S    EENTRO =        -0.13645526
  eigenvalues    EBANDS =     -1758.54018076
  atomic energy  EATOM  =     41659.78587232
  Solvation  Ediel_sol  =         0.00000000
  ---------------------------------------------------
  free energy    TOTEN  =        14.44375764 eV

  energy without entropy =       14.58021289  energy(sigma->0) =       14.51198526


--------------------------------------------------------------------------------------------------------




----------------------------------------- Iteration    1(   3)  ---------------------------------------


     EDDAV:  cpu time   11.0302: real time   11.0396
       DOS:  cpu time    0.0016: real time    0.0016
    --------------------------------------------
      LOOP:  cpu time   11.0325: real time   11.0456

 eigenvalue-minimisations  :  4128
 total energy-change (2. order) :-0.2161317E+03  (-0.2006636E+03)
 number of electron     504.0000000 magnetization 
 augmentation part      504.0000000 magnetization 

 DIPCOR: dipole corrections for dipol
 direction  3 min pos     1,
 dipolmoment           0.000000      0.000000      0.000001 electrons x Angstroem
 Tr[quadrupol]    -10347.097921

 energy correction for charged system         0.000000 eV
 dipol+quadrupol energy correction           -0.000000 eV
 added-field ion interaction          0.000000 eV  (added to PSCEN)


 Free energy of the ion-electron system (eV)
  ---------------------------------------------------
  alpha Z        PSCENC =       805.86936475
  Ewald energy   TEWEN  =    199691.75951167
  -Hartree energ DENC   =   -242103.96589197
  -exchange      EXHF   =         0.00000000
  -V(xc)+E(xc)   XCENC  =      -327.76026910
  PAW double counting   =     40340.05962942   -38292.62782345
  entropy T*S    EENTRO =        -0.17905225
  eigenvalues    EBANDS =     -1974.62929700
  atomic energy  EATOM  =     41659.78587232
  Solvation  Ediel_sol  =         0.00000000
  ---------------------------------------------------
  free energy    TOTEN  =      -201.68795560 eV

  energy without entropy =     -201.50890335  energy(sigma->0) =     -201.59842947


--------------------------------------------------------------------------------------------------------




----------------------------------------- Iteration    1(   4)  ---------------------------------------


     EDDAV:  cpu time   11.4363: real time   11.5142
       DOS:  cpu time    0.0016: real time    0.0016
    --------------------------------------------
      LOOP:  cpu time   11.4384: real time   11.5177

 eigenvalue-minimisations  :  4284
 total energy-change (2. order) :-0.5785100E+01  (-0.5724677E+01)
 number of electron     504.0000000 magnetization 
 augmentation part      504.0000000 magnetization 

 DIPCOR: dipole corrections for dipol
 direction  3 min pos     1,
 dipolmoment           0.000000      0.000000      0.000001 electrons x Angstroem
 Tr[quadrupol]    -10347.097921

 energy correction for charged system         0.000000 eV
 dipol+quadrupol energy correction           -0.000000 eV
 added-field ion interaction          0.000000 eV  (added to PSCEN)


 Free energy of the ion-electron system (eV)
  ---------------------------------------------------
  alpha Z        PSCENC =       805.86936475
  Ewald energy   TEWEN  =    199691.75951167
  -Hartree energ DENC   =   -242103.96589197
  -exchange      EXHF   =         0.00000000
  -V(xc)+E(xc)   XCENC  =      -327.76026910
  PAW double counting   =     40340.05962942   -38292.62782345
  entropy T*S    EENTRO =        -0.18470277
  eigenvalues    EBANDS =     -1980.40874606
  atomic energy  EATOM  =     41659.78587232
  Solvation  Ediel_sol  =         0.00000000
  ---------------------------------------------------
  free energy    TOTEN  =      -207.47305518 eV

  energy without entropy =     -207.28835241  energy(sigma->0) =     -207.38070380


--------------------------------------------------------------------------------------------------------




----------------------------------------- Iteration    1(   5)  ---------------------------------------


     EDDAV:  cpu time   11.8533: real time   11.8751
       DOS:  cpu time    0.0017: real time    0.0017
    CHARGE:  cpu time    0.3024: real time    0.3026
    MIXING:  cpu time    0.0023: real time    0.0023
    --------------------------------------------
      LOOP:  cpu time   12.1706: real time   12.1950

 eigenvalue-minimisations  :  4404
 total energy-change (2. order) :-0.1779383E+00  (-0.1773168E+00)
 number of electron     503.9998404 magnetization 
 augmentation part      191.2066250 magnetization 

 DIPCOR: dipole corrections for dipol
 direction  3 min pos     1,
 dipolmoment           0.000000      0.000000      0.000001 electrons x Angstroem
 Tr[quadrupol]    -10347.097921

 energy correction for charged system         0.000000 eV
 dipol+quadrupol energy correction           -0.000000 eV
 added-field ion interaction          0.000000 eV  (added to PSCEN)


 Broyden mixing:
  rms(total) = 0.61988E+01    rms(broyden)= 0.61987E+01
  rms(prec ) = 0.63285E+01
  weight for this iteration     100.00

 Free energy of the ion-electron system (eV)
  ---------------------------------------------------
  alpha Z        PSCENC =       805.86936475
  Ewald energy   TEWEN  =    199691.75951167
  -Hartree energ DENC   =   -242103.96589197
  -exchange      EXHF   =         0.00000000
  -V(xc)+E(xc)   XCENC  =      -327.76026910
  PAW double counting   =     40340.05962942   -38292.62782345
  entropy T*S    EENTRO =        -0.18432142
  eigenvalues    EBANDS =     -1980.58706574
  atomic energy  EATOM  =     41659.78587232
  Solvation  Ediel_sol  =         0.00000000
  ---------------------------------------------------
  free energy    TOTEN  =      -207.65099351 eV

  energy without entropy =     -207.46667210  energy(sigma->0) =     -207.55883280


--------------------------------------------------------------------------------------------------------




----------------------------------------- Iteration    1(   6)  ---------------------------------------


    POTLOK:  cpu time    0.0501: real time    0.0509
    SETDIJ:  cpu time    0.0062: real time    0.0062
    EDDIAG:  cpu time    1.6874: real time    1.6882
  RMM-DIIS:  cpu time    4.5103: real time    4.5147
    ORTHCH:  cpu time    0.4191: real time    0.4191
       DOS:  cpu time    0.0018: real time    0.0018
    CHARGE:  cpu time    0.3089: real time    0.3090
    MIXING:  cpu time    0.0022: real time    0.0023
    --------------------------------------------
      LOOP:  cpu time    6.9867: real time    6.9967

 eigenvalue-minimisations  :  3678
 total energy-change (2. order) : 0.4547133E+01  (-0.9932316E+01)
 number of electron     503.9998430 magnetization 
 augmentation part      191.4308269 magnetization 

 DIPCOR: dipole corrections for dipol
 direction  3 min pos     1,
 dipolmoment           0.000000      0.000000      0.679946 electrons x Angstroem
 Tr[quadrupol]    -10349.881545

 energy correction for charged system         0.000000 eV
 dipol+quadrupol energy correction           -0.016291 eV
 added-field ion interaction          0.215242 eV  (added to PSCEN)


 Broyden mixing:
  rms(total) = 0.54285E+01    rms(broyden)= 0.54284E+01
  rms(prec ) = 0.56733E+01
  weight for this iteration     100.00

 eigenvalues of (default mixing * dielectric matrix)
  average eigenvalue GAMMA=   0.7232
  0.7232

 Free energy of the ion-electron system (eV)
  ---------------------------------------------------
  alpha Z        PSCENC =       806.06831467
  Ewald energy   TEWEN  =    199691.75951167
  -Hartree energ DENC   =   -241900.65158288
  -exchange      EXHF   =         0.00000000
  -V(xc)+E(xc)   XCENC  =      -340.65040282
  PAW double counting   =     43895.13148218   -41907.30323864
  entropy T*S    EENTRO =        -0.24523591
  eigenvalues    EBANDS =     -2106.99858139
  atomic energy  EATOM  =     41659.78587232
  Solvation  Ediel_sol  =         0.00000000
  ---------------------------------------------------
  free energy    TOTEN  =      -203.10386080 eV

  energy without entropy =     -202.85862489  energy(sigma->0) =     -202.98124284


--------------------------------------------------------------------------------------------------------




----------------------------------------- Iteration    1(   7)  ---------------------------------------


    POTLOK:  cpu time    0.0507: real time    0.0516
    SETDIJ:  cpu time    0.0060: real time    0.0061
    EDDIAG:  cpu time    1.6794: real time    1.6802
  RMM-DIIS:  cpu time    4.4482: real time    4.4568
    ORTHCH:  cpu time    0.4194: real time    0.4194
       DOS:  cpu time    0.0019: real time    0.0019
    CHARGE:  cpu time    0.3094: real time    0.3096
    MIXING:  cpu time    0.0021: real time    0.0021
    --------------------------------------------
      LOOP:  cpu time    6.9179: real time    6.9315

 eigenvalue-minimisations  :  3684
 total energy-change (2. order) :-0.5556822E+01  (-0.5938940E+01)
 number of electron     503.9998366 magnetization 
 augmentation part      195.7802046 magnetization 

 DIPCOR: dipole corrections for dipol
 direction  3 min pos     1,
 dipolmoment           0.000000      0.000000     -0.816237 electrons x Angstroem
 Tr[quadrupol]    -10346.890511

 energy correction for charged system         0.000000 eV
 dipol+quadrupol energy correction           -0.023477 eV
 added-field ion interaction         -0.258386 eV  (added to PSCEN)


 Broyden mixing:
  rms(total) = 0.45549E+01    rms(broyden)= 0.45546E+01
  rms(prec ) = 0.52129E+01
  weight for this iteration     100.00

 eigenvalues of (default mixing * dielectric matrix)
  average eigenvalue GAMMA=   0.8959
  1.4365  0.3553

 Free energy of the ion-electron system (eV)
  ---------------------------------------------------
  alpha Z        PSCENC =       805.58750209
  Ewald energy   TEWEN  =    199691.75951167
  -Hartree energ DENC   =   -241695.47328327
  -exchange      EXHF   =         0.00000000
  -V(xc)+E(xc)   XCENC  =      -342.69935201
  PAW double counting   =     45269.12906355   -43306.83932672
  entropy T*S    EENTRO =        -0.20056519
  eigenvalues    EBANDS =     -2289.71010510
  atomic energy  EATOM  =     41659.78587232
  Solvation  Ediel_sol  =         0.00000000
  ---------------------------------------------------
  free energy    TOTEN  =      -208.66068265 eV

  energy without entropy =     -208.46011746  energy(sigma->0) =     -208.56040006


--------------------------------------------------------------------------------------------------------




----------------------------------------- Iteration    1(   8)  ---------------------------------------


    POTLOK:  cpu time    0.0498: real time    0.0498
    SETDIJ:  cpu time    0.0061: real time    0.0061
    EDDIAG:  cpu time    1.6735: real time    1.6740
  RMM-DIIS:  cpu time    4.5437: real time    4.5455
    ORTHCH:  cpu time    0.4189: real time    0.4191
       DOS:  cpu time    0.0017: real time    0.0017
    CHARGE:  cpu time    0.3115: real time    0.3116
    MIXING:  cpu time    0.0022: real time    0.0022
    --------------------------------------------
      LOOP:  cpu time    7.0081: real time    7.0122

 eigenvalue-minimisations  :  3675
 total energy-change (2. order) :-0.1613901E+02  (-0.9104282E+01)
 number of electron     503.9998359 magnetization 
 augmentation part      196.0141227 magnetization 

 DIPCOR: dipole corrections for dipol
 direction  3 min pos     1,
 dipolmoment           0.000000      0.000000      1.735490 electrons x Angstroem
 Tr[quadrupol]    -10348.674787

 energy correction for charged system         0.000000 eV
 dipol+quadrupol energy correction           -0.106132 eV
 added-field ion interaction          0.549381 eV  (added to PSCEN)


 Broyden mixing:
  rms(total) = 0.44831E+01    rms(broyden)= 0.44827E+01
  rms(prec ) = 0.53867E+01
  weight for this iteration     100.00

 eigenvalues of (default mixing * dielectric matrix)
  average eigenvalue GAMMA=   0.8935
  2.0104  0.4110  0.2590

 Free energy of the ion-electron system (eV)
  ---------------------------------------------------
  alpha Z        PSCENC =       806.31261351
  Ewald energy   TEWEN  =    199691.75951167
  -Hartree energ DENC   =   -241688.19329678
  -exchange      EXHF   =         0.00000000
  -V(xc)+E(xc)   XCENC  =      -344.71646825
  PAW double counting   =     46922.83441587   -44985.90414751
  entropy T*S    EENTRO =        -0.29563122
  eigenvalues    EBANDS =     -2286.38256636
  atomic energy  EATOM  =     41659.78587232
  Solvation  Ediel_sol  =         0.00000000
  ---------------------------------------------------
  free energy    TOTEN  =      -224.79969675 eV

  energy without entropy =     -224.50406553  energy(sigma->0) =     -224.65188114


--------------------------------------------------------------------------------------------------------




----------------------------------------- Iteration    1(   9)  ---------------------------------------


    POTLOK:  cpu time    0.0495: real time    0.0495
    SETDIJ:  cpu time    0.0060: real time    0.0060
    EDDIAG:  cpu time    1.6437: real time    1.7093
  RMM-DIIS:  cpu time    4.4861: real time    4.4997
    ORTHCH:  cpu time    0.4213: real time    0.4215
       DOS:  cpu time    0.0017: real time    0.0017
    CHARGE:  cpu time    0.3112: real time    0.3113
    MIXING:  cpu time    0.0024: real time    0.0024
    --------------------------------------------
      LOOP:  cpu time    6.9228: real time    7.0036

 eigenvalue-minimisations  :  3678
 total energy-change (2. order) : 0.9696226E+01  (-0.4923850E+01)
 number of electron     503.9998342 magnetization 
 augmentation part      198.0753282 magnetization 

 DIPCOR: dipole corrections for dipol
 direction  3 min pos     1,
 dipolmoment           0.000000      0.000000     -0.741430 electrons x Angstroem
 Tr[quadrupol]    -10350.308423

 energy correction for charged system         0.000000 eV
 dipol+quadrupol energy correction           -0.019371 eV
 added-field ion interaction         -0.234705 eV  (added to PSCEN)


 Broyden mixing:
  rms(total) = 0.35787E+01    rms(broyden)= 0.35784E+01
  rms(prec ) = 0.40146E+01
  weight for this iteration     100.00

 eigenvalues of (default mixing * dielectric matrix)
  average eigenvalue GAMMA=   0.8143
  2.2361  0.4402  0.2905  0.2905

 Free energy of the ion-electron system (eV)
  ---------------------------------------------------
  alpha Z        PSCENC =       805.61528875
  Ewald energy   TEWEN  =    199691.75951167
  -Hartree energ DENC   =   -241702.48848082
  -exchange      EXHF   =         0.00000000
  -V(xc)+E(xc)   XCENC  =      -346.45572985
  PAW double counting   =     48300.43979289   -46384.87436178
  entropy T*S    EENTRO =        -0.20886506
  eigenvalues    EBANDS =     -2238.67649887
  atomic energy  EATOM  =     41659.78587232
  Solvation  Ediel_sol  =         0.00000000
  ---------------------------------------------------
  free energy    TOTEN  =      -215.10347075 eV

  energy without entropy =     -214.89460569  energy(sigma->0) =     -214.99903822


--------------------------------------------------------------------------------------------------------




----------------------------------------- Iteration    1(  10)  ---------------------------------------


    POTLOK:  cpu time    0.0501: real time    0.0510
    SETDIJ:  cpu time    0.0060: real time    0.0060
    EDDIAG:  cpu time    1.6883: real time    1.6901
  RMM-DIIS:  cpu time    4.5079: real time    4.5152
    ORTHCH:  cpu time    0.4125: real time    0.4125
       DOS:  cpu time    0.0018: real time    0.0018
    CHARGE:  cpu time    0.3119: real time    0.3121
    MIXING:  cpu time    0.0026: real time    0.0026
    --------------------------------------------
      LOOP:  cpu time    6.9819: real time    6.9957

 eigenvalue-minimisations  :  3681
 total energy-change (2. order) : 0.1613183E+02  (-0.1846357E+01)
 number of electron     503.9998335 magnetization 
 augmentation part      198.9532502 magnetization 

 DIPCOR: dipole corrections for dipol
 direction  3 min pos     1,
 dipolmoment           0.000000      0.000000      0.517652 electrons x Angstroem
 Tr[quadrupol]    -10348.961379

 energy correction for charged system         0.000000 eV
 dipol+quadrupol energy correction           -0.009442 eV
 added-field ion interaction          0.163866 eV  (added to PSCEN)


 Broyden mixing:
  rms(total) = 0.23055E+01    rms(broyden)= 0.23052E+01
  rms(prec ) = 0.27464E+01
  weight for this iteration     100.00

 eigenvalues of (default mixing * dielectric matrix)
  average eigenvalue GAMMA=   0.7491
  2.2772  0.4277  0.4277  0.3852  0.2275

 Free energy of the ion-electron system (eV)
  ---------------------------------------------------
  alpha Z        PSCENC =       806.02378835
  Ewald energy   TEWEN  =    199691.75951167
  -Hartree energ DENC   =   -241663.53398402
  -exchange      EXHF   =         0.00000000
  -V(xc)+E(xc)   XCENC  =      -346.48279266
  PAW double counting   =     48971.76062848   -47064.05302918
  entropy T*S    EENTRO =        -0.19040642
  eigenvalues    EBANDS =     -2254.04123029
  atomic energy  EATOM  =     41659.78587232
  Solvation  Ediel_sol  =         0.00000000
  ---------------------------------------------------
  free energy    TOTEN  =      -198.97164174 eV

  energy without entropy =     -198.78123532  energy(sigma->0) =     -198.87643853


--------------------------------------------------------------------------------------------------------




----------------------------------------- Iteration    1(  11)  ---------------------------------------


    POTLOK:  cpu time    0.0497: real time    0.0498
    SETDIJ:  cpu time    0.0061: real time    0.0068
    EDDIAG:  cpu time    1.6801: real time    1.6813
  RMM-DIIS:  cpu time    4.4478: real time    4.4607
    ORTHCH:  cpu time    0.4123: real time    0.4124
       DOS:  cpu time    0.0019: real time    0.0019
    CHARGE:  cpu time    0.3068: real time    0.3068
    MIXING:  cpu time    0.0025: real time    0.0025
    --------------------------------------------
      LOOP:  cpu time    6.9081: real time    6.9246

 eigenvalue-minimisations  :  3679
 total energy-change (2. order) : 0.3631041E+01  (-0.1411270E+01)
 number of electron     503.9998343 magnetization 
 augmentation part      198.4909231 magnetization 

 DIPCOR: dipole corrections for dipol
 direction  3 min pos     1,
 dipolmoment           0.000000      0.000000      0.175845 electrons x Angstroem
 Tr[quadrupol]    -10349.946341

 energy correction for charged system         0.000000 eV
 dipol+quadrupol energy correction           -0.001090 eV
 added-field ion interaction          0.055665 eV  (added to PSCEN)


 Broyden mixing:
  rms(total) = 0.15945E+01    rms(broyden)= 0.15943E+01
  rms(prec ) = 0.18296E+01
  weight for this iteration     100.00

 eigenvalues of (default mixing * dielectric matrix)
  average eigenvalue GAMMA=   0.7038
  2.2189  0.5848  0.5848  0.3456  0.2443  0.2443

 Free energy of the ion-electron system (eV)
  ---------------------------------------------------
  alpha Z        PSCENC =       805.92393968
  Ewald energy   TEWEN  =    199691.75951167
  -Hartree energ DENC   =   -241718.85559633
  -exchange      EXHF   =         0.00000000
  -V(xc)+E(xc)   XCENC  =      -346.03150204
  PAW double counting   =     49111.46104979   -47202.32247570
  entropy T*S    EENTRO =        -0.22698773
  eigenvalues    EBANDS =     -2196.83441279
  atomic energy  EATOM  =     41659.78587232
  Solvation  Ediel_sol  =         0.00000000
  ---------------------------------------------------
  free energy    TOTEN  =      -195.34060111 eV

  energy without entropy =     -195.11361338  energy(sigma->0) =     -195.22710725


--------------------------------------------------------------------------------------------------------




----------------------------------------- Iteration    1(  12)  ---------------------------------------


    POTLOK:  cpu time    0.0500: real time    0.0502
    SETDIJ:  cpu time    0.0061: real time    0.0061
    EDDIAG:  cpu time    1.6560: real time    1.6611
  RMM-DIIS:  cpu time    4.5821: real time    4.5974
    ORTHCH:  cpu time    0.5043: real time    0.5068
       DOS:  cpu time    0.0015: real time    0.0015
    CHARGE:  cpu time    0.4126: real time    0.4141
    MIXING:  cpu time    0.0048: real time    0.0048
    --------------------------------------------
      LOOP:  cpu time    7.2181: real time    7.2461

 eigenvalue-minimisations  :  3679
 total energy-change (2. order) : 0.3712558E+01  (-0.5271224E+00)
 number of electron     503.9998357 magnetization 
 augmentation part      197.6077458 magnetization 

 DIPCOR: dipole corrections for dipol
 direction  3 min pos     1,
 dipolmoment           0.000000      0.000000      0.098981 electrons x Angstroem
 Tr[quadrupol]    -10350.084535

 energy correction for charged system         0.000000 eV
 dipol+quadrupol energy correction           -0.000345 eV
 added-field ion interaction          0.031333 eV  (added to PSCEN)


 Broyden mixing:
  rms(total) = 0.12040E+01    rms(broyden)= 0.12038E+01
  rms(prec ) = 0.13641E+01
  weight for this iteration     100.00

 eigenvalues of (default mixing * dielectric matrix)
  average eigenvalue GAMMA=   0.6500
  2.2320  0.5500  0.5500  0.3990  0.2962  0.2962  0.2263

 Free energy of the ion-electron system (eV)
  ---------------------------------------------------
  alpha Z        PSCENC =       805.90035223
  Ewald energy   TEWEN  =    199691.75951167
  -Hartree energ DENC   =   -241760.33800908
  -exchange      EXHF   =         0.00000000
  -V(xc)+E(xc)   XCENC  =      -345.04451576
  PAW double counting   =     49142.52630530   -47228.91651021
  entropy T*S    EENTRO =        -0.22759091
  eigenvalues    EBANDS =     -2157.07345917
  atomic energy  EATOM  =     41659.78587232
  Solvation  Ediel_sol  =         0.00000000
  ---------------------------------------------------
  free energy    TOTEN  =      -191.62804360 eV

  energy without entropy =     -191.40045270  energy(sigma->0) =     -191.51424815


--------------------------------------------------------------------------------------------------------




----------------------------------------- Iteration    1(  13)  ---------------------------------------


    POTLOK:  cpu time    0.0670: real time    0.0675
    SETDIJ:  cpu time    0.0083: real time    0.0084
    EDDIAG:  cpu time    1.8552: real time    1.8641
  RMM-DIIS:  cpu time    4.5203: real time    4.5227
    ORTHCH:  cpu time    0.4135: real time    0.4136
       DOS:  cpu time    0.0019: real time    0.0019
    CHARGE:  cpu time    0.3073: real time    0.3075
    MIXING:  cpu time    0.0028: real time    0.0028
    --------------------------------------------
      LOOP:  cpu time    7.1770: real time    7.1919

 eigenvalue-minimisations  :  3681
 total energy-change (2. order) : 0.1174247E+01  (-0.1849026E+00)
 number of electron     503.9998357 magnetization 
 augmentation part      197.4518709 magnetization 

 DIPCOR: dipole corrections for dipol
 direction  3 min pos     1,
 dipolmoment           0.000000      0.000000      0.064800 electrons x Angstroem
 Tr[quadrupol]    -10350.330006

 energy correction for charged system         0.000000 eV
 dipol+quadrupol energy correction           -0.000148 eV
 added-field ion interaction          0.020513 eV  (added to PSCEN)


 Broyden mixing:
  rms(total) = 0.85230E+00    rms(broyden)= 0.85210E+00
  rms(prec ) = 0.96160E+00
  weight for this iteration     100.00

 eigenvalues of (default mixing * dielectric matrix)
  average eigenvalue GAMMA=   0.6704
  2.2596  0.6914  0.6914  0.6703  0.3024  0.3024  0.2432  0.2020

 Free energy of the ion-electron system (eV)
  ---------------------------------------------------
  alpha Z        PSCENC =       805.88972919
  Ewald energy   TEWEN  =    199691.75951167
  -Hartree energ DENC   =   -241773.95197073
  -exchange      EXHF   =         0.00000000
  -V(xc)+E(xc)   XCENC  =      -344.87202580
  PAW double counting   =     49174.57279903   -47260.13222092
  entropy T*S    EENTRO =        -0.23101768
  eigenvalues    EBANDS =     -2143.27447399
  atomic energy  EATOM  =     41659.78587232
  Solvation  Ediel_sol  =         0.00000000
  ---------------------------------------------------
  free energy    TOTEN  =      -190.45379691 eV

  energy without entropy =     -190.22277923  energy(sigma->0) =     -190.33828807


--------------------------------------------------------------------------------------------------------




----------------------------------------- Iteration    1(  14)  ---------------------------------------


    POTLOK:  cpu time    0.0494: real time    0.0495
    SETDIJ:  cpu time    0.0061: real time    0.0061
    EDDIAG:  cpu time    1.6796: real time    1.6803
  RMM-DIIS:  cpu time    4.4527: real time    4.5132
    ORTHCH:  cpu time    0.4059: real time    0.4161
       DOS:  cpu time    0.0019: real time    0.0019
    CHARGE:  cpu time    0.3071: real time    0.3071
    MIXING:  cpu time    0.0030: real time    0.0030
    --------------------------------------------
      LOOP:  cpu time    6.9065: real time    6.9793

 eigenvalue-minimisations  :  3679
 total energy-change (2. order) : 0.5125236E+00  (-0.1283553E+00)
 number of electron     503.9998359 magnetization 
 augmentation part      197.4763376 magnetization 

 DIPCOR: dipole corrections for dipol
 direction  3 min pos     1,
 dipolmoment           0.000000      0.000000      0.037425 electrons x Angstroem
 Tr[quadrupol]    -10350.628004

 energy correction for charged system         0.000000 eV
 dipol+quadrupol energy correction           -0.000049 eV
 added-field ion interaction          0.011847 eV  (added to PSCEN)


 Broyden mixing:
  rms(total) = 0.59751E+00    rms(broyden)= 0.59740E+00
  rms(prec ) = 0.64451E+00
  weight for this iteration     100.00

 eigenvalues of (default mixing * dielectric matrix)
  average eigenvalue GAMMA=   0.6655
  2.2294  0.8153  0.8153  0.7074  0.3529  0.3529  0.2575  0.2575  0.2008

 Free energy of the ion-electron system (eV)
  ---------------------------------------------------
  alpha Z        PSCENC =       805.88116207
  Ewald energy   TEWEN  =    199691.75951167
  -Hartree energ DENC   =   -241788.61848645
  -exchange      EXHF   =         0.00000000
  -V(xc)+E(xc)   XCENC  =      -344.72413452
  PAW double counting   =     49219.15487895   -47303.80421381
  entropy T*S    EENTRO =        -0.22907254
  eigenvalues    EBANDS =     -2129.14679104
  atomic energy  EATOM  =     41659.78587232
  Solvation  Ediel_sol  =         0.00000000
  ---------------------------------------------------
  free energy    TOTEN  =      -189.94127334 eV

  energy without entropy =     -189.71220080  energy(sigma->0) =     -189.82673707


--------------------------------------------------------------------------------------------------------




----------------------------------------- Iteration    1(  15)  ---------------------------------------


    POTLOK:  cpu time    0.0495: real time    0.0496
    SETDIJ:  cpu time    0.0061: real time    0.0061
    EDDIAG:  cpu time    1.6723: real time    1.6732
  RMM-DIIS:  cpu time    4.5628: real time    4.5653
    ORTHCH:  cpu time    0.4127: real time    0.4130
       DOS:  cpu time    0.0018: real time    0.0018
    CHARGE:  cpu time    0.3065: real time    0.3065
    MIXING:  cpu time    0.0032: real time    0.0032
    --------------------------------------------
      LOOP:  cpu time    7.0158: real time    7.0238

 eigenvalue-minimisations  :  3679
 total energy-change (2. order) : 0.5353140E-01  (-0.4054311E-01)
 number of electron     503.9998358 magnetization 
 augmentation part      197.3536566 magnetization 

 DIPCOR: dipole corrections for dipol
 direction  3 min pos     1,
 dipolmoment           0.000000      0.000000      0.036387 electrons x Angstroem
 Tr[quadrupol]    -10350.652665

 energy correction for charged system         0.000000 eV
 dipol+quadrupol energy correction           -0.000047 eV
 added-field ion interaction          0.011519 eV  (added to PSCEN)


 Broyden mixing:
  rms(total) = 0.54575E+00    rms(broyden)= 0.54570E+00
  rms(prec ) = 0.60303E+00
  weight for this iteration     100.00

 eigenvalues of (default mixing * dielectric matrix)
  average eigenvalue GAMMA=   0.6864
  2.1942  1.0584  1.0584  0.6780  0.4416  0.4416  0.2800  0.2800  0.2160  0.2160

 Free energy of the ion-electron system (eV)
  ---------------------------------------------------
  alpha Z        PSCENC =       805.88083623
  Ewald energy   TEWEN  =    199691.75951167
  -Hartree energ DENC   =   -241795.01652143
  -exchange      EXHF   =         0.00000000
  -V(xc)+E(xc)   XCENC  =      -344.53107885
  PAW double counting   =     49214.66204279   -47298.04700585
  entropy T*S    EENTRO =        -0.25020717
  eigenvalues    EBANDS =     -2124.13119164
  atomic energy  EATOM  =     41659.78587232
  Solvation  Ediel_sol  =         0.00000000
  ---------------------------------------------------
  free energy    TOTEN  =      -189.88774194 eV

  energy without entropy =     -189.63753477  energy(sigma->0) =     -189.76263835


--------------------------------------------------------------------------------------------------------




----------------------------------------- Iteration    1(  16)  ---------------------------------------


    POTLOK:  cpu time    0.0495: real time    0.0495
    SETDIJ:  cpu time    0.0060: real time    0.0060
    EDDIAG:  cpu time    1.6895: real time    1.6904
  RMM-DIIS:  cpu time    4.4595: real time    4.4650
    ORTHCH:  cpu time    0.4143: real time    0.4146
       DOS:  cpu time    0.0019: real time    0.0019
    CHARGE:  cpu time    0.3074: real time    0.3074
    MIXING:  cpu time    0.0034: real time    0.0034
    --------------------------------------------
      LOOP:  cpu time    6.9323: real time    6.9405

 eigenvalue-minimisations  :  3681
 total energy-change (2. order) : 0.8675889E-01  (-0.2259486E-01)
 number of electron     503.9998361 magnetization 
 augmentation part      197.2374577 magnetization 

 DIPCOR: dipole corrections for dipol
 direction  3 min pos     1,
 dipolmoment           0.000000      0.000000      0.066691 electrons x Angstroem
 Tr[quadrupol]    -10350.948308

 energy correction for charged system         0.000000 eV
 dipol+quadrupol energy correction           -0.000157 eV
 added-field ion interaction          0.021112 eV  (added to PSCEN)


 Broyden mixing:
  rms(total) = 0.41178E+00    rms(broyden)= 0.41174E+00
  rms(prec ) = 0.47485E+00
  weight for this iteration     100.00

 eigenvalues of (default mixing * dielectric matrix)
  average eigenvalue GAMMA=   0.7032
  2.1430  1.3116  1.3116  0.5450  0.5450  0.5601  0.3182  0.3182  0.2394  0.2394
  0.2039

 Free energy of the ion-electron system (eV)
  ---------------------------------------------------
  alpha Z        PSCENC =       805.89031911
  Ewald energy   TEWEN  =    199691.75951167
  -Hartree energ DENC   =   -241811.89646547
  -exchange      EXHF   =         0.00000000
  -V(xc)+E(xc)   XCENC  =      -344.28903441
  PAW double counting   =     49216.04167552   -47297.67596904
  entropy T*S    EENTRO =        -0.25380922
  eigenvalues    EBANDS =     -2109.16308353
  atomic energy  EATOM  =     41659.78587232
  Solvation  Ediel_sol  =         0.00000000
  ---------------------------------------------------
  free energy    TOTEN  =      -189.80098305 eV

  energy without entropy =     -189.54717383  energy(sigma->0) =     -189.67407844


--------------------------------------------------------------------------------------------------------




----------------------------------------- Iteration    1(  17)  ---------------------------------------


    POTLOK:  cpu time    0.0498: real time    0.0499
    SETDIJ:  cpu time    0.0060: real time    0.0060
    EDDIAG:  cpu time    1.6688: real time    1.6703
  RMM-DIIS:  cpu time    4.5642: real time    4.5679
    ORTHCH:  cpu time    0.4140: real time    0.4142
       DOS:  cpu time    0.0018: real time    0.0018
    CHARGE:  cpu time    0.3079: real time    0.3081
    MIXING:  cpu time    0.0036: real time    0.0036
    --------------------------------------------
      LOOP:  cpu time    7.0168: real time    7.0252

 eigenvalue-minimisations  :  3679
 total energy-change (2. order) : 0.1025174E+00  (-0.1771776E-01)
 number of electron     503.9998361 magnetization 
 augmentation part      197.1486629 magnetization 

 DIPCOR: dipole corrections for dipol
 direction  3 min pos     1,
 dipolmoment           0.000000      0.000000      0.093454 electrons x Angstroem
 Tr[quadrupol]    -10351.201473

 energy correction for charged system         0.000000 eV
 dipol+quadrupol energy correction           -0.000308 eV
 added-field ion interaction          0.029583 eV  (added to PSCEN)


 Broyden mixing:
  rms(total) = 0.29112E+00    rms(broyden)= 0.29106E+00
  rms(prec ) = 0.34244E+00
  weight for this iteration     100.00

 eigenvalues of (default mixing * dielectric matrix)
  average eigenvalue GAMMA=   0.7332
  2.1426  1.5981  1.5981  0.6444  0.6444  0.5063  0.3534  0.3534  0.2669  0.2669
  0.2120  0.2120

 Free energy of the ion-electron system (eV)
  ---------------------------------------------------
  alpha Z        PSCENC =       805.89863994
  Ewald energy   TEWEN  =    199691.75951167
  -Hartree energ DENC   =   -241826.44213511
  -exchange      EXHF   =         0.00000000
  -V(xc)+E(xc)   XCENC  =      -344.07010198
  PAW double counting   =     49223.95334677   -47304.03555331
  entropy T*S    EENTRO =        -0.25502266
  eigenvalues    EBANDS =     -2096.29302331
  atomic energy  EATOM  =     41659.78587232
  Solvation  Ediel_sol  =         0.00000000
  ---------------------------------------------------
  free energy    TOTEN  =      -189.69846567 eV

  energy without entropy =     -189.44344301  energy(sigma->0) =     -189.57095434


--------------------------------------------------------------------------------------------------------




----------------------------------------- Iteration    1(  18)  ---------------------------------------


    POTLOK:  cpu time    0.0501: real time    0.0503
    SETDIJ:  cpu time    0.0068: real time    0.0068
    EDDIAG:  cpu time    1.6815: real time    1.6839
  RMM-DIIS:  cpu time    4.4310: real time    4.4334
    ORTHCH:  cpu time    0.4135: real time    0.4136
       DOS:  cpu time    0.0017: real time    0.0017
    CHARGE:  cpu time    0.3087: real time    0.3087
    MIXING:  cpu time    0.0038: real time    0.0038
    --------------------------------------------
      LOOP:  cpu time    6.8980: real time    6.9045

 eigenvalue-minimisations  :  3679
 total energy-change (2. order) : 0.6767551E-01  (-0.1018709E-01)
 number of electron     503.9998362 magnetization 
 augmentation part      197.0934146 magnetization 

 DIPCOR: dipole corrections for dipol
 direction  3 min pos     1,
 dipolmoment           0.000000      0.000000      0.089969 electrons x Angstroem
 Tr[quadrupol]    -10351.521900

 energy correction for charged system         0.000000 eV
 dipol+quadrupol energy correction           -0.000285 eV
 added-field ion interaction          0.028480 eV  (added to PSCEN)


 Broyden mixing:
  rms(total) = 0.15144E+00    rms(broyden)= 0.15140E+00
  rms(prec ) = 0.18308E+00
  weight for this iteration     100.00

 eigenvalues of (default mixing * dielectric matrix)
  average eigenvalue GAMMA=   0.7297
  2.1594  1.6749  1.6749  0.6828  0.6828  0.5419  0.4016  0.4016  0.2973  0.2973
  0.2077  0.2322  0.2322

 Free energy of the ion-electron system (eV)
  ---------------------------------------------------
  alpha Z        PSCENC =       805.89755934
  Ewald energy   TEWEN  =    199691.75951167
  -Hartree energ DENC   =   -241841.47914372
  -exchange      EXHF   =         0.00000000
  -V(xc)+E(xc)   XCENC  =      -343.91299915
  PAW double counting   =     49247.39668113   -47326.34108901
  entropy T*S    EENTRO =        -0.26044314
  eigenvalues    EBANDS =     -2082.47673960
  atomic energy  EATOM  =     41659.78587232
  Solvation  Ediel_sol  =         0.00000000
  ---------------------------------------------------
  free energy    TOTEN  =      -189.63079016 eV

  energy without entropy =     -189.37034702  energy(sigma->0) =     -189.50056859


--------------------------------------------------------------------------------------------------------




----------------------------------------- Iteration    1(  19)  ---------------------------------------


    POTLOK:  cpu time    0.0499: real time    0.0501
    SETDIJ:  cpu time    0.0061: real time    0.0064
    EDDIAG:  cpu time    1.6746: real time    1.6798
  RMM-DIIS:  cpu time    4.4311: real time    4.4332
    ORTHCH:  cpu time    0.4129: real time    0.4138
       DOS:  cpu time    0.0017: real time    0.0017
    CHARGE:  cpu time    0.3078: real time    0.3082
    MIXING:  cpu time    0.0039: real time    0.0039
    --------------------------------------------
      LOOP:  cpu time    6.8887: real time    6.9007

 eigenvalue-minimisations  :  3680
 total energy-change (2. order) : 0.2193000E-01  (-0.3420868E-02)
 number of electron     503.9998362 magnetization 
 augmentation part      197.0673931 magnetization 

 DIPCOR: dipole corrections for dipol
 direction  3 min pos     1,
 dipolmoment           0.000000      0.000000      0.053784 electrons x Angstroem
 Tr[quadrupol]    -10351.687176

 energy correction for charged system         0.000000 eV
 dipol+quadrupol energy correction           -0.000102 eV
 added-field ion interaction          0.017026 eV  (added to PSCEN)


 Broyden mixing:
  rms(total) = 0.10283E+00    rms(broyden)= 0.10280E+00
  rms(prec ) = 0.11625E+00
  weight for this iteration     100.00

 eigenvalues of (default mixing * dielectric matrix)
  average eigenvalue GAMMA=   0.7129
  2.1841  1.6626  1.6626  0.7163  0.7163  0.5557  0.4564  0.4564  0.3116  0.3116
  0.2723  0.2467  0.2121  0.2164

 Free energy of the ion-electron system (eV)
  ---------------------------------------------------
  alpha Z        PSCENC =       805.88628795
  Ewald energy   TEWEN  =    199691.75951167
  -Hartree energ DENC   =   -241849.60717628
  -exchange      EXHF   =         0.00000000
  -V(xc)+E(xc)   XCENC  =      -343.83671035
  PAW double counting   =     49259.33086441   -47337.78955830
  entropy T*S    EENTRO =        -0.25839441
  eigenvalues    EBANDS =     -2074.87955719
  atomic energy  EATOM  =     41659.78587232
  Solvation  Ediel_sol  =         0.00000000
  ---------------------------------------------------
  free energy    TOTEN  =      -189.60886016 eV

  energy without entropy =     -189.35046575  energy(sigma->0) =     -189.47966296


--------------------------------------------------------------------------------------------------------




----------------------------------------- Iteration    1(  20)  ---------------------------------------


    POTLOK:  cpu time    0.0502: real time    0.0504
    SETDIJ:  cpu time    0.0061: real time    0.0061
    EDDIAG:  cpu time    1.6598: real time    1.6605
  RMM-DIIS:  cpu time    4.4140: real time    4.4860
    ORTHCH:  cpu time    0.4135: real time    0.4137
       DOS:  cpu time    0.0016: real time    0.0016
    CHARGE:  cpu time    0.3091: real time    0.3091
    MIXING:  cpu time    0.0041: real time    0.0041
    --------------------------------------------
      LOOP:  cpu time    6.8591: real time    6.9354

 eigenvalue-minimisations  :  3681
 total energy-change (2. order) : 0.6785764E-02  (-0.9521652E-03)
 number of electron     503.9998362 magnetization 
 augmentation part      197.0610990 magnetization 

 DIPCOR: dipole corrections for dipol
 direction  3 min pos     1,
 dipolmoment           0.000000      0.000000      0.042153 electrons x Angstroem
 Tr[quadrupol]    -10351.744783

 energy correction for charged system         0.000000 eV
 dipol+quadrupol energy correction           -0.000063 eV
 added-field ion interaction          0.013344 eV  (added to PSCEN)


 Broyden mixing:
  rms(total) = 0.71530E-01    rms(broyden)= 0.71523E-01
  rms(prec ) = 0.81420E-01
  weight for this iteration     100.00

 eigenvalues of (default mixing * dielectric matrix)
  average eigenvalue GAMMA=   0.7163
  2.2122  1.6377  1.6377  0.8469  0.8469  0.5818  0.5818  0.4885  0.3466  0.3466
  0.2760  0.2760  0.2085  0.2282  0.2282

 Free energy of the ion-electron system (eV)
  ---------------------------------------------------
  alpha Z        PSCENC =       805.88264541
  Ewald energy   TEWEN  =    199691.75951167
  -Hartree energ DENC   =   -241852.19709721
  -exchange      EXHF   =         0.00000000
  -V(xc)+E(xc)   XCENC  =      -343.82252090
  PAW double counting   =     49262.75320266   -47341.17078822
  entropy T*S    EENTRO =        -0.25863214
  eigenvalues    EBANDS =     -2072.33426800
  atomic energy  EATOM  =     41659.78587232
  Solvation  Ediel_sol  =         0.00000000
  ---------------------------------------------------
  free energy    TOTEN  =      -189.60207440 eV

  energy without entropy =     -189.34344226  energy(sigma->0) =     -189.47275833


--------------------------------------------------------------------------------------------------------




----------------------------------------- Iteration    1(  21)  ---------------------------------------


    POTLOK:  cpu time    0.0500: real time    0.0500
    SETDIJ:  cpu time    0.0060: real time    0.0060
    EDDIAG:  cpu time    1.6703: real time    1.6710
  RMM-DIIS:  cpu time    4.8930: real time    4.9237
    ORTHCH:  cpu time    0.4124: real time    0.4127
       DOS:  cpu time    0.0017: real time    0.0017
    CHARGE:  cpu time    0.3084: real time    0.3084
    MIXING:  cpu time    0.0041: real time    0.0041
    --------------------------------------------
      LOOP:  cpu time    7.3468: real time    7.3810

 eigenvalue-minimisations  :  3679
 total energy-change (2. order) : 0.2783356E-02  (-0.2777257E-03)
 number of electron     503.9998362 magnetization 
 augmentation part      197.0467404 magnetization 

 DIPCOR: dipole corrections for dipol
 direction  3 min pos     1,
 dipolmoment           0.000000      0.000000      0.042244 electrons x Angstroem
 Tr[quadrupol]    -10351.834154

 energy correction for charged system         0.000000 eV
 dipol+quadrupol energy correction           -0.000063 eV
 added-field ion interaction          0.013373 eV  (added to PSCEN)


 Broyden mixing:
  rms(total) = 0.58235E-01    rms(broyden)= 0.58232E-01
  rms(prec ) = 0.68084E-01
  weight for this iteration     100.00

 eigenvalues of (default mixing * dielectric matrix)
  average eigenvalue GAMMA=   0.7264
  2.2607  1.6286  1.6286  1.0259  1.0259  0.6252  0.6252  0.5199  0.3829  0.3829
  0.2969  0.2969  0.2455  0.2455  0.2099  0.2218

 Free energy of the ion-electron system (eV)
  ---------------------------------------------------
  alpha Z        PSCENC =       805.88267402
  Ewald energy   TEWEN  =    199691.75951167
  -Hartree energ DENC   =   -241856.18659480
  -exchange      EXHF   =         0.00000000
  -V(xc)+E(xc)   XCENC  =      -343.80142478
  PAW double counting   =     49267.38683237   -47345.74761240
  entropy T*S    EENTRO =        -0.25919636
  eigenvalues    EBANDS =     -2068.41935308
  atomic energy  EATOM  =     41659.78587232
  Solvation  Ediel_sol  =         0.00000000
  ---------------------------------------------------
  free energy    TOTEN  =      -189.59929104 eV

  energy without entropy =     -189.34009468  energy(sigma->0) =     -189.46969286


--------------------------------------------------------------------------------------------------------




----------------------------------------- Iteration    1(  22)  ---------------------------------------


    POTLOK:  cpu time    0.0499: real time    0.0500
    SETDIJ:  cpu time    0.0060: real time    0.0060
    EDDIAG:  cpu time    1.6731: real time    1.6739
  RMM-DIIS:  cpu time    4.5679: real time    4.5702
    ORTHCH:  cpu time    0.4110: real time    0.4113
       DOS:  cpu time    0.0017: real time    0.0017
    CHARGE:  cpu time    0.3072: real time    0.3072
    MIXING:  cpu time    0.0043: real time    0.0043
    --------------------------------------------
      LOOP:  cpu time    7.0220: real time    7.0268

 eigenvalue-minimisations  :  3679
 total energy-change (2. order) : 0.2697149E-02  (-0.1881844E-03)
 number of electron     503.9998362 magnetization 
 augmentation part      197.0397615 magnetization 

 DIPCOR: dipole corrections for dipol
 direction  3 min pos     1,
 dipolmoment           0.000000      0.000000      0.041544 electrons x Angstroem
 Tr[quadrupol]    -10351.922523

 energy correction for charged system         0.000000 eV
 dipol+quadrupol energy correction           -0.000061 eV
 added-field ion interaction          0.013151 eV  (added to PSCEN)


 Broyden mixing:
  rms(total) = 0.40700E-01    rms(broyden)= 0.40696E-01
  rms(prec ) = 0.47410E-01
  weight for this iteration     100.00

 eigenvalues of (default mixing * dielectric matrix)
  average eigenvalue GAMMA=   0.7604
  2.3018  1.8127  1.8127  1.1949  1.1949  0.6753  0.6753  0.5753  0.4213  0.4213
  0.3145  0.3145  0.2861  0.2093  0.2292  0.2292  0.2586

 Free energy of the ion-electron system (eV)
  ---------------------------------------------------
  alpha Z        PSCENC =       805.88245457
  Ewald energy   TEWEN  =    199691.75951167
  -Hartree energ DENC   =   -241859.96420519
  -exchange      EXHF   =         0.00000000
  -V(xc)+E(xc)   XCENC  =      -343.78472926
  PAW double counting   =     49271.21636373   -47349.54825972
  entropy T*S    EENTRO =        -0.25765369
  eigenvalues    EBANDS =     -2064.68594832
  atomic energy  EATOM  =     41659.78587232
  Solvation  Ediel_sol  =         0.00000000
  ---------------------------------------------------
  free energy    TOTEN  =      -189.59659390 eV

  energy without entropy =     -189.33894020  energy(sigma->0) =     -189.46776705


--------------------------------------------------------------------------------------------------------




----------------------------------------- Iteration    1(  23)  ---------------------------------------


    POTLOK:  cpu time    0.0502: real time    0.0502
    SETDIJ:  cpu time    0.0060: real time    0.0060
    EDDIAG:  cpu time    1.6747: real time    1.6754
  RMM-DIIS:  cpu time    4.5678: real time    4.5701
    ORTHCH:  cpu time    0.4119: real time    0.4119
       DOS:  cpu time    0.0017: real time    0.0017
    CHARGE:  cpu time    0.3082: real time    0.3084
    MIXING:  cpu time    0.0044: real time    0.0044
    --------------------------------------------
      LOOP:  cpu time    7.0257: real time    7.0301

 eigenvalue-minimisations  :  3679
 total energy-change (2. order) : 0.1417800E-02  (-0.2058249E-03)
 number of electron     503.9998362 magnetization 
 augmentation part      197.0333520 magnetization 

 DIPCOR: dipole corrections for dipol
 direction  3 min pos     1,
 dipolmoment           0.000000      0.000000      0.038219 electrons x Angstroem
 Tr[quadrupol]    -10352.051361

 energy correction for charged system         0.000000 eV
 dipol+quadrupol energy correction           -0.000051 eV
[...]
    285       3.0964      0.00000
    286       3.2429      0.00000
    287       3.5638      0.00000
    288       3.6015      0.00000
    289       3.7482      0.00000
    290       3.9652      0.00000
    291       4.1049      0.00000
    292       4.2197      0.00000
    293       4.5012      0.00000
    294       4.5642      0.00000
    295       4.5959      0.00000
    296       4.6112      0.00000
    297       4.6413      0.00000
    298       4.8098      0.00000
    299       4.8700      0.00000
    300       4.9164      0.00000
    301       4.9486      0.00000
    302       5.0303      0.00000
    303       5.0627      0.00000
    304       5.0828      0.00000
    305       5.1943      0.00000
    306       5.2545      0.00000


--------------------------------------------------------------------------------------------------------


 soft charge-density along one line, spin component           1
         0         1         2         3         4         5         6         7         8         9
 total charge-density along one line
 
 pseudopotential strength for first ion, spin component:           1
 -7.997  -0.002  -0.002  -0.000   0.000  -8.145  -0.002  -0.002
 -0.002  -7.919  -0.000   0.001  -0.004  -0.002  -8.068  -0.000
 -0.002  -0.000  -7.915  -0.001   0.001  -0.002  -0.000  -8.065
 -0.000   0.001  -0.001  -7.920   0.002  -0.000   0.001  -0.001
  0.000  -0.004   0.001   0.002  -7.995   0.000  -0.004   0.001
 -8.145  -0.002  -0.002  -0.000   0.000  -8.277  -0.002  -0.002
 -0.002  -8.068  -0.000   0.001  -0.004  -0.002  -8.201  -0.000
 -0.002  -0.000  -8.065  -0.001   0.001  -0.002  -0.000  -8.198
 -0.000   0.001  -0.001  -8.069   0.002  -0.000   0.001  -0.001
  0.000  -0.004   0.001   0.002  -8.143   0.000  -0.004   0.001
 -0.001  -0.001  -0.025  -0.000   0.001  -0.001  -0.001  -0.024
 -0.002  -0.001  -0.036  -0.000   0.001  -0.002  -0.001  -0.035
 -0.001   0.004   0.001  -0.000   0.001  -0.001   0.003   0.001
 -0.000  -0.001   0.006  -0.002   0.000  -0.000  -0.001   0.006
 -0.002  -0.000   0.001   0.004  -0.002  -0.002  -0.000   0.001
 -0.001   0.003   0.001  -0.000   0.001  -0.001   0.003   0.001
 -0.000  -0.001   0.006  -0.002   0.000  -0.000  -0.001   0.006
 -0.002  -0.000   0.001   0.004  -0.003  -0.002  -0.000   0.001
 total augmentation occupancy for first ion, spin component:           1
  4.060  -0.049   0.099   0.024   0.139  -2.269   0.027  -0.105  -0.043  -0.130   0.085  -0.042  -0.061   0.007   0.037   0.001
 -0.049   4.113  -0.086   0.031   0.038   0.028  -1.839   0.069  -0.027  -0.075   0.057  -0.020   0.176  -0.019   0.009  -0.005
  0.099  -0.086   4.228   0.049  -0.074  -0.105   0.069  -2.131  -0.058   0.073   0.958  -0.092  -0.024   0.202   0.000   0.002
  0.024   0.031   0.049   4.039   0.041  -0.042  -0.027  -0.058  -1.772  -0.008   0.001   0.023   0.008   0.012   0.158  -0.000
  0.139   0.038  -0.074   0.041   4.309  -0.130  -0.076   0.072  -0.007  -2.474  -0.044   0.018   0.014  -0.011   0.072   0.001
 -2.269   0.028  -0.105  -0.042  -0.130   2.356  -0.011   0.107   0.055   0.122  -0.077   0.040   0.054  -0.007  -0.030  -0.002
  0.027  -1.839   0.069  -0.027  -0.076  -0.011   1.540  -0.056   0.023   0.103  -0.052   0.020  -0.165   0.017  -0.008   0.006
 -0.105   0.069  -2.131  -0.058   0.072   0.107  -0.056   1.977   0.063  -0.070  -0.903   0.115   0.019  -0.207  -0.001  -0.001
 -0.043  -0.027  -0.058  -1.772  -0.007   0.055   0.023   0.063   1.479  -0.019  -0.005  -0.018  -0.007  -0.009  -0.149   0.000
 -0.130  -0.075   0.073  -0.008  -2.474   0.122   0.103  -0.070  -0.019   2.528   0.038  -0.017  -0.013   0.010  -0.060  -0.000
  0.085   0.057   0.958   0.001  -0.044  -0.077  -0.052  -0.903  -0.005   0.038   2.367  -0.477  -0.006  -0.118  -0.002   0.000
 -0.042  -0.020  -0.092   0.023   0.018   0.040   0.020   0.115  -0.018  -0.017  -0.477   0.140   0.009   0.056   0.008  -0.000
 -0.061   0.176  -0.024   0.008   0.014   0.054  -0.165   0.019  -0.007  -0.013  -0.006   0.009   0.180  -0.003  -0.004  -0.005
  0.007  -0.019   0.202   0.012  -0.011  -0.007   0.017  -0.207  -0.009   0.010  -0.118   0.056  -0.003   0.086  -0.002   0.000
  0.037   0.009   0.000   0.158   0.072  -0.030  -0.008  -0.001  -0.149  -0.060  -0.002   0.008  -0.004  -0.002   0.183   0.000
  0.001  -0.005   0.002  -0.000   0.001  -0.002   0.006  -0.001   0.000  -0.000   0.000  -0.000  -0.005   0.000   0.000   0.000
 -0.000  -0.001  -0.000  -0.003   0.000   0.000  -0.000   0.006   0.001  -0.000   0.008  -0.003   0.000  -0.003  -0.000  -0.000
 -0.003  -0.000   0.001  -0.004  -0.005   0.002   0.000   0.000   0.006   0.003   0.000  -0.000   0.000  -0.000  -0.006  -0.000


------------------------ aborting loop because EDIFF is reached ----------------------------------------


    CHARGE:  cpu time    0.3023: real time    0.3023
    FORLOC:  cpu time    0.0189: real time    0.0189
    FORNL :  cpu time    1.6145: real time    1.6152
    FORCOR:  cpu time    0.0689: real time    0.0701
    FORHAR:  cpu time    0.0289: real time    0.0289
    MIXING:  cpu time    0.0038: real time    0.0038
    OFIELD:  cpu time    0.0000: real time    0.0000

 VOLUME and BASIS-vectors are now :
 -----------------------------------------------------------------------------
  energy-cutoff  :      400.00
  volume of cell :     2567.68
      direct lattice vectors                 reciprocal lattice vectors
    11.002581515  0.000000000  0.000000000     0.090887761 -0.052474073  0.000000000
     5.501290758  9.528515099  0.000000000     0.000000000  0.104948147  0.000000000
     0.000000000  0.000000000 24.491785094     0.000000000  0.000000000  0.040830017

  length of vectors
    11.002581515 11.002581515 24.491785094     0.104948147  0.104948147  0.040830017


 FORCES acting on ions
    electron-ion (+dipol)            ewald-force                    non-local-force                 convergence-correction
 -----------------------------------------------------------------------------------------------
   -.126E+02 -.462E+01 -.229E+04   0.130E+02 0.489E+01 0.229E+04   -.359E+00 -.279E+00 0.161E-01   -.368E-02 0.258E-02 -.262E-02
   -.564E+01 0.415E+00 -.192E+01   0.627E+01 -.705E+00 0.248E+01   -.631E+00 0.284E+00 -.565E+00   -.124E-02 0.163E-02 -.339E-02
   -.551E+01 0.624E+01 0.222E+04   0.568E+01 -.616E+01 -.222E+04   -.161E+00 -.103E+00 -.274E+00   -.719E-04 -.112E-02 -.293E-02
   -.769E+01 0.356E+01 -.225E+04   0.794E+01 -.338E+01 0.225E+04   -.249E+00 -.177E+00 0.156E+00   -.682E-03 -.160E-02 0.218E-02
   -.406E+01 0.625E+01 0.221E+04   0.377E+01 -.667E+01 -.221E+04   0.294E+00 0.434E+00 -.699E+00   0.418E-02 -.320E-02 -.244E-02
   -.961E+01 -.388E+00 0.226E+04   0.993E+01 0.768E+00 -.226E+04   -.340E+00 -.397E+00 -.113E+00   0.365E-02 -.828E-03 -.111E-02
   -.154E+01 0.116E+02 -.252E+02   0.734E+00 -.114E+02 0.252E+02   0.791E+00 -.267E+00 -.146E-01   -.711E-02 -.979E-03 -.403E-02
   0.107E+02 -.104E+02 0.227E+04   -.112E+02 0.112E+02 -.227E+04   0.478E+00 -.808E+00 0.301E-01   -.232E-02 -.596E-03 -.914E-03
   -.665E+00 0.948E+01 0.154E+02   0.152E+01 -.981E+01 -.143E+02   -.832E+00 0.322E+00 -.109E+01   -.191E-02 -.117E-02 -.319E-02
   -.861E+01 -.104E+01 -.310E+02   0.820E+01 0.132E+01 0.304E+02   0.419E+00 -.281E+00 0.623E+00   -.420E-02 0.648E-02 -.506E-02
   0.125E+02 -.990E+01 0.226E+04   -.131E+02 0.104E+02 -.226E+04   0.509E+00 -.514E+00 0.168E+00   -.463E-03 0.154E-02 -.120E-02
   -.158E+01 -.325E+01 -.124E+02   0.120E+01 0.321E+01 0.125E+02   0.388E+00 0.512E-01 -.626E-01   0.150E-02 0.408E-02 -.527E-02
   0.166E+01 0.563E+01 -.226E+04   -.240E+01 -.592E+01 0.226E+04   0.734E+00 0.290E+00 0.289E+00   0.485E-02 0.170E-02 0.150E-02
   -.763E+01 0.136E+02 0.222E+04   0.807E+01 -.145E+02 -.222E+04   -.447E+00 0.920E+00 -.385E+00   -.504E-03 -.519E-02 -.502E-03
   0.162E+02 -.140E+00 0.228E+04   -.172E+02 -.133E+00 -.228E+04   0.100E+01 0.259E+00 0.145E+00   0.143E-02 0.102E-02 -.158E-02
   0.735E+01 -.446E+01 -.228E+04   -.752E+01 0.453E+01 0.228E+04   0.139E+00 -.652E-01 0.710E-01   0.263E-02 0.419E-02 -.762E-02
   0.842E+01 -.375E+01 -.224E+04   -.819E+01 0.368E+01 0.224E+04   -.246E+00 0.370E-01 0.633E+00   0.859E-02 0.624E-03 -.361E-02
   -.127E+02 0.521E+01 0.222E+04   0.135E+02 -.583E+01 -.222E+04   -.760E+00 0.610E+00 -.604E+00   -.587E-03 -.213E-02 -.573E-02
   0.398E+01 0.211E+01 -.227E+04   -.357E+01 -.180E+01 0.227E+04   -.407E+00 -.291E+00 0.180E+00   0.128E-02 0.178E-02 -.112E-02
   0.558E+01 0.572E+01 -.227E+04   -.577E+01 -.662E+01 0.227E+04   0.186E+00 0.894E+00 0.256E+00   -.445E-02 -.333E-02 0.572E-03
   -.165E+02 0.229E+01 0.221E+04   0.175E+02 -.216E+01 -.221E+04   -.981E+00 -.126E+00 -.577E+00   0.176E-02 0.419E-02 -.481E-02
   0.604E+01 -.431E+01 -.221E+04   -.626E+01 0.477E+01 0.221E+04   0.206E+00 -.477E+00 0.742E+00   -.142E-02 -.290E-02 0.352E-02
   0.626E+01 -.484E+01 -.328E+02   -.624E+01 0.525E+01 0.323E+02   -.362E-01 -.392E+00 0.559E+00   -.229E-02 -.264E-02 -.414E-02
   -.484E+01 0.133E+01 0.219E+04   0.484E+01 -.146E+01 -.219E+04   0.240E-01 0.138E+00 -.691E+00   -.529E-03 0.110E-02 -.302E-02
   0.258E+01 -.192E+01 -.763E+01   -.221E+01 0.182E+01 0.808E+01   -.385E+00 0.922E-01 -.467E+00   0.355E-02 -.490E-02 -.268E-02
   -.938E+01 -.616E+01 -.197E+04   0.971E+01 0.653E+01 0.197E+04   -.338E+00 -.368E+00 0.184E+01   -.255E-02 -.524E-03 -.863E-03
   0.353E+00 -.328E+01 -.169E+01   -.133E+00 0.304E+01 0.211E+01   -.205E+00 0.240E+00 -.428E+00   -.298E-02 -.164E-02 -.268E-02
   -.789E+00 0.295E+00 -.195E+04   0.109E+01 -.635E+00 0.195E+04   -.290E+00 0.366E+00 0.197E+01   0.538E-03 -.403E-02 0.917E-03
   0.784E+00 0.587E+01 0.164E+02   -.651E+00 -.588E+01 -.154E+02   -.117E+00 0.779E-02 -.918E+00   0.761E-03 0.350E-02 -.534E-02
   0.625E+01 0.377E+01 -.253E+01   -.548E+01 -.402E+01 0.298E+01   -.780E+00 0.260E+00 -.461E+00   -.338E-02 0.207E-02 -.444E-02
   -.127E+02 0.801E+01 0.194E+04   0.131E+02 -.816E+01 -.194E+04   -.422E+00 0.139E+00 -.194E+01   0.241E-02 0.138E-02 0.203E-02
   0.308E+00 -.114E+01 0.198E+04   -.247E+00 0.135E+01 -.198E+04   -.689E-01 -.202E+00 -.149E+01   -.288E-02 -.236E-02 -.147E-02
   -.104E+02 -.510E+01 0.473E+00   0.106E+02 0.463E+01 -.578E-01   -.177E+00 0.446E+00 -.412E+00   0.730E-03 0.653E-03 -.491E-02
   -.143E+01 -.207E+01 -.423E+01   0.174E+01 0.184E+01 0.464E+01   -.315E+00 0.235E+00 -.389E+00   0.728E-02 -.176E-02 -.686E-02
   -.107E+01 0.940E+01 -.199E+04   0.858E+00 -.960E+01 0.199E+04   0.208E+00 0.189E+00 0.129E+01   0.871E-03 0.290E-02 -.100E-02
   -.641E+01 0.116E+02 -.200E+04   0.671E+01 -.118E+02 0.200E+04   -.293E+00 0.247E+00 0.151E+01   -.145E-02 0.141E-02 -.231E-03
   -.118E+02 0.564E+00 -.202E+04   0.120E+02 -.560E+00 0.202E+04   -.166E+00 0.173E-03 0.140E+01   -.533E-02 -.149E-02 -.136E-02
   0.993E+01 -.899E+01 0.197E+04   -.101E+02 0.922E+01 -.197E+04   0.212E+00 -.226E+00 -.131E+01   -.559E-03 -.908E-03 -.289E-02
   0.369E+01 -.172E+01 -.376E+02   -.401E+01 0.186E+01 0.371E+02   0.318E+00 -.128E+00 0.518E+00   0.112E-02 -.308E-02 -.384E-02
   0.125E+02 -.385E+01 0.197E+04   -.128E+02 0.387E+01 -.196E+04   0.367E+00 -.116E-01 -.160E+01   -.348E-02 0.174E-02 0.288E-02
   0.398E-01 0.373E+01 -.424E+02   -.589E+00 -.317E+01 0.419E+02   0.527E+00 -.579E+00 0.524E+00   0.670E-02 0.680E-02 -.548E-02
   0.972E+01 -.963E+01 0.197E+04   -.101E+02 0.996E+01 -.197E+04   0.374E+00 -.324E+00 -.149E+01   -.542E-03 0.434E-02 0.697E-03
   0.647E+01 -.366E+01 -.262E+02   -.680E+01 0.385E+01 0.256E+02   0.324E+00 -.194E+00 0.544E+00   0.285E-02 -.209E-03 -.302E-02
   0.242E+01 -.341E-01 0.197E+04   -.244E+01 -.117E+00 -.197E+04   0.120E-01 0.152E+00 -.163E+01   -.212E-03 0.460E-03 -.327E-02
   0.241E+00 -.119E+02 -.199E+04   -.356E+00 0.123E+02 0.199E+04   0.129E+00 -.367E+00 0.164E+01   -.299E-02 -.982E-03 -.358E-02
   0.229E+01 -.528E+01 -.171E+01   -.288E+01 0.539E+01 0.218E+01   0.595E+00 -.123E+00 -.461E+00   -.226E-02 -.808E-02 -.122E-02
   0.297E+01 0.343E+01 -.199E+04   -.317E+01 -.368E+01 0.198E+04   0.197E+00 0.263E+00 0.181E+01   0.508E-03 -.784E-03 -.172E-02
   0.142E+02 -.834E+01 -.197E+04   -.146E+02 0.847E+01 0.197E+04   0.399E+00 -.118E+00 0.199E+01   0.323E-02 -.289E-03 -.233E-02
 -----------------------------------------------------------------------------------------------
   0.145E+00 -.869E-01 -.727E+00   -.803E-12 0.668E-12 -.114E-11   -.175E+00 0.582E-01 0.832E+00   0.358E-03 -.564E-03 -.109E+00
 
 
 POSITION                                       TOTAL-FORCE (eV/Angst)
 -----------------------------------------------------------------------------------
      6.89870      7.16328     14.80762         0.010908     -0.004572     -0.003344
      6.90362      3.95981     12.25064        -0.001476     -0.003970     -0.002910
      8.24566      3.17003      9.74196         0.004006     -0.022011     -0.009243
      8.26385      4.76790     14.74608         0.002932     -0.004393     -0.022457
      6.86772      0.78209      9.77850         0.009842      0.013466     -0.002905
     11.01823      7.95205      9.70860        -0.014568     -0.016985     -0.007301
      6.86052      8.74193     12.26611        -0.017368     -0.008145     -0.001628
      8.22729      7.97233      9.70173         0.002390     -0.010512     -0.005837
      9.65512      8.72030     12.22896         0.021511     -0.003503      0.013314
      5.48871      6.36609     12.26770         0.004065     -0.000768      0.004331
      6.84594      5.57427      9.68841        -0.006063      0.021060      0.009292
      4.11602      3.97217     12.25333         0.003574      0.021966      0.005711
      6.85571      2.36216     14.74660        -0.005455     -0.004858     -0.024423
      9.64395      0.75751      9.78290        -0.002636      0.006495      0.017010
      5.45603      3.17489      9.67534        -0.001106     -0.011760      0.007106
      4.12861      7.14865     14.80171        -0.030509      0.002953      0.000901
      8.24702     -0.00259     14.72479        -0.009696     -0.030656     -0.011994
     11.02505      3.16189      9.78055         0.001261     -0.005076      0.007050
      2.76583      4.75808     14.77253         0.005211      0.012756      0.006136
      1.37023      2.35201     14.75957        -0.012304     -0.010260     -0.002510
     12.41754      5.55924      9.80034         0.004461      0.011464      0.004642
     11.00591      4.78002     14.68890        -0.014046     -0.014286     -0.009820
      2.74380      1.59788     12.26869        -0.016692      0.009468     -0.004123
      9.62616      5.56593      9.77962         0.014363      0.015397     -0.020682
      8.25864      1.57568     12.24888        -0.003984     -0.009133     -0.011515
      9.64107      7.16134     14.59640        -0.008903     -0.001478     -0.014013
      9.63676      3.97146     12.23956         0.013355     -0.000748     -0.006320
      9.62873      2.36969     14.58851         0.016278      0.022231      0.002526
     11.01302      6.34810     12.22095         0.017183     -0.002260      0.012015
      8.27244      6.34215     12.24521        -0.011256      0.009977     -0.014052
     13.77247      7.93170      9.92083        -0.004541     -0.004046     -0.006897
      1.38159      0.79969      9.87234        -0.009946      0.001972      0.006296
      5.53183      1.58414     12.23856         0.017202     -0.017363     -0.001635
     12.39242      8.73987     12.24146         0.001375      0.002662      0.013357
      5.50930      4.75703     14.65646        -0.002988     -0.000319      0.016830
      4.13495      2.36424     14.63914         0.004382     -0.008399      0.012618
      2.76939     -0.00455     14.65068         0.004525      0.003256      0.011878
      4.10889      0.80394      9.86863        -0.003513      0.008108     -0.031574
     15.10234      8.74881     12.27750         0.005773      0.009144      0.010980
      5.48726      7.93764      9.88930        -0.004142      0.007427      0.005591
     13.72612      6.37180     12.28251        -0.015661     -0.007676      0.023576
      4.11684      5.57138      9.88016        -0.013595      0.006043      0.013237
     12.35789      3.98263     12.26097        -0.002740      0.004222     -0.001071
      2.74697      3.16636      9.88428        -0.003021      0.002938     -0.005423
      0.00213      0.00424     14.63782         0.011023      0.006260      0.022053
     10.96977      1.60822     12.23780         0.007220     -0.013832      0.013896
      5.48386     -0.02011     14.60458        -0.000651      0.009038     -0.015451
     12.36330      7.15401     14.59911         0.034019      0.008705     -0.003219
 -----------------------------------------------------------------------------------
    total drift:                               -0.030383     -0.029317     -0.003731


--------------------------------------------------------------------------------------------------------



  FREE ENERGIE OF THE ION-ELECTRON SYSTEM (eV)
  ---------------------------------------------------
  free  energy   TOTEN  =      -192.96203124 eV

  energy  without entropy=     -192.71789419  energy(sigma->0) =     -192.83996271
 
 d Force = 0.6544216E-03[ 0.313E-03, 0.996E-03]  d Energy = 0.6871361E-03-0.327E-04
 d Force =-0.2973191E+02[-0.296E+02,-0.298E+02]  d Ewald  =-0.2973192E+02 0.795E-05


--------------------------------------------------------------------------------------------------------


    POTLOK:  cpu time    0.0579: real time    0.0579


--------------------------------------------------------------------------------------------------------


 stress matrix after NEB project (eV)
      0.00000      0.00000      0.00000
      0.00000      0.00000      0.00000
      0.00000      0.00000      0.00000
  FORCES: max atom, RMS     0.035262    0.020267
  FORCE total and by dimension    0.140411    0.034019
  Stress total and by dimension    0.000000    0.000000


--------------------------------------------------------------------------------------------------------


    WAVPRE:  cpu time    0.0215: real time    0.0216
 FEWALD executed in parallel
    FEWALD:  cpu time    0.0012: real time    0.0012

 real space projection operators:
  total allocation   :      12837.09 KBytes
  max/ min on nodes  :       2143.97       2133.42

    ORTHCH:  cpu time    0.9176: real time    0.9288
     LOOP+:  cpu time   85.2993: real time   86.3750


----------------------------------------- Iteration   19(   1)  ---------------------------------------


    POTLOK:  cpu time    0.0511: real time    0.0511
    SETDIJ:  cpu time    0.0060: real time    0.0060
     EDDAV:  cpu time    9.6598: real time    9.7277
       DOS:  cpu time    0.0017: real time    0.0017
    CHARGE:  cpu time    0.2999: real time    0.3000
    MIXING:  cpu time    0.0017: real time    0.0017
    --------------------------------------------
      LOOP:  cpu time   10.0225: real time   10.0932

 eigenvalue-minimisations  :  3696
 total energy-change (2. order) : 0.3572808E-03  (-0.4614075E-01)
 number of electron     503.9999298 magnetization 
 augmentation part      197.2726760 magnetization 

 DIPCOR: dipole corrections for dipol
 direction  3 min pos     1,
 dipolmoment           0.000000      0.000000      0.013307 electrons x Angstroem
 Tr[quadrupol]    -10322.864376

 energy correction for charged system         0.000000 eV
 dipol+quadrupol energy correction           -0.000006 eV
 added-field ion interaction          0.004579 eV  (added to PSCEN)


  free energy =  -0.192961674257E+03  energy without entropy=  -0.192717388902E+03


--------------------------------------------------------------------------------------------------------




----------------------------------------- Iteration   19(   2)  ---------------------------------------


    POTLOK:  cpu time    0.0508: real time    0.0509
    SETDIJ:  cpu time    0.0062: real time    0.0063
    EDDIAG:  cpu time    1.6520: real time    1.6531
