unknown system                          
           1
    11.002582    0.000000    0.000000
     5.501291    9.528515    0.000000
     0.000000    0.000000   24.491785
   Au   Pd
  24  24
Direct configuration=     1
   0.25000000  0.75000000  0.59169983
   0.41666667  0.41666667  0.50000000
   0.58333333  0.33333333  0.40830017
   0.50000000  0.50000000  0.59169983
   0.58333333  0.08333333  0.40830017
   0.58333333  0.83333333  0.40830017
   0.16666667  0.91666667  0.50000000
   0.33333333  0.83333333  0.40830017
   0.41666667  0.91666667  0.50000000
   0.16666667  0.66666667  0.50000000
   0.33333333  0.58333333  0.40830017
   0.16666667  0.41666667  0.50000000
   0.50000000  0.25000000  0.59169983
   0.83333333  0.08333333  0.40830017
   0.33333333  0.33333333  0.40830017
   0.00000000  0.75000000  0.59169983
   0.75000000  0.00000000  0.59169983
   0.83333333  0.33333333  0.40830017
   0.00000000  0.50000000  0.59169983
   0.00000000  0.25000000  0.59169983
   0.83333333  0.58333333  0.40830017
   0.75000000  0.50000000  0.59169983
   0.16666667  0.16666667  0.50000000
   0.58333333  0.58333333  0.40830017
   0.66666667  0.16666667  0.50000000
   0.50000000  0.75000000  0.59169983
   0.66666667  0.41666667  0.50000000
   0.75000000  0.25000000  0.59169983
   0.66666667  0.66666667  0.50000000
   0.41666667  0.66666667  0.50000000
   0.83333333  0.83333333  0.40830017
   0.08333333  0.08333333  0.40830017
   0.41666667  0.16666667  0.50000000
   0.66666667  0.91666667  0.50000000
   0.25000000  0.50000000  0.59169983
   0.25000000  0.25000000  0.59169983
   0.25000000  0.00000000  0.59169983
   0.33333333  0.08333333  0.40830017
   0.91666667  0.91666667  0.50000000
   0.08333333  0.83333333  0.40830017
   0.91666667  0.66666667  0.50000000
   0.08333333  0.58333333  0.40830017
   0.91666667  0.41666667  0.50000000
   0.08333333  0.33333333  0.40830017
   0.00000000  0.00000000  0.59169983
   0.91666667  0.16666667  0.50000000
   0.50000000  0.00000000  0.59169983
   0.75000000  0.75000000  0.59169983
Direct configuration=     2
   0.25046980  0.75056664  0.59389971
   0.41767711  0.41608997  0.50046635
   0.58390130  0.33296862  0.40639156
   0.50035514  0.50036146  0.59355565
   0.58339931  0.08249044  0.40672832
   0.58387305  0.83388087  0.40644902
   0.16482490  0.91780224  0.50001967
   0.33213946  0.83423788  0.40609438
   0.41806565  0.91658639  0.50079527
   0.16523937  0.66734121  0.49961740
   0.33208315  0.58437990  0.40606873
   0.16584036  0.41648653  0.49996528
   0.49962651  0.24928690  0.59349995
   0.83474679  0.08185776  0.40678492
   0.33216500  0.33274277  0.40609208
  -0.00061169  0.75031051  0.59364284
   0.75006491 -0.00007432  0.59317310
   0.83479054  0.33257983  0.40673987
   0.00016583  0.50030388  0.59361243
   0.00020022  0.24880253  0.59356924
   0.83472983  0.58343223  0.40681575
   0.74926603  0.50081321  0.59316518
   0.16661174  0.16710231  0.49972059
   0.58344337  0.58336567  0.40669716
   0.66758911  0.16606006  0.50029900
   0.50024686  0.75057380  0.59261242
   0.66743544  0.41622186  0.50027789
   0.75069007  0.24940233  0.59245817
   0.66693343  0.66679507  0.50052312
   0.41813278  0.66639448  0.50028874
   0.83405507  0.83302848  0.40759007
   0.08326844  0.08366473  0.40715830
   0.41744208  0.16547943  0.50028311
   0.66735942  0.91625756  0.50025351
   0.25007486  0.49949491  0.59317304
   0.25077983  0.24940175  0.59293528
   0.25050568 -0.00002338  0.59305641
   0.33258593  0.08397379  0.40709741
   0.91595485  0.91700258  0.49968057
   0.08244450  0.83354992  0.40715524
   0.91509200  0.66785760  0.49971883
   0.08233825  0.58404895  0.40713072
   0.91614553  0.41693603  0.49970590
   0.08336078  0.33298955  0.40718537
  -0.00028033  0.00060766  0.59272857
   0.91569912  0.16673436  0.50019616
   0.49979217 -0.00053487  0.59252315
   0.74928645  0.75036791  0.59240458
Direct configuration=     3
   0.25187919  0.75226658  0.60049934
   0.42070846  0.41435989  0.50186540
   0.58560518  0.33187450  0.40066572
   0.50142055  0.50144585  0.59912311
   0.58359723  0.07996175  0.40201278
   0.58549219  0.83552348  0.40089557
   0.15929961  0.92120897  0.50007866
   0.32855782  0.83695152  0.39947701
   0.42226261  0.91634555  0.50318106
   0.16095747  0.66936483  0.49846961
   0.32833260  0.58751960  0.39937440
   0.16336144  0.41594614  0.49986114
   0.49850606  0.24714760  0.59890030
   0.83898715  0.07743105  0.40223919
   0.32866001  0.33097109  0.39946780
  -0.00244677  0.75124206  0.59947186
   0.75025966 -0.00029728  0.59759290
   0.83916215  0.33031931  0.40205896
   0.00066334  0.50121553  0.59935022
   0.00080089  0.24521010  0.59917745
   0.83891933  0.58372893  0.40236248
   0.74706412  0.50325286  0.59756122
   0.16644695  0.16840923  0.49888238
   0.58377346  0.58346267  0.40188813
   0.67035642  0.16424025  0.50119602
   0.50098743  0.75229520  0.59535020
   0.66974175  0.41488744  0.50111158
   0.75276030  0.24760934  0.59473318
   0.66773371  0.66718027  0.50209249
   0.42253110  0.66557793  0.50115497
   0.83622028  0.83211391  0.40545977
   0.08307378  0.08465891  0.40373269
   0.41976831  0.16191771  0.50113242
   0.66943768  0.91503024  0.50101404
   0.25029942  0.49797963  0.59759266
   0.25311932  0.24760699  0.59664161
   0.25202274 -0.00009352  0.59712616
   0.33034373  0.08589517  0.40348911
   0.91381942  0.91801032  0.49872230
   0.07977800  0.83419966  0.40372045
   0.91036799  0.67143041  0.49887532
   0.07935299  0.58619579  0.40362239
   0.91458213  0.41774412  0.49882360
   0.08344313  0.33195819  0.40384099
  -0.00112133  0.00243064  0.59581478
   0.91279649  0.16693744  0.50078465
   0.49916870 -0.00213947  0.59499310
   0.74714582  0.75147163  0.59451883
Direct configuration=     4
   0.25200133  0.75241390  0.60107130
   0.42097117  0.41420995  0.50198665
   0.58575285  0.33177967  0.40016949
   0.50151288  0.50153982  0.59960562
   0.58361439  0.07974260  0.40160411
   0.58563251  0.83566584  0.40041428
   0.15882076  0.92150422  0.50008378
   0.32824742  0.83718669  0.39890351
   0.42262634  0.91632468  0.50338783
   0.16058638  0.66954021  0.49837013
   0.32800756  0.58779171  0.39879423
   0.16314661  0.41589930  0.49985211
   0.49840896  0.24696220  0.59936832
   0.83935464  0.07704741  0.40184523
   0.32835624  0.33081754  0.39889371
  -0.00260581  0.75132279  0.59997704
   0.75027653 -0.00031660  0.59797595
   0.83954101  0.33012341  0.40165328
   0.00070645  0.50129454  0.59984749
   0.00085295  0.24489876  0.59966349
   0.83928242  0.58375465  0.40197653
   0.74687329  0.50346429  0.59794220
   0.16643267  0.16852250  0.49880973
   0.58380207  0.58347107  0.40147135
   0.67059625  0.16408254  0.50127376
   0.50105161  0.75244439  0.59558747
   0.66994163  0.41477180  0.50118383
   0.75293971  0.24745395  0.59493034
   0.66780307  0.66721365  0.50222850
   0.42291229  0.66550716  0.50123005
   0.83640793  0.83203465  0.40527515
   0.08305691  0.08474507  0.40343581
   0.41996991  0.16160903  0.50120603
   0.66961780  0.91492387  0.50107995
   0.25031889  0.49784831  0.59797569
   0.25332207  0.24745144  0.59696282
   0.25215421 -0.00009960  0.59747887
   0.33014941  0.08606169  0.40317640
   0.91363435  0.91809766  0.49863925
   0.07954690  0.83425597  0.40342278
   0.90995858  0.67174005  0.49880222
   0.07909428  0.58638184  0.40331834
   0.91444664  0.41781415  0.49874713
   0.08345027  0.33186880  0.40355114
  -0.00119421  0.00258863  0.59608225
   0.91254493  0.16695504  0.50083565
   0.49911467 -0.00227853  0.59520716
   0.74696030  0.75156728  0.59470206
Direct configuration=     5
   0.25094816  0.75233945  0.60200429
   0.41984473  0.41472143  0.50148468
   0.58483007  0.33154595  0.39945481
   0.50088091  0.50077319  0.60094702
   0.58369025  0.08161636  0.40088484
   0.58460904  0.83423438  0.39954554
   0.16230100  0.91950249  0.50016979
   0.32904435  0.83760172  0.39816142
   0.42016925  0.91543100  0.50186298
   0.16310869  0.66807237  0.49902750
   0.32873831  0.58599647  0.39784359
   0.16428405  0.41721579  0.50003302
   0.49928592  0.24711779  0.60067181
   0.83750296  0.07898815  0.40065276
   0.32935592  0.33243651  0.39791190
  -0.00120602  0.75116458  0.60096634
   0.75006505 -0.00035644  0.59919902
   0.83799307  0.33082244  0.40066257
   0.00038317  0.50018485  0.60081104
   0.00134776  0.24663487  0.60062837
   0.83727714  0.58363759  0.40084474
   0.74920953  0.50199381  0.59909674
   0.16594540  0.16726473  0.49937278
   0.58418654  0.58405588  0.40086044
   0.66912364  0.16439522  0.50080704
   0.50041612  0.75234532  0.59695973
   0.66966593  0.41509178  0.50071869
   0.75141567  0.24845539  0.59584701
   0.66860230  0.66596299  0.50117832
   0.42071916  0.66624006  0.50079041
   0.83568287  0.83259934  0.40434330
   0.08373494  0.08403660  0.40269314
   0.42065309  0.16377331  0.50068627
   0.66959734  0.91615918  0.50070091
   0.25025150  0.49898230  0.59837937
   0.25181449  0.24766226  0.59759647
   0.25155134  0.00030930  0.59815487
   0.33080354  0.08420023  0.40265100
   0.91276593  0.91824757  0.49929430
   0.08093939  0.83365013  0.40246190
   0.91072368  0.67040125  0.49948152
   0.08107353  0.58518867  0.40246027
   0.91367092  0.41810349  0.49928679
   0.08346078  0.33226846  0.40258239
  -0.00031483  0.00077205  0.59691514
   0.91231696  0.16847648  0.50045449
   0.49978282 -0.00186205  0.59677400
   0.74775363  0.75154531  0.59568469
Direct configuration=     6
   0.25049908  0.75230771  0.60240212
   0.41936441  0.41493952  0.50127063
   0.58443659  0.33144630  0.39915006
   0.50061143  0.50044630  0.60151900
   0.58372260  0.08241535  0.40057815
   0.58417263  0.83362401  0.39917510
   0.16378500  0.91864894  0.50020646
   0.32938417  0.83777868  0.39784499
   0.41912154  0.91504993  0.50121277
   0.16418422  0.66744648  0.49930781
   0.32904991  0.58523097  0.39743823
   0.16476906  0.41777714  0.50011016
   0.49965986  0.24718414  0.60122762
   0.83671339  0.07981570  0.40014428
   0.32978219  0.33312684  0.39749326
  -0.00060914  0.75109711  0.60138818
   0.74997487 -0.00037342  0.59972054
   0.83733302  0.33112050  0.40024012
   0.00024532  0.49971167  0.60122191
   0.00155875  0.24737516  0.60103980
   0.83642208  0.58358768  0.40036214
   0.75020572  0.50136679  0.59958904
   0.16573762  0.16672841  0.49961287
   0.58435049  0.58430524  0.40059995
   0.66849571  0.16452855  0.50060803
   0.50014515  0.75230308  0.59754486
   0.66954837  0.41522823  0.50052035
   0.75076581  0.24888241  0.59623788
   0.66894309  0.66542970  0.50073052
   0.41978400  0.66655258  0.50060295
   0.83537370  0.83284012  0.40394596
   0.08402406  0.08373451  0.40237646
   0.42094440  0.16469617  0.50046464
   0.66958861  0.91668592  0.50053929
   0.25022276  0.49946583  0.59855150
   0.25117166  0.24775215  0.59786667
   0.25129427  0.00048366  0.59844312
   0.33108246  0.08340649  0.40242697
   0.91239564  0.91831150  0.49957362
   0.08153315  0.83339179  0.40205218
   0.91104992  0.66983038  0.49977118
   0.08191749  0.58467990  0.40209438
   0.91334015  0.41822686  0.49951691
   0.08346526  0.33243887  0.40216931
   0.00006014 -0.00000254  0.59727029
   0.91221976  0.16912522  0.50029197
   0.50006772 -0.00168446  0.59744211
   0.74809190  0.75153593  0.59610369
Direct configuration=     7
   0.25061054  0.75203818  0.60274886
   0.41966960  0.41539610  0.50102843
   0.58370254  0.33263357  0.39893646
   0.50062690  0.50042851  0.60188794
   0.58323826  0.08216907  0.40029029
   0.58389629  0.83429137  0.39886115
   0.16396022  0.91745147  0.50020773
   0.32987137  0.83654738  0.39752247
   0.41980032  0.91506895  0.50081184
   0.16465596  0.66801008  0.49959911
   0.33033790  0.58487001  0.39711849
   0.16487955  0.41715561  0.50010293
   0.49923778  0.24780980  0.60171050
   0.83674443  0.08014487  0.39974256
   0.33009182  0.33294812  0.39715494
  -0.00012948  0.75040201  0.60176108
   0.75013635 -0.00037183  0.60026158
   0.83661449  0.33135708  0.39984062
   0.00077178  0.49988876  0.60159210
   0.00137027  0.24717190  0.60137356
   0.83659823  0.58351032  0.39995262
   0.74982138  0.50123537  0.59997357
   0.16546345  0.16779988  0.49985843
   0.58348170  0.58387563  0.40042993
   0.66798047  0.16526353  0.50045825
   0.50023400  0.75190276  0.59774542
   0.66811966  0.41596242  0.50033033
   0.75066494  0.24908149  0.59646376
   0.66826260  0.66573654  0.50041317
   0.41925487  0.66582842  0.50045258
   0.83528249  0.83266331  0.40363497
   0.08366308  0.08371436  0.40221480
   0.42034956  0.16517791  0.50027627
   0.66816946  0.91700026  0.50032378
   0.25021063  0.49958657  0.59859612
   0.25120979  0.24802923  0.59785275
   0.25131534  0.00035283  0.59859186
   0.33165797  0.08373152  0.40244363
   0.91349411  0.91814119  0.49985308
   0.08196674  0.83336933  0.40202754
   0.91216613  0.66893052  0.50007937
   0.08173920  0.58449471  0.40197809
   0.91416600  0.41792084  0.49970208
   0.08377928  0.33251409  0.40213625
   0.00007211  0.00029301  0.59744196
   0.91266040  0.16875884  0.50014592
   0.49977918 -0.00163987  0.59767983
   0.74835033  0.75135398  0.59639106
Direct configuration=     8
   0.25062818  0.75199553  0.60280372
   0.41971789  0.41546834  0.50099011
   0.58358640  0.33282142  0.39890266
   0.50062935  0.50042569  0.60194631
   0.58316162  0.08213011  0.40024475
   0.58385257  0.83439696  0.39881148
   0.16398794  0.91726200  0.50020793
   0.32994846  0.83635256  0.39747144
   0.41990772  0.91507196  0.50074840
   0.16473060  0.66809925  0.49964520
   0.33054169  0.58481289  0.39706790
   0.16489703  0.41705727  0.50010178
   0.49917100  0.24790879  0.60178691
   0.83674935  0.08019695  0.39967900
   0.33014081  0.33291985  0.39710141
  -0.00005359  0.75029203  0.60182008
   0.75016190 -0.00037158  0.60034719
   0.83650081  0.33139451  0.39977741
   0.00085507  0.49991678  0.60165067
   0.00134045  0.24713974  0.60142636
   0.83662610  0.58349808  0.39988782
   0.74976057  0.50121457  0.60003441
   0.16542007  0.16796941  0.49989728
   0.58334424  0.58380766  0.40040303
   0.66789895  0.16537981  0.50043455
   0.50024806  0.75183942  0.59777716
   0.66789361  0.41607858  0.50030026
   0.75064898  0.24911299  0.59649950
   0.66815494  0.66578509  0.50036296
   0.41917115  0.66571384  0.50042878
   0.83526806  0.83263534  0.40358577
   0.08360597  0.08371117  0.40218923
   0.42025544  0.16525413  0.50024646
   0.66794492  0.91704999  0.50028969
   0.25020871  0.49960568  0.59860318
   0.25121582  0.24807307  0.59785055
   0.25131867  0.00033213  0.59861539
   0.33174903  0.08378295  0.40244627
   0.91366791  0.91811424  0.49989729
   0.08203534  0.83336577  0.40202364
   0.91234274  0.66878814  0.50012813
   0.08171099  0.58446541  0.40195969
   0.91429666  0.41787242  0.49973137
   0.08382896  0.33252600  0.40213102
   0.00007400  0.00033977  0.59746912
   0.91273012  0.16870088  0.50012281
   0.49973352 -0.00163281  0.59771744
   0.74839121  0.75132519  0.59643652
Direct configuration=     9
   0.25089297  0.75192324  0.60304864
   0.41954453  0.41551147  0.50094182
   0.58352138  0.33273045  0.39874524
   0.50065917  0.50052596  0.60209771
   0.58331208  0.08204866  0.40006578
   0.58398535  0.83439895  0.39855815
   0.16410644  0.91761047  0.50020754
   0.32995962  0.83615695  0.39729828
   0.41989763  0.91524919  0.50075756
   0.16457481  0.66789724  0.49968519
   0.33031557  0.58494779  0.39684942
   0.16518878  0.41708728  0.50003433
   0.49889926  0.24811571  0.60196136
   0.83669819  0.07998513  0.39955594
   0.33006354  0.33286250  0.39689055
  -0.00014181  0.75024379  0.60204931
   0.75017923 -0.00034837  0.60054690
   0.83651670  0.33160400  0.39963026
   0.00101826  0.49994012  0.60186410
   0.00109592  0.24693859  0.60159874
   0.83665652  0.58350360  0.39978240
   0.74938315  0.50142351  0.60010039
   0.16552839  0.16772209  0.49999338
   0.58331278  0.58389504  0.40028938
   0.66807130  0.16536671  0.50042037
   0.50037579  0.75168226  0.59760904
   0.66773326  0.41634955  0.50029184
   0.75076191  0.24901627  0.59644887
   0.66797713  0.66582326  0.50028512
   0.41921912  0.66560805  0.50046933
   0.83543836  0.83254765  0.40360317
   0.08368097  0.08377593  0.40225677
   0.41986520  0.16548460  0.50025035
   0.66782277  0.91698696  0.50025097
   0.25044531  0.49939163  0.59854554
   0.25150645  0.24816722  0.59779280
   0.25153921  0.00008635  0.59852346
   0.33157773  0.08409734  0.40254297
   0.91366525  0.91810444  0.50001210
   0.08201314  0.83322131  0.40215296
   0.91265476  0.66877354  0.50025437
   0.08170132  0.58461233  0.40209021
   0.91420515  0.41786846  0.49980727
   0.08387557  0.33237174  0.40224923
  -0.00001555  0.00066646  0.59749508
   0.91287285  0.16849418  0.50004989
   0.49947815 -0.00166294  0.59761259
   0.74836643  0.75119334  0.59643332
Direct configuration=    10
   0.25110974  0.75186406  0.60324914
   0.41940260  0.41554677  0.50090229
   0.58346816  0.33265598  0.39861636
   0.50068358  0.50060805  0.60222165
   0.58343525  0.08198198  0.39991927
   0.58409405  0.83440058  0.39835076
   0.16420344  0.91789576  0.50020722
   0.32996876  0.83599681  0.39715652
   0.41988937  0.91539429  0.50076506
   0.16444728  0.66773187  0.49971793
   0.33013046  0.58505822  0.39667056
   0.16542763  0.41711184  0.49997911
   0.49867679  0.24828511  0.60210419
   0.83665631  0.07981171  0.39945520
   0.33000028  0.33281555  0.39671792
  -0.00021404  0.75020430  0.60223699
   0.75019341 -0.00032936  0.60071040
   0.83652971  0.33177550  0.39950979
   0.00115185  0.49995922  0.60203882
   0.00089574  0.24677391  0.60173986
   0.83668142  0.58350812  0.39969609
   0.74907416  0.50159456  0.60015442
   0.16561706  0.16751961  0.50007205
   0.58328703  0.58396658  0.40019634
   0.66821239  0.16535598  0.50040877
   0.50048036  0.75155360  0.59747140
   0.66760198  0.41657138  0.50028494
   0.75085436  0.24893709  0.59640742
   0.66783156  0.66585450  0.50022140
   0.41925840  0.66552145  0.50050252
   0.83557779  0.83247586  0.40361742
   0.08374237  0.08382894  0.40231207
   0.41954571  0.16567327  0.50025353
   0.66772276  0.91693537  0.50021928
   0.25063901  0.49921640  0.59849836
   0.25174438  0.24824429  0.59774553
   0.25171975 -0.00011487  0.59844820
   0.33143750  0.08435472  0.40262213
   0.91366306  0.91809641  0.50010610
   0.08199496  0.83310303  0.40225882
   0.91291021  0.66876159  0.50035771
   0.08169340  0.58473261  0.40219706
   0.91413023  0.41786522  0.49986940
   0.08391373  0.33224546  0.40234601
  -0.00008886  0.00093392  0.59751633
   0.91298969  0.16832497  0.49999019
   0.49926909 -0.00168760  0.59752675
   0.74834614  0.75108539  0.59643070
Direct configuration=    11
   0.25106364  0.75186721  0.60353759
   0.41956977  0.41540096  0.50082994
   0.58350184  0.33250182  0.39842602
   0.50071764  0.50049788  0.60237336
   0.58356348  0.08191165  0.39972736
   0.58412131  0.83442491  0.39800541
   0.16444537  0.91772215  0.50022698
   0.32992521  0.83620275  0.39695525
   0.41993924  0.91532229  0.50066875
   0.16438480  0.66801945  0.49983338
   0.32985801  0.58505159  0.39637958
   0.16537151  0.41697578  0.49991357
   0.49889320  0.24814855  0.60226812
   0.83672224  0.07969508  0.39934721
   0.32988739  0.33289414  0.39639753
  -0.00018222  0.75038576  0.60257021
   0.74992174 -0.00023195  0.60088010
   0.83655043  0.33177012  0.39938979
   0.00119151  0.49962843  0.60229028
   0.00086657  0.24692088  0.60193192
   0.83680876  0.58355523  0.39966200
   0.74913868  0.50165688  0.60018421
   0.16537583  0.16776784  0.50025109
   0.58332221  0.58407306  0.40004026
   0.66822177  0.16529402  0.50042253
   0.50054407  0.75155554  0.59720008
   0.66768956  0.41656719  0.50027253
   0.75070433  0.24894244  0.59627334
   0.66796356  0.66586125  0.50008131
   0.41904941  0.66569384  0.50054235
   0.83570617  0.83232992  0.40374941
   0.08377086  0.08382066  0.40241985
   0.41958986  0.16578514  0.50022706
   0.66789664  0.91691998  0.50019156
   0.25080761  0.49926766  0.59843613
   0.25162880  0.24829686  0.59767040
   0.25183714 -0.00023593  0.59834612
   0.33140371  0.08429518  0.40274773
   0.91352825  0.91811630  0.50027791
   0.08190838  0.83312812  0.40250175
   0.91279664  0.66879107  0.50052631
   0.08165538  0.58477547  0.40237374
   0.91408349  0.41789684  0.50000239
   0.08380907  0.33223630  0.40257714
   0.00000176  0.00079938  0.59751663
   0.91287139  0.16838646  0.49984477
   0.49929605 -0.00173438  0.59735231
   0.74827796  0.75104823  0.59635674
Direct configuration=    12
   0.25100820  0.75187100  0.60388444
   0.41977077  0.41522563  0.50074294
   0.58354234  0.33231645  0.39819714
   0.50075859  0.50036541  0.60255578
   0.58371768  0.08182708  0.39949661
   0.58415409  0.83445417  0.39759016
   0.16473627  0.91751340  0.50025074
   0.32987285  0.83645038  0.39671323
   0.41999922  0.91523572  0.50055294
   0.16430967  0.66836525  0.49997221
   0.32953039  0.58504363  0.39602969
   0.16530402  0.41681217  0.49983476
   0.49915342  0.24798435  0.60246524
   0.83680151  0.07955485  0.39921737
   0.32975164  0.33298863  0.39601227
  -0.00014397  0.75060395  0.60297088
   0.74959506 -0.00011482  0.60108414
   0.83657535  0.33176366  0.39924548
   0.00123920  0.49923066  0.60259263
   0.00083150  0.24709760  0.60216286
   0.83696188  0.58361188  0.39962100
   0.74921627  0.50173181  0.60022004
   0.16508577  0.16806631  0.50046638
   0.58336452  0.58420110  0.39985260
   0.66823304  0.16521952  0.50043909
   0.50062068  0.75155788  0.59687384
   0.66779487  0.41656215  0.50025761
   0.75052392  0.24894888  0.59611211
   0.66812227  0.66586937  0.49991286
   0.41879811  0.66590113  0.50059024
   0.83586054  0.83215444  0.40390812
   0.08380512  0.08381070  0.40254944
   0.41964294  0.16591966  0.50019523
   0.66810572  0.91690147  0.50015822
   0.25101033  0.49932929  0.59836130
   0.25148982  0.24836008  0.59758006
   0.25197830 -0.00038151  0.59822337
   0.33136307  0.08422359  0.40289874
   0.91336613  0.91814022  0.50048450
   0.08180428  0.83315829  0.40279385
   0.91266009  0.66882652  0.50072904
   0.08160966  0.58482700  0.40258620
   0.91402730  0.41793485  0.50016231
   0.08368322  0.33222527  0.40285506
   0.00011073  0.00063761  0.59751698
   0.91272914  0.16846040  0.49966990
   0.49932847 -0.00179063  0.59714255
   0.74819599  0.75100355  0.59626782
Direct configuration=    13
   0.25098480  0.75184782  0.60420496
   0.41989725  0.41534812  0.50060634
   0.58351367  0.33252246  0.39804273
   0.50086106  0.50031028  0.60260461
   0.58356379  0.08183443  0.39936936
   0.58412724  0.83454482  0.39723421
   0.16456537  0.91752668  0.50033340
   0.32983467  0.83648995  0.39650153
   0.42019690  0.91521317  0.50019216
   0.16449903  0.66820914  0.50022580
   0.32974462  0.58503807  0.39576646
   0.16520346  0.41722871  0.49990776
   0.49918856  0.24784363  0.60255488
   0.83691482  0.07959609  0.39916935
   0.32970227  0.33289950  0.39563780
  -0.00018699  0.75045829  0.60337437
   0.74959680 -0.00032424  0.60122011
   0.83635043  0.33172467  0.39918683
   0.00142007  0.49941407  0.60281782
   0.00088200  0.24693703  0.60236372
   0.83699742  0.58355986  0.39968512
   0.74933554  0.50158095  0.60018703
   0.16494133  0.16798580  0.50067808
   0.58313781  0.58411512  0.39971129
   0.66805973  0.16516067  0.50038436
   0.50055641  0.75150762  0.59660810
   0.66773765  0.41661660  0.50015458
   0.75059148  0.24895835  0.59595720
   0.66821574  0.66587652  0.49962514
   0.41884770  0.66570440  0.50050570
   0.83575117  0.83217428  0.40416319
   0.08369205  0.08378959  0.40269042
   0.42009211  0.16577287  0.50007950
   0.66807554  0.91709551  0.50006038
   0.25081018  0.49949608  0.59825744
   0.25152053  0.24828046  0.59756100
   0.25177314 -0.00023971  0.59818346
   0.33152427  0.08412552  0.40304790
   0.91327777  0.91831814  0.50073547
   0.08190583  0.83327747  0.40308748
   0.91262558  0.66868674  0.50097572
   0.08161138  0.58469008  0.40279261
   0.91383172  0.41810382  0.50031054
   0.08358016  0.33231065  0.40308409
   0.00010552  0.00058279  0.59747508
   0.91263182  0.16851762  0.49955377
   0.49945088 -0.00171171  0.59693271
   0.74845976  0.75100121  0.59619845
Direct configuration=    14
   0.25097704  0.75184012  0.60431138
   0.41993924  0.41538879  0.50056099
   0.58350415  0.33259086  0.39799146
   0.50089508  0.50029198  0.60262081
   0.58351270  0.08183687  0.39932711
   0.58411832  0.83457492  0.39711604
   0.16450863  0.91753108  0.50036084
   0.32982199  0.83650309  0.39643125
   0.42026254  0.91520568  0.50007238
   0.16456190  0.66815731  0.50030999
   0.32981574  0.58503622  0.39567907
   0.16517008  0.41736700  0.49993199
   0.49920023  0.24779691  0.60258464
   0.83695244  0.07960978  0.39915341
   0.32968587  0.33286990  0.39551348
  -0.00020127  0.75040993  0.60350833
   0.74959737 -0.00039376  0.60126525
   0.83627575  0.33171173  0.39916735
   0.00148012  0.49947496  0.60289258
   0.00089877  0.24688372  0.60243040
   0.83700922  0.58354259  0.39970640
   0.74937514  0.50153086  0.60017607
   0.16489337  0.16795908  0.50074836
   0.58306255  0.58408657  0.39966437
   0.66800219  0.16514114  0.50036619
   0.50053507  0.75149094  0.59651988
   0.66771865  0.41663468  0.50012037
   0.75061391  0.24896149  0.59590578
   0.66824676  0.66587889  0.49952961
   0.41886416  0.66563909  0.50047764
   0.83571486  0.83218087  0.40424787
   0.08365451  0.08378258  0.40273723
   0.42024123  0.16572414  0.50004107
   0.66806552  0.91715993  0.50002790
   0.25074373  0.49955146  0.59822296
   0.25153073  0.24825402  0.59755467
   0.25170503 -0.00019264  0.59817021
   0.33157778  0.08409296  0.40309741
   0.91324844  0.91837721  0.50081879
   0.08193955  0.83331704  0.40318496
   0.91261412  0.66864033  0.50105762
   0.08161196  0.58464462  0.40286114
   0.91376679  0.41815992  0.50035975
   0.08354594  0.33233899  0.40316013
   0.00010379  0.00056459  0.59746117
   0.91259951  0.16853662  0.49951521
   0.49949152 -0.00168551  0.59686304
   0.74854733  0.75100044  0.59617542
Direct configuration=    15
   0.25104283  0.75182638  0.60444043
   0.41989850  0.41538423  0.50044682
   0.58337563  0.33255345  0.39791914
   0.50085162  0.50031237  0.60251038
   0.58343496  0.08210290  0.39929361
   0.58415936  0.83439185  0.39688421
   0.16454109  0.91741560  0.50049184
   0.32976247  0.83641625  0.39632028
   0.42025277  0.91511029  0.49979127
   0.16462734  0.66814158  0.50050111
   0.32984503  0.58509071  0.39559765
   0.16539973  0.41721735  0.50006571
   0.49898165  0.24800242  0.60249925
   0.83673487  0.07962494  0.39920321
   0.32967884  0.33282692  0.39532397
  -0.00019547  0.75034483  0.60379951
   0.74988356 -0.00050224  0.60129329
   0.83618466  0.33183290  0.39920228
   0.00159643  0.49958591  0.60299571
   0.00090295  0.24679878  0.60252362
   0.83678118  0.58345431  0.39982257
   0.74947293  0.50152165  0.60007569
   0.16512876  0.16794362  0.50081728
   0.58295983  0.58417477  0.39956960
   0.66793450  0.16523301  0.50027876
   0.50045132  0.75156342  0.59633929
   0.66760973  0.41668758  0.50000261
   0.75078669  0.24880225  0.59581516
   0.66804264  0.66600804  0.49931061
   0.41899845  0.66560967  0.50033054
   0.83563793  0.83235360  0.40450489
   0.08367246  0.08389940  0.40284039
   0.42009061  0.16595910  0.49992767
   0.66800135  0.91716645  0.49993465
   0.25080769  0.49940200  0.59822878
   0.25167797  0.24824586  0.59757545
   0.25173078 -0.00025570  0.59817490
   0.33142716  0.08426397  0.40312337
   0.91334310  0.91832869  0.50099191
   0.08214742  0.83313693  0.40338622
   0.91275252  0.66872187  0.50120425
   0.08178579  0.58467292  0.40301582
   0.91379323  0.41811157  0.50044110
   0.08355978  0.33221375  0.40331038
  -0.00005733  0.00057106  0.59747659
   0.91247413  0.16866587  0.49953686
   0.49946498 -0.00184682  0.59671285
   0.74856558  0.75091375  0.59614853
Direct configuration=    16
   0.25106498  0.75182175  0.60448388
   0.41988479  0.41538270  0.50040838
   0.58333236  0.33254086  0.39789480
   0.50083699  0.50031924  0.60247320
   0.58340878  0.08219248  0.39928233
   0.58417318  0.83433021  0.39680615
   0.16455202  0.91737672  0.50053594
   0.32974243  0.83638701  0.39628292
   0.42024948  0.91507817  0.49969662
   0.16464937  0.66813628  0.50056546
   0.32985489  0.58510906  0.39557023
   0.16547706  0.41716696  0.50011074
   0.49890806  0.24807162  0.60247051
   0.83666162  0.07963004  0.39921998
   0.32967647  0.33281245  0.39526016
  -0.00019352  0.75032291  0.60389754
   0.74997992 -0.00053877  0.60130272
   0.83615400  0.33187370  0.39921405
   0.00163559  0.49962326  0.60303043
   0.00090436  0.24677018  0.60255501
   0.83670441  0.58342459  0.39986168
   0.74950586  0.50151854  0.60004189
   0.16520801  0.16793841  0.50084049
   0.58292525  0.58420447  0.39953768
   0.66791170  0.16526394  0.50024932
   0.50042312  0.75158783  0.59627849
   0.66757306  0.41670539  0.49996296
   0.75084486  0.24874863  0.59578465
   0.66797391  0.66605152  0.49923688
   0.41904366  0.66559977  0.50028101
   0.83561203  0.83241176  0.40459143
   0.08367850  0.08393874  0.40287513
   0.42003990  0.16603821  0.49988948
   0.66797975  0.91716864  0.49990326
   0.25082923  0.49935168  0.59823075
   0.25172755  0.24824311  0.59758245
   0.25173945 -0.00027694  0.59817648
   0.33137645  0.08432155  0.40313211
   0.91337497  0.91831235  0.50105020
   0.08221741  0.83307629  0.40345398
   0.91279911  0.66874932  0.50125362
   0.08184432  0.58468244  0.40306789
   0.91380213  0.41809530  0.50046848
   0.08356444  0.33217159  0.40336096
  -0.00011158  0.00057324  0.59748179
   0.91243191  0.16870939  0.49954415
   0.49945604 -0.00190114  0.59666228
   0.74857173  0.75088456  0.59613948
Direct configuration=    17
   0.25109691  0.75179394  0.60454808
   0.41976004  0.41549284  0.50028508
   0.58319019  0.33262580  0.39781986
   0.50086851  0.50035574  0.60224875