  48  48   0   0
  0.5349325E+02  0.1100258E-08  0.1100258E-08  0.2449179E-08  0.3500000E-15
  1.000000000000000E-004
  CAR 
 unknown system                          
      6.33178165     -9.87815764  301     -1.10041820      1.00000000
     -9.878  0.0000E+00  0.0000E+00
     -9.824  0.0000E+00  0.0000E+00
     -9.770  0.0000E+00  0.0000E+00
     -9.716  0.0000E+00  0.0000E+00
     -9.662  0.0000E+00  0.0000E+00
     -9.608  0.0000E+00  0.0000E+00
     -9.554  0.0000E+00  0.0000E+00
     -9.500  0.0000E+00  0.0000E+00
     -9.446  0.7534E-17  0.4071E-18
     -9.392  0.2891E-14  0.1566E-15
     -9.338  0.6461E-12  0.3507E-13
     -9.284  0.8202E-10  0.4467E-11
     -9.230  0.5927E-08  0.3247E-09
     -9.176  0.2445E-06  0.1353E-07
     -9.122  0.5773E-05  0.3255E-06
     -9.068  0.7824E-04  0.4553E-05
     -9.014  0.6104E-03  0.3754E-04
     -8.960  0.2749E-02  0.1861E-03
     -8.906  0.7177E-02  0.5738E-03
     -8.852  0.1105E-01  0.1171E-02
     -8.797  0.1095E-01  0.1763E-02
     -8.743  0.9649E-02  0.2284E-02
     -8.689  0.1047E-01  0.2850E-02
     -8.635  0.1039E-01  0.3411E-02
     -8.581  0.7006E-02  0.3790E-02
     -8.527  0.2975E-02  0.3951E-02
     -8.473  0.8195E-03  0.3995E-02
     -8.419  0.4186E-03  0.4018E-02
     -8.365  0.1231E-02  0.4084E-02
     -8.311  0.3038E-02  0.4248E-02
     -8.257  0.5095E-02  0.4524E-02
     -8.203  0.7009E-02  0.4902E-02
     -8.149  0.8639E-02  0.5369E-02
     -8.095  0.9258E-02  0.5869E-02
     -8.041  0.1072E-01  0.6449E-02
     -7.987  0.1491E-01  0.7254E-02
     -7.933  0.1798E-01  0.8226E-02
     -7.879  0.1676E-01  0.9131E-02
     -7.825  0.1492E-01  0.9937E-02
     -7.771  0.1481E-01  0.1074E-01
     -7.717  0.1313E-01  0.1145E-01
     -7.663  0.9967E-02  0.1199E-01
     -7.609  0.1092E-01  0.1258E-01
     -7.555  0.1676E-01  0.1348E-01
     -7.501  0.2123E-01  0.1463E-01
     -7.447  0.2184E-01  0.1581E-01
     -7.393  0.2085E-01  0.1694E-01
     -7.339  0.1878E-01  0.1795E-01
     -7.285  0.1927E-01  0.1899E-01
     -7.231  0.2762E-01  0.2048E-01
     -7.177  0.4032E-01  0.2266E-01
     -7.122  0.4896E-01  0.2531E-01
     -7.068  0.5273E-01  0.2816E-01
     -7.014  0.5651E-01  0.3121E-01
     -6.960  0.6165E-01  0.3454E-01
     -6.906  0.6574E-01  0.3809E-01
     -6.852  0.6726E-01  0.4173E-01
     -6.798  0.6709E-01  0.4535E-01
     -6.744  0.6807E-01  0.4903E-01
     -6.690  0.7220E-01  0.5293E-01
     -6.636  0.7835E-01  0.5717E-01
     -6.582  0.8657E-01  0.6184E-01
     -6.528  0.9821E-01  0.6715E-01
     -6.474  0.1112E+00  0.7316E-01
     -6.420  0.1212E+00  0.7971E-01
     -6.366  0.1261E+00  0.8653E-01
     -6.312  0.1280E+00  0.9344E-01
     -6.258  0.1319E+00  0.1006E+00
     -6.204  0.1390E+00  0.1081E+00
     -6.150  0.1436E+00  0.1158E+00
     -6.096  0.1446E+00  0.1237E+00
     -6.042  0.1476E+00  0.1316E+00
     -5.988  0.1549E+00  0.1400E+00
     -5.934  0.1621E+00  0.1487E+00
     -5.880  0.1634E+00  0.1576E+00
     -5.826  0.1582E+00  0.1661E+00
     -5.772  0.1503E+00  0.1742E+00
     -5.718  0.1436E+00  0.1820E+00
     -5.664  0.1405E+00  0.1896E+00
     -5.610  0.1393E+00  0.1971E+00
     -5.556  0.1363E+00  0.2045E+00
     -5.501  0.1320E+00  0.2116E+00
     -5.447  0.1306E+00  0.2187E+00
     -5.393  0.1345E+00  0.2259E+00
     -5.339  0.1412E+00  0.2336E+00
     -5.285  0.1473E+00  0.2415E+00
     -5.231  0.1541E+00  0.2499E+00
     -5.177  0.1647E+00  0.2588E+00
     -5.123  0.1759E+00  0.2683E+00
     -5.069  0.1815E+00  0.2781E+00
     -5.015  0.1792E+00  0.2877E+00
     -4.961  0.1730E+00  0.2971E+00
     -4.907  0.1689E+00  0.3062E+00
     -4.853  0.1692E+00  0.3154E+00
     -4.799  0.1737E+00  0.3248E+00
     -4.745  0.1801E+00  0.3345E+00
     -4.691  0.1823E+00  0.3443E+00
     -4.637  0.1797E+00  0.3541E+00
     -4.583  0.1791E+00  0.3637E+00
     -4.529  0.1800E+00  0.3735E+00
     -4.475  0.1761E+00  0.3830E+00
     -4.421  0.1710E+00  0.3922E+00
     -4.367  0.1706E+00  0.4014E+00
     -4.313  0.1727E+00  0.4108E+00
     -4.259  0.1738E+00  0.4201E+00
     -4.205  0.1742E+00  0.4296E+00
     -4.151  0.1744E+00  0.4390E+00
     -4.097  0.1750E+00  0.4484E+00
     -4.043  0.1773E+00  0.4580E+00
     -3.989  0.1798E+00  0.4677E+00
     -3.935  0.1810E+00  0.4775E+00
     -3.880  0.1831E+00  0.4874E+00
     -3.826  0.1866E+00  0.4975E+00
     -3.772  0.1910E+00  0.5078E+00
     -3.718  0.1967E+00  0.5184E+00
     -3.664  0.2010E+00  0.5293E+00
     -3.610  0.2011E+00  0.5402E+00
     -3.556  0.1993E+00  0.5509E+00
     -3.502  0.1991E+00  0.5617E+00
     -3.448  0.1988E+00  0.5724E+00
     -3.394  0.1946E+00  0.5830E+00
     -3.340  0.1884E+00  0.5931E+00
     -3.286  0.1827E+00  0.6030E+00
     -3.232  0.1800E+00  0.6127E+00
     -3.178  0.1852E+00  0.6227E+00
     -3.124  0.1963E+00  0.6333E+00
     -3.070  0.2020E+00  0.6443E+00
     -3.016  0.1987E+00  0.6550E+00
     -2.962  0.1932E+00  0.6654E+00
     -2.908  0.1886E+00  0.6756E+00
     -2.854  0.1835E+00  0.6855E+00
     -2.800  0.1802E+00  0.6953E+00
     -2.746  0.1825E+00  0.7051E+00
     -2.692  0.1887E+00  0.7153E+00
     -2.638  0.1941E+00  0.7258E+00
     -2.584  0.1972E+00  0.7365E+00
     -2.530  0.2007E+00  0.7473E+00
     -2.476  0.2040E+00  0.7583E+00
     -2.422  0.2037E+00  0.7693E+00
     -2.368  0.1993E+00  0.7801E+00
     -2.314  0.1955E+00  0.7907E+00
     -2.259  0.1937E+00  0.8011E+00
     -2.205  0.1898E+00  0.8114E+00
     -2.151  0.1826E+00  0.8213E+00
     -2.097  0.1739E+00  0.8307E+00
     -2.043  0.1682E+00  0.8398E+00
     -1.989  0.1692E+00  0.8489E+00
     -1.935  0.1740E+00  0.8583E+00
     -1.881  0.1776E+00  0.8679E+00
     -1.827  0.1812E+00  0.8777E+00
     -1.773  0.1874E+00  0.8878E+00
     -1.719  0.1935E+00  0.8983E+00
     -1.665  0.1966E+00  0.9089E+00
     -1.611  0.1989E+00  0.9196E+00
     -1.557  0.2028E+00  0.9306E+00
     -1.503  0.2067E+00  0.9418E+00
     -1.449  0.2072E+00  0.9529E+00
     -1.395  0.2035E+00  0.9639E+00
     -1.341  0.1962E+00  0.9745E+00
     -1.287  0.1816E+00  0.9844E+00
     -1.233  0.1583E+00  0.9929E+00
     -1.179  0.1321E+00  0.1000E+01
     -1.125  0.1069E+00  0.1006E+01
     -1.071  0.8274E-01  0.1010E+01
     -1.017  0.6206E-01  0.1014E+01
     -0.963  0.4702E-01  0.1016E+01
     -0.909  0.3634E-01  0.1018E+01
     -0.855  0.2837E-01  0.1020E+01
     -0.801  0.2280E-01  0.1021E+01
     -0.747  0.2001E-01  0.1022E+01
     -0.693  0.2080E-01  0.1023E+01
     -0.638  0.2596E-01  0.1025E+01
     -0.584  0.3489E-01  0.1026E+01
     -0.530  0.4308E-01  0.1029E+01
     -0.476  0.4526E-01  0.1031E+01
     -0.422  0.4122E-01  0.1033E+01
     -0.368  0.3545E-01  0.1035E+01
     -0.314  0.3503E-01  0.1037E+01
     -0.260  0.4082E-01  0.1039E+01
     -0.206  0.4262E-01  0.1042E+01
     -0.152  0.3459E-01  0.1044E+01
     -0.098  0.2448E-01  0.1045E+01
     -0.044  0.2030E-01  0.1046E+01
      0.010  0.2013E-01  0.1047E+01
      0.064  0.2094E-01  0.1048E+01
      0.118  0.2385E-01  0.1050E+01
      0.172  0.2638E-01  0.1051E+01
      0.226  0.2727E-01  0.1052E+01
      0.280  0.3190E-01  0.1054E+01
      0.334  0.3948E-01  0.1056E+01
      0.388  0.4400E-01  0.1059E+01
      0.442  0.4465E-01  0.1061E+01
      0.496  0.4358E-01  0.1063E+01
      0.550  0.4385E-01  0.1066E+01
      0.604  0.4778E-01  0.1068E+01
      0.658  0.5133E-01  0.1071E+01
      0.712  0.4876E-01  0.1074E+01
      0.766  0.4104E-01  0.1076E+01
      0.820  0.3214E-01  0.1078E+01
      0.874  0.2518E-01  0.1079E+01
      0.928  0.2151E-01  0.1080E+01
      0.983  0.2009E-01  0.1081E+01
      1.037  0.1962E-01  0.1082E+01
      1.091  0.1870E-01  0.1083E+01
      1.145  0.1638E-01  0.1084E+01
      1.199  0.1473E-01  0.1085E+01
      1.253  0.1517E-01  0.1086E+01
      1.307  0.1488E-01  0.1087E+01
      1.361  0.1311E-01  0.1087E+01
      1.415  0.1339E-01  0.1088E+01
      1.469  0.1900E-01  0.1089E+01
      1.523  0.2914E-01  0.1091E+01
      1.577  0.3734E-01  0.1093E+01
      1.631  0.3726E-01  0.1095E+01
      1.685  0.3220E-01  0.1097E+01
      1.739  0.3073E-01  0.1098E+01
      1.793  0.3337E-01  0.1100E+01
      1.847  0.3339E-01  0.1102E+01
      1.901  0.2881E-01  0.1103E+01
      1.955  0.2336E-01  0.1105E+01
      2.009  0.1953E-01  0.1106E+01
      2.063  0.1947E-01  0.1107E+01
      2.117  0.2552E-01  0.1108E+01
      2.171  0.3509E-01  0.1110E+01
      2.225  0.4292E-01  0.1112E+01
      2.279  0.4753E-01  0.1115E+01
      2.333  0.4967E-01  0.1118E+01
      2.387  0.4813E-01  0.1120E+01
      2.441  0.4316E-01  0.1123E+01
      2.495  0.3914E-01  0.1125E+01
      2.549  0.3841E-01  0.1127E+01
      2.603  0.4026E-01  0.1129E+01
      2.658  0.4409E-01  0.1131E+01
      2.712  0.4538E-01  0.1134E+01
      2.766  0.3844E-01  0.1136E+01
      2.820  0.2510E-01  0.1137E+01
      2.874  0.1285E-01  0.1138E+01
      2.928  0.7963E-02  0.1138E+01
      2.982  0.9897E-02  0.1139E+01
      3.036  0.1216E-01  0.1139E+01
      3.090  0.1243E-01  0.1140E+01
      3.144  0.1551E-01  0.1141E+01
      3.198  0.2200E-01  0.1142E+01
      3.252  0.2593E-01  0.1144E+01
      3.306  0.2394E-01  0.1145E+01
      3.360  0.1917E-01  0.1146E+01
      3.414  0.1792E-01  0.1147E+01
      3.468  0.2236E-01  0.1148E+01
      3.522  0.2973E-01  0.1150E+01
      3.576  0.3732E-01  0.1152E+01
      3.630  0.4220E-01  0.1154E+01
      3.684  0.4149E-01  0.1156E+01
      3.738  0.3581E-01  0.1158E+01
      3.792  0.2821E-01  0.1160E+01
      3.846  0.2183E-01  0.1161E+01
      3.900  0.1974E-01  0.1162E+01
      3.954  0.2357E-01  0.1163E+01
      4.008  0.2954E-01  0.1165E+01
      4.062  0.3008E-01  0.1166E+01
      4.116  0.2566E-01  0.1168E+01
      4.170  0.2379E-01  0.1169E+01
      4.224  0.2370E-01  0.1170E+01
      4.279  0.1935E-01  0.1171E+01
      4.333  0.1432E-01  0.1172E+01
      4.387  0.1691E-01  0.1173E+01
      4.441  0.2627E-01  0.1175E+01
      4.495  0.3586E-01  0.1176E+01
      4.549  0.4386E-01  0.1179E+01
      4.603  0.5136E-01  0.1182E+01
      4.657  0.5575E-01  0.1185E+01
      4.711  0.5270E-01  0.1187E+01
      4.765  0.4650E-01  0.1190E+01
      4.819  0.4577E-01  0.1192E+01
      4.873  0.5037E-01  0.1195E+01
      4.927  0.5617E-01  0.1198E+01
      4.981  0.6272E-01  0.1202E+01
      5.035  0.6910E-01  0.1205E+01
      5.089  0.7174E-01  0.1209E+01
      5.143  0.6771E-01  0.1213E+01
      5.197  0.6025E-01  0.1216E+01
      5.251  0.5402E-01  0.1219E+01
      5.305  0.4499E-01  0.1221E+01
      5.359  0.2929E-01  0.1223E+01
      5.413  0.1320E-01  0.1224E+01
      5.467  0.3853E-02  0.1224E+01
      5.521  0.7038E-03  0.1224E+01
      5.575  0.7870E-04  0.1224E+01
      5.629  0.5307E-05  0.1224E+01
      5.683  0.2130E-06  0.1224E+01
      5.737  0.5026E-08  0.1224E+01
      5.791  0.6901E-10  0.1224E+01
      5.845  0.5461E-12  0.1224E+01
      5.900  0.2472E-14  0.1224E+01
      5.954  0.5479E-17  0.1224E+01
      6.008  0.0000E+00  0.1224E+01
      6.062  0.0000E+00  0.1224E+01
      6.116  0.0000E+00  0.1224E+01
      6.170  0.0000E+00  0.1224E+01
      6.224  0.0000E+00  0.1224E+01
      6.278  0.0000E+00  0.1224E+01
      6.332  0.0000E+00  0.1224E+01
