  48  48   0   0
  0.5349325E+02  0.1100258E-08  0.1100258E-08  0.2449179E-08  0.3500000E-15
  1.000000000000000E-004
  CAR 
 unknown system                          
      6.44134145     -9.86604635  301     -1.07881272      1.00000000
     -9.866  0.0000E+00  0.0000E+00
     -9.812  0.0000E+00  0.0000E+00
     -9.757  0.0000E+00  0.0000E+00
     -9.703  0.0000E+00  0.0000E+00
     -9.649  0.0000E+00  0.0000E+00
     -9.594  0.0000E+00  0.0000E+00
     -9.540  0.0000E+00  0.0000E+00
     -9.486  0.0000E+00  0.0000E+00
     -9.431  0.9531E-17  0.5181E-18
     -9.377  0.3906E-14  0.2128E-15
     -9.322  0.8728E-12  0.4765E-13
     -9.268  0.1100E-09  0.6029E-11
     -9.214  0.7847E-08  0.4326E-09
     -9.159  0.3174E-06  0.1768E-07
     -9.105  0.7301E-05  0.4145E-06
     -9.051  0.9580E-04  0.5622E-05
     -8.996  0.7191E-03  0.4471E-04
     -8.942  0.3097E-02  0.2130E-03
     -8.888  0.7685E-02  0.6308E-03
     -8.833  0.1120E-01  0.1239E-02
     -8.779  0.1058E-01  0.1815E-02
     -8.725  0.9293E-02  0.2320E-02
     -8.670  0.1031E-01  0.2880E-02
     -8.616  0.1018E-01  0.3433E-02
     -8.561  0.6748E-02  0.3800E-02
     -8.507  0.2830E-02  0.3954E-02
     -8.453  0.8272E-03  0.3999E-02
     -8.398  0.6752E-03  0.4036E-02
     -8.344  0.1844E-02  0.4136E-02
     -8.290  0.3555E-02  0.4329E-02
     -8.235  0.4756E-02  0.4588E-02
     -8.181  0.6535E-02  0.4943E-02
     -8.127  0.1112E-01  0.5548E-02
     -8.072  0.1776E-01  0.6513E-02
     -8.018  0.2285E-01  0.7755E-02
     -7.964  0.2335E-01  0.9025E-02
     -7.909  0.1961E-01  0.1009E-01
     -7.855  0.1393E-01  0.1085E-01
     -7.800  0.8751E-02  0.1132E-01
     -7.746  0.5920E-02  0.1165E-01
     -7.692  0.5054E-02  0.1192E-01
     -7.637  0.6413E-02  0.1227E-01
     -7.583  0.1195E-01  0.1292E-01
     -7.529  0.2038E-01  0.1403E-01
     -7.474  0.2585E-01  0.1543E-01
     -7.420  0.2449E-01  0.1676E-01
     -7.366  0.2055E-01  0.1788E-01
     -7.311  0.2169E-01  0.1906E-01
     -7.257  0.2940E-01  0.2066E-01
     -7.203  0.3879E-01  0.2277E-01
     -7.148  0.4526E-01  0.2523E-01
     -7.094  0.4861E-01  0.2787E-01
     -7.039  0.5244E-01  0.3072E-01
     -6.985  0.5995E-01  0.3398E-01
     -6.931  0.7158E-01  0.3787E-01
     -6.876  0.8195E-01  0.4232E-01
     -6.822  0.8434E-01  0.4691E-01
     -6.768  0.8117E-01  0.5132E-01
     -6.713  0.8035E-01  0.5569E-01
     -6.659  0.8412E-01  0.6026E-01
     -6.605  0.8694E-01  0.6499E-01
     -6.550  0.8479E-01  0.6959E-01
     -6.496  0.8332E-01  0.7412E-01
     -6.441  0.9019E-01  0.7903E-01
     -6.387  0.1035E+00  0.8465E-01
     -6.333  0.1163E+00  0.9098E-01
     -6.278  0.1274E+00  0.9790E-01
     -6.224  0.1387E+00  0.1054E+00
     -6.170  0.1481E+00  0.1135E+00
     -6.115  0.1540E+00  0.1219E+00
     -6.061  0.1587E+00  0.1305E+00
     -6.007  0.1633E+00  0.1394E+00
     -5.952  0.1645E+00  0.1483E+00
     -5.898  0.1604E+00  0.1570E+00
     -5.844  0.1534E+00  0.1654E+00
     -5.789  0.1462E+00  0.1733E+00
     -5.735  0.1389E+00  0.1809E+00
     -5.680  0.1329E+00  0.1881E+00
     -5.626  0.1301E+00  0.1952E+00
     -5.572  0.1318E+00  0.2023E+00
     -5.517  0.1380E+00  0.2098E+00
     -5.463  0.1451E+00  0.2177E+00
     -5.409  0.1503E+00  0.2259E+00
     -5.354  0.1542E+00  0.2343E+00
     -5.300  0.1566E+00  0.2428E+00
     -5.246  0.1580E+00  0.2514E+00
     -5.191  0.1595E+00  0.2600E+00
     -5.137  0.1602E+00  0.2687E+00
     -5.083  0.1608E+00  0.2775E+00
     -5.028  0.1634E+00  0.2864E+00
     -4.974  0.1692E+00  0.2956E+00
     -4.919  0.1768E+00  0.3052E+00
     -4.865  0.1798E+00  0.3149E+00
     -4.811  0.1745E+00  0.3244E+00
     -4.756  0.1677E+00  0.3335E+00
     -4.702  0.1665E+00  0.3426E+00
     -4.648  0.1698E+00  0.3518E+00
     -4.593  0.1745E+00  0.3613E+00
     -4.539  0.1777E+00  0.3710E+00
     -4.485  0.1770E+00  0.3806E+00
     -4.430  0.1739E+00  0.3900E+00
     -4.376  0.1724E+00  0.3994E+00
     -4.322  0.1741E+00  0.4089E+00
     -4.267  0.1757E+00  0.4184E+00
     -4.213  0.1760E+00  0.4280E+00
     -4.158  0.1772E+00  0.4376E+00
     -4.104  0.1785E+00  0.4473E+00
     -4.050  0.1792E+00  0.4571E+00
     -3.995  0.1805E+00  0.4669E+00
     -3.941  0.1830E+00  0.4768E+00
     -3.887  0.1882E+00  0.4871E+00
     -3.832  0.1971E+00  0.4978E+00
     -3.778  0.2047E+00  0.5089E+00
     -3.724  0.2051E+00  0.5201E+00
     -3.669  0.1975E+00  0.5308E+00
     -3.615  0.1883E+00  0.5410E+00
     -3.561  0.1851E+00  0.5511E+00
     -3.506  0.1861E+00  0.5612E+00
     -3.452  0.1859E+00  0.5713E+00
     -3.397  0.1828E+00  0.5812E+00
     -3.343  0.1791E+00  0.5910E+00
     -3.289  0.1773E+00  0.6006E+00
     -3.234  0.1764E+00  0.6102E+00
     -3.180  0.1766E+00  0.6198E+00
     -3.126  0.1794E+00  0.6296E+00
     -3.071  0.1816E+00  0.6394E+00
     -3.017  0.1796E+00  0.6492E+00
     -2.963  0.1768E+00  0.6588E+00
     -2.908  0.1785E+00  0.6685E+00
     -2.854  0.1839E+00  0.6785E+00
     -2.800  0.1895E+00  0.6888E+00
     -2.745  0.1926E+00  0.6993E+00
     -2.691  0.1925E+00  0.7097E+00
     -2.636  0.1908E+00  0.7201E+00
     -2.582  0.1902E+00  0.7304E+00
     -2.528  0.1911E+00  0.7408E+00
     -2.473  0.1914E+00  0.7512E+00
     -2.419  0.1902E+00  0.7616E+00
     -2.365  0.1877E+00  0.7718E+00
     -2.310  0.1834E+00  0.7818E+00
     -2.256  0.1805E+00  0.7916E+00
     -2.202  0.1810E+00  0.8014E+00
     -2.147  0.1810E+00  0.8112E+00
     -2.093  0.1787E+00  0.8210E+00
     -2.039  0.1780E+00  0.8306E+00
     -1.984  0.1813E+00  0.8405E+00
     -1.930  0.1867E+00  0.8506E+00
     -1.875  0.1942E+00  0.8612E+00
     -1.821  0.2050E+00  0.8723E+00
     -1.767  0.2163E+00  0.8841E+00
     -1.712  0.2220E+00  0.8962E+00
     -1.658  0.2201E+00  0.9081E+00
     -1.604  0.2143E+00  0.9198E+00
     -1.549  0.2073E+00  0.9310E+00
     -1.495  0.1989E+00  0.9419E+00
     -1.441  0.1899E+00  0.9522E+00
     -1.386  0.1808E+00  0.9620E+00
     -1.332  0.1737E+00  0.9715E+00
     -1.277  0.1704E+00  0.9807E+00
     -1.223  0.1652E+00  0.9897E+00
     -1.169  0.1489E+00  0.9978E+00
     -1.114  0.1224E+00  0.1004E+01
     -1.060  0.9586E-01  0.1010E+01
     -1.006  0.7468E-01  0.1014E+01
     -0.951  0.5530E-01  0.1017E+01
     -0.897  0.3614E-01  0.1019E+01
     -0.843  0.2227E-01  0.1020E+01
     -0.788  0.1654E-01  0.1021E+01
     -0.734  0.1608E-01  0.1022E+01
     -0.680  0.1795E-01  0.1023E+01
     -0.625  0.2214E-01  0.1024E+01
     -0.571  0.2943E-01  0.1025E+01
     -0.516  0.3818E-01  0.1028E+01
     -0.462  0.4406E-01  0.1030E+01
     -0.408  0.4439E-01  0.1032E+01
     -0.353  0.4050E-01  0.1035E+01
     -0.299  0.3760E-01  0.1037E+01
     -0.245  0.3993E-01  0.1039E+01
     -0.190  0.4134E-01  0.1041E+01
     -0.136  0.3309E-01  0.1043E+01
     -0.082  0.2125E-01  0.1044E+01
     -0.027  0.1782E-01  0.1045E+01
      0.027  0.2326E-01  0.1046E+01
      0.081  0.2966E-01  0.1048E+01
      0.136  0.3291E-01  0.1050E+01
      0.190  0.3434E-01  0.1051E+01
      0.245  0.3317E-01  0.1053E+01
      0.299  0.2963E-01  0.1055E+01
      0.353  0.2972E-01  0.1056E+01
      0.408  0.3596E-01  0.1058E+01
      0.462  0.4369E-01  0.1061E+01
      0.516  0.4898E-01  0.1063E+01
      0.571  0.5098E-01  0.1066E+01
      0.625  0.4974E-01  0.1069E+01
      0.679  0.4604E-01  0.1071E+01
      0.734  0.4096E-01  0.1074E+01
      0.788  0.3534E-01  0.1076E+01
      0.842  0.2929E-01  0.1077E+01
      0.897  0.2428E-01  0.1079E+01
      0.951  0.2258E-01  0.1080E+01
      1.006  0.2270E-01  0.1081E+01
      1.060  0.2196E-01  0.1082E+01
      1.114  0.1898E-01  0.1083E+01
      1.169  0.1513E-01  0.1084E+01
      1.223  0.1434E-01  0.1085E+01
      1.277  0.1648E-01  0.1086E+01
      1.332  0.1740E-01  0.1087E+01
      1.386  0.1644E-01  0.1088E+01
      1.440  0.1822E-01  0.1089E+01
      1.495  0.2600E-01  0.1090E+01
      1.549  0.3366E-01  0.1092E+01
      1.603  0.3268E-01  0.1094E+01
      1.658  0.2672E-01  0.1095E+01
      1.712  0.2615E-01  0.1096E+01
      1.767  0.3351E-01  0.1098E+01
      1.821  0.3977E-01  0.1100E+01
      1.875  0.3511E-01  0.1102E+01
      1.930  0.2285E-01  0.1104E+01
      1.984  0.1454E-01  0.1104E+01
      2.038  0.1452E-01  0.1105E+01
      2.093  0.1902E-01  0.1106E+01
      2.147  0.2633E-01  0.1108E+01
      2.201  0.3558E-01  0.1110E+01
      2.256  0.4318E-01  0.1112E+01
      2.310  0.4645E-01  0.1114E+01
      2.364  0.4564E-01  0.1117E+01
      2.419  0.4508E-01  0.1119E+01
      2.473  0.4583E-01  0.1122E+01
      2.528  0.4445E-01  0.1124E+01
      2.582  0.4229E-01  0.1127E+01
      2.636  0.4336E-01  0.1129E+01
      2.691  0.4739E-01  0.1131E+01
      2.745  0.4735E-01  0.1134E+01
      2.799  0.3738E-01  0.1136E+01
      2.854  0.2332E-01  0.1137E+01
      2.908  0.1483E-01  0.1138E+01
      2.962  0.1314E-01  0.1139E+01
      3.017  0.1236E-01  0.1140E+01
      3.071  0.1119E-01  0.1140E+01
      3.126  0.1493E-01  0.1141E+01
      3.180  0.2250E-01  0.1142E+01
      3.234  0.2550E-01  0.1144E+01
      3.289  0.2163E-01  0.1145E+01
      3.343  0.1653E-01  0.1146E+01
      3.397  0.1426E-01  0.1146E+01
      3.452  0.1466E-01  0.1147E+01
      3.506  0.1695E-01  0.1148E+01
      3.560  0.2122E-01  0.1149E+01
      3.615  0.2851E-01  0.1151E+01
      3.669  0.3825E-01  0.1153E+01
      3.723  0.4443E-01  0.1155E+01
      3.778  0.4243E-01  0.1158E+01
      3.832  0.3553E-01  0.1160E+01
      3.887  0.2819E-01  0.1161E+01
      3.941  0.2358E-01  0.1162E+01
      3.995  0.2496E-01  0.1164E+01
      4.050  0.2895E-01  0.1165E+01
      4.104  0.2802E-01  0.1167E+01
      4.158  0.2371E-01  0.1168E+01
      4.213  0.2230E-01  0.1169E+01
      4.267  0.2203E-01  0.1171E+01
      4.321  0.1889E-01  0.1172E+01
      4.376  0.1634E-01  0.1172E+01
      4.430  0.1886E-01  0.1173E+01
      4.484  0.2550E-01  0.1175E+01
      4.539  0.3669E-01  0.1177E+01
      4.593  0.5298E-01  0.1180E+01
      4.648  0.6488E-01  0.1183E+01
      4.702  0.6181E-01  0.1187E+01
      4.756  0.5042E-01  0.1189E+01
      4.811  0.4560E-01  0.1192E+01
      4.865  0.4951E-01  0.1195E+01
      4.919  0.5317E-01  0.1197E+01
      4.974  0.5420E-01  0.1200E+01
      5.028  0.5991E-01  0.1204E+01
      5.082  0.6888E-01  0.1207E+01
      5.137  0.6944E-01  0.1211E+01
      5.191  0.6200E-01  0.1215E+01
      5.245  0.5588E-01  0.1218E+01
      5.300  0.4865E-01  0.1220E+01
      5.354  0.3451E-01  0.1222E+01
      5.409  0.1931E-01  0.1223E+01
      5.463  0.9652E-02  0.1224E+01
      5.517  0.4471E-02  0.1224E+01
      5.572  0.1607E-02  0.1224E+01
      5.626  0.3765E-03  0.1224E+01
      5.680  0.5298E-04  0.1224E+01
      5.735  0.4325E-05  0.1224E+01
      5.789  0.2016E-06  0.1224E+01
      5.843  0.5325E-08  0.1224E+01
      5.898  0.7924E-10  0.1224E+01
      5.952  0.6622E-12  0.1224E+01
      6.006  0.3100E-14  0.1224E+01
      6.061  0.8170E-17  0.1224E+01
      6.115  0.0000E+00  0.1224E+01
      6.170  0.0000E+00  0.1224E+01
      6.224  0.0000E+00  0.1224E+01
      6.278  0.0000E+00  0.1224E+01
      6.333  0.0000E+00  0.1224E+01
      6.387  0.0000E+00  0.1224E+01
      6.441  0.0000E+00  0.1224E+01
