<?xml version="1.0" encoding="ISO-8859-1"?>
<modeling>
 <generator>
  <i name="program" type="string">vasp </i>
  <i name="version" type="string">5.4.1  </i>
  <i name="subversion" type="string">24Jun15 (build Mar 14 2019 10:18:33) complex                          parallel </i>
  <i name="platform" type="string">INTEL-19.0.2+OPENMPI-3.1.3 </i>
  <i name="date" type="string">2023 01 31 </i>
  <i name="time" type="string">01:35:43 </i>
 </generator>
 <incar>
  <i type="int" name="ISTART">     0</i>
  <i type="string" name="PREC">normal</i>
  <i type="string" name="ALGO"> Fast</i>
  <i type="int" name="NELM">   500</i>
  <i type="int" name="IBRION">     2</i>
  <i type="int" name="NFREE">     2</i>
  <i name="EDIFF">      0.00000100</i>
  <i name="EDIFFG">     -0.02000000</i>
  <i type="int" name="NSW">   500</i>
  <i type="int" name="ISIF">     0</i>
  <i type="int" name="ISYM">     2</i>
  <i name="ENCUT">    400.00000000</i>
  <i name="POTIM">      0.35000000</i>
  <i type="string" name="LREAL"> Auto</i>
  <i type="logical" name="LPLANE"> T  </i>
  <i type="int" name="ISMEAR">     0</i>
  <i name="SIGMA">      0.10000000</i>
  <i type="int" name="NWRITE">     1</i>
  <i type="logical" name="LWAVE"> F  </i>
  <i type="logical" name="LCHARG"> F  </i>
  <i type="logical" name="LVTOT"> F  </i>
  <i type="logical" name="LORBIT"> F  </i>
  <i type="logical" name="LAECHG"> F  </i>
  <v type="int" name="KPOINT_BSE">    -1     0     0     0</v>
  <i type="int" name="NELM">   500</i>
  <i type="string" name="GGA"> PE          ! optPBE-vdW XC-functional</i>
  <i type="int" name="VOSKOWN">     1</i>
  <i type="logical" name="LDIPOL"> T  </i>
  <i type="logical" name="LMONO"> F  </i>
  <i type="int" name="IDIPOL">     3</i>
  <v name="DIPOL">      0.00000000      0.00000000      0.50000000</v>
 </incar>
 <kpoints>
  <generation param="Monkhorst-Pack">
   <v type="int" name="divisions">       2        2        1 </v>
   <v name="usershift">      0.00000000       0.00000000       0.00000000 </v>
   <v name="genvec1">      0.50000000      -0.00000000       0.00000000 </v>
   <v name="genvec2">      0.00000000       0.50000000       0.00000000 </v>
   <v name="genvec3">      0.00000000       0.00000000       1.00000000 </v>
   <v name="shift">      0.50000000       0.50000000       0.00000000 </v>
  </generation>
  <varray name="kpointlist" >
   <v>       0.25000000       0.25000000       0.00000000 </v>
   <v>       0.00000000       0.25000000       0.00000000 </v>
   <v>      -0.25000000       0.00000000       0.00000000 </v>
   <v>      -0.25000000       0.25000000       0.00000000 </v>
   <v>       0.50000000      -0.25000000       0.00000000 </v>
   <v>      -0.25000000       0.50000000       0.00000000 </v>
  </varray>
  <varray name="weights" >
   <v>       0.16666667 </v>
   <v>       0.16666667 </v>
   <v>       0.16666667 </v>
   <v>       0.16666667 </v>
   <v>       0.16666667 </v>
   <v>       0.16666667 </v>
  </varray>
 </kpoints>
 <parameters>
  <separator name="general" >
   <i type="string" name="SYSTEM">unknown system</i>
   <i type="logical" name="LCOMPAT"> F  </i>
  </separator>
  <separator name="electronic" >
   <i type="string" name="PREC">normal</i>
   <i name="ENMAX">    400.00000000</i>
   <i name="ENAUG">    416.23000000</i>
   <i name="EDIFF">      0.00000100</i>
   <i type="int" name="IALGO">    68</i>
   <i type="int" name="IWAVPR">    11</i>
   <i type="int" name="NBANDS">   306</i>
   <i name="NELECT">    504.00000000</i>
   <i type="int" name="TURBO">     0</i>
   <i type="int" name="IRESTART">     0</i>
   <i type="int" name="NREBOOT">     0</i>
   <i type="int" name="NMIN">     0</i>
   <i name="EREF">      0.00000000</i>
   <separator name="electronic smearing" >
    <i type="int" name="ISMEAR">     0</i>
    <i name="SIGMA">      0.10000000</i>
    <i name="KSPACING">      0.50000000</i>
    <i type="logical" name="KGAMMA"> T  </i>
   </separator>
   <separator name="electronic projectors" >
    <i type="logical" name="LREAL"> T  </i>
    <v name="ROPT">     -0.00050000     -0.00050000</v>
    <i type="int" name="LMAXPAW">  -100</i>
    <i type="int" name="LMAXMIX">     2</i>
    <i type="logical" name="NLSPLINE"> F  </i>
   </separator>
   <separator name="electronic startup" >
    <i type="int" name="ISTART">     0</i>
    <i type="int" name="ICHARG">     2</i>
    <i type="int" name="INIWAV">     1</i>
   </separator>
   <separator name="electronic spin" >
    <i type="int" name="ISPIN">     1</i>
    <i type="logical" name="LNONCOLLINEAR"> F  </i>
    <v name="MAGMOM">      1.00000000      1.00000000      1.00000000      1.00000000      1.00000000      1.00000000      1.00000000      1.00000000      1.00000000      1.00000000      1.00000000      1.00000000      1.00000000      1.00000000      1.00000000      1.00000000      1.00000000      1.00000000      1.00000000      1.00000000
      1.00000000      1.00000000      1.00000000      1.00000000      1.00000000      1.00000000      1.00000000      1.00000000      1.00000000      1.00000000      1.00000000      1.00000000      1.00000000      1.00000000      1.00000000      1.00000000      1.00000000      1.00000000      1.00000000      1.00000000
      1.00000000      1.00000000      1.00000000      1.00000000      1.00000000      1.00000000      1.00000000      1.00000000</v>
    <i name="NUPDOWN">     -1.00000000</i>
    <i type="logical" name="LSORBIT"> F  </i>
    <v name="SAXIS">      0.00000000      0.00000000      1.00000000</v>
    <i type="logical" name="LSPIRAL"> F  </i>
    <v name="QSPIRAL">      0.00000000      0.00000000      0.00000000</v>
    <i type="logical" name="LZEROZ"> F  </i>
   </separator>
   <separator name="electronic exchange-correlation" >
    <i type="logical" name="LASPH"> F  </i>
    <i type="logical" name="LMETAGGA"> F  </i>
   </separator>
   <separator name="electronic convergence" >
    <i type="int" name="NELM">   500</i>
    <i type="int" name="NELMDL">    -5</i>
    <i type="int" name="NELMIN">     2</i>
    <i name="ENINI">    400.00000000</i>
    <separator name="electronic convergence detail" >
     <i type="logical" name="LDIAG"> T  </i>
     <i type="logical" name="LSUBROT"> F  </i>
     <i name="WEIMIN">      0.00100000</i>
     <i name="EBREAK">      0.00000000</i>
     <i name="DEPER">      0.30000000</i>
     <i type="int" name="NRMM">     4</i>
     <i name="TIME">      0.40000000</i>
    </separator>
   </separator>
   <separator name="electronic mixer" >
    <i name="AMIX">      0.40000000</i>
    <i name="BMIX">      1.00000000</i>
    <i name="AMIN">      0.10000000</i>
    <i name="AMIX_MAG">      1.60000000</i>
    <i name="BMIX_MAG">      1.00000000</i>
    <separator name="electronic mixer details" >
     <i type="int" name="IMIX">     4</i>
     <i type="logical" name="MIXFIRST"> F  </i>
     <i type="int" name="MAXMIX">   -45</i>
     <i name="WC">    100.00000000</i>
     <i type="int" name="INIMIX">     1</i>
     <i type="int" name="MIXPRE">     1</i>
     <i type="int" name="MREMOVE">     5</i>
    </separator>
   </separator>
   <separator name="electronic dipolcorrection" >
    <i type="logical" name="LDIPOL"> T  </i>
    <i type="logical" name="LMONO"> F  </i>
    <i type="int" name="IDIPOL">     3</i>
    <i name="EPSILON">      1.00000000</i>
    <v name="DIPOL">      0.00000000      0.00000000      0.50000000</v>
    <i name="EFIELD">      0.00000000</i>
   </separator>
  </separator>
  <separator name="grids" >
   <i type="int" name="NGX">    54</i>
   <i type="int" name="NGY">    54</i>
   <i type="int" name="NGZ">   120</i>
   <i type="int" name="NGXF">   108</i>
   <i type="int" name="NGYF">   108</i>
   <i type="int" name="NGZF">   240</i>
   <i type="logical" name="ADDGRID"> F  </i>
  </separator>
  <separator name="ionic" >
   <i type="int" name="NSW">   500</i>
   <i type="int" name="IBRION">     2</i>
   <i type="int" name="ISIF">     0</i>
   <i name="PSTRESS">      0.00000000</i>
   <i name="EDIFFG">     -0.02000000</i>
   <i type="int" name="NFREE">     2</i>
   <i name="POTIM">      0.35000000</i>
   <i name="SMASS">     -3.00000000</i>
   <i name="SCALEE">      1.00000000</i>
  </separator>
  <separator name="ionic md" >
   <i name="TEBEG">      0.00010000</i>
   <i name="TEEND">      0.00010000</i>
   <i type="int" name="NBLOCK">     1</i>
   <i type="int" name="KBLOCK">   500</i>
   <i type="int" name="NPACO">   256</i>
   <i name="APACO">     16.00000000</i>
  </separator>
  <separator name="symmetry" >
   <i type="int" name="ISYM">     2</i>
   <i name="SYMPREC">      0.00001000</i>
  </separator>
  <separator name="dos" >
   <i type="logical" name="LORBIT"> F  </i>
   <v name="RWIGS">     -1.00000000     -1.00000000</v>
   <i type="int" name="NEDOS">   301</i>
   <i name="EMIN">     10.00000000</i>
   <i name="EMAX">    -10.00000000</i>
   <i name="EFERMI">      0.00000000</i>
  </separator>
  <separator name="writing" >
   <i type="int" name="NWRITE">     1</i>
   <i type="logical" name="LWAVE"> F  </i>
   <i type="logical" name="LCHARG"> F  </i>
   <i type="logical" name="LPARD"> F  </i>
   <i type="logical" name="LVTOT"> F  </i>
   <i type="logical" name="LVHAR"> F  </i>
   <i type="logical" name="LELF"> F  </i>
   <i type="logical" name="LOPTICS"> F  </i>
   <v name="STM">      0.00000000      0.00000000      0.00000000      0.00000000      0.00000000      0.00000000      0.00000000</v>
  </separator>
  <separator name="performance" >
   <i type="int" name="NPAR">     6</i>
   <i type="int" name="NSIM">     4</i>
   <i type="int" name="NBLK">    -1</i>
   <i type="logical" name="LPLANE"> T  </i>
   <i type="logical" name="LSCALAPACK"> T  </i>
   <i type="logical" name="LSCAAWARE"> F  </i>
   <i type="logical" name="LSCALU"> F  </i>
   <i type="logical" name="LASYNC"> F  </i>
   <i type="logical" name="LORBITALREAL"> F  </i>
  </separator>
  <separator name="miscellaneous" >
   <i type="int" name="IDIOT">     3</i>
   <i type="logical" name="LMUSIC"> F  </i>
   <v name="POMASS">    196.96600000    106.42000000</v>
   <v name="DARWINR">      0.00000000      0.00000000</v>
   <v name="DARWINV">      1.00000000      1.00000000</v>
   <i type="logical" name="LCORR"> T  </i>
  </separator>
  <i type="logical" name="GGA_COMPAT"> T  </i>
  <i type="logical" name="LBERRY"> F  </i>
  <i type="int" name="ICORELEVEL">     0</i>
  <i type="logical" name="LDAU"> F  </i>
  <i type="int" name="I_CONSTRAINED_M">     0</i>
  <separator name="electronic exchange-correlation" >
   <i type="string" name="GGA">PE</i>
   <i type="int" name="VOSKOWN">     1</i>
   <i type="logical" name="LHFCALC"> F  </i>
   <i type="string" name="PRECFOCK"></i>
   <i type="logical" name="LSYMGRAD"> F  </i>
   <i type="logical" name="LHFONE"> F  </i>
   <i type="logical" name="LRHFCALC"> F  </i>
   <i type="logical" name="LTHOMAS"> F  </i>
   <i type="logical" name="LMODELHF"> F  </i>
   <i name="ENCUT4O">     -1.00000000</i>
   <i type="int" name="EXXOEP">     0</i>
   <i type="int" name="FOURORBIT">     0</i>
   <i name="AEXX">      0.00000000</i>
   <i name="HFALPHA">      0.00000000</i>
   <i name="MCALPHA">      0.00000000</i>
   <i name="ALDAX">      1.00000000</i>
   <i name="AGGAX">      1.00000000</i>
   <i name="ALDAC">      1.00000000</i>
   <i name="AGGAC">      1.00000000</i>
   <i type="int" name="NKREDX">     1</i>
   <i type="int" name="NKREDY">     1</i>
   <i type="int" name="NKREDZ">     1</i>
   <i type="logical" name="SHIFTRED"> F  </i>
   <i type="logical" name="ODDONLY"> F  </i>
   <i type="logical" name="EVENONLY"> F  </i>
   <i type="int" name="LMAXFOCK">     0</i>
   <i type="int" name="NMAXFOCKAE">     0</i>
   <i type="logical" name="LFOCKAEDFT"> F  </i>
   <i name="HFSCREEN">      0.00000000</i>
   <i name="HFSCREENC">      0.00000000</i>
   <i type="int" name="NBANDSGWLOW">     0</i>
  </separator>
  <separator name="vdW DFT" >
   <i type="logical" name="LUSE_VDW"> F  </i>
   <i name="Zab_VDW">     -0.84910000</i>
   <i name="PARAM1">      0.12340000</i>
   <i name="PARAM2">      1.00000000</i>
   <i name="PARAM3">      0.00000000</i>
  </separator>
  <separator name="model GW" >
   <i type="int" name="MODEL_GW">     0</i>
   <i name="MODEL_EPS0">     32.09595293</i>
   <i name="MODEL_ALPHA">      1.00000000</i>
  </separator>
  <separator name="linear response parameters" >
   <i type="logical" name="LEPSILON"> F  </i>
   <i type="logical" name="LRPA"> F  </i>
   <i type="logical" name="LNABLA"> F  </i>
   <i type="logical" name="LVEL"> F  </i>
   <i type="int" name="KINTER">     0</i>
   <i name="CSHIFT">      0.10000000</i>
   <i name="OMEGAMAX">     -1.00000000</i>
   <i name="DEG_THRESHOLD">      0.00200000</i>
  </separator>
  <separator name="orbital magnetization" >
   <i type="logical" name="NUCIND"> F  </i>
   <v name="MAGPOS">      0.00000000      0.00000000      0.00000000</v>
   <i type="logical" name="LNICSALL"> T  </i>
   <i type="logical" name="ORBITALMAG"> F  </i>
   <i type="logical" name="LMAGBLOCH"> F  </i>
   <i type="logical" name="LCHIMAG"> F  </i>
   <i type="logical" name="LGAUGE"> T  </i>
   <i type="int" name="MAGATOM">     0</i>
   <v name="MAGDIPOL">      0.00000000      0.00000000      0.00000000</v>
   <v name="AVECCONST">      0.00000000      0.00000000      0.00000000</v>
  </separator>
  <separator name="response functions" >
   <i type="logical" name="LADDER"> F  </i>
   <i type="logical" name="LFXC"> F  </i>
   <i type="logical" name="LHARTREE"> T  </i>
   <i type="int" name="IBSE">     0</i>
   <v type="int" name="KPOINT">    -1     0     0     0</v>
   <i type="logical" name="LTCTE"> F  </i>
   <i type="logical" name="LTETE"> F  </i>
   <i type="logical" name="LTRIPLET"> F  </i>
   <i type="logical" name="LFXCEPS"> F  </i>
   <i type="logical" name="LFXHEG"> F  </i>
   <i type="int" name="NATURALO">     0</i>
   <i type="logical" name="L2ORDER"> F  </i>
   <i type="logical" name="LUSEW"> F  </i>
   <i name="ENCUTGW">     -2.00000000</i>
   <i name="ENCUTGWSOFT">     -2.00000000</i>
   <i name="ENCUTLF">     -1.00000000</i>
   <i type="int" name="LMAXMP2">    -1</i>
   <i name="SCISSOR">      0.00000000</i>
   <i type="int" name="NOMEGA">     0</i>
   <i type="int" name="NOMEGAR">     0</i>
   <i type="int" name="NBANDSGW">    -1</i>
   <i type="int" name="NBANDSO">    -1</i>
   <i type="int" name="NBANDSV">    -1</i>
   <i type="int" name="NELM">   500</i>
   <i type="int" name="NELMHF">     1</i>
   <i type="int" name="DIM">     3</i>
   <i type="int" name="ANTIRES">     0</i>
   <i name="OMEGAMAX">    -30.00000000</i>
   <i name="OMEGAMIN">    -30.00000000</i>
   <i name="OMEGATL">   -200.00000000</i>
   <i type="int" name="OMEGAGRID">     0</i>
   <i name="CSHIFT">     -0.10000000</i>
   <i type="logical" name="SELFENERGY"> F  </i>
   <i type="logical" name="LSPECTRAL"> F  </i>
   <i type="logical" name="LSPECTRALGW"> F  </i>
   <i type="logical" name="LSINGLES"> F  </i>
   <i type="logical" name="LFERMIGW"> F  </i>
   <i type="logical" name="ODDONLYGW"> F  </i>
   <i type="logical" name="EVENONLYGW"> F  </i>
   <i type="int" name="NKREDLFX">     1</i>
   <i type="int" name="NKREDLFY">     1</i>
   <i type="int" name="NKREDLFZ">     1</i>
   <i type="int" name="MAXMEM">  1800</i>
   <i type="int" name="TELESCOPE">     0</i>
   <i type="int" name="TAUPAR">     1</i>
   <i type="int" name="OMEGAPAR">    -1</i>
   <i name="LAMBDA">      1.00000000</i>
  </separator>
  <separator name="External order field" >
   <i name="OFIELD_KAPPA">      0.00000000</i>
   <v name="OFIELD_K">      0.00000000      0.00000000      0.00000000</v>
   <i name="OFIELD_Q6_NEAR">      0.00000000</i>
   <i name="OFIELD_Q6_FAR">      0.00000000</i>
   <i name="OFIELD_A">      0.00000000</i>
  </separator>
 </parameters>
 <atominfo>
  <atoms>      48 </atoms>
  <types>       2 </types>
  <array name="atoms" >
   <dimension dim="1">ion</dimension>
   <field type="string">element</field>
   <field type="int">atomtype</field>
   <set>
    <rc><c>Au</c><c>   1</c></rc>
    <rc><c>Au</c><c>   1</c></rc>
    <rc><c>Au</c><c>   1</c></rc>
    <rc><c>Au</c><c>   1</c></rc>
    <rc><c>Au</c><c>   1</c></rc>
    <rc><c>Au</c><c>   1</c></rc>
    <rc><c>Au</c><c>   1</c></rc>
    <rc><c>Au</c><c>   1</c></rc>
    <rc><c>Au</c><c>   1</c></rc>
    <rc><c>Au</c><c>   1</c></rc>
    <rc><c>Au</c><c>   1</c></rc>
    <rc><c>Au</c><c>   1</c></rc>
    <rc><c>Au</c><c>   1</c></rc>
    <rc><c>Au</c><c>   1</c></rc>
    <rc><c>Au</c><c>   1</c></rc>
    <rc><c>Au</c><c>   1</c></rc>
    <rc><c>Au</c><c>   1</c></rc>
    <rc><c>Au</c><c>   1</c></rc>
    <rc><c>Au</c><c>   1</c></rc>
    <rc><c>Au</c><c>   1</c></rc>
    <rc><c>Au</c><c>   1</c></rc>
    <rc><c>Au</c><c>   1</c></rc>
    <rc><c>Au</c><c>   1</c></rc>
    <rc><c>Au</c><c>   1</c></rc>
    <rc><c>Pd</c><c>   2</c></rc>
    <rc><c>Pd</c><c>   2</c></rc>
    <rc><c>Pd</c><c>   2</c></rc>
    <rc><c>Pd</c><c>   2</c></rc>
    <rc><c>Pd</c><c>   2</c></rc>
    <rc><c>Pd</c><c>   2</c></rc>
    <rc><c>Pd</c><c>   2</c></rc>
    <rc><c>Pd</c><c>   2</c></rc>
    <rc><c>Pd</c><c>   2</c></rc>
    <rc><c>Pd</c><c>   2</c></rc>
    <rc><c>Pd</c><c>   2</c></rc>
    <rc><c>Pd</c><c>   2</c></rc>
    <rc><c>Pd</c><c>   2</c></rc>
    <rc><c>Pd</c><c>   2</c></rc>
    <rc><c>Pd</c><c>   2</c></rc>
    <rc><c>Pd</c><c>   2</c></rc>
    <rc><c>Pd</c><c>   2</c></rc>
    <rc><c>Pd</c><c>   2</c></rc>
    <rc><c>Pd</c><c>   2</c></rc>
    <rc><c>Pd</c><c>   2</c></rc>
    <rc><c>Pd</c><c>   2</c></rc>
    <rc><c>Pd</c><c>   2</c></rc>
    <rc><c>Pd</c><c>   2</c></rc>
    <rc><c>Pd</c><c>   2</c></rc>
   </set>
  </array>
  <array name="atomtypes" >
   <dimension dim="1">type</dimension>
   <field type="int">atomspertype</field>
   <field type="string">element</field>
   <field>mass</field>
   <field>valence</field>
   <field type="string">pseudopotential</field>
   <set>
    <rc><c>  24</c><c>Au</c><c>    196.96600000</c><c>     11.00000000</c><c>  PAW_PBE Au 04Oct2007                  </c></rc>
    <rc><c>  24</c><c>Pd</c><c>    106.42000000</c><c>     10.00000000</c><c>  PAW_PBE Pd 04Jan2005                  </c></rc>
   </set>
  </array>
 </atominfo>
 <structure name="initialpos" >
  <crystal>
   <varray name="basis" >
    <v>      11.00258152       0.00000000       0.00000000 </v>
    <v>       5.50129076       9.52851510       0.00000000 </v>
    <v>       0.00000000       0.00000000      24.49178509 </v>
   </varray>
   <i name="volume">   2567.67623402 </i>
   <varray name="rec_basis" >
    <v>       0.09088776      -0.05247407       0.00000000 </v>
    <v>       0.00000000       0.10494815       0.00000000 </v>
    <v>       0.00000000       0.00000000       0.04083002 </v>
   </varray>
  </crystal>
  <varray name="positions" >
   <v>       0.08333333       0.08333333       0.40830017 </v>
   <v>       0.91666667       0.41666667       0.50000000 </v>
   <v>       0.91666667       0.91666667       0.50000000 </v>
   <v>       0.91666667       0.66666667       0.50000000 </v>
   <v>       0.91666667       0.16666667       0.50000000 </v>
   <v>       0.33333333       0.08333333       0.40830017 </v>
   <v>       0.25000000       0.00000000       0.59169983 </v>
   <v>       0.16666667       0.16666667       0.50000000 </v>
   <v>       0.00000000       0.25000000       0.59169983 </v>
   <v>       0.25000000       0.75000000       0.59169983 </v>
   <v>       0.16666667       0.41666667       0.50000000 </v>
   <v>       0.33333333       0.58333333       0.40830017 </v>
   <v>       0.08333333       0.33333333       0.40830017 </v>
   <v>       0.33333333       0.83333333       0.40830017 </v>
   <v>       0.58333333       0.33333333       0.40830017 </v>
   <v>       0.50000000       0.25000000       0.59169983 </v>
   <v>       0.58333333       0.58333333       0.40830017 </v>
   <v>       0.50000000       0.50000000       0.59169983 </v>
   <v>       0.58333333       0.83333333       0.40830017 </v>
   <v>       0.83333333       0.08333333       0.40830017 </v>
   <v>       0.66666667       0.16666667       0.50000000 </v>
   <v>       0.83333333       0.58333333       0.40830017 </v>
   <v>       0.75000000       0.50000000       0.59169983 </v>
   <v>       0.16666667       0.66666667       0.50000000 </v>
   <v>       0.08333333       0.83333333       0.40830017 </v>
   <v>       0.50000000       0.00000000       0.59169983 </v>
   <v>       0.41666667       0.16666667       0.50000000 </v>
   <v>       0.58333333       0.08333333       0.40830017 </v>
   <v>       0.25000000       0.25000000       0.59169983 </v>
   <v>       0.16666667       0.91666667       0.50000000 </v>
   <v>       0.25000000       0.50000000       0.59169983 </v>
   <v>       0.00000000       0.75000000       0.59169983 </v>
   <v>       0.41666667       0.41666667       0.50000000 </v>
   <v>       0.66666667       0.91666667       0.50000000 </v>
   <v>       0.00000000       0.50000000       0.59169983 </v>
   <v>       0.66666667       0.66666667       0.50000000 </v>
   <v>       0.66666667       0.41666667       0.50000000 </v>
   <v>       0.83333333       0.33333333       0.40830017 </v>
   <v>       0.83333333       0.83333333       0.40830017 </v>
   <v>       0.00000000       0.00000000       0.59169983 </v>
   <v>       0.75000000       0.25000000       0.59169983 </v>
   <v>       0.41666667       0.91666667       0.50000000 </v>
   <v>       0.33333333       0.33333333       0.40830017 </v>
   <v>       0.75000000       0.00000000       0.59169983 </v>
   <v>       0.50000000       0.75000000       0.59169983 </v>
   <v>       0.08333333       0.58333333       0.40830017 </v>
   <v>       0.41666667       0.66666667       0.50000000 </v>
   <v>       0.75000000       0.75000000       0.59169983 </v>
  </varray>
  <varray name="selective"  type="logical" >
   <v type="logical" >  F  F  F </v>
   <v type="logical" >  T  T  T </v>
   <v type="logical" >  T  T  T </v>
   <v type="logical" >  T  T  T </v>
   <v type="logical" >  T  T  T </v>
   <v type="logical" >  F  F  F </v>
   <v type="logical" >  T  T  T </v>
   <v type="logical" >  T  T  T </v>
   <v type="logical" >  T  T  T </v>
   <v type="logical" >  T  T  T </v>
   <v type="logical" >  T  T  T </v>
   <v type="logical" >  F  F  F </v>
   <v type="logical" >  F  F  F </v>
   <v type="logical" >  F  F  F </v>
   <v type="logical" >  F  F  F </v>
   <v type="logical" >  T  T  T </v>
   <v type="logical" >  F  F  F </v>
   <v type="logical" >  T  T  T </v>
   <v type="logical" >  F  F  F </v>
   <v type="logical" >  F  F  F </v>
   <v type="logical" >  T  T  T </v>
   <v type="logical" >  F  F  F </v>
   <v type="logical" >  T  T  T </v>
   <v type="logical" >  T  T  T </v>
   <v type="logical" >  F  F  F </v>
   <v type="logical" >  T  T  T </v>
   <v type="logical" >  T  T  T </v>
   <v type="logical" >  F  F  F </v>
   <v type="logical" >  T  T  T </v>
   <v type="logical" >  T  T  T </v>
   <v type="logical" >  T  T  T </v>
   <v type="logical" >  T  T  T </v>
   <v type="logical" >  T  T  T </v>
   <v type="logical" >  T  T  T </v>
   <v type="logical" >  T  T  T </v>
   <v type="logical" >  T  T  T </v>
   <v type="logical" >  T  T  T </v>
   <v type="logical" >  F  F  F </v>
   <v type="logical" >  F  F  F </v>
   <v type="logical" >  T  T  T </v>
   <v type="logical" >  T  T  T </v>
   <v type="logical" >  T  T  T </v>
   <v type="logical" >  F  F  F </v>
   <v type="logical" >  T  T  T </v>
   <v type="logical" >  T  T  T </v>
   <v type="logical" >  F  F  F </v>
   <v type="logical" >  T  T  T </v>
   <v type="logical" >  T  T  T </v>
  </varray>
  <nose>
   <v>      -3.00000000       0.00000000       0.00010000       0.00010000 </v>
  </nose>
 </structure>
 <calculation>
  <scstep>
   <time name="dav">    9.19    9.20</time>
   <time name="total">    9.25    9.27</time>
   <dipole>
    <v name="dipole">      0.00000000       0.00000000       0.00000296 </v>
    <i name="Tr[quadrupol]"> -10264.71203352 </i>
    <i name="Echarged">      0.00000000 </i>
    <i name="Edipol_quadrupol">      0.00000000 </i>
    <i name="Eion">      0.00000000 </i>
   </dipole>
   <energy>
    <i name="alphaZ">    805.86936616 </i>
    <i name="ewald"> 200168.72466444 </i>
    <i name="hartreedc">-242583.02585678 </i>
    <i name="XCdc">   -327.62453318 </i>
    <i name="pawpsdc">  40340.05962942 </i>
    <i name="pawaedc"> -38292.62782345 </i>
    <i name="eentropy">     -0.13525461 </i>
    <i name="bandstr">   1428.71002266 </i>
    <i name="atom">  41659.78587232 </i>
    <i name="e_fr_energy">   3199.73608698 </i>
    <i name="e_wo_entrp">   3199.87134159 </i>
    <i name="e_0_energy">   3199.80371429 </i>
   </energy>
  </scstep>
  <scstep>
   <time name="dav">   10.93   10.94</time>
   <time name="total">   10.94   10.95</time>
   <dipole>
    <v name="dipole">      0.00000000       0.00000000       0.00000296 </v>
    <i name="Tr[quadrupol]"> -10264.71203352 </i>
    <i name="Echarged">      0.00000000 </i>
    <i name="Edipol_quadrupol">      0.00000000 </i>
    <i name="Eion">      0.00000000 </i>
   </dipole>
   <energy>
    <i name="e_fr_energy">     14.51539990 </i>
    <i name="e_wo_entrp">     14.64267186 </i>
    <i name="e_0_energy">     14.57903588 </i>
   </energy>
  </scstep>
  <scstep>
   <time name="dav">   10.53   10.54</time>
   <time name="total">   10.54   10.55</time>
   <dipole>
    <v name="dipole">      0.00000000       0.00000000       0.00000296 </v>
    <i name="Tr[quadrupol]"> -10264.71203352 </i>
    <i name="Echarged">      0.00000000 </i>
    <i name="Edipol_quadrupol">      0.00000000 </i>
    <i name="Eion">      0.00000000 </i>
   </dipole>
   <energy>
    <i name="e_fr_energy">   -200.73847442 </i>
    <i name="e_wo_entrp">   -200.54261922 </i>
    <i name="e_0_energy">   -200.64054682 </i>
   </energy>
  </scstep>
  <scstep>
   <time name="dav">   10.71   10.80</time>
   <time name="total">   10.71   10.81</time>
   <dipole>
    <v name="dipole">      0.00000000       0.00000000       0.00000296 </v>
    <i name="Tr[quadrupol]"> -10264.71203352 </i>
    <i name="Echarged">      0.00000000 </i>
    <i name="Edipol_quadrupol">      0.00000000 </i>
    <i name="Eion">      0.00000000 </i>
   </dipole>
   <energy>
    <i name="e_fr_energy">   -206.49168582 </i>
    <i name="e_wo_entrp">   -206.28919956 </i>
    <i name="e_0_energy">   -206.39044269 </i>
   </energy>
  </scstep>
  <scstep>
   <time name="dav">   11.82   11.84</time>
   <time name="total">   12.13   12.16</time>
   <dipole>
    <v name="dipole">      0.00000000       0.00000000       0.00000296 </v>
    <i name="Tr[quadrupol]"> -10264.71203352 </i>
    <i name="Echarged">      0.00000000 </i>
    <i name="Edipol_quadrupol">      0.00000000 </i>
    <i name="Eion">      0.00000000 </i>
   </dipole>
   <energy>
    <i name="e_fr_energy">   -206.68453594 </i>
    <i name="e_wo_entrp">   -206.48176090 </i>
    <i name="e_0_energy">   -206.58314842 </i>
   </energy>
  </scstep>
  <scstep>
   <time name="diag">    1.62    1.62</time>
   <time name="diis">    4.40    4.41</time>
   <time name="orth">    0.40    0.40</time>
   <time name="total">    6.80    6.81</time>
   <dipole>
    <v name="dipole">      0.00000000       0.00000000       1.34769571 </v>
    <i name="Tr[quadrupol]"> -10266.10890516 </i>
    <i name="Echarged">      0.00000000 </i>
    <i name="Edipol_quadrupol">      0.00000000 </i>
    <i name="Eion">      0.00000000 </i>
   </dipole>
   <energy>
    <i name="e_fr_energy">   -208.76376777 </i>
    <i name="e_wo_entrp">   -208.53131235 </i>
    <i name="e_0_energy">   -208.64754006 </i>
   </energy>
  </scstep>
  <scstep>
   <time name="diag">    1.63    1.63</time>
   <time name="diis">    4.41    4.42</time>
   <time name="orth">    0.40    0.40</time>
   <time name="total">    6.81    6.82</time>
   <dipole>
    <v name="dipole">      0.00000000       0.00000000      -1.32808532 </v>
    <i name="Tr[quadrupol]"> -10265.35586434 </i>
    <i name="Echarged">      0.00000000 </i>
    <i name="Edipol_quadrupol">      0.00000000 </i>
    <i name="Eion">      0.00000000 </i>
   </dipole>
   <energy>
    <i name="e_fr_energy">   -216.96179218 </i>
    <i name="e_wo_entrp">   -216.73366665 </i>
    <i name="e_0_energy">   -216.84772942 </i>
   </energy>
  </scstep>
  <scstep>
   <time name="diag">    1.62    1.62</time>
   <time name="diis">    4.41    4.41</time>
   <time name="orth">    0.40    0.40</time>
   <time name="total">    6.80    6.81</time>
   <dipole>
    <v name="dipole">      0.00000000       0.00000000       1.35535357 </v>
    <i name="Tr[quadrupol]"> -10265.86570170 </i>
    <i name="Echarged">      0.00000000 </i>
    <i name="Edipol_quadrupol">      0.00000000 </i>
    <i name="Eion">      0.00000000 </i>
   </dipole>
   <energy>
    <i name="e_fr_energy">   -219.25247337 </i>
    <i name="e_wo_entrp">   -219.00320216 </i>
    <i name="e_0_energy">   -219.12783777 </i>
   </energy>
  </scstep>
  <scstep>
   <time name="diag">    1.63    1.63</time>
   <time name="diis">    4.24    4.34</time>
   <time name="orth">    0.40    0.41</time>
   <time name="total">    6.64    6.76</time>
   <dipole>
    <v name="dipole">      0.00000000       0.00000000      -0.43650629 </v>
    <i name="Tr[quadrupol]"> -10266.58847683 </i>
    <i name="Echarged">      0.00000000 </i>
    <i name="Edipol_quadrupol">      0.00000000 </i>
    <i name="Eion">      0.00000000 </i>
   </dipole>
   <energy>
    <i name="e_fr_energy">   -212.49951043 </i>
    <i name="e_wo_entrp">   -212.25027475 </i>
    <i name="e_0_energy">   -212.37489259 </i>
   </energy>
  </scstep>
  <scstep>
   <time name="diag">    1.62    1.63</time>
   <time name="diis">    4.42    4.43</time>
   <time name="orth">    0.40    0.40</time>
   <time name="total">    6.81    6.82</time>
   <dipole>
    <v name="dipole">      0.00000000       0.00000000       0.47878722 </v>
    <i name="Tr[quadrupol]"> -10265.53534050 </i>
    <i name="Echarged">      0.00000000 </i>
    <i name="Edipol_quadrupol">      0.00000000 </i>
    <i name="Eion">      0.00000000 </i>
   </dipole>
   <energy>
    <i name="e_fr_energy">   -198.30139030 </i>
    <i name="e_wo_entrp">   -198.17249997 </i>
    <i name="e_0_energy">   -198.23694514 </i>
   </energy>
  </scstep>
  <scstep>
   <time name="diag">    1.63    1.63</time>
   <time name="diis">    4.39    4.39</time>
   <time name="orth">    0.39    0.39</time>
   <time name="total">    6.77    6.78</time>
   <dipole>
    <v name="dipole">      0.00000000       0.00000000       0.15582416 </v>
    <i name="Tr[quadrupol]"> -10266.98300244 </i>
    <i name="Echarged">      0.00000000 </i>
    <i name="Edipol_quadrupol">      0.00000000 </i>
    <i name="Eion">      0.00000000 </i>
   </dipole>
   <energy>
    <i name="e_fr_energy">   -192.40039566 </i>
    <i name="e_wo_entrp">   -192.18348667 </i>
    <i name="e_0_energy">   -192.29194117 </i>
   </energy>
  </scstep>
  <scstep>
   <time name="diag">    1.61    1.61</time>
   <time name="diis">    4.28    4.28</time>
   <time name="orth">    0.41    0.41</time>
   <time name="total">    6.67    6.68</time>
   <dipole>
    <v name="dipole">      0.00000000       0.00000000       0.19352308 </v>
    <i name="Tr[quadrupol]"> -10266.72859440 </i>
    <i name="Echarged">      0.00000000 </i>
    <i name="Edipol_quadrupol">      0.00000000 </i>
    <i name="Eion">      0.00000000 </i>
   </dipole>
   <energy>
    <i name="e_fr_energy">   -189.65739637 </i>
    <i name="e_wo_entrp">   -189.46111734 </i>
    <i name="e_0_energy">   -189.55925686 </i>
   </energy>
  </scstep>
  <scstep>
   <time name="diag">    1.76    1.78</time>
   <time name="diis">    4.66    4.69</time>
   <time name="orth">    0.39    0.39</time>
   <time name="total">    7.18    7.22</time>
   <dipole>
    <v name="dipole">      0.00000000       0.00000000       0.16992773 </v>
    <i name="Tr[quadrupol]"> -10267.32798104 </i>
    <i name="Echarged">      0.00000000 </i>
    <i name="Edipol_quadrupol">      0.00000000 </i>
    <i name="Eion">      0.00000000 </i>
   </dipole>
   <energy>
    <i name="e_fr_energy">   -188.97614885 </i>
    <i name="e_wo_entrp">   -188.72760030 </i>
    <i name="e_0_energy">   -188.85187457 </i>
   </energy>
  </scstep>
  <scstep>
   <time name="diag">    1.61    1.61</time>
   <time name="diis">    4.28    4.29</time>
   <time name="orth">    0.39    0.39</time>
   <time name="total">    6.66    6.66</time>
   <dipole>
    <v name="dipole">      0.00000000       0.00000000       0.12996918 </v>
    <i name="Tr[quadrupol]"> -10267.67200309 </i>
    <i name="Echarged">      0.00000000 </i>
    <i name="Edipol_quadrupol">      0.00000000 </i>
    <i name="Eion">      0.00000000 </i>
   </dipole>
   <energy>
    <i name="e_fr_energy">   -189.26908258 </i>
    <i name="e_wo_entrp">   -189.04122605 </i>
    <i name="e_0_energy">   -189.15515432 </i>
   </energy>
  </scstep>
  <scstep>
   <time name="diag">    1.61    1.63</time>
   <time name="diis">    4.23    4.32</time>
   <time name="orth">    0.39    0.39</time>
   <time name="total">    6.60    6.71</time>
   <dipole>
    <v name="dipole">      0.00000000       0.00000000       0.11630719 </v>
    <i name="Tr[quadrupol]"> -10267.99206323 </i>
    <i name="Echarged">      0.00000000 </i>
    <i name="Edipol_quadrupol">      0.00000000 </i>
    <i name="Eion">      0.00000000 </i>
   </dipole>
   <energy>
    <i name="e_fr_energy">   -189.19890459 </i>
    <i name="e_wo_entrp">   -188.96917407 </i>
    <i name="e_0_energy">   -189.08403933 </i>
   </energy>
  </scstep>
  <scstep>
   <time name="diag">    1.61    1.62</time>
   <time name="diis">    4.38    4.39</time>
   <time name="orth">    0.39    0.40</time>
   <time name="total">    6.76    6.77</time>
   <dipole>
    <v name="dipole">      0.00000000       0.00000000       0.09327998 </v>
    <i name="Tr[quadrupol]"> -10268.24058397 </i>
    <i name="Echarged">      0.00000000 </i>
    <i name="Edipol_quadrupol">      0.00000000 </i>
    <i name="Eion">      0.00000000 </i>
   </dipole>
   <energy>
    <i name="e_fr_energy">   -188.83948379 </i>
    <i name="e_wo_entrp">   -188.58959572 </i>
    <i name="e_0_energy">   -188.71453976 </i>
   </energy>
  </scstep>
  <scstep>
   <time name="diag">    1.62    1.62</time>
   <time name="diis">    4.36    4.36</time>
   <time name="orth">    0.38    0.38</time>
   <time name="total">    6.72    6.73</time>
   <dipole>
    <v name="dipole">      0.00000000       0.00000000       0.09649538 </v>
    <i name="Tr[quadrupol]"> -10268.47595506 </i>
    <i name="Echarged">      0.00000000 </i>
    <i name="Edipol_quadrupol">      0.00000000 </i>
    <i name="Eion">      0.00000000 </i>
   </dipole>
   <energy>
    <i name="e_fr_energy">   -188.73857115 </i>
    <i name="e_wo_entrp">   -188.49095973 </i>
    <i name="e_0_energy">   -188.61476544 </i>
   </energy>
  </scstep>
  <scstep>
   <time name="diag">    1.60    1.60</time>
   <time name="diis">    4.39    4.40</time>
   <time name="orth">    0.38    0.38</time>
   <time name="total">    6.74    6.75</time>
   <dipole>
    <v name="dipole">      0.00000000       0.00000000       0.09042370 </v>
    <i name="Tr[quadrupol]"> -10268.75531376 </i>
    <i name="Echarged">      0.00000000 </i>
    <i name="Edipol_quadrupol">      0.00000000 </i>
    <i name="Eion">      0.00000000 </i>
   </dipole>
   <energy>
    <i name="e_fr_energy">   -188.68131674 </i>
    <i name="e_wo_entrp">   -188.42318822 </i>
    <i name="e_0_energy">   -188.55225248 </i>
   </energy>
  </scstep>
  <scstep>
   <time name="diag">    1.61    1.61</time>
   <time name="diis">    4.40    4.40</time>
   <time name="orth">    0.38    0.38</time>
   <time name="total">    6.75    6.76</time>
   <dipole>
    <v name="dipole">      0.00000000       0.00000000       0.07883020 </v>
    <i name="Tr[quadrupol]"> -10268.84191782 </i>
    <i name="Echarged">      0.00000000 </i>
    <i name="Edipol_quadrupol">      0.00000000 </i>
    <i name="Eion">      0.00000000 </i>
   </dipole>
   <energy>
    <i name="e_fr_energy">   -188.65701178 </i>
    <i name="e_wo_entrp">   -188.39779335 </i>
    <i name="e_0_energy">   -188.52740257 </i>
   </energy>
  </scstep>
  <scstep>
   <time name="diag">    1.59    1.59</time>
   <time name="diis">    4.32    4.33</time>
   <time name="orth">    0.38    0.38</time>
   <time name="total">    6.66    6.67</time>
   <dipole>
    <v name="dipole">      0.00000000       0.00000000       0.06783844 </v>
    <i name="Tr[quadrupol]"> -10268.94666309 </i>
    <i name="Echarged">      0.00000000 </i>
    <i name="Edipol_quadrupol">      0.00000000 </i>
    <i name="Eion">      0.00000000 </i>
   </dipole>
   <energy>
    <i name="e_fr_energy">   -188.65130054 </i>
    <i name="e_wo_entrp">   -188.39017736 </i>
    <i name="e_0_energy">   -188.52073895 </i>
   </energy>
  </scstep>
  <scstep>
   <time name="diag">    1.58    1.63</time>
   <time name="diis">    4.25    4.30</time>
   <time name="orth">    0.38    0.38</time>
   <time name="total">    6.57    6.68</time>
   <dipole>
    <v name="dipole">      0.00000000       0.00000000       0.06358183 </v>
    <i name="Tr[quadrupol]"> -10269.06269777 </i>
    <i name="Echarged">      0.00000000 </i>
    <i name="Edipol_quadrupol">      0.00000000 </i>
    <i name="Eion">      0.00000000 </i>
   </dipole>
   <energy>
    <i name="e_fr_energy">   -188.64626008 </i>
    <i name="e_wo_entrp">   -188.38599562 </i>
    <i name="e_0_energy">   -188.51612785 </i>
   </energy>
  </scstep>
  <scstep>
   <time name="diag">    1.76    1.77</time>
   <time name="diis">    4.64    4.65</time>
   <time name="orth">    0.38    0.38</time>
   <time name="total">    7.14    7.17</time>
   <dipole>
    <v name="dipole">      0.00000000       0.00000000       0.06393669 </v>
    <i name="Tr[quadrupol]"> -10269.27640616 </i>
    <i name="Echarged">      0.00000000 </i>
    <i name="Edipol_quadrupol">      0.00000000 </i>
    <i name="Eion">      0.00000000 </i>
   </dipole>
   <energy>
    <i name="e_fr_energy">   -188.64416107 </i>
    <i name="e_wo_entrp">   -188.38466349 </i>
    <i name="e_0_energy">   -188.51441228 </i>
   </energy>
  </scstep>
  <scstep>
   <time name="diag">    1.62    1.62</time>
   <time name="diis">    4.40    4.40</time>
   <time name="orth">    0.38    0.38</time>
   <time name="total">    6.75    6.76</time>
   <dipole>
    <v name="dipole">      0.00000000       0.00000000       0.06027438 </v>
    <i name="Tr[quadrupol]"> -10269.39921855 </i>
    <i name="Echarged">      0.00000000 </i>
    <i name="Edipol_quadrupol">      0.00000000 </i>
    <i name="Eion">      0.00000000 </i>
   </dipole>
   <energy>
    <i name="e_fr_energy">   -188.64342220 </i>
    <i name="e_wo_entrp">   -188.38372319 </i>
    <i name="e_0_energy">   -188.51357269 </i>
   </energy>
  </scstep>
  <scstep>
   <time name="diag">    1.59    1.59</time>
   <time name="diis">    4.40    4.40</time>
   <time name="orth">    0.38    0.38</time>
   <time name="total">    6.73    6.74</time>
   <dipole>
    <v name="dipole">      0.00000000       0.00000000       0.05379479 </v>
    <i name="Tr[quadrupol]"> -10269.45855515 </i>
    <i name="Echarged">      0.00000000 </i>
    <i name="Edipol_quadrupol">      0.00000000 </i>
    <i name="Eion">      0.00000000 </i>
   </dipole>
   <energy>
    <i name="e_fr_energy">   -188.64322548 </i>
    <i name="e_wo_entrp">   -188.38202515 </i>
    <i name="e_0_energy">   -188.51262532 </i>
   </energy>
  </scstep>
  <scstep>
   <time name="diag">    1.61    1.61</time>
   <time name="diis">    4.33    4.33</time>
   <time name="orth">    0.38    0.38</time>
   <time name="total">    6.68    6.69</time>
   <dipole>
    <v name="dipole">      0.00000000       0.00000000       0.04807834 </v>
    <i name="Tr[quadrupol]"> -10269.56252360 </i>
    <i name="Echarged">      0.00000000 </i>
    <i name="Edipol_quadrupol">      0.00000000 </i>
    <i name="Eion">      0.00000000 </i>
   </dipole>
   <energy>
    <i name="e_fr_energy">   -188.64344613 </i>
    <i name="e_wo_entrp">   -188.38226761 </i>
    <i name="e_0_energy">   -188.51285687 </i>
   </energy>
  </scstep>
  <scstep>
   <time name="diag">    1.60    1.60</time>
   <time name="diis">    4.35    4.35</time>
   <time name="orth">    0.39    0.39</time>
   <time name="total">    6.71    6.72</time>
   <dipole>
    <v name="dipole">      0.00000000       0.00000000       0.04587104 </v>
    <i name="Tr[quadrupol]"> -10269.59824860 </i>
    <i name="Echarged">      0.00000000 </i>
    <i name="Edipol_quadrupol">      0.00000000 </i>
    <i name="Eion">      0.00000000 </i>
   </dipole>
   <energy>
    <i name="e_fr_energy">   -188.64354857 </i>
    <i name="e_wo_entrp">   -188.38245751 </i>
    <i name="e_0_energy">   -188.51300304 </i>
   </energy>
  </scstep>
  <scstep>
   <time name="diag">    1.57    1.65</time>
   <time name="diis">    4.35    4.35</time>
   <time name="orth">    0.38    0.38</time>
   <time name="total">    6.67    6.76</time>
   <dipole>
    <v name="dipole">      0.00000000       0.00000000       0.04256372 </v>
    <i name="Tr[quadrupol]"> -10269.66487865 </i>
    <i name="Echarged">      0.00000000 </i>
    <i name="Edipol_quadrupol">      0.00000000 </i>
    <i name="Eion">      0.00000000 </i>
   </dipole>
   <energy>
    <i name="e_fr_energy">   -188.64395801 </i>
    <i name="e_wo_entrp">   -188.38297026 </i>
    <i name="e_0_energy">   -188.51346413 </i>
   </energy>
  </scstep>
  <scstep>
   <time name="diag">    1.60    1.60</time>
   <time name="diis">    4.41    4.41</time>
   <time name="orth">    0.38    0.38</time>
   <time name="total">    6.76    6.76</time>
   <dipole>
    <v name="dipole">      0.00000000       0.00000000       0.03976563 </v>
    <i name="Tr[quadrupol]"> -10269.72598294 </i>
    <i name="Echarged">      0.00000000 </i>
    <i name="Edipol_quadrupol">      0.00000000 </i>
    <i name="Eion">      0.00000000 </i>
   </dipole>
   <energy>
    <i name="e_fr_energy">   -188.64438329 </i>
    <i name="e_wo_entrp">   -188.38358570 </i>
    <i name="e_0_energy">   -188.51398449 </i>
   </energy>
  </scstep>
  <scstep>
   <time name="diag">    1.61    1.61</time>
   <time name="diis">    4.26    4.26</time>
   <time name="orth">    0.38    0.38</time>
   <time name="total">    6.62    6.62</time>
   <dipole>
    <v name="dipole">      0.00000000       0.00000000       0.03684257 </v>
    <i name="Tr[quadrupol]"> -10269.77437297 </i>
    <i name="Echarged">      0.00000000 </i>
    <i name="Edipol_quadrupol">      0.00000000 </i>
    <i name="Eion">      0.00000000 </i>
   </dipole>
   <energy>
    <i name="e_fr_energy">   -188.64483825 </i>
    <i name="e_wo_entrp">   -188.38394537 </i>
    <i name="e_0_energy">   -188.51439181 </i>
   </energy>
  </scstep>
  <scstep>
   <time name="diag">    1.60    1.60</time>
   <time name="diis">    4.41    4.42</time>
   <time name="orth">    0.38    0.38</time>
   <time name="total">    6.77    6.78</time>
   <dipole>
    <v name="dipole">      0.00000000       0.00000000       0.03269195 </v>
    <i name="Tr[quadrupol]"> -10269.83742254 </i>
    <i name="Echarged">      0.00000000 </i>
    <i name="Edipol_quadrupol">      0.00000000 </i>
    <i name="Eion">      0.00000000 </i>
   </dipole>
   <energy>
    <i name="e_fr_energy">   -188.64548333 </i>
    <i name="e_wo_entrp">   -188.38441398 </i>
    <i name="e_0_energy">   -188.51494866 </i>
   </energy>
  </scstep>
  <scstep>
   <time name="diag">    2.12    2.13</time>
   <time name="diis">    4.27    4.27</time>
   <time name="orth">    0.38    0.38</time>
   <time name="total">    7.15    7.17</time>
   <dipole>
    <v name="dipole">      0.00000000       0.00000000       0.02812453 </v>
    <i name="Tr[quadrupol]"> -10269.90730616 </i>
    <i name="Echarged">      0.00000000 </i>
    <i name="Edipol_quadrupol">      0.00000000 </i>
    <i name="Eion">      0.00000000 </i>
   </dipole>
   <energy>
    <i name="e_fr_energy">   -188.64611495 </i>
    <i name="e_wo_entrp">   -188.38506452 </i>
    <i name="e_0_energy">   -188.51558973 </i>
   </energy>
  </scstep>
  <scstep>
   <time name="diag">    1.60    1.60</time>
   <time name="diis">    3.66    3.66</time>
   <time name="orth">    0.38    0.38</time>
   <time name="total">    6.02    6.03</time>
   <dipole>
    <v name="dipole">      0.00000000       0.00000000       0.02601646 </v>
    <i name="Tr[quadrupol]"> -10269.93795176 </i>
    <i name="Echarged">      0.00000000 </i>
    <i name="Edipol_quadrupol">      0.00000000 </i>
    <i name="Eion">      0.00000000 </i>
   </dipole>
   <energy>
    <i name="e_fr_energy">   -188.64636085 </i>
    <i name="e_wo_entrp">   -188.38536150 </i>
    <i name="e_0_energy">   -188.51586118 </i>
   </energy>
  </scstep>
  <scstep>
   <time name="diag">    1.57    1.65</time>
   <time name="diis">    3.47    3.47</time>
   <time name="orth">    0.38    0.38</time>
   <time name="total">    5.79    5.88</time>
   <dipole>
    <v name="dipole">      0.00000000       0.00000000       0.02374223 </v>
    <i name="Tr[quadrupol]"> -10269.96833125 </i>
    <i name="Echarged">      0.00000000 </i>
    <i name="Edipol_quadrupol">      0.00000000 </i>
    <i name="Eion">      0.00000000 </i>
   </dipole>
   <energy>
    <i name="e_fr_energy">   -188.64658266 </i>
    <i name="e_wo_entrp">   -188.38563857 </i>
    <i name="e_0_energy">   -188.51611061 </i>
   </energy>
  </scstep>
  <scstep>
   <time name="diag">    1.61    1.61</time>
   <time name="diis">    3.01    3.02</time>
   <time name="orth">    0.39    0.39</time>
   <time name="total">    5.38    5.38</time>
   <dipole>
    <v name="dipole">      0.00000000       0.00000000       0.02290510 </v>
    <i name="Tr[quadrupol]"> -10269.97789098 </i>
    <i name="Echarged">      0.00000000 </i>
    <i name="Edipol_quadrupol">      0.00000000 </i>
    <i name="Eion">      0.00000000 </i>
   </dipole>
   <energy>
    <i name="e_fr_energy">   -188.64664153 </i>
    <i name="e_wo_entrp">   -188.38572045 </i>
    <i name="e_0_energy">   -188.51618099 </i>
   </energy>
  </scstep>
  <scstep>
   <time name="diag">    1.61    1.61</time>
   <time name="diis">    2.76    2.77</time>
   <time name="orth">    0.38    0.38</time>
   <time name="total">    5.12    5.15</time>
   <dipole>
    <v name="dipole">      0.00000000       0.00000000       0.02175342 </v>
    <i name="Tr[quadrupol]"> -10269.98761723 </i>
    <i name="Echarged">      0.00000000 </i>
    <i name="Edipol_quadrupol">      0.00000000 </i>
    <i name="Eion">      0.00000000 </i>
   </dipole>
   <energy>
    <i name="e_fr_energy">   -188.64671404 </i>
    <i name="e_wo_entrp">   -188.38580274 </i>
    <i name="e_0_energy">   -188.51625839 </i>
   </energy>
  </scstep>
  <scstep>
   <time name="diag">    1.60    1.60</time>
   <time name="diis">    2.67    2.67</time>
   <time name="orth">    0.38    0.38</time>
   <time name="total">    5.02    5.03</time>
   <dipole>
    <v name="dipole">      0.00000000       0.00000000       0.02102657 </v>
    <i name="Tr[quadrupol]"> -10269.99262244 </i>
    <i name="Echarged">      0.00000000 </i>
    <i name="Edipol_quadrupol">      0.00000000 </i>
    <i name="Eion">      0.00000000 </i>
   </dipole>
   <energy>
    <i name="e_fr_energy">   -188.64675174 </i>
    <i name="e_wo_entrp">   -188.38584381 </i>
    <i name="e_0_energy">   -188.51629778 </i>
   </energy>
  </scstep>
  <scstep>
   <time name="diag">    1.61    1.62</time>
   <time name="diis">    2.66    2.66</time>
   <time name="orth">    0.38    0.38</time>
   <time name="total">    5.02    5.03</time>
   <dipole>
    <v name="dipole">      0.00000000       0.00000000       0.02023012 </v>
    <i name="Tr[quadrupol]"> -10269.99784627 </i>
    <i name="Echarged">      0.00000000 </i>
    <i name="Edipol_quadrupol">      0.00000000 </i>
    <i name="Eion">      0.00000000 </i>
   </dipole>
   <energy>
    <i name="e_fr_energy">   -188.64678338 </i>
    <i name="e_wo_entrp">   -188.38586873 </i>
    <i name="e_0_energy">   -188.51632605 </i>
   </energy>
  </scstep>
  <scstep>
   <time name="diag">    1.60    1.60</time>
   <time name="diis">    2.54    2.54</time>
   <time name="orth">    0.38    0.38</time>
   <time name="total">    4.89    4.90</time>
   <dipole>
    <v name="dipole">      0.00000000       0.00000000       0.01959730 </v>
    <i name="Tr[quadrupol]"> -10270.00216428 </i>
    <i name="Echarged">      0.00000000 </i>
    <i name="Edipol_quadrupol">      0.00000000 </i>
    <i name="Eion">      0.00000000 </i>
   </dipole>
   <energy>
    <i name="e_fr_energy">   -188.64679888 </i>
    <i name="e_wo_entrp">   -188.38589221 </i>
    <i name="e_0_energy">   -188.51634555 </i>
   </energy>
  </scstep>
  <scstep>
   <time name="diag">    1.61    1.61</time>
   <time name="diis">    2.33    2.33</time>
   <time name="orth">    0.38    0.38</time>
   <time name="total">    4.69    4.69</time>
   <dipole>
    <v name="dipole">      0.00000000       0.00000000       0.01916038 </v>
    <i name="Tr[quadrupol]"> -10270.00549986 </i>
    <i name="Echarged">      0.00000000 </i>
    <i name="Edipol_quadrupol">      0.00000000 </i>
    <i name="Eion">      0.00000000 </i>
   </dipole>
   <energy>
    <i name="e_fr_energy">   -188.64680486 </i>
    <i name="e_wo_entrp">   -188.38590562 </i>
    <i name="e_0_energy">   -188.51635524 </i>
   </energy>
  </scstep>
  <scstep>
   <time name="diag">    1.59    1.59</time>
   <time name="diis">    2.21    2.21</time>
   <time name="orth">    0.38    0.39</time>
   <time name="total">    4.56    4.60</time>
   <dipole>
    <v name="dipole">      0.00000000       0.00000000       0.01877015 </v>
    <i name="Tr[quadrupol]"> -10270.00833989 </i>
    <i name="Echarged">      0.00000000 </i>
    <i name="Edipol_quadrupol">      0.00000000 </i>
    <i name="Eion">      0.00000000 </i>
   </dipole>
   <energy>
    <i name="e_fr_energy">   -188.64680781 </i>
    <i name="e_wo_entrp">   -188.38590764 </i>
    <i name="e_0_energy">   -188.51635772 </i>
   </energy>
  </scstep>
  <scstep>
   <time name="diag">    1.58    1.63</time>
   <time name="diis">    1.94    1.94</time>
   <time name="orth">    0.38    0.38</time>
   <time name="total">    4.26    4.32</time>
   <dipole>
    <v name="dipole">      0.00000000       0.00000000       0.01857954 </v>
    <i name="Tr[quadrupol]"> -10270.00979032 </i>
    <i name="Echarged">      0.00000000 </i>
    <i name="Edipol_quadrupol">      0.00000000 </i>
    <i name="Eion">      0.00000000 </i>
   </dipole>
   <energy>
    <i name="e_fr_energy">   -188.64680890 </i>
    <i name="e_wo_entrp">   -188.38590708 </i>
    <i name="e_0_energy">   -188.51635799 </i>
   </energy>
  </scstep>
  <scstep>
   <time name="diag">    1.60    1.60</time>
   <time name="diis">    2.20    2.22</time>
   <time name="orth">    0.47    0.47</time>
   <time name="total">    4.76    4.79</time>
   <dipole>
    <v name="dipole">      0.00000000       0.00000000       0.01836555 </v>
    <i name="Tr[quadrupol]"> -10270.01157641 </i>
    <i name="Echarged">      0.00000000 </i>
    <i name="Edipol_quadrupol">      0.00000000 </i>
    <i name="Eion">      0.00000000 </i>
   </dipole>
   <energy>
    <i name="e_fr_energy">   -188.64681028 </i>
    <i name="e_wo_entrp">   -188.38590768 </i>
    <i name="e_0_energy">   -188.51635898 </i>
   </energy>
  </scstep>
  <scstep>
   <time name="diag">    1.95    1.96</time>
   <time name="diis">    1.89    1.89</time>
   <time name="orth">    0.38    0.38</time>
   <time name="total">    4.29    4.31</time>
   <dipole>
    <v name="dipole">      0.00000000       0.00000000       0.01821539 </v>
    <i name="Tr[quadrupol]"> -10270.01293145 </i>
    <i name="Echarged">      0.00000000 </i>
    <i name="Edipol_quadrupol">      0.00000000 </i>
    <i name="Eion">      0.00000000 </i>
   </dipole>
   <energy>
    <i name="alphaZ">    805.88088502 </i>
    <i name="ewald"> 200168.72466444 </i>
    <i name="hartreedc">-242354.30111336 </i>
    <i name="XCdc">   -343.41976765 </i>
    <i name="pawpsdc">  49371.00404554 </i>
    <i name="pawaedc"> -47449.10432584 </i>
    <i name="eentropy">     -0.26090262 </i>
    <i name="bandstr">  -2046.95616898 </i>
    <i name="atom">  41659.78587232 </i>
    <i name="e_fr_energy">   -188.64681114 </i>
    <i name="e_wo_entrp">   -188.38590852 </i>
    <i name="e_0_energy">   -188.51635983 </i>
   </energy>
  </scstep>
  <structure>
   <crystal>
    <varray name="basis" >
     <v>      11.00258152       0.00000000       0.00000000 </v>
     <v>       5.50129076       9.52851510       0.00000000 </v>
     <v>       0.00000000       0.00000000      24.49178509 </v>
    </varray>
    <i name="volume">   2567.67623402 </i>
    <varray name="rec_basis" >
     <v>       0.09088776      -0.05247407       0.00000000 </v>
     <v>       0.00000000       0.10494815       0.00000000 </v>
     <v>       0.00000000       0.00000000       0.04083002 </v>
    </varray>
   </crystal>
   <varray name="positions" >
    <v>       0.08333333       0.08333333       0.40830017 </v>
    <v>       0.91666667       0.41666667       0.50000000 </v>
    <v>       0.91666667       0.91666667       0.50000000 </v>
    <v>       0.91666667       0.66666667       0.50000000 </v>
    <v>       0.91666667       0.16666667       0.50000000 </v>
    <v>       0.33333333       0.08333333       0.40830017 </v>
    <v>       0.25000000       0.00000000       0.59169983 </v>
    <v>       0.16666667       0.16666667       0.50000000 </v>
    <v>       0.00000000       0.25000000       0.59169983 </v>
    <v>       0.25000000       0.75000000       0.59169983 </v>
    <v>       0.16666667       0.41666667       0.50000000 </v>
    <v>       0.33333333       0.58333333       0.40830017 </v>
    <v>       0.08333333       0.33333333       0.40830017 </v>
    <v>       0.33333333       0.83333333       0.40830017 </v>
    <v>       0.58333333       0.33333333       0.40830017 </v>
    <v>       0.50000000       0.25000000       0.59169983 </v>
    <v>       0.58333333       0.58333333       0.40830017 </v>
    <v>       0.50000000       0.50000000       0.59169983 </v>
    <v>       0.58333333       0.83333333       0.40830017 </v>
    <v>       0.83333333       0.08333333       0.40830017 </v>
    <v>       0.66666667       0.16666667       0.50000000 </v>
    <v>       0.83333333       0.58333333       0.40830017 </v>
    <v>       0.75000000       0.50000000       0.59169983 </v>
    <v>       0.16666667       0.66666667       0.50000000 </v>
    <v>       0.08333333       0.83333333       0.40830017 </v>
    <v>       0.50000000       0.00000000       0.59169983 </v>
    <v>       0.41666667       0.16666667       0.50000000 </v>
    <v>       0.58333333       0.08333333       0.40830017 </v>
    <v>       0.25000000       0.25000000       0.59169983 </v>
    <v>       0.16666667       0.91666667       0.50000000 </v>
    <v>       0.25000000       0.50000000       0.59169983 </v>
    <v>       0.00000000       0.75000000       0.59169983 </v>
    <v>       0.41666667       0.41666667       0.50000000 </v>
    <v>       0.66666667       0.91666667       0.50000000 </v>
    <v>       0.00000000       0.50000000       0.59169983 </v>
    <v>       0.66666667       0.66666667       0.50000000 </v>
    <v>       0.66666667       0.41666667       0.50000000 </v>
    <v>       0.83333333       0.33333333       0.40830017 </v>
    <v>       0.83333333       0.83333333       0.40830017 </v>
    <v>       0.00000000       0.00000000       0.59169983 </v>
    <v>       0.75000000       0.25000000       0.59169983 </v>
    <v>       0.41666667       0.91666667       0.50000000 </v>
    <v>       0.33333333       0.33333333       0.40830017 </v>
    <v>       0.75000000       0.00000000       0.59169983 </v>
    <v>       0.50000000       0.75000000       0.59169983 </v>
    <v>       0.08333333       0.58333333       0.40830017 </v>
    <v>       0.41666667       0.66666667       0.50000000 </v>
    <v>       0.75000000       0.75000000       0.59169983 </v>
   </varray>
  </structure>
  <varray name="forces" >
   <v>      -0.23131797      -0.18058276      -1.64121873 </v>
   <v>      -0.43206384       0.31220068       0.07263206 </v>
   <v>      -0.03500358      -0.22380049       0.29769099 </v>
   <v>      -0.23239348       0.40345727       0.30514270 </v>
   <v>      -0.23825723       0.06440036       0.30588168 </v>
   <v>       0.51297145       0.11216256      -1.38698141 </v>
   <v>       0.25738417      -0.19012659       1.32098883 </v>
   <v>       0.52065924      -0.39442536       0.33090832 </v>
   <v>      -0.03063442      -0.01454914       1.84481435 </v>
   <v>      -0.11683952       0.05713701       1.34128682 </v>
   <v>       0.65171831      -0.10836277       0.27685839 </v>
   <v>      -0.33531608      -0.05858023      -1.33162412 </v>
   <v>       0.16508176       0.21466942      -1.87340363 </v>
   <v>      -0.24995021       0.00425783      -1.12475505 </v>
   <v>      -0.15409965      -0.04828002      -1.29926069 </v>
   <v>      -0.23744726      -0.14437472       1.32073305 </v>
   <v>       0.10248360      -0.20259321      -1.10404334 </v>
   <v>       0.02940797      -0.00049274       1.14025872 </v>
   <v>       0.37212608       0.24026376      -1.08699699 </v>
   <v>      -0.12659000      -0.22888023      -1.80681165 </v>
   <v>      -0.44514573       0.01156655       0.28022924 </v>
   <v>       0.09847439       0.12585153      -1.58706220 </v>
   <v>      -0.03745166       0.29954011       1.35670651 </v>
   <v>       0.16504493       0.00074928      -0.01337866 </v>
   <v>      -0.12249404      -0.07509218      -0.92497767 </v>
   <v>       0.14358782      -0.19874207       0.45993947 </v>
   <v>       0.13039131      -0.16088111       0.03610850 </v>
   <v>      -0.14069560      -0.05065998      -0.64932481 </v>
   <v>       0.20600032       0.08407652       0.84384359 </v>
   <v>       0.07495926      -0.22165383       0.04306871 </v>
   <v>      -0.21363028      -0.07135880       0.84764521 </v>
   <v>      -0.17310992       0.02472883       0.95300137 </v>
   <v>      -0.10145771      -0.03360196      -0.01198848 </v>
   <v>      -0.31486367       0.04030518       0.25562567 </v>
   <v>       0.21271977       0.13426518       1.03818859 </v>
   <v>      -0.24063813       0.29478087       0.35107218 </v>
   <v>      -0.09299053       0.19481337       0.04399468 </v>
   <v>      -0.03962221       0.03959604      -0.97270509 </v>
   <v>       0.01494915       0.03326348      -0.84353840 </v>
   <v>      -0.26821604      -0.03594424       0.91985403 </v>
   <v>      -0.00367409      -0.20271216       0.90264034 </v>
   <v>       0.26960578      -0.21611353       0.40564834 </v>
   <v>       0.03434097      -0.06149807      -0.73071438 </v>
   <v>       0.02325440      -0.17019946       0.82634898 </v>
   <v>       0.25691369       0.14502694       0.53036336 </v>
   <v>       0.08691215       0.11424605      -1.05612171 </v>
   <v>       0.29926605       0.06955743       0.16396750 </v>
   <v>      -0.01434972       0.27258937       0.62946479 </v>
  </varray>
  <energy>
   <i name="e_fr_energy">   -188.64681114 </i>
   <i name="e_wo_entrp">   -188.51635983 </i>
   <i name="e_0_energy">     -0.26090262 </i>
  </energy>
  <time name="totalsc">  292.31  293.46</time>
 </calculation>
 <calculation>
  <scstep>
   <time name="dav">    9.39    9.41</time>
   <time name="total">    9.76    9.77</time>
   <dipole>
    <v name="dipole">      0.00000000       0.00000000       0.01807620 </v>
    <i name="Tr[quadrupol]"> -10272.60917376 </i>
    <i name="Echarged">      0.00000000 </i>
    <i name="Edipol_quadrupol">      0.00000000 </i>
    <i name="Eion">      0.00000000 </i>
   </dipole>
   <energy>
    <i name="alphaZ">    805.87200483 </i>
    <i name="ewald"> 198945.36804800 </i>
    <i name="hartreedc">-241138.60070447 </i>
    <i name="XCdc">   -344.44067394 </i>
    <i name="pawpsdc">  49371.00220574 </i>
    <i name="pawaedc"> -47449.10242482 </i>
    <i name="eentropy">     -0.25621890 </i>
    <i name="bandstr">  -2038.78792967 </i>
    <i name="atom">  41659.78587232 </i>
    <i name="e_fr_energy">   -189.15982092 </i>
    <i name="e_wo_entrp">   -188.90360201 </i>
    <i name="e_0_energy">   -189.03171147 </i>
   </energy>
  </scstep>
  <scstep>
   <time name="diag">    1.59    1.59</time>
   <time name="diis">    4.32    4.32</time>
   <time name="orth">    0.38    0.38</time>
   <time name="total">    6.65    6.66</time>
   <dipole>
    <v name="dipole">      0.00000000       0.00000000       0.05590408 </v>
    <i name="Tr[quadrupol]"> -10272.46790904 </i>
    <i name="Echarged">      0.00000000 </i>
    <i name="Edipol_quadrupol">      0.00000000 </i>
    <i name="Eion">      0.00000000 </i>
   </dipole>
   <energy>
    <i name="e_fr_energy">   -189.33759072 </i>
    <i name="e_wo_entrp">   -189.09164529 </i>
    <i name="e_0_energy">   -189.21461800 </i>
   </energy>
  </scstep>
  <scstep>
   <time name="diag">    1.61    1.61</time>
   <time name="diis">    4.38    4.39</time>
   <time name="orth">    0.38    0.38</time>
   <time name="total">    6.73    6.75</time>
   <dipole>
    <v name="dipole">      0.00000000       0.00000000      -0.06202179 </v>
    <i name="Tr[quadrupol]"> -10272.63181450 </i>
    <i name="Echarged">      0.00000000 </i>
    <i name="Edipol_quadrupol">      0.00000000 </i>
    <i name="Eion">      0.00000000 </i>
   </dipole>
   <energy>
    <i name="e_fr_energy">   -189.44766152 </i>
    <i name="e_wo_entrp">   -189.17717756 </i>
    <i name="e_0_energy">   -189.31241954 </i>
   </energy>
  </scstep>
  <scstep>
   <time name="diag">    1.55    1.63</time>
   <time name="diis">    4.38    4.39</time>
   <time name="orth">    0.38    0.38</time>
   <time name="total">    6.68    6.77</time>
   <dipole>
    <v name="dipole">      0.00000000       0.00000000       0.03129954 </v>
    <i name="Tr[quadrupol]"> -10272.63888876 </i>
    <i name="Echarged">      0.00000000 </i>
    <i name="Edipol_quadrupol">      0.00000000 </i>
    <i name="Eion">      0.00000000 </i>
   </dipole>
   <energy>
    <i name="e_fr_energy">   -189.33177647 </i>
    <i name="e_wo_entrp">   -189.07953427 </i>
    <i name="e_0_energy">   -189.20565537 </i>
   </energy>
  </scstep>
  <scstep>
   <time name="diag">    1.61    1.61</time>
   <time name="diis">    4.41    4.41</time>
   <time name="orth">    0.38    0.38</time>
   <time name="total">    6.76    6.76</time>
   <dipole>
    <v name="dipole">      0.00000000       0.00000000       0.00364022 </v>
    <i name="Tr[quadrupol]"> -10272.61590778 </i>
    <i name="Echarged">      0.00000000 </i>
    <i name="Edipol_quadrupol">      0.00000000 </i>
    <i name="Eion">      0.00000000 </i>
   </dipole>
   <energy>
    <i name="e_fr_energy">   -189.32519994 </i>
    <i name="e_wo_entrp">   -189.06891374 </i>
    <i name="e_0_energy">   -189.19705684 </i>
   </energy>
  </scstep>
  <scstep>
   <time name="diag">    1.59    1.59</time>
   <time name="diis">    4.33    4.33</time>
   <time name="orth">    0.38    0.38</time>
   <time name="total">    6.66    6.66</time>
   <dipole>
    <v name="dipole">      0.00000000       0.00000000       0.03450275 </v>
    <i name="Tr[quadrupol]"> -10272.63415247 </i>
    <i name="Echarged">      0.00000000 </i>
    <i name="Edipol_quadrupol">      0.00000000 </i>
    <i name="Eion">      0.00000000 </i>
   </dipole>
   <energy>
    <i name="e_fr_energy">   -189.32058043 </i>
    <i name="e_wo_entrp">   -189.06672224 </i>
    <i name="e_0_energy">   -189.19365133 </i>
   </energy>
  </scstep>
  <scstep>
   <time name="diag">    1.61    1.61</time>
   <time name="diis">    4.41    4.41</time>
   <time name="orth">    0.38    0.38</time>
   <time name="total">    6.76    6.76</time>
   <dipole>
    <v name="dipole">      0.00000000       0.00000000       0.03098169 </v>
    <i name="Tr[quadrupol]"> -10272.63852499 </i>
    <i name="Echarged">      0.00000000 </i>
    <i name="Edipol_quadrupol">      0.00000000 </i>
    <i name="Eion">      0.00000000 </i>
   </dipole>
   <energy>
    <i name="e_fr_energy">   -189.31760386 </i>
    <i name="e_wo_entrp">   -189.06265929 </i>
    <i name="e_0_energy">   -189.19013157 </i>
   </energy>
  </scstep>
  <scstep>
   <time name="diag">    1.86    1.88</time>
   <time name="diis">    4.63    4.65</time>
   <time name="orth">    0.38    0.38</time>
   <time name="total">    7.24    7.28</time>
   <dipole>
    <v name="dipole">      0.00000000       0.00000000       0.02353948 </v>
    <i name="Tr[quadrupol]"> -10272.61875416 </i>
    <i name="Echarged">      0.00000000 </i>
    <i name="Edipol_quadrupol">      0.00000000 </i>
    <i name="Eion">      0.00000000 </i>
   </dipole>
   <energy>
    <i name="e_fr_energy">   -189.31601274 </i>
    <i name="e_wo_entrp">   -189.06003187 </i>
    <i name="e_0_energy">   -189.18802230 </i>
   </energy>
  </scstep>
  <scstep>
   <time name="diag">    1.61    1.61</time>
   <time name="diis">    4.41    4.41</time>
   <time name="orth">    0.38    0.38</time>
   <time name="total">    6.76    6.77</time>
   <dipole>
    <v name="dipole">      0.00000000       0.00000000       0.02254601 </v>
    <i name="Tr[quadrupol]"> -10272.61524022 </i>
    <i name="Echarged">      0.00000000 </i>
    <i name="Edipol_quadrupol">      0.00000000 </i>
    <i name="Eion">      0.00000000 </i>
   </dipole>
   <energy>
    <i name="e_fr_energy">   -189.31559855 </i>
    <i name="e_wo_entrp">   -189.05854931 </i>
    <i name="e_0_energy">   -189.18707393 </i>
   </energy>
  </scstep>
  <scstep>
   <time name="diag">    1.58    1.60</time>
   <time name="diis">    4.23    4.32</time>
   <time name="orth">    0.38    0.38</time>
   <time name="total">    6.56    6.67</time>
   <dipole>
    <v name="dipole">      0.00000000       0.00000000       0.02356312 </v>
    <i name="Tr[quadrupol]"> -10272.61630683 </i>
    <i name="Echarged">      0.00000000 </i>
    <i name="Edipol_quadrupol">      0.00000000 </i>
    <i name="Eion">      0.00000000 </i>
   </dipole>
   <energy>
    <i name="e_fr_energy">   -189.31552603 </i>
    <i name="e_wo_entrp">   -189.05850591 </i>
    <i name="e_0_energy">   -189.18701597 </i>
   </energy>
  </scstep>
  <scstep>
   <time name="diag">    1.61    1.61</time>
   <time name="diis">    4.37    4.37</time>
   <time name="orth">    0.38    0.38</time>
   <time name="total">    6.72    6.72</time>
   <dipole>
    <v name="dipole">      0.00000000       0.00000000       0.02299295 </v>
    <i name="Tr[quadrupol]"> -10272.61462881 </i>
    <i name="Echarged">      0.00000000 </i>
    <i name="Edipol_quadrupol">      0.00000000 </i>
    <i name="Eion">      0.00000000 </i>
   </dipole>
   <energy>
    <i name="e_fr_energy">   -189.31546503 </i>
    <i name="e_wo_entrp">   -189.05834243 </i>
    <i name="e_0_energy">   -189.18690373 </i>
   </energy>
  </scstep>
  <scstep>
   <time name="diag">    1.60    1.60</time>
   <time name="diis">    4.34    4.34</time>
   <time name="orth">    0.38    0.38</time>
   <time name="total">    6.69    6.70</time>
   <dipole>
    <v name="dipole">      0.00000000       0.00000000       0.02292883 </v>
    <i name="Tr[quadrupol]"> -10272.61644374 </i>
    <i name="Echarged">      0.00000000 </i>
    <i name="Edipol_quadrupol">      0.00000000 </i>
    <i name="Eion">      0.00000000 </i>
   </dipole>
   <energy>
    <i name="e_fr_energy">   -189.31546288 </i>
    <i name="e_wo_entrp">   -189.05839470 </i>
    <i name="e_0_energy">   -189.18692879 </i>
   </energy>
  </scstep>
  <scstep>
   <time name="diag">    1.61    1.61</time>
   <time name="diis">    4.24    4.24</time>
   <time name="orth">    0.38    0.38</time>
   <time name="total">    6.59    6.60</time>
   <dipole>
    <v name="dipole">      0.00000000       0.00000000       0.02292291 </v>
    <i name="Tr[quadrupol]"> -10272.61905494 </i>
    <i name="Echarged">      0.00000000 </i>
    <i name="Edipol_quadrupol">      0.00000000 </i>
    <i name="Eion">      0.00000000 </i>
   </dipole>
   <energy>
    <i name="e_fr_energy">   -189.31545668 </i>
    <i name="e_wo_entrp">   -189.05849427 </i>
    <i name="e_0_energy">   -189.18697548 </i>
   </energy>
  </scstep>
  <scstep>
   <time name="diag">    1.59    1.59</time>
   <time name="diis">    3.39    3.39</time>
   <time name="orth">    0.38    0.38</time>
   <time name="total">    5.41    5.41</time>
   <dipole>
    <v name="dipole">      0.00000000       0.00000000       0.02292579 </v>
    <i name="Tr[quadrupol]"> -10272.62112602 </i>
    <i name="Echarged">      0.00000000 </i>
    <i name="Edipol_quadrupol">      0.00000000 </i>
    <i name="Eion">      0.00000000 </i>
   </dipole>
   <energy>
    <i name="alphaZ">    805.87270933 </i>
    <i name="ewald"> 198945.36804800 </i>
    <i name="hartreedc">-241139.23784711 </i>
    <i name="XCdc">   -344.40569303 </i>
    <i name="pawpsdc">  49166.12463431 </i>
    <i name="pawaedc"> -47242.74760256 </i>
    <i name="eentropy">     -0.25689969 </i>
    <i name="bandstr">  -2039.81867753 </i>
    <i name="atom">  41659.78587232 </i>
    <i name="e_fr_energy">   -189.31545597 </i>
    <i name="e_wo_entrp">   -189.05855628 </i>
    <i name="e_0_energy">   -189.18700612 </i>
   </energy>
  </scstep>
  <structure>
   <crystal>
    <varray name="basis" >
     <v>      11.00258152       0.00000000       0.00000000 </v>
     <v>       5.50129076       9.52851510       0.00000000 </v>
     <v>       0.00000000       0.00000000      24.49178509 </v>
    </varray>
    <i name="volume">   2567.67623402 </i>
    <varray name="rec_basis" >
     <v>       0.09088776      -0.05247407       0.00000000 </v>
     <v>       0.00000000       0.10494815       0.00000000 </v>
     <v>       0.00000000       0.00000000       0.04083002 </v>
    </varray>
   </crystal>
   <varray name="positions" >
    <v>       0.08333333       0.08333333       0.40830017 </v>
    <v>       0.91478731       0.41777313       0.50010015 </v>
    <v>       0.91695582       0.91587350       0.50041046 </v>
    <v>       0.91523845       0.66809655       0.50042074 </v>
    <v>       0.91582127       0.16689491       0.50042176 </v>
    <v>       0.33333333       0.08333333       0.40830017 </v>
    <v>       0.25112689      -0.00067382       0.59352124 </v>
    <v>       0.16896365       0.16526879       0.50045626 </v>
    <v>      -0.00006824       0.24994844       0.59424350 </v>
    <v>       0.24954014       0.75020250       0.59354923 </v>
    <v>       0.16885899       0.41628262       0.50038174 </v>
    <v>       0.33333333       0.58333333       0.40830017 </v>
    <v>       0.08333333       0.33333333       0.40830017 </v>
    <v>       0.33333333       0.83333333       0.40830017 </v>
    <v>       0.58333333       0.33333333       0.40830017 </v>
    <v>       0.49952705       0.24948832       0.59352089 </v>
    <v>       0.58333333       0.58333333       0.40830017 </v>
    <v>       0.50009113       0.49999825       0.59327205 </v>
    <v>       0.58333333       0.83333333       0.40830017 </v>
    <v>       0.83333333       0.08333333       0.40830017 </v>
    <v>       0.66527990       0.16670766       0.50038639 </v>
    <v>       0.83333333       0.58333333       0.40830017 </v>
    <v>       0.74935425       0.50106160       0.59357049 </v>
    <v>       0.16717191       0.66666932       0.49998155 </v>
    <v>       0.08333333       0.83333333       0.40830017 </v>
    <v>       0.50079289      -0.00070436       0.59233401 </v>
    <v>       0.41735196       0.16609649       0.50004979 </v>
    <v>       0.58333333       0.08333333       0.40830017 </v>
    <v>       0.25048328       0.25029797       0.59286334 </v>
    <v>       0.16728952       0.91588111       0.50005938 </v>
    <v>       0.24947076       0.49974710       0.59286858 </v>
    <v>      -0.00057514       0.75008764       0.59301385 </v>
    <v>       0.41641481       0.41654758       0.49998347 </v>
    <v>       0.66562884       0.91680951       0.50035246 </v>
    <v>       0.00041497       0.50047585       0.59313131 </v>
    <v>       0.66540572       0.66771139       0.50048407 </v>
    <v>       0.66603604       0.41735710       0.50006066 </v>
    <v>       0.83333333       0.33333333       0.40830017 </v>
    <v>       0.83333333       0.83333333       0.40830017 </v>
    <v>      -0.00075953      -0.00012739       0.59296815 </v>
    <v>       0.75034794       0.24928157       0.59294441 </v>
    <v>       0.41787712       0.91590074       0.50055932 </v>
    <v>       0.33333333       0.33333333       0.40830017 </v>
    <v>       0.75037297      -0.00060320       0.59283922 </v>
    <v>       0.50053154       0.75051399       0.59243111 </v>
    <v>       0.08333333       0.58333333       0.40830017 </v>
    <v>       0.41746194       0.66691318       0.50022608 </v>
    <v>       0.74947292       0.75096608       0.59256775 </v>
   </varray>
  </structure>
  <varray name="forces" >
   <v>      -0.23302911      -0.14457242      -1.50636322 </v>
   <v>      -0.14510440       0.09156084       0.42117182 </v>
   <v>      -0.02861885      -0.07456275       0.35073665 </v>
   <v>      -0.12765138       0.13150908       0.36557709 </v>
   <v>      -0.03931892       0.06439473       0.47460350 </v>
   <v>       0.50715669       0.08579555      -1.35193901 </v>
   <v>       0.12925990      -0.09750840       1.04403758 </v>
   <v>       0.17427378      -0.16189338       0.55093778 </v>
   <v>       0.02020211       0.00690253       1.31001426 </v>
   <v>      -0.10090900       0.01627423       1.02298825 </v>
   <v>       0.21562613      -0.03862476       0.33575928 </v>
   <v>      -0.30985121      -0.05261834      -1.30717049 </v>
   <v>       0.16434211       0.21301750      -1.67747300 </v>
   <v>      -0.22691524       0.01549449      -1.07917460 </v>
   <v>      -0.14250685      -0.07001809      -1.26153781 </v>
   <v>      -0.13703663      -0.08783774       1.04589383 </v>
   <v>       0.11875950      -0.19314232      -1.08838314 </v>
   <v>      -0.02412272      -0.02100570       0.85790488 </v>
   <v>       0.37195192       0.23698499      -1.06567401 </v>
   <v>      -0.13890101      -0.23346796      -1.68172645 </v>
   <v>      -0.28092237       0.00422585       0.41332224 </v>
   <v>       0.10523894       0.15137594      -1.51693718 </v>
   <v>       0.02014429       0.16222987       1.06031950 </v>
   <v>       0.14175734       0.01731866       0.25488898 </v>
   <v>      -0.13718789      -0.06124997      -0.90026328 </v>
   <v>       0.11720730      -0.10998021       0.45790779 </v>
   <v>       0.12591814      -0.11654019       0.17855771 </v>
   <v>      -0.12429641      -0.06156748      -0.64529975 </v>
   <v>       0.09135881       0.03133049       0.70868680 </v>
   <v>       0.08387612      -0.12003960       0.29356956 </v>
   <v>      -0.11044384       0.00495624       0.71019699 </v>
   <v>      -0.09743592      -0.01560701       0.77813319 </v>
   <v>       0.03702215      -0.02245489       0.24433476 </v>
   <v>      -0.17648897       0.05761680       0.25422150 </v>
   <v>       0.10432925       0.06602424       0.73929128 </v>
   <v>      -0.15337606       0.15329368       0.37725424 </v>
   <v>      -0.11200098       0.14061479       0.29040714 </v>
   <v>      -0.03977895       0.01607646      -0.93301587 </v>
   <v>       0.01603199       0.04450946      -0.79719707 </v>
   <v>      -0.13970742      -0.02447726       0.71927687 </v>
   <v>      -0.03091393      -0.11059435       0.71704587 </v>
   <v>       0.12784525      -0.12394641       0.38513262 </v>
   <v>       0.02990326      -0.06917816      -0.74007003 </v>
   <v>       0.01778844      -0.09946702       0.69172663 </v>
   <v>       0.13677158       0.08115160       0.52432415 </v>
   <v>       0.05019976       0.10897330      -0.96168094 </v>
   <v>       0.14031180       0.02584451       0.34498079 </v>
   <v>       0.00924149       0.18287856       0.59070233 </v>
  </varray>
  <energy>
   <i name="e_fr_energy">   -189.31545597 </i>
   <i name="e_wo_entrp">   -189.18700612 </i>
   <i name="e_0_energy">     -0.25689969 </i>
  </energy>
  <time name="totalsc">   98.95   99.32</time>
 </calculation>
 <calculation>
  <scstep>
   <time name="dav">    9.30    9.38</time>
   <time name="total">    9.66    9.75</time>
   <dipole>
    <v name="dipole">      0.00000000       0.00000000       0.02299346 </v>
    <i name="Tr[quadrupol]"> -10281.08869022 </i>
    <i name="Echarged">      0.00000000 </i>
    <i name="Edipol_quadrupol">      0.00000000 </i>
    <i name="Eion">      0.00000000 </i>
   </dipole>
   <energy>
    <i name="alphaZ">    805.83916718 </i>
    <i name="ewald"> 195311.37151986 </i>
    <i name="hartreedc">-237526.28531527 </i>
    <i name="XCdc">   -347.08796958 </i>
    <i name="pawpsdc">  49166.05695058 </i>
    <i name="pawaedc"> -47242.67966563 </i>
    <i name="eentropy">     -0.24208370 </i>
    <i name="bandstr">  -2015.71054199 </i>
    <i name="atom">  41659.78587232 </i>
    <i name="e_fr_energy">   -188.95206624 </i>
    <i name="e_wo_entrp">   -188.70998254 </i>
    <i name="e_0_energy">   -188.83102439 </i>
   </energy>
  </scstep>
  <scstep>
   <time name="diag">    1.61    1.61</time>
   <time name="diis">    4.80    4.84</time>
   <time name="orth">    0.37    0.37</time>
   <time name="total">    7.14    7.19</time>
   <dipole>
    <v name="dipole">      0.00000000       0.00000000       0.10160705 </v>
    <i name="Tr[quadrupol]"> -10280.61727881 </i>
    <i name="Echarged">      0.00000000 </i>
    <i name="Edipol_quadrupol">      0.00000000 </i>
    <i name="Eion">      0.00000000 </i>
   </dipole>
   <energy>
    <i name="e_fr_energy">   -190.51115731 </i>
    <i name="e_wo_entrp">   -190.28389796 </i>
    <i name="e_0_energy">   -190.39752764 </i>
   </energy>
  </scstep>
  <scstep>
   <time name="diag">    1.61    1.62</time>
   <time name="diis">    4.37    4.37</time>
   <time name="orth">    0.38    0.38</time>
   <time name="total">    6.73    6.73</time>
   <dipole>
    <v name="dipole">      0.00000000       0.00000000      -0.10824966 </v>
    <i name="Tr[quadrupol]"> -10281.17287678 </i>
    <i name="Echarged">      0.00000000 </i>
    <i name="Edipol_quadrupol">      0.00000000 </i>
    <i name="Eion">      0.00000000 </i>
   </dipole>
   <energy>
    <i name="e_fr_energy">   -190.98321681 </i>
    <i name="e_wo_entrp">   -190.74061296 </i>
    <i name="e_0_energy">   -190.86191489 </i>
   </energy>
  </scstep>
  <scstep>
   <time name="diag">    1.61    1.61</time>
   <time name="diis">    4.38    4.39</time>
   <time name="orth">    0.38    0.38</time>
   <time name="total">    6.73    6.74</time>
   <dipole>
    <v name="dipole">      0.00000000       0.00000000       0.06511316 </v>
    <i name="Tr[quadrupol]"> -10281.05057975 </i>
    <i name="Echarged">      0.00000000 </i>
    <i name="Edipol_quadrupol">      0.00000000 </i>
    <i name="Eion">      0.00000000 </i>
   </dipole>
   <energy>
    <i name="e_fr_energy">   -190.44066689 </i>
    <i name="e_wo_entrp">   -190.21714321 </i>
    <i name="e_0_energy">   -190.32890505 </i>
   </energy>
  </scstep>
  <scstep>
   <time name="diag">    1.59    1.59</time>
   <time name="diis">    4.32    4.32</time>
   <time name="orth">    0.37    0.38</time>
   <time name="total">    6.65    6.66</time>
   <dipole>
    <v name="dipole">      0.00000000       0.00000000      -0.04285561 </v>
    <i name="Tr[quadrupol]"> -10281.09581302 </i>
    <i name="Echarged">      0.00000000 </i>
    <i name="Edipol_quadrupol">      0.00000000 </i>
    <i name="Eion">      0.00000000 </i>
   </dipole>
   <energy>
[...]
       <r>    -9.3768     0.0000     0.0000 </r>
       <r>    -9.3225     0.0000     0.0000 </r>
       <r>    -9.2681     0.0000     0.0000 </r>
       <r>    -9.2138     0.0000     0.0000 </r>
       <r>    -9.1594     0.0002     0.0000 </r>
       <r>    -9.1050     0.0037     0.0002 </r>
       <r>    -9.0507     0.0479     0.0028 </r>
       <r>    -8.9963     0.3596     0.0224 </r>
       <r>    -8.9420     1.5483     0.1065 </r>
       <r>    -8.8876     3.8423     0.3154 </r>
       <r>    -8.8332     5.5990     0.6197 </r>
       <r>    -8.7789     5.2905     0.9073 </r>
       <r>    -8.7245     4.6463     1.1599 </r>
       <r>    -8.6702     5.1553     1.4401 </r>
       <r>    -8.6158     5.0891     1.7167 </r>
       <r>    -8.5615     3.3742     1.9002 </r>
       <r>    -8.5071     1.4148     1.9771 </r>
       <r>    -8.4527     0.4136     1.9995 </r>
       <r>    -8.3984     0.3376     2.0179 </r>
       <r>    -8.3440     0.9220     2.0680 </r>
       <r>    -8.2897     1.7773     2.1646 </r>
       <r>    -8.2353     2.3779     2.2939 </r>
       <r>    -8.1809     3.2677     2.4715 </r>
       <r>    -8.1266     5.5615     2.7738 </r>
       <r>    -8.0722     8.8783     3.2564 </r>
       <r>    -8.0179    11.4269     3.8776 </r>
       <r>    -7.9635    11.6759     4.5123 </r>
       <r>    -7.9092     9.8038     5.0452 </r>
       <r>    -7.8548     6.9663     5.4238 </r>
       <r>    -7.8004     4.3757     5.6617 </r>
       <r>    -7.7461     2.9600     5.8226 </r>
       <r>    -7.6917     2.5270     5.9600 </r>
       <r>    -7.6374     3.2067     6.1343 </r>
       <r>    -7.5830     5.9774     6.4592 </r>
       <r>    -7.5287    10.1878     7.0130 </r>
       <r>    -7.4743    12.9275     7.7157 </r>
       <r>    -7.4199    12.2438     8.3812 </r>
       <r>    -7.3656    10.2742     8.9397 </r>
       <r>    -7.3112    10.8441     9.5292 </r>
       <r>    -7.2569    14.6977    10.3281 </r>
       <r>    -7.2025    19.3970    11.3825 </r>
       <r>    -7.1481    22.6292    12.6126 </r>
       <r>    -7.0938    24.3030    13.9336 </r>
       <r>    -7.0394    26.2219    15.3590 </r>
       <r>    -6.9851    29.9770    16.9885 </r>
       <r>    -6.9307    35.7876    18.9338 </r>
       <r>    -6.8764    40.9768    21.1613 </r>
       <r>    -6.8220    42.1683    23.4534 </r>
       <r>    -6.7676    40.5858    25.6596 </r>
       <r>    -6.7133    40.1748    27.8434 </r>
       <r>    -6.6589    42.0609    30.1298 </r>
       <r>    -6.6046    43.4691    32.4927 </r>
       <r>    -6.5502    42.3935    34.7971 </r>
       <r>    -6.4959    41.6619    37.0617 </r>
       <r>    -6.4415    45.0931    39.5129 </r>
       <r>    -6.3871    51.7635    42.3267 </r>
       <r>    -6.3328    58.1582    45.4880 </r>
       <r>    -6.2784    63.7070    48.9510 </r>
       <r>    -6.2241    69.3362    52.7200 </r>
       <r>    -6.1697    74.0618    56.7458 </r>
       <r>    -6.1153    76.9935    60.9310 </r>
       <r>    -6.0610    79.3274    65.2431 </r>
       <r>    -6.0066    81.6341    69.6806 </r>
       <r>    -5.9523    82.2358    74.1507 </r>
       <r>    -5.8979    80.1803    78.5092 </r>
       <r>    -5.8436    76.7004    82.6785 </r>
       <r>    -5.7892    73.0940    86.6517 </r>
       <r>    -5.7348    69.4509    90.4269 </r>
       <r>    -5.6805    66.4590    94.0395 </r>
       <r>    -5.6261    65.0605    97.5760 </r>
       <r>    -5.5718    65.8904   101.1577 </r>
       <r>    -5.5174    69.0093   104.9089 </r>
       <r>    -5.4631    72.5317   108.8516 </r>
       <r>    -5.4087    75.1438   112.9362 </r>
       <r>    -5.3543    77.1245   117.1286 </r>
       <r>    -5.3000    78.2977   121.3847 </r>
       <r>    -5.2456    79.0033   125.6791 </r>
       <r>    -5.1913    79.7503   130.0142 </r>
       <r>    -5.1369    80.1179   134.3692 </r>
       <r>    -5.0825    80.4208   138.7408 </r>
       <r>    -5.0282    81.7049   143.1821 </r>
       <r>    -4.9738    84.6110   147.7814 </r>
       <r>    -4.9195    88.4106   152.5872 </r>
       <r>    -4.8651    89.9012   157.4740 </r>
       <r>    -4.8108    87.2481   162.2166 </r>
       <r>    -4.7564    83.8462   166.7744 </r>
       <r>    -4.7020    83.2420   171.2992 </r>
       <r>    -4.6477    84.8942   175.9139 </r>
       <r>    -4.5933    87.2651   180.6575 </r>
       <r>    -4.5390    88.8431   185.4868 </r>
       <r>    -4.4846    88.5094   190.2980 </r>
       <r>    -4.4303    86.9577   195.0248 </r>
       <r>    -4.3759    86.2138   199.7112 </r>
       <r>    -4.3215    87.0696   204.4441 </r>
       <r>    -4.2672    87.8268   209.2182 </r>
       <r>    -4.2128    87.9976   214.0016 </r>
       <r>    -4.1585    88.5944   218.8174 </r>
       <r>    -4.1041    89.2381   223.6682 </r>
       <r>    -4.0497    89.6175   228.5396 </r>
       <r>    -3.9954    90.2744   233.4468 </r>
       <r>    -3.9410    91.4999   238.4205 </r>
       <r>    -3.8867    94.1189   243.5366 </r>
       <r>    -3.8323    98.5387   248.8930 </r>
       <r>    -3.7780   102.3447   254.4562 </r>
       <r>    -3.7236   102.5370   260.0299 </r>
       <r>    -3.6692    98.7318   265.3968 </r>
       <r>    -3.6149    94.1707   270.5157 </r>
       <r>    -3.5605    92.5261   275.5453 </r>
       <r>    -3.5062    93.0483   280.6032 </r>
       <r>    -3.4518    92.9389   285.6551 </r>
       <r>    -3.3974    91.3773   290.6222 </r>
       <r>    -3.3431    89.5580   295.4904 </r>
       <r>    -3.2887    88.6344   300.3084 </r>
       <r>    -3.2344    88.1859   305.1020 </r>
       <r>    -3.1800    88.2798   309.9007 </r>
       <r>    -3.1257    89.6868   314.7759 </r>
       <r>    -3.0713    90.8166   319.7125 </r>
       <r>    -3.0169    89.7969   324.5937 </r>
       <r>    -2.9626    88.4150   329.3997 </r>
       <r>    -2.9082    89.2737   334.2525 </r>
       <r>    -2.8539    91.9613   339.2513 </r>
       <r>    -2.7995    94.7480   344.4016 </r>
       <r>    -2.7452    96.3046   349.6365 </r>
       <r>    -2.6908    96.2458   354.8683 </r>
       <r>    -2.6364    95.4144   360.0548 </r>
       <r>    -2.5821    95.1017   365.2243 </r>
       <r>    -2.5277    95.5577   370.4187 </r>
       <r>    -2.4734    95.6772   375.6195 </r>
       <r>    -2.4190    95.1210   380.7901 </r>
       <r>    -2.3646    93.8678   385.8925 </r>
       <r>    -2.3103    91.7137   390.8779 </r>
       <r>    -2.2559    90.2393   395.7831 </r>
       <r>    -2.2016    90.4907   400.7020 </r>
       <r>    -2.1472    90.5049   405.6217 </r>
       <r>    -2.0929    89.3277   410.4773 </r>
       <r>    -2.0385    89.0168   415.3161 </r>
       <r>    -1.9841    90.6717   420.2448 </r>
       <r>    -1.9298    93.3334   425.3182 </r>
       <r>    -1.8754    97.1073   430.5968 </r>
       <r>    -1.8211   102.5093   436.1690 </r>
       <r>    -1.7667   108.1347   442.0470 </r>
       <r>    -1.7124   111.0142   448.0815 </r>
       <r>    -1.6580   110.0304   454.0625 </r>
       <r>    -1.6036   107.1747   459.8883 </r>
       <r>    -1.5493   103.6661   465.5234 </r>
       <r>    -1.4949    99.4719   470.9305 </r>
       <r>    -1.4406    94.9448   476.0915 </r>
       <r>    -1.3862    90.4134   481.0062 </r>
       <r>    -1.3318    86.8545   485.7274 </r>
       <r>    -1.2775    85.2064   490.3590 </r>
       <r>    -1.2231    82.5774   494.8478 </r>
       <r>    -1.1688    74.4342   498.8939 </r>
       <r>    -1.1144    61.2169   502.2215 </r>
       <r>    -1.0601    47.9298   504.8269 </r>
       <r>    -1.0057    37.3401   506.8566 </r>
       <r>    -0.9513    27.6504   508.3596 </r>
       <r>    -0.8970    18.0713   509.3419 </r>
       <r>    -0.8426    11.1327   509.9471 </r>
       <r>    -0.7883     8.2703   510.3966 </r>
       <r>    -0.7339     8.0375   510.8335 </r>
       <r>    -0.6796     8.9747   511.3214 </r>
       <r>    -0.6252    11.0691   511.9231 </r>
       <r>    -0.5708    14.7166   512.7230 </r>
       <r>    -0.5165    19.0895   513.7607 </r>
       <r>    -0.4621    22.0302   514.9582 </r>
       <r>    -0.4078    22.1935   516.1646 </r>
       <r>    -0.3534    20.2509   517.2654 </r>
       <r>    -0.2990    18.7976   518.2872 </r>
       <r>    -0.2447    19.9657   519.3725 </r>
       <r>    -0.1903    20.6711   520.4962 </r>
       <r>    -0.1360    16.5471   521.3956 </r>
       <r>    -0.0816    10.6264   521.9732 </r>
       <r>    -0.0273     8.9117   522.4577 </r>
       <r>     0.0271    11.6321   523.0900 </r>
       <r>     0.0815    14.8288   523.8960 </r>
       <r>     0.1358    16.4560   524.7905 </r>
       <r>     0.1902    17.1691   525.7238 </r>
       <r>     0.2445    16.5869   526.6255 </r>
       <r>     0.2989    14.8139   527.4307 </r>
       <r>     0.3533    14.8614   528.2385 </r>
       <r>     0.4076    17.9792   529.2159 </r>
       <r>     0.4620    21.8457   530.4033 </r>
       <r>     0.5163    24.4877   531.7344 </r>
       <r>     0.5707    25.4909   533.1201 </r>
       <r>     0.6250    24.8695   534.4719 </r>
       <r>     0.6794    23.0204   535.7233 </r>
       <r>     0.7338    20.4817   536.8366 </r>
       <r>     0.7881    17.6700   537.7971 </r>
       <r>     0.8425    14.6428   538.5931 </r>
       <r>     0.8968    12.1423   539.2531 </r>
       <r>     0.9512    11.2911   539.8669 </r>
       <r>     1.0055    11.3502   540.4838 </r>
       <r>     1.0599    10.9799   541.0807 </r>
       <r>     1.1143     9.4908   541.5966 </r>
       <r>     1.1686     7.5674   542.0079 </r>
       <r>     1.2230     7.1693   542.3976 </r>
       <r>     1.2773     8.2423   542.8457 </r>
       <r>     1.3317     8.6997   543.3186 </r>
       <r>     1.3861     8.2183   543.7653 </r>
       <r>     1.4404     9.1091   544.2605 </r>
       <r>     1.4948    13.0004   544.9671 </r>
       <r>     1.5491    16.8311   545.8820 </r>
       <r>     1.6035    16.3419   546.7704 </r>
       <r>     1.6578    13.3619   547.4967 </r>
       <r>     1.7122    13.0759   548.2075 </r>
       <r>     1.7666    16.7547   549.1182 </r>
       <r>     1.8209    19.8847   550.1991 </r>
       <r>     1.8753    17.5541   551.1533 </r>
       <r>     1.9296    11.4251   551.7743 </r>
       <r>     1.9840     7.2681   552.1694 </r>
       <r>     2.0383     7.2604   552.5641 </r>
       <r>     2.0927     9.5100   553.0810 </r>
       <r>     2.1471    13.1658   553.7967 </r>
       <r>     2.2014    17.7907   554.7638 </r>
       <r>     2.2558    21.5890   555.9373 </r>
       <r>     2.3101    23.2253   557.1998 </r>
       <r>     2.3645    22.8211   558.4403 </r>
       <r>     2.4189    22.5382   559.6654 </r>
       <r>     2.4732    22.9162   560.9111 </r>
       <r>     2.5276    22.2259   562.1193 </r>
       <r>     2.5819    21.1463   563.2687 </r>
       <r>     2.6363    21.6775   564.4471 </r>
       <r>     2.6906    23.6963   565.7351 </r>
       <r>     2.7450    23.6727   567.0219 </r>
       <r>     2.7994    18.6925   568.0380 </r>
       <r>     2.8537    11.6604   568.6719 </r>
       <r>     2.9081     7.4156   569.0750 </r>
       <r>     2.9624     6.5681   569.4320 </r>
       <r>     3.0168     6.1785   569.7678 </r>
       <r>     3.0711     5.5964   570.0721 </r>
       <r>     3.1255     7.4644   570.4778 </r>
       <r>     3.1799    11.2522   571.0894 </r>
       <r>     3.2342    12.7505   571.7825 </r>
       <r>     3.2886    10.8151   572.3704 </r>
       <r>     3.3429     8.2642   572.8196 </r>
       <r>     3.3973     7.1305   573.2072 </r>
       <r>     3.4517     7.3308   573.6057 </r>
       <r>     3.5060     8.4726   574.0663 </r>
       <r>     3.5604    10.6093   574.6430 </r>
       <r>     3.6147    14.2573   575.4180 </r>
       <r>     3.6691    19.1228   576.4575 </r>
       <r>     3.7234    22.2170   577.6651 </r>
       <r>     3.7778    21.2143   578.8183 </r>
       <r>     3.8322    17.7658   579.7840 </r>
       <r>     3.8865    14.0954   580.5502 </r>
       <r>     3.9409    11.7908   581.1911 </r>
       <r>     3.9952    12.4795   581.8695 </r>
       <r>     4.0496    14.4733   582.6562 </r>
       <r>     4.1039    14.0111   583.4178 </r>
       <r>     4.1583    11.8526   584.0621 </r>
       <r>     4.2127    11.1498   584.6682 </r>
       <r>     4.2670    11.0159   585.2670 </r>
       <r>     4.3214     9.4450   585.7804 </r>
       <r>     4.3757     8.1702   586.2245 </r>
       <r>     4.4301     9.4304   586.7371 </r>
       <r>     4.4845    12.7521   587.4303 </r>
       <r>     4.5388    18.3438   588.4275 </r>
       <r>     4.5932    26.4920   589.8675 </r>
       <r>     4.6475    32.4414   591.6310 </r>
       <r>     4.7019    30.9027   593.3108 </r>
       <r>     4.7562    25.2086   594.6811 </r>
       <r>     4.8106    22.7998   595.9204 </r>
       <r>     4.8650    24.7569   597.2661 </r>
       <r>     4.9193    26.5843   598.7112 </r>
       <r>     4.9737    27.0977   600.1842 </r>
       <r>     5.0280    29.9557   601.8125 </r>
       <r>     5.0824    34.4403   603.6846 </r>
       <r>     5.1368    34.7199   605.5719 </r>
       <r>     5.1911    30.9988   607.2569 </r>
       <r>     5.2455    27.9386   608.7756 </r>
       <r>     5.2998    24.3232   610.0978 </r>
       <r>     5.3542    17.2552   611.0358 </r>
       <r>     5.4085     9.6567   611.5607 </r>
       <r>     5.4629     4.8260   611.8230 </r>
       <r>     5.5173     2.2357   611.9445 </r>
       <r>     5.5716     0.8033   611.9882 </r>
       <r>     5.6260     0.1883   611.9984 </r>
       <r>     5.6803     0.0265   611.9999 </r>
       <r>     5.7347     0.0022   612.0000 </r>
       <r>     5.7890     0.0001   612.0000 </r>
       <r>     5.8434     0.0000   612.0000 </r>
       <r>     5.8978     0.0000   612.0000 </r>
       <r>     5.9521     0.0000   612.0000 </r>
       <r>     6.0065     0.0000   612.0000 </r>
       <r>     6.0608     0.0000   612.0000 </r>
       <r>     6.1152     0.0000   612.0000 </r>
       <r>     6.1696     0.0000   612.0000 </r>
       <r>     6.2239     0.0000   612.0000 </r>
       <r>     6.2783     0.0000   612.0000 </r>
       <r>     6.3326     0.0000   612.0000 </r>
       <r>     6.3870     0.0000   612.0000 </r>
       <r>     6.4413     0.0000   612.0000 </r>
      </set>
     </set>
    </array>
   </total>
  </dos>
 </calculation>
 <structure name="finalpos" >
  <crystal>
   <varray name="basis" >
    <v>      11.00258152       0.00000000       0.00000000 </v>
    <v>       5.50129076       9.52851510       0.00000000 </v>
    <v>       0.00000000       0.00000000      24.49178509 </v>
   </varray>
   <i name="volume">   2567.67623402 </i>
   <varray name="rec_basis" >
    <v>       0.09088776      -0.05247407       0.00000000 </v>
    <v>       0.00000000       0.10494815       0.00000000 </v>
    <v>       0.00000000       0.00000000       0.04083002 </v>
   </varray>
  </crystal>
  <varray name="positions" >
   <v>       0.08333333       0.08333333       0.40830017 </v>
   <v>       0.91345710       0.41756936       0.51078224 </v>
   <v>       0.91665955       0.91644461       0.50808807 </v>
   <v>       0.91361344       0.66868182       0.50798005 </v>
   <v>       0.91572205       0.16811559       0.51076448 </v>
   <v>       0.33333333       0.08333333       0.40830017 </v>
   <v>       0.25279583      -0.00136588       0.61267113 </v>
   <v>       0.17000442       0.16357048       0.51248372 </v>
   <v>      -0.00024374       0.25013412       0.61788110 </v>
   <v>       0.24770389       0.75012927       0.61104198 </v>
   <v>       0.17013191       0.41529044       0.50810952 </v>
   <v>       0.33333333       0.58333333       0.40830017 </v>
   <v>       0.08333333       0.33333333       0.40830017 </v>
   <v>       0.33333333       0.83333333       0.40830017 </v>
   <v>       0.58333333       0.33333333       0.40830017 </v>
   <v>       0.49860418       0.24789854       0.61091824 </v>
   <v>       0.58333333       0.58333333       0.40830017 </v>
   <v>       0.49951694       0.49948288       0.60932995 </v>
   <v>       0.58333333       0.83333333       0.40830017 </v>
   <v>       0.83333333       0.08333333       0.40830017 </v>
   <v>       0.66290213       0.16757186       0.50961311 </v>
   <v>       0.83333333       0.58333333       0.40830017 </v>
   <v>       0.74908184       0.50296561       0.61231752 </v>
   <v>       0.16865401       0.66718087       0.50765763 </v>
   <v>       0.08333333       0.83333333       0.40830017 </v>
   <v>       0.50209422      -0.00172785       0.60331731 </v>
   <v>       0.41823273       0.16537304       0.50726672 </v>
   <v>       0.58333333       0.08333333       0.40830017 </v>
   <v>       0.25006900       0.25102027       0.60715480 </v>
   <v>       0.16964812       0.91519248       0.50985499 </v>
   <v>       0.24790977       0.49994732       0.60583702 </v>
   <v>      -0.00170978       0.74966357       0.60607363 </v>
   <v>       0.41737971       0.41646125       0.50855087 </v>
   <v>       0.66336228       0.91721502       0.50681038 </v>
   <v>       0.00056356       0.50105978       0.60672385 </v>
   <v>       0.66406746       0.66755609       0.50936860 </v>
   <v>       0.66381938       0.41941051       0.50952230 </v>
   <v>       0.83333333       0.33333333       0.40830017 </v>
   <v>       0.83333333       0.83333333       0.40830017 </v>
   <v>      -0.00154309      -0.00003514       0.60695108 </v>
   <v>       0.75032558       0.24868761       0.60736997 </v>
   <v>       0.41803456       0.91516657       0.50906911 </v>
   <v>       0.33333333       0.33333333       0.40830017 </v>
   <v>       0.75143105      -0.00182591       0.60565794 </v>
   <v>       0.50055338       0.75095877       0.60512466 </v>
   <v>       0.08333333       0.58333333       0.40830017 </v>
   <v>       0.41792240       0.66686653       0.50944497 </v>
   <v>       0.74866309       0.75304191       0.60480740 </v>
  </varray>
  <varray name="selective"  type="logical" >
   <v type="logical" >  F  F  F </v>
   <v type="logical" >  T  T  T </v>
   <v type="logical" >  T  T  T </v>
   <v type="logical" >  T  T  T </v>
   <v type="logical" >  T  T  T </v>
   <v type="logical" >  F  F  F </v>
   <v type="logical" >  T  T  T </v>
   <v type="logical" >  T  T  T </v>
   <v type="logical" >  T  T  T </v>
   <v type="logical" >  T  T  T </v>
   <v type="logical" >  T  T  T </v>
   <v type="logical" >  F  F  F </v>
   <v type="logical" >  F  F  F </v>
   <v type="logical" >  F  F  F </v>
   <v type="logical" >  F  F  F </v>
   <v type="logical" >  T  T  T </v>
   <v type="logical" >  F  F  F </v>
   <v type="logical" >  T  T  T </v>
   <v type="logical" >  F  F  F </v>
   <v type="logical" >  F  F  F </v>
   <v type="logical" >  T  T  T </v>
   <v type="logical" >  F  F  F </v>
   <v type="logical" >  T  T  T </v>
   <v type="logical" >  T  T  T </v>
   <v type="logical" >  F  F  F </v>
   <v type="logical" >  T  T  T </v>
   <v type="logical" >  T  T  T </v>
   <v type="logical" >  F  F  F </v>
   <v type="logical" >  T  T  T </v>
   <v type="logical" >  T  T  T </v>
   <v type="logical" >  T  T  T </v>
   <v type="logical" >  T  T  T </v>
   <v type="logical" >  T  T  T </v>
   <v type="logical" >  T  T  T </v>
   <v type="logical" >  T  T  T </v>
   <v type="logical" >  T  T  T </v>
   <v type="logical" >  T  T  T </v>
   <v type="logical" >  F  F  F </v>
   <v type="logical" >  F  F  F </v>
   <v type="logical" >  T  T  T </v>
   <v type="logical" >  T  T  T </v>
   <v type="logical" >  T  T  T </v>
   <v type="logical" >  F  F  F </v>
   <v type="logical" >  T  T  T </v>
   <v type="logical" >  T  T  T </v>
   <v type="logical" >  F  F  F </v>
   <v type="logical" >  T  T  T </v>
   <v type="logical" >  T  T  T </v>
  </varray>
  <nose>
   <v>      -3.00000000       0.00000000       0.00010000       0.00010000 </v>
  </nose>
 </structure>
</modeling>
