unknown system                          
           1
    11.002582    0.000000    0.000000
     5.501291    9.528515    0.000000
     0.000000    0.000000   24.491785
   Au   Pd
  24  24
Direct configuration=     1
   0.08333333  0.08333333  0.40830017
   0.91666667  0.41666667  0.50000000
   0.91666667  0.91666667  0.50000000
   0.91666667  0.66666667  0.50000000
   0.91666667  0.16666667  0.50000000
   0.33333333  0.08333333  0.40830017
   0.25000000  0.00000000  0.59169983
   0.16666667  0.16666667  0.50000000
   0.00000000  0.25000000  0.59169983
   0.25000000  0.75000000  0.59169983
   0.16666667  0.41666667  0.50000000
   0.33333333  0.58333333  0.40830017
   0.08333333  0.33333333  0.40830017
   0.33333333  0.83333333  0.40830017
   0.58333333  0.33333333  0.40830017
   0.50000000  0.25000000  0.59169983
   0.58333333  0.58333333  0.40830017
   0.50000000  0.50000000  0.59169983
   0.58333333  0.83333333  0.40830017
   0.83333333  0.08333333  0.40830017
   0.66666667  0.16666667  0.50000000
   0.83333333  0.58333333  0.40830017
   0.75000000  0.50000000  0.59169983
   0.16666667  0.66666667  0.50000000
   0.08333333  0.83333333  0.40830017
   0.50000000  0.00000000  0.59169983
   0.41666667  0.16666667  0.50000000
   0.58333333  0.08333333  0.40830017
   0.25000000  0.25000000  0.59169983
   0.16666667  0.91666667  0.50000000
   0.25000000  0.50000000  0.59169983
   0.00000000  0.75000000  0.59169983
   0.41666667  0.41666667  0.50000000
   0.66666667  0.91666667  0.50000000
   0.00000000  0.50000000  0.59169983
   0.66666667  0.66666667  0.50000000
   0.66666667  0.41666667  0.50000000
   0.83333333  0.33333333  0.40830017
   0.83333333  0.83333333  0.40830017
   0.00000000  0.00000000  0.59169983
   0.75000000  0.25000000  0.59169983
   0.41666667  0.91666667  0.50000000
   0.33333333  0.33333333  0.40830017
   0.75000000  0.00000000  0.59169983
   0.50000000  0.75000000  0.59169983
   0.08333333  0.58333333  0.40830017
   0.41666667  0.66666667  0.50000000
   0.75000000  0.75000000  0.59169983
Direct configuration=     2
   0.08333333  0.08333333  0.40830017
   0.91478731  0.41777313  0.50010015
   0.91695582  0.91587350  0.50041046
   0.91523845  0.66809655  0.50042074
   0.91582127  0.16689491  0.50042176
   0.33333333  0.08333333  0.40830017
   0.25112689 -0.00067382  0.59352124
   0.16896365  0.16526879  0.50045626
  -0.00006824  0.24994844  0.59424350
   0.24954014  0.75020250  0.59354923
   0.16885899  0.41628262  0.50038174
   0.33333333  0.58333333  0.40830017
   0.08333333  0.33333333  0.40830017
   0.33333333  0.83333333  0.40830017
   0.58333333  0.33333333  0.40830017
   0.49952705  0.24948832  0.59352089
   0.58333333  0.58333333  0.40830017
   0.50009113  0.49999825  0.59327205
   0.58333333  0.83333333  0.40830017
   0.83333333  0.08333333  0.40830017
   0.66527990  0.16670766  0.50038639
   0.83333333  0.58333333  0.40830017
   0.74935425  0.50106160  0.59357049
   0.16717191  0.66666932  0.49998155
   0.08333333  0.83333333  0.40830017
   0.50079289 -0.00070436  0.59233401
   0.41735196  0.16609649  0.50004979
   0.58333333  0.08333333  0.40830017
   0.25048328  0.25029797  0.59286334
   0.16728952  0.91588111  0.50005938
   0.24947076  0.49974710  0.59286858
  -0.00057514  0.75008764  0.59301385
   0.41641481  0.41654758  0.49998347
   0.66562884  0.91680951  0.50035246
   0.00041497  0.50047585  0.59313131
   0.66540572  0.66771139  0.50048407
   0.66603604  0.41735710  0.50006066
   0.83333333  0.33333333  0.40830017
   0.83333333  0.83333333  0.40830017
  -0.00075953 -0.00012739  0.59296815
   0.75034794  0.24928157  0.59294441
   0.41787712  0.91590074  0.50055932
   0.33333333  0.33333333  0.40830017
   0.75037297 -0.00060320  0.59283922
   0.50053154  0.75051399  0.59243111
   0.08333333  0.58333333  0.40830017
   0.41746194  0.66691318  0.50022608
   0.74947292  0.75096608  0.59256775
Direct configuration=     3
   0.08333333  0.08333333  0.40830017
   0.90914926  0.42109253  0.50040059
   0.91782326  0.91349400  0.50164185
   0.91095378  0.67238621  0.50168295
   0.91328509  0.16757963  0.50168703
   0.33333333  0.08333333  0.40830017
   0.25450757 -0.00269530  0.59898547
   0.17585459  0.16107516  0.50182506
  -0.00027297  0.24979375  0.60187453
   0.24816056  0.75080999  0.59909742
   0.17543595  0.41513048  0.50152696
   0.33333333  0.58333333  0.40830017
   0.08333333  0.33333333  0.40830017
   0.33333333  0.83333333  0.40830017
   0.58333333  0.33333333  0.40830017
   0.49810820  0.24795330  0.59898406
   0.58333333  0.58333333  0.40830017
   0.50036454  0.49999301  0.59798869
   0.58333333  0.83333333  0.40830017
   0.83333333  0.08333333  0.40830017
   0.66111960  0.16683064  0.50154555
   0.83333333  0.58333333  0.40830017
   0.74741701  0.50424638  0.59918247
   0.16868762  0.66667729  0.49992621
   0.08333333  0.83333333  0.40830017
   0.50317155 -0.00281743  0.59423653
   0.41940784  0.16438596  0.50019915
   0.58333333  0.08333333  0.40830017
   0.25193313  0.25119190  0.59635388
   0.16915807  0.91352443  0.50023754
   0.24788305  0.49898839  0.59637484
  -0.00230056  0.75035056  0.59695591
   0.41565924  0.41619031  0.49993388
   0.66251537  0.91723805  0.50140985
   0.00165988  0.50190339  0.59742575
   0.66162288  0.67084558  0.50193627
   0.66414415  0.41942841  0.50024264
   0.83333333  0.33333333  0.40830017
   0.83333333  0.83333333  0.40830017
  -0.00303813 -0.00050956  0.59677310
   0.75139175  0.24712628  0.59667816
   0.42150848  0.91360297  0.50223727
   0.33333333  0.33333333  0.40830017
   0.75149190 -0.00241280  0.59625739
   0.50212617  0.75205595  0.59462494
   0.08333333  0.58333333  0.40830017
   0.41984774  0.66765274  0.50090433
   0.74789167  0.75386432  0.59517152
Direct configuration=     4
   0.08333333  0.08333333  0.40830017
   0.90730444  0.42217866  0.50049889
   0.91810710  0.91271540  0.50204477
   0.90955181  0.67378982  0.50209596
   0.91245523  0.16780367  0.50210103
   0.33333333  0.08333333  0.40830017
   0.25561376 -0.00335674  0.60077341
   0.17810936  0.15970297  0.50227294
  -0.00033996  0.24974313  0.60437146
   0.24770915  0.75100877  0.60091284
   0.17758798  0.41475349  0.50190168
   0.33333333  0.58333333  0.40830017
   0.08333333  0.33333333  0.40830017
   0.33333333  0.83333333  0.40830017
   0.58333333  0.33333333  0.40830017
   0.49764394  0.24745102  0.60077166
   0.58333333  0.58333333  0.40830017
   0.50045400  0.49999130  0.59953202
   0.58333333  0.83333333  0.40830017
   0.83333333  0.08333333  0.40830017
   0.65975831  0.16687088  0.50192483
   0.83333333  0.58333333  0.40830017
   0.74678313  0.50528847  0.60101875
   0.16918358  0.66667990  0.49990810
   0.08333333  0.83333333  0.40830017
   0.50394987 -0.00350885  0.59485905
   0.42008054  0.16382626  0.50024802
   0.58333333  0.08333333  0.40830017
   0.25240753  0.25148440  0.59749601
   0.16976947  0.91275330  0.50029583
   0.24736354  0.49874014  0.59752212
  -0.00286514  0.75043659  0.59824579
   0.41541201  0.41607341  0.49991765
   0.66149662  0.91737827  0.50175584
   0.00206723  0.50237049  0.59883092
   0.66038510  0.67187111  0.50241144
   0.66352510  0.42010615  0.50030219
   0.83333333  0.33333333  0.40830017
   0.83333333  0.83333333  0.40830017
  -0.00378370 -0.00063461  0.59801811
   0.75173329  0.24642106  0.59789987
   0.42269669  0.91285112  0.50278631
   0.33333333  0.33333333  0.40830017
   0.75185802 -0.00300492  0.59737584
   0.50264795  0.75256049  0.59534278
   0.08333333  0.58333333  0.40830017
   0.42062840  0.66789472  0.50112626
   0.74737427  0.75481265  0.59602349
Direct configuration=     5
   0.08333333  0.08333333  0.40830017
   0.90909626  0.42135034  0.50274255
   0.91748320  0.91409395  0.50331531
   0.91051679  0.67173811  0.50339543
   0.91330115  0.16802133  0.50397021
   0.33333333  0.08333333  0.40830017
   0.25503383 -0.00280392  0.60296304
   0.17622127  0.16042030  0.50447740
   0.00002087  0.24988118  0.60690422
   0.24738673  0.75073609  0.60292008
   0.17472503  0.41501296  0.50316644
   0.33333333  0.58333333  0.40830017
   0.08333333  0.33333333  0.40830017
   0.33333333  0.83333333  0.40830017
   0.58333333  0.33333333  0.40830017
   0.49816599  0.24728976  0.60297190
   0.58333333  0.58333333  0.40830017
   0.49999422  0.49966792  0.60118319
   0.58333333  0.83333333  0.40830017
   0.83333333  0.08333333  0.40830017
   0.66011675  0.16673760  0.50363391
   0.83333333  0.58333333  0.40830017
   0.74777206  0.50500122  0.60319859
   0.16954565  0.66687118  0.50161150
   0.08333333  0.83333333  0.40830017
   0.50409614 -0.00293430  0.59618234
   0.42071560  0.16345290  0.50131519
   0.58333333  0.08333333  0.40830017
   0.25177189  0.25104323  0.59901912
   0.17010268  0.91316098  0.50198025
   0.24737310  0.49958856  0.59908304
  -0.00260335  0.74998492  0.59987702
   0.41744722  0.41622977  0.50148568
   0.66162259  0.91809329  0.50246169
   0.00167152  0.50223279  0.60006969
   0.66099701  0.67106630  0.50353786
   0.66226592  0.42027939  0.50198668
   0.83333333  0.33333333  0.40830017
   0.83333333  0.83333333  0.40830017
  -0.00344759 -0.00072256  0.59943325
   0.75115198  0.24660109  0.59930617
   0.42158067  0.91326133  0.50375894
   0.33333333  0.33333333  0.40830017
   0.75178541 -0.00281635  0.59885156
   0.50238453  0.75221665  0.59689732
   0.08333333  0.58333333  0.40830017
   0.42004970  0.66748689  0.50270408
   0.74784138  0.75479495  0.59758952
Direct configuration=     6
   0.08333333  0.08333333  0.40830017
   0.91318292  0.41946117  0.50785974
   0.91606027  0.91723806  0.50621306
   0.91271765  0.66705870  0.50635919
   0.91523048  0.16851776  0.50823332
   0.33333333  0.08333333  0.40830017
   0.25371116 -0.00154307  0.60795700
   0.17191505  0.16205633  0.50950520
   0.00084385  0.25019602  0.61268078
   0.24665138  0.75011418  0.60749806
   0.16819537  0.41560475  0.50605102
   0.33333333  0.58333333  0.40830017
   0.08333333  0.33333333  0.40830017
   0.33333333  0.83333333  0.40830017
   0.58333333  0.33333333  0.40830017
   0.49935666  0.24692197  0.60799008
   0.58333333  0.58333333  0.40830017
   0.49894560  0.49893039  0.60494909
   0.58333333  0.83333333  0.40830017
   0.83333333  0.08333333  0.40830017
   0.66093424  0.16643364  0.50753187
   0.83333333  0.58333333  0.40830017
   0.75002754  0.50434608  0.60817025
   0.17037143  0.66730745  0.50549651
   0.08333333  0.83333333  0.40830017
   0.50442973 -0.00162390  0.59920040
   0.42216400  0.16260134  0.50374911
   0.58333333  0.08333333  0.40830017
   0.25032217  0.25003703  0.60249296
   0.17086264  0.91409077  0.50582197
   0.24739492  0.50152360  0.60264310
  -0.00200628  0.74895476  0.60359742
   0.42208900  0.41658639  0.50506194
   0.66190988  0.91972407  0.50407155
   0.00076900  0.50191874  0.60289499
   0.66239259  0.66923076  0.50610694
   0.65939406  0.42067450  0.50582857
   0.83333333  0.33333333  0.40830017
   0.83333333  0.83333333  0.40830017
  -0.00268101 -0.00092317  0.60266082
   0.74982616  0.24701170  0.60251357
   0.41903530  0.91419690  0.50597725
   0.33333333  0.33333333  0.40830017
   0.75161982 -0.00238627  0.60221728
   0.50178374  0.75143243  0.60044280
   0.08333333  0.58333333  0.40830017
   0.41872986  0.66655671  0.50630269
   0.74890675  0.75475458  0.60116122
Direct configuration=     7
   0.08333333  0.08333333  0.40830017
   0.91406569  0.41905309  0.50896512
   0.91575290  0.91791723  0.50683901
   0.91319306  0.66604788  0.50699940
   0.91564725  0.16862499  0.50915421
   0.33333333  0.08333333  0.40830017
   0.25342544 -0.00127071  0.60903576
   0.17098485  0.16240974  0.51059127
   0.00102162  0.25026404  0.61392860
   0.24649254  0.74997983  0.60848697
   0.16678488  0.41573258  0.50667412
   0.33333333  0.58333333  0.40830017
   0.08333333  0.33333333  0.40830017
   0.33333333  0.83333333  0.40830017
   0.58333333  0.33333333  0.40830017
   0.49961386  0.24684252  0.60907408
   0.58333333  0.58333333  0.40830017
   0.49871908  0.49877107  0.60576258
   0.58333333  0.83333333  0.40830017
   0.83333333  0.08333333  0.40830017
   0.66111083  0.16636798  0.50837388
   0.83333333  0.58333333  0.40830017
   0.75051476  0.50420456  0.60924419
   0.17054981  0.66740169  0.50633572
   0.08333333  0.83333333  0.40830017
   0.50450180 -0.00134084  0.59985234
   0.42247687  0.16241740  0.50427487
   0.58333333  0.08333333  0.40830017
   0.25000901  0.24981968  0.60324335
   0.17102680  0.91429162  0.50665184
   0.24739963  0.50194159  0.60341212
  -0.00187731  0.74873223  0.60440107
   0.42309168  0.41666342  0.50583446
   0.66197194  0.92007635  0.50441931
   0.00057405  0.50185090  0.60350529
   0.66269406  0.66883425  0.50666190
   0.65877369  0.42075985  0.50665847
   0.83333333  0.33333333  0.40830017
   0.83333333  0.83333333  0.40830017
  -0.00251542 -0.00096651  0.60335801
   0.74953977  0.24710039  0.60320641
   0.41848547  0.91439900  0.50645643
   0.33333333  0.33333333  0.40830017
   0.75158405 -0.00229337  0.60294432
   0.50165396  0.75126303  0.60120867
   0.08333333  0.58333333  0.40830017
   0.41844475  0.66635578  0.50708004
   0.74913688  0.75474586  0.60193276
Direct configuration=     8
   0.08333333  0.08333333  0.40830017
   0.91287074  0.41657778  0.51038221
   0.91655528  0.91640069  0.50752550
   0.91360045  0.66878852  0.50759886
   0.91554190  0.16973696  0.51010682
   0.33333333  0.08333333  0.40830017
   0.25327047 -0.00198420  0.61067724
   0.16974482  0.16307044  0.51172490
   0.00007954  0.25017708  0.61576243
   0.24701855  0.75070672  0.60989754
   0.16998707  0.41503378  0.50742261
   0.33333333  0.58333333  0.40830017
   0.08333333  0.33333333  0.40830017
   0.33333333  0.83333333  0.40830017
   0.58333333  0.33333333  0.40830017
   0.49833702  0.24784459  0.61053247
   0.58333333  0.58333333  0.40830017
   0.49938394  0.49908535  0.60729984
   0.58333333  0.83333333  0.40830017
   0.83333333  0.08333333  0.40830017
   0.66351080  0.16699468  0.50929309
   0.83333333  0.58333333  0.40830017
   0.75010040  0.50328244  0.61065107
   0.16907474  0.66687616  0.50751965
   0.08333333  0.83333333  0.40830017
   0.50326919 -0.00106673  0.60105231
   0.41831845  0.16563440  0.50549233
   0.58333333  0.08333333  0.40830017
   0.25067895  0.25033705  0.60464977
   0.17044477  0.91502448  0.50822500
   0.24798002  0.50050552  0.60435064
  -0.00176632  0.74898807  0.60538974
   0.41878872  0.41646559  0.50731438
   0.66434454  0.91706722  0.50512008
   0.00082273  0.50134379  0.60504040
   0.66385759  0.66756969  0.50769659
   0.66309681  0.41979948  0.50819364
   0.83333333  0.33333333  0.40830017
   0.83333333  0.83333333  0.40830017
  -0.00138923 -0.00076351  0.60470542
   0.74973137  0.24854025  0.60467958
   0.41747764  0.91515669  0.50741453
   0.33333333  0.33333333  0.40830017
   0.75181428 -0.00235938  0.60435891
   0.50100022  0.75082367  0.60265956
   0.08333333  0.58333333  0.40830017
   0.41756439  0.66724925  0.50838026
   0.74909236  0.75417820  0.60316695
Direct configuration=     9
   0.08333333  0.08333333  0.40830017
   0.91265314  0.41612702  0.51064027
   0.91670139  0.91612452  0.50765051
   0.91367464  0.66928760  0.50770803
   0.91552272  0.16993946  0.51028030
   0.33333333  0.08333333  0.40830017
   0.25324225 -0.00211412  0.61097616
   0.16951900  0.16319076  0.51193134
  -0.00009201  0.25016125  0.61609637
   0.24711434  0.75083909  0.61015441
   0.17057020  0.41490652  0.50755891
   0.33333333  0.58333333  0.40830017
   0.08333333  0.33333333  0.40830017
   0.33333333  0.83333333  0.40830017
   0.58333333  0.33333333  0.40830017
   0.49810451  0.24802707  0.61079805
   0.58333333  0.58333333  0.40830017
   0.49950501  0.49914258  0.60757978
   0.58333333  0.83333333  0.40830017
   0.83333333  0.08333333  0.40830017
   0.66394784  0.16710881  0.50946049
   0.83333333  0.58333333  0.40830017
   0.75002495  0.50311451  0.61090727
   0.16880612  0.66678046  0.50773525
   0.08333333  0.83333333  0.40830017
   0.50304473 -0.00101682  0.60127083
   0.41756119  0.16622023  0.50571403
   0.58333333  0.08333333  0.40830017
   0.25080095  0.25043127  0.60490588
   0.17033878  0.91515794  0.50851148
   0.24808571  0.50024400  0.60452154
  -0.00174611  0.74903466  0.60556978
   0.41800513  0.41642956  0.50758388
   0.66477660  0.91651924  0.50524770
   0.00086801  0.50125144  0.60531995
   0.66406948  0.66733941  0.50788501
   0.66388407  0.41962459  0.50847320
   0.83333333  0.33333333  0.40830017
   0.83333333  0.83333333  0.40830017
  -0.00118414 -0.00072654  0.60495079
   0.74976626  0.24880246  0.60494785
   0.41729411  0.91529467  0.50758901
   0.33333333  0.33333333  0.40830017
   0.75185620 -0.00237140  0.60461651
   0.50088117  0.75074366  0.60292378
   0.08333333  0.58333333  0.40830017
   0.41740407  0.66741195  0.50861703
   0.74908426  0.75407482  0.60339171
Direct configuration=    10
   0.08333333  0.08333333  0.40830017
   0.91306539  0.41751934  0.51072044
   0.91748864  0.91624673  0.50770589
   0.91415681  0.66849426  0.50768509
   0.91580662  0.16800754  0.51014853
   0.33333333  0.08333333  0.40830017
   0.25336812 -0.00207349  0.61152617
   0.16965261  0.16354163  0.51196070
  -0.00019479  0.24984273  0.61676841
   0.24768146  0.75053771  0.61054902
   0.17049590  0.41520373  0.50754156
   0.33333333  0.58333333  0.40830017
   0.08333333  0.33333333  0.40830017
   0.33333333  0.83333333  0.40830017
   0.58333333  0.33333333  0.40830017
   0.49812937  0.24820751  0.61100508
   0.58333333  0.58333333  0.40830017
   0.49973736  0.49953812  0.60808133
   0.58333333  0.83333333  0.40830017
   0.83333333  0.08333333  0.40830017
   0.66353459  0.16749482  0.50946068
   0.83333333  0.58333333  0.40830017
   0.74922031  0.50325138  0.61137390
   0.16836012  0.66703622  0.50778682
   0.08333333  0.83333333  0.40830017
   0.50234291 -0.00125421  0.60160458
   0.41761021  0.16628878  0.50624314
   0.58333333  0.08333333  0.40830017
   0.25085274  0.25067290  0.60564397
   0.16937854  0.91528108  0.50896835
   0.24827938  0.49962006  0.60499509
  -0.00161604  0.74939764  0.60589750
   0.41711364  0.41607418  0.50799760
   0.66417525  0.91651990  0.50565592
   0.00109667  0.50095451  0.60590355
   0.66446815  0.66722831  0.50831180
   0.66406640  0.41977824  0.50880115
   0.83333333  0.33333333  0.40830017
   0.83333333  0.83333333  0.40830017
  -0.00115038 -0.00036536  0.60556622
   0.75000200  0.24918877  0.60587982
   0.41781316  0.91555778  0.50799678
   0.33333333  0.33333333  0.40830017
   0.75165870 -0.00194531  0.60509558
   0.50095722  0.75068652  0.60352164
   0.08333333  0.58333333  0.40830017
   0.41741666  0.66720836  0.50889331
   0.74871016  0.75348282  0.60378449
Direct configuration=    11
   0.08333333  0.08333333  0.40830017
   0.91320986  0.41800725  0.51074853
   0.91776451  0.91628956  0.50772530
   0.91432578  0.66821625  0.50767705
   0.91590611  0.16733054  0.51010235
   0.33333333  0.08333333  0.40830017
   0.25341223 -0.00205925  0.61171891
   0.16969944  0.16366458  0.51197098
  -0.00023081  0.24973111  0.61700392
   0.24788020  0.75043210  0.61068731
   0.17046986  0.41530788  0.50753548
   0.33333333  0.58333333  0.40830017
   0.08333333  0.33333333  0.40830017
   0.33333333  0.83333333  0.40830017
   0.58333333  0.33333333  0.40830017
   0.49813808  0.24827073  0.61107764
   0.58333333  0.58333333  0.40830017
   0.49981877  0.49967672  0.60825709
   0.58333333  0.83333333  0.40830017
   0.83333333  0.08333333  0.40830017
   0.66338977  0.16763009  0.50946075
   0.83333333  0.58333333  0.40830017
   0.74893834  0.50329935  0.61153742
   0.16820382  0.66712585  0.50780490
   0.08333333  0.83333333  0.40830017
   0.50209698 -0.00133739  0.60172154
   0.41762738  0.16631281  0.50642855
   0.58333333  0.08333333  0.40830017
   0.25087088  0.25075757  0.60590262
   0.16904204  0.91532423  0.50912846
   0.24834725  0.49940142  0.60516103
  -0.00157046  0.74952484  0.60601235
   0.41680124  0.41594964  0.50814258
   0.66396451  0.91652012  0.50579897
   0.00117680  0.50085046  0.60610806
   0.66460785  0.66718938  0.50846136
   0.66413029  0.41983208  0.50891608
   0.83333333  0.33333333  0.40830017
   0.83333333  0.83333333  0.40830017
  -0.00113854 -0.00023879  0.60578188
   0.75008460  0.24932414  0.60620642
   0.41799505  0.91564998  0.50813968
   0.33333333  0.33333333  0.40830017
   0.75158948 -0.00179600  0.60526346
   0.50098387  0.75066650  0.60373114
   0.08333333  0.58333333  0.40830017
   0.41742108  0.66713702  0.50899012
   0.74857906  0.75327536  0.60392213
Direct configuration=    12
   0.08333333  0.08333333  0.40830017
   0.91374976  0.41774605  0.51069532
   0.91708939  0.91610610  0.50780840
   0.91420805  0.66836660  0.50772732
   0.91580955  0.16772649  0.51002095
   0.33333333  0.08333333  0.40830017
   0.25324302 -0.00166647  0.61197924
   0.16967194  0.16379708  0.51197331
  -0.00011292  0.24974773  0.61729782
   0.24805244  0.75002490  0.61083291
   0.16987204  0.41541580  0.50753950
   0.33333333  0.58333333  0.40830017
   0.08333333  0.33333333  0.40830017
   0.33333333  0.83333333  0.40830017
   0.58333333  0.33333333  0.40830017
   0.49878482  0.24802852  0.61105255
   0.58333333  0.58333333  0.40830017
   0.49959773  0.49966428  0.60851352
   0.58333333  0.83333333  0.40830017
   0.83333333  0.08333333  0.40830017
   0.66273885  0.16762404  0.50947714
   0.83333333  0.58333333  0.40830017
   0.74905454  0.50319343  0.61180005
   0.16855577  0.66718371  0.50772908
   0.08333333  0.83333333  0.40830017
   0.50204285 -0.00144783  0.60201005
   0.41843093  0.16568093  0.50672993
   0.58333333  0.08333333  0.40830017
   0.25045912  0.25073783  0.60634963
   0.16947365  0.91511510  0.50932616
   0.24823085  0.49958444  0.60546961
  -0.00161814  0.74973794  0.60610959
   0.41731601  0.41600107  0.50828457
   0.66376338  0.91704703  0.50614360
   0.00108940  0.50074324  0.60641763
   0.66421512  0.66762353  0.50871014
   0.66384334  0.41970375  0.50900867
   0.83333333  0.33333333  0.40830017
   0.83333333  0.83333333  0.40830017
  -0.00131299 -0.00006567  0.60625221
   0.75026588  0.24914827  0.60672726
   0.41811383  0.91551269  0.50833975
   0.33333333  0.33333333  0.40830017
   0.75139847 -0.00157202  0.60535704
   0.50091797  0.75089835  0.60410767
   0.08333333  0.58333333  0.40830017
   0.41751230  0.66692130  0.50905036
   0.74863205  0.75303689  0.60409434
Direct configuration=    13
   0.08333333  0.08333333  0.40830017
   0.91391659  0.41766534  0.51067888
   0.91688078  0.91604942  0.50783408
   0.91417167  0.66841306  0.50774285
   0.91577972  0.16784884  0.50999579
   0.33333333  0.08333333  0.40830017
   0.25319073 -0.00154510  0.61205968
   0.16966344  0.16383802  0.51197402
  -0.00007649  0.24975287  0.61738864
   0.24810567  0.74989907  0.61087790
   0.16968731  0.41544915  0.50754075
   0.33333333  0.58333333  0.40830017
   0.08333333  0.33333333  0.40830017
   0.33333333  0.83333333  0.40830017
   0.58333333  0.33333333  0.40830017
   0.49898466  0.24795367  0.61104480
   0.58333333  0.58333333  0.40830017
   0.49952943  0.49966044  0.60859276
   0.58333333  0.83333333  0.40830017
   0.83333333  0.08333333  0.40830017
   0.66253771  0.16762217  0.50948221
   0.83333333  0.58333333  0.40830017
   0.74909044  0.50316070  0.61188121
   0.16866453  0.66720159  0.50770566
   0.08333333  0.83333333  0.40830017
   0.50202613 -0.00148195  0.60209920
   0.41867923  0.16548568  0.50682306
   0.58333333  0.08333333  0.40830017
   0.25033189  0.25073173  0.60648775
   0.16960702  0.91505048  0.50938725
   0.24819488  0.49964100  0.60556496
  -0.00163288  0.74980378  0.60613964
   0.41747508  0.41601697  0.50832845
   0.66370123  0.91720984  0.50625009
   0.00106239  0.50071011  0.60651329
   0.66409377  0.66775768  0.50878701
   0.66375468  0.41966410  0.50903729
   0.83333333  0.33333333  0.40830017
   0.83333333  0.83333333  0.40830017
  -0.00136690 -0.00001218  0.60639754
   0.75032189  0.24909393  0.60688820
   0.41815053  0.91547027  0.50840157
   0.33333333  0.33333333  0.40830017
   0.75133945 -0.00150282  0.60538595
   0.50089760  0.75096999  0.60422402
   0.08333333  0.58333333  0.40830017
   0.41754048  0.66685465  0.50906898
   0.74864842  0.75296320  0.60414756
Direct configuration=    14
   0.08333333  0.08333333  0.40830017
   0.91350554  0.41750441  0.51067962
   0.91647179  0.91630444  0.50797008
   0.91382798  0.66867200  0.50786323
   0.91540510  0.16826162  0.51013877
   0.33333333  0.08333333  0.40830017
   0.25295091 -0.00142473  0.61219709
   0.17006195  0.16352986  0.51204770
  -0.00013200  0.24989318  0.61752374
   0.24792216  0.75003785  0.61093384
   0.17011166  0.41531243  0.50770414
   0.33333333  0.58333333  0.40830017
   0.08333333  0.33333333  0.40830017
   0.33333333  0.83333333  0.40830017
   0.58333333  0.33333333  0.40830017
   0.49905697  0.24781815  0.61101411
   0.58333333  0.58333333  0.40830017
   0.49953111  0.49949953  0.60877976
   0.58333333  0.83333333  0.40830017
   0.83333333  0.08333333  0.40830017
   0.66286031  0.16758574  0.50953283
   0.83333333  0.58333333  0.40830017
   0.74932281  0.50293415  0.61199067
   0.16885633  0.66705763  0.50768365
   0.08333333  0.83333333  0.40830017
   0.50213679 -0.00144824  0.60240944
   0.41833042  0.16546970  0.50697898
   0.58333333  0.08333333  0.40830017
   0.25022375  0.25083918  0.60668850
   0.16982869  0.91508174  0.50953295
   0.24797700  0.49973152  0.60566059
  -0.00173555  0.74982513  0.60612171
   0.41751893  0.41624080  0.50839312
   0.66372955  0.91724034  0.50644985
   0.00090781  0.50084159  0.60663973
   0.66395297  0.66777285  0.50893593
   0.66385178  0.41946785  0.50913705
   0.83333333  0.33333333  0.40830017
   0.83333333  0.83333333  0.40830017
  -0.00144907 -0.00000105  0.60658712
   0.75056142  0.24887103  0.60706650
   0.41800093  0.91531645  0.50852118
   0.33333333  0.33333333  0.40830017
   0.75140478 -0.00161963  0.60540801
   0.50075099  0.75107683  0.60446312
   0.08333333  0.58333333  0.40830017
   0.41780766  0.66680410  0.50911663
   0.74888100  0.75296009  0.60426241
Direct configuration=    15
   0.08333333  0.08333333  0.40830017
   0.91337399  0.41745291  0.51067985
   0.91634091  0.91638606  0.50801360
   0.91371800  0.66875487  0.50790175
   0.91528521  0.16839371  0.51018452
   0.33333333  0.08333333  0.40830017
   0.25287417 -0.00138621  0.61224107
   0.17018948  0.16343124  0.51207128
  -0.00014977  0.24993808  0.61756698
   0.24786343  0.75008226  0.61095174
   0.17024746  0.41526867  0.50775642
   0.33333333  0.58333333  0.40830017
   0.08333333  0.33333333  0.40830017
   0.33333333  0.83333333  0.40830017
   0.58333333  0.33333333  0.40830017
   0.49908011  0.24777477  0.61100429
   0.58333333  0.58333333  0.40830017
   0.49953165  0.49944803  0.60883960
   0.58333333  0.83333333  0.40830017
   0.83333333  0.08333333  0.40830017
   0.66296355  0.16757408  0.50954904
   0.83333333  0.58333333  0.40830017
   0.74939718  0.50286165  0.61202569
   0.16891771  0.66701156  0.50767661
   0.08333333  0.83333333  0.40830017
   0.50217221 -0.00143745  0.60250873
   0.41821880  0.16546458  0.50702888
   0.58333333  0.08333333  0.40830017
   0.25018915  0.25087357  0.60675274
   0.16989963  0.91509174  0.50957958
   0.24790727  0.49976049  0.60569119
  -0.00176841  0.74983196  0.60611598
   0.41753296  0.41631243  0.50841382
   0.66373862  0.91725010  0.50651377
   0.00085834  0.50088366  0.60668019
   0.66390791  0.66777771  0.50898359
   0.66388285  0.41940505  0.50916898
   0.83333333  0.33333333  0.40830017
   0.83333333  0.83333333  0.40830017
  -0.00147537  0.00000251  0.60664779
   0.75063808  0.24879970  0.60712357
   0.41795305  0.91526722  0.50855946
   0.33333333  0.33333333  0.40830017
   0.75142568 -0.00165701  0.60541507
   0.50070407  0.75111102  0.60453964
   0.08333333  0.58333333  0.40830017
   0.41789316  0.66678793  0.50913187
   0.74895543  0.75295910  0.60429917
Direct configuration=    16
   0.08333333  0.08333333  0.40830017
   0.91326630  0.41756612  0.51071437
   0.91671340  0.91651533  0.50809995
   0.91372867  0.66850950  0.50798285
   0.91546106  0.16820586  0.51039804
   0.33333333  0.08333333  0.40830017
   0.25273050 -0.00134816  0.61236474
   0.17013013  0.16342883  0.51219899
  -0.00014748  0.25002331  0.61765774
   0.24766212  0.75024545  0.61097999
   0.17033522  0.41525552  0.50795033
   0.33333333  0.58333333  0.40830017
   0.08333333  0.33333333  0.40830017
   0.33333333  0.83333333  0.40830017
   0.58333333  0.33333333  0.40830017
   0.49890983  0.24778452  0.61096745
   0.58333333  0.58333333  0.40830017
   0.49964147  0.49935427  0.60899650
   0.58333333  0.83333333  0.40830017
   0.83333333  0.08333333  0.40830017
   0.66291711  0.16773441  0.50958470
   0.83333333  0.58333333  0.40830017
   0.74934624  0.50284622  0.61210556
   0.16868945  0.66718043  0.50767864
   0.08333333  0.83333333  0.40830017
   0.50218778 -0.00147029  0.60281061
   0.41810203  0.16552604  0.50713481
   0.58333333  0.08333333  0.40830017
   0.25014764  0.25100193  0.60688978
   0.16963136  0.91521968  0.50970642
   0.24778968  0.49980463  0.60573800
  -0.00175045  0.74976228  0.60608245
   0.41763706  0.41631077  0.50846316
   0.66343863  0.91728658  0.50663730
   0.00074390  0.50099530  0.60669332
   0.66389885  0.66766923  0.50910814
   0.66377694  0.41944456  0.50928457
   0.83333333  0.33333333  0.40830017
   0.83333333  0.83333333  0.40830017
  -0.00150867 -0.00002620  0.60672687
   0.75068381  0.24869149  0.60721271
   0.41804633  0.91506504  0.50869818
   0.33333333  0.33333333  0.40830017
   0.75151943 -0.00179665  0.60548961
   0.50066824  0.75105390  0.60474134
   0.08333333  0.58333333  0.40830017
   0.41817625  0.66674723  0.50921621
   0.74899686  0.75298248  0.60445584
Direct configuration=    17
   0.08333333  0.08333333  0.40830017
   0.91323013  0.41760413  0.51072596
   0.91683847  0.91655874  0.50812895
   0.91373226  0.66842711  0.50801008