       N       E                     dE             d eps       ncg     rms          rms(c)
DAV:   1     0.320066757569E+04    0.32007E+04   -0.18985E+05  3672   0.112E+03
DAV:   2     0.144493816037E+02   -0.31862E+04   -0.29324E+04  4380   0.263E+02
DAV:   3    -0.201093788844E+03   -0.21554E+03   -0.20028E+03  4116   0.650E+01
DAV:   4    -0.206889490943E+03   -0.57957E+01   -0.57296E+01  4212   0.108E+01
DAV:   5    -0.207079308516E+03   -0.18982E+00   -0.18921E+00  4452   0.199E+00    0.622E+01
RMM:   6    -0.199994391009E+03    0.70849E+01   -0.95529E+01  3678   0.153E+01    0.530E+01
RMM:   7    -0.204923323120E+03   -0.49289E+01   -0.56062E+01  3683   0.127E+01    0.400E+01
RMM:   8    -0.224803976499E+03   -0.19881E+02   -0.77319E+01  3675   0.135E+01    0.435E+01
RMM:   9    -0.208109873085E+03    0.16694E+02   -0.45976E+01  3681   0.103E+01    0.325E+01
RMM:  10    -0.194010885815E+03    0.14099E+02   -0.17906E+01  3681   0.696E+00    0.169E+01
RMM:  11    -0.190903291095E+03    0.31076E+01   -0.94445E+00  3681   0.486E+00    0.957E+00
RMM:  12    -0.189747150770E+03    0.11561E+01   -0.36367E+00  3680   0.289E+00    0.869E+00
RMM:  13    -0.189381446643E+03    0.36570E+00   -0.13735E+00  3681   0.188E+00    0.560E+00
RMM:  14    -0.189630785741E+03   -0.24934E+00   -0.70782E-01  3679   0.130E+00    0.678E+00
RMM:  15    -0.189383329180E+03    0.24746E+00   -0.19914E-01  3679   0.708E-01    0.491E+00
RMM:  16    -0.189225527900E+03    0.15780E+00   -0.16137E-01  3681   0.626E-01    0.313E+00
RMM:  17    -0.189137710865E+03    0.87817E-01   -0.12982E-01  3678   0.546E-01    0.168E+00
RMM:  18    -0.189106125755E+03    0.31585E-01   -0.33578E-02  3679   0.274E-01    0.824E-01
RMM:  19    -0.189099625098E+03    0.65007E-02   -0.97889E-03  3684   0.147E-01    0.551E-01
RMM:  20    -0.189098587530E+03    0.10376E-02   -0.34879E-03  3681   0.898E-02    0.452E-01
RMM:  21    -0.189097062184E+03    0.15253E-02   -0.22132E-03  3681   0.711E-02    0.308E-01
RMM:  22    -0.189096434474E+03    0.62771E-03   -0.14851E-03  3680   0.565E-02    0.234E-01
RMM:  23    -0.189096024312E+03    0.41016E-03   -0.52658E-04  3684   0.342E-02    0.134E-01
RMM:  24    -0.189096043565E+03   -0.19253E-04   -0.41859E-04  3681   0.290E-02    0.775E-02
RMM:  25    -0.189096274007E+03   -0.23044E-03   -0.12670E-04  3681   0.168E-02    0.558E-02
RMM:  26    -0.189096591780E+03   -0.31777E-03   -0.72917E-05  3678   0.125E-02    0.371E-02
RMM:  27    -0.189097144684E+03   -0.55290E-03   -0.68211E-05  3678   0.111E-02    0.429E-02
RMM:  28    -0.189097465501E+03   -0.32082E-03   -0.28172E-05  3672   0.759E-03    0.266E-02
RMM:  29    -0.189098091848E+03   -0.62635E-03   -0.34689E-05  3672   0.816E-03    0.338E-02
RMM:  30    -0.189098543687E+03   -0.45184E-03   -0.24607E-05  3621   0.721E-03    0.116E-02
RMM:  31    -0.189099057173E+03   -0.51349E-03   -0.29819E-05  3515   0.727E-03    0.126E-02
RMM:  32    -0.189099261793E+03   -0.20462E-03   -0.14024E-05  3017   0.470E-03    0.589E-03
RMM:  33    -0.189099380107E+03   -0.11831E-03   -0.45035E-06  2624   0.265E-03    0.403E-03
RMM:  34    -0.189099438598E+03   -0.58491E-04   -0.12973E-06  2218   0.163E-03    0.269E-03
RMM:  35    -0.189099507584E+03   -0.68986E-04   -0.11468E-06  2202   0.145E-03    0.223E-03
RMM:  36    -0.189099531880E+03   -0.24296E-04   -0.47785E-07  2132   0.909E-04    0.142E-03
RMM:  37    -0.189099557306E+03   -0.25426E-04   -0.51367E-07  2152   0.104E-03    0.106E-03
RMM:  38    -0.189099563117E+03   -0.58114E-05   -0.15361E-07  1206   0.505E-04    0.945E-04
RMM:  39    -0.189099566731E+03   -0.36140E-05   -0.10268E-07  1466   0.515E-04    0.318E-04
RMM:  40    -0.189099567750E+03   -0.10191E-05   -0.34423E-08   899   0.378E-04    0.269E-04
RMM:  41    -0.189099568125E+03   -0.37495E-06   -0.13876E-08   617   0.341E-04
   1 F= -.18909957E+03 E0= -.18896151E+03  d E =-.189100E+03
       N       E                     dE             d eps       ncg     rms          rms(c)
DAV:   1    -0.190161728844E+03   -0.10622E+01   -0.36940E+02  3672   0.294E+01    0.369E+00
RMM:   2    -0.190543406121E+03   -0.38168E+00   -0.38598E+00  3678   0.425E+00    0.236E+00
RMM:   3    -0.190670960005E+03   -0.12755E+00   -0.40715E-01  3705   0.110E+00    0.416E+00
RMM:   4    -0.190519435622E+03    0.15152E+00   -0.17184E-01  3687   0.698E-01    0.125E+00
RMM:   5    -0.190613451711E+03   -0.94016E-01   -0.90150E-02  3685   0.460E-01    0.307E+00
RMM:   6    -0.190521341805E+03    0.92110E-01   -0.54260E-02  3688   0.356E-01    0.104E+00
RMM:   7    -0.190510824480E+03    0.10517E-01   -0.15458E-02  3681   0.198E-01    0.466E-01
RMM:   8    -0.190509194401E+03    0.16301E-02   -0.50761E-03  3681   0.111E-01    0.336E-01
RMM:   9    -0.190508149150E+03    0.10453E-02   -0.23748E-03  3687   0.767E-02    0.163E-01
RMM:  10    -0.190507986850E+03    0.16230E-03   -0.78817E-04  3686   0.442E-02    0.121E-01
RMM:  11    -0.190507874729E+03    0.11212E-03   -0.19913E-04  3687   0.226E-02    0.596E-02
RMM:  12    -0.190507866148E+03    0.85806E-05   -0.50382E-05  3683   0.114E-02    0.463E-02
RMM:  13    -0.190507853760E+03    0.12388E-04   -0.26451E-05  3678   0.839E-03    0.291E-02
RMM:  14    -0.190507851339E+03    0.24207E-05   -0.15428E-05  3672   0.632E-03    0.189E-02
RMM:  15    -0.190507848766E+03    0.25735E-05   -0.56273E-06  2968   0.393E-03    0.602E-03
RMM:  16    -0.190507849557E+03   -0.79068E-06   -0.13121E-06  2042   0.198E-03
   2 F= -.19050785E+03 E0= -.19037067E+03  d E =-.140828E+01
       N       E                     dE             d eps       ncg     rms          rms(c)
DAV:   1    -0.189017199602E+03    0.14906E+01   -0.34622E+03  3672   0.924E+01    0.888E+00
RMM:   2    -0.192420465790E+03   -0.34033E+01   -0.34226E+01  3680   0.127E+01    0.591E+00
RMM:   3    -0.193146689257E+03   -0.72622E+00   -0.28452E+00  3709   0.289E+00    0.101E+01
RMM:   4    -0.192139446507E+03    0.10072E+01   -0.88163E-01  3686   0.160E+00    0.338E+00
RMM:   5    -0.192382644622E+03   -0.24320E+00   -0.61658E-01  3687   0.124E+00    0.530E+00
RMM:   6    -0.192121042755E+03    0.26160E+00   -0.35022E-01  3684   0.959E-01    0.192E+00
RMM:   7    -0.192148473509E+03   -0.27431E-01   -0.11241E-01  3684   0.518E-01    0.267E+00
RMM:   8    -0.192093058045E+03    0.55415E-01   -0.55333E-02  3687   0.353E-01    0.152E+00
RMM:   9    -0.192068795885E+03    0.24262E-01   -0.24541E-02  3683   0.248E-01    0.472E-01
RMM:  10    -0.192067173081E+03    0.16228E-02   -0.68516E-03  3683   0.129E-01    0.325E-01
RMM:  11    -0.192066519351E+03    0.65373E-03   -0.19557E-03  3687   0.702E-02    0.207E-01
RMM:  12    -0.192066353892E+03    0.16546E-03   -0.54847E-04  3688   0.386E-02    0.131E-01
RMM:  13    -0.192066319660E+03    0.34232E-04   -0.31309E-04  3683   0.284E-02    0.910E-02
RMM:  14    -0.192066272549E+03    0.47111E-04   -0.13242E-04  3683   0.188E-02    0.465E-02
RMM:  15    -0.192066261204E+03    0.11345E-04   -0.37165E-05  3678   0.979E-03    0.207E-02
RMM:  16    -0.192066263732E+03   -0.25273E-05   -0.84413E-06  3197   0.467E-03    0.112E-02
RMM:  17    -0.192066267607E+03   -0.38756E-05   -0.30786E-06  2538   0.292E-03    0.666E-03
RMM:  18    -0.192066274514E+03   -0.69067E-05   -0.83669E-07  2093   0.166E-03    0.451E-03
RMM:  19    -0.192066277336E+03   -0.28225E-05   -0.36215E-07  2024   0.106E-03    0.277E-03
RMM:  20    -0.192066281479E+03   -0.41421E-05   -0.21310E-07  1993   0.747E-04    0.182E-03
RMM:  21    -0.192066284032E+03   -0.25539E-05   -0.96370E-08  1381   0.536E-04    0.748E-04
RMM:  22    -0.192066288065E+03   -0.40323E-05   -0.82654E-08  1173   0.466E-04    0.863E-04
RMM:  23    -0.192066292691E+03   -0.46262E-05   -0.17708E-07  1577   0.539E-04    0.655E-04
RMM:  24    -0.192066296343E+03   -0.36518E-05   -0.19260E-07  1545   0.521E-04    0.524E-04
RMM:  25    -0.192066297265E+03   -0.92178E-06   -0.49438E-08   761   0.360E-04
   3 F= -.19206630E+03 E0= -.19193453E+03  d E =-.296673E+01
       N       E                     dE             d eps       ncg     rms          rms(c)
DAV:   1    -0.192221961185E+03   -0.15566E+00   -0.33180E+02  3672   0.282E+01    0.247E+00
RMM:   2    -0.192583970742E+03   -0.36201E+00   -0.37416E+00  3684   0.412E+00    0.184E+00
RMM:   3    -0.192668314424E+03   -0.84344E-01   -0.29842E-01  3710   0.942E-01    0.349E+00
RMM:   4    -0.192571938497E+03    0.96376E-01   -0.77747E-02  3687   0.472E-01    0.141E+00
RMM:   5    -0.192583661673E+03   -0.11723E-01   -0.32239E-02  3690   0.273E-01    0.175E+00
RMM:   6    -0.192561930341E+03    0.21731E-01   -0.48903E-02  3683   0.347E-01    0.855E-01
RMM:   7    -0.192555197178E+03    0.67332E-02   -0.15395E-02  3684   0.198E-01    0.409E-01
RMM:   8    -0.192553893805E+03    0.13034E-02   -0.47474E-03  3682   0.109E-01    0.320E-01
RMM:   9    -0.192552675298E+03    0.12185E-02   -0.18771E-03  3682   0.687E-02    0.113E-01
RMM:  10    -0.192552573205E+03    0.10209E-03   -0.41589E-04  3686   0.314E-02    0.682E-02
RMM:  11    -0.192552535430E+03    0.37775E-04   -0.12243E-04  3685   0.173E-02    0.411E-02
RMM:  12    -0.192552534217E+03    0.12132E-05   -0.56320E-05  3680   0.119E-02    0.346E-02
RMM:  13    -0.192552526616E+03    0.76008E-05   -0.23869E-05  3682   0.789E-03    0.170E-02
RMM:  14    -0.192552526217E+03    0.39906E-06   -0.47110E-06  2879   0.374E-03
   4 F= -.19255253E+03 E0= -.19242380E+03  d E =-.486229E+00
       N       E                     dE             d eps       ncg     rms          rms(c)
DAV:   1    -0.192533138306E+03    0.19388E-01   -0.67930E+01  3708   0.127E+01    0.103E+00
RMM:   2    -0.192609128178E+03   -0.75990E-01   -0.77907E-01  3684   0.188E+00    0.878E-01
RMM:   3    -0.192623506895E+03   -0.14379E-01   -0.61339E-02  3711   0.428E-01    0.151E+00
RMM:   4    -0.192607982676E+03    0.15524E-01   -0.14513E-02  3688   0.202E-01    0.779E-01
RMM:   5    -0.192604514860E+03    0.34678E-02   -0.50445E-03  3690   0.110E-01    0.529E-01
RMM:   6    -0.192603177753E+03    0.13371E-02   -0.10093E-02  3683   0.158E-01    0.321E-01
RMM:   7    -0.192602338875E+03    0.83888E-03   -0.30848E-03  3682   0.882E-02    0.181E-01
RMM:   8    -0.192602041858E+03    0.29702E-03   -0.85267E-04  3682   0.468E-02    0.136E-01
RMM:   9    -0.192601827194E+03    0.21466E-03   -0.33578E-04  3682   0.291E-02    0.530E-02
RMM:  10    -0.192601800732E+03    0.26462E-04   -0.81633E-05  3685   0.138E-02    0.285E-02
RMM:  11    -0.192601794124E+03    0.66082E-05   -0.26506E-05  3678   0.793E-03    0.175E-02
RMM:  12    -0.192601794992E+03   -0.86843E-06   -0.13393E-05  3673   0.572E-03    0.154E-02
RMM:  13    -0.192601794421E+03    0.57093E-06   -0.50888E-06  2944   0.369E-03
   5 F= -.19260179E+03 E0= -.19247449E+03  d E =-.535497E+00
       N       E                     dE             d eps       ncg     rms          rms(c)
DAV:   1    -0.192614954962E+03   -0.13160E-01   -0.37614E+01  3684   0.948E+00    0.804E-01
RMM:   2    -0.192655032752E+03   -0.40078E-01   -0.42882E-01  3684   0.139E+00    0.545E-01
RMM:   3    -0.192671357571E+03   -0.16325E-01   -0.31044E-02  3717   0.302E-01    0.134E+00
RMM:   4    -0.192655007953E+03    0.16350E-01   -0.90702E-03  3686   0.153E-01    0.502E-01
RMM:   5    -0.192654278714E+03    0.72924E-03   -0.41123E-03  3683   0.102E-01    0.423E-01
RMM:   6    -0.192653845536E+03    0.43318E-03   -0.52295E-03  3682   0.115E-01    0.329E-01
RMM:   7    -0.192652902432E+03    0.94310E-03   -0.21228E-03  3682   0.732E-02    0.137E-01
RMM:   8    -0.192652788000E+03    0.11443E-03   -0.45070E-04  3686   0.346E-02    0.103E-01
RMM:   9    -0.192652666091E+03    0.12191E-03   -0.19927E-04  3681   0.221E-02    0.472E-02
RMM:  10    -0.192652642555E+03    0.23535E-04   -0.58182E-05  3682   0.118E-02    0.247E-02
RMM:  11    -0.192652636105E+03    0.64504E-05   -0.18103E-05  3673   0.661E-03    0.123E-02
RMM:  12    -0.192652636065E+03    0.40192E-07   -0.83718E-06  3672   0.445E-03
   6 F= -.19265264E+03 E0= -.19252609E+03  d E =-.508416E-01
       N       E                     dE             d eps       ncg     rms          rms(c)
DAV:   1    -0.192652131046E+03    0.50506E-03   -0.35342E+00  3744   0.290E+00    0.242E-01
RMM:   2    -0.192655905333E+03   -0.37743E-02   -0.40394E-02  3684   0.427E-01    0.172E-01
RMM:   3    -0.192657420488E+03   -0.15152E-02   -0.29810E-03  3717   0.934E-02    0.419E-01
RMM:   4    -0.192655865038E+03    0.15555E-02   -0.85698E-04  3686   0.471E-02    0.159E-01
RMM:   5    -0.192655801277E+03    0.63761E-04   -0.36053E-04  3683   0.303E-02    0.125E-01
RMM:   6    -0.192655789715E+03    0.11562E-04   -0.50409E-04  3682   0.356E-02    0.105E-01
RMM:   7    -0.192655691159E+03    0.98556E-04   -0.21605E-04  3682   0.234E-02    0.416E-02
RMM:   8    -0.192655681142E+03    0.10018E-04   -0.42818E-05  3683   0.107E-02    0.306E-02
RMM:   9    -0.192655670743E+03    0.10398E-04   -0.18721E-05  3672   0.681E-03    0.158E-02
RMM:  10    -0.192655667701E+03    0.30419E-05   -0.61250E-06  3304   0.386E-03    0.720E-03
RMM:  11    -0.192655667135E+03    0.56684E-06   -0.17128E-06  2003   0.222E-03
   7 F= -.19265567E+03 E0= -.19252934E+03  d E =-.538727E-01
       N       E                     dE             d eps       ncg     rms          rms(c)
DAV:   1    -0.192659673679E+03   -0.40060E-02   -0.59498E+00  3696   0.377E+00    0.240E-01
RMM:   2    -0.192666113660E+03   -0.64400E-02   -0.67755E-02  3683   0.556E-01    0.215E-01
RMM:   3    -0.192666399947E+03   -0.28629E-03   -0.43639E-03  3727   0.117E-01    0.245E-01
RMM:   4    -0.192666008257E+03    0.39169E-03   -0.75397E-04  3676   0.467E-02    0.162E-01
RMM:   5    -0.192666273779E+03   -0.26552E-03   -0.49964E-04  3687   0.340E-02    0.241E-01
RMM:   6    -0.192665882682E+03    0.39110E-03   -0.58334E-04  3682   0.371E-02    0.152E-01
RMM:   7    -0.192665767323E+03    0.11536E-03   -0.65542E-04  3683   0.402E-02    0.752E-02
RMM:   8    -0.192665739827E+03    0.27496E-04   -0.12896E-04  3684   0.182E-02    0.432E-02
RMM:   9    -0.192665720202E+03    0.19625E-04   -0.29884E-05  3673   0.888E-03    0.274E-02
RMM:  10    -0.192665706871E+03    0.13331E-04   -0.24954E-05  3679   0.755E-03    0.155E-02
RMM:  11    -0.192665703711E+03    0.31608E-05   -0.86324E-06  3656   0.445E-03    0.822E-03
RMM:  12    -0.192665703184E+03    0.52706E-06   -0.59741E-06  3430   0.364E-03
   8 F= -.19266570E+03 E0= -.19253951E+03  d E =-.100360E-01
       N       E                     dE             d eps       ncg     rms          rms(c)
DAV:   1    -0.192662713330E+03    0.29904E-02   -0.70721E+00  3684   0.411E+00    0.258E-01
RMM:   2    -0.192670366629E+03   -0.76533E-02   -0.80424E-02  3683   0.606E-01    0.232E-01
RMM:   3    -0.192670708127E+03   -0.34150E-03   -0.51502E-03  3727   0.127E-01    0.266E-01
RMM:   4    -0.192670263573E+03    0.44455E-03   -0.87796E-04  3676   0.503E-02    0.181E-01
RMM:   5    -0.192670513227E+03   -0.24965E-03   -0.56461E-04  3687   0.361E-02    0.256E-01
RMM:   6    -0.192670072472E+03    0.44076E-03   -0.69539E-04  3682   0.406E-02    0.160E-01
RMM:   7    -0.192669944718E+03    0.12775E-03   -0.79862E-04  3683   0.443E-02    0.785E-02
RMM:   8    -0.192669916207E+03    0.28512E-04   -0.14966E-04  3683   0.196E-02    0.465E-02
RMM:   9    -0.192669893802E+03    0.22404E-04   -0.34645E-05  3674   0.957E-03    0.307E-02
RMM:  10    -0.192669877426E+03    0.16376E-04   -0.29483E-05  3679   0.822E-03    0.171E-02
RMM:  11    -0.192669873666E+03    0.37600E-05   -0.10313E-05  3670   0.487E-03    0.926E-03
RMM:  12    -0.192669873010E+03    0.65638E-06   -0.75194E-06  3665   0.406E-03
   9 F= -.19266987E+03 E0= -.19254381E+03  d E =-.142059E-01
       N       E                     dE             d eps       ncg     rms          rms(c)
DAV:   1    -0.192671401835E+03   -0.15282E-02   -0.69598E+00  3684   0.407E+00    0.203E-01
RMM:   2    -0.192679319827E+03   -0.79180E-02   -0.78997E-02  3680   0.603E-01    0.301E-01
RMM:   3    -0.192679080646E+03    0.23918E-03   -0.53843E-03  3769   0.129E-01    0.210E-01
RMM:   4    -0.192678766464E+03    0.31418E-03   -0.51220E-04  3677   0.398E-02    0.150E-01
RMM:   5    -0.192678866360E+03   -0.99896E-04   -0.34518E-04  3689   0.293E-02    0.203E-01
RMM:   6    -0.192678699596E+03    0.16676E-03   -0.44979E-04  3683   0.319E-02    0.178E-01
RMM:   7    -0.192678509062E+03    0.19053E-03   -0.10400E-03  3682   0.496E-02    0.937E-02
RMM:   8    -0.192678497601E+03    0.11461E-04   -0.26628E-04  3680   0.256E-02    0.553E-02
RMM:   9    -0.192678476881E+03    0.20720E-04   -0.32275E-05  3679   0.931E-03    0.404E-02
RMM:  10    -0.192678453023E+03    0.23858E-04   -0.31557E-05  3677   0.856E-03    0.262E-02
RMM:  11    -0.192678443519E+03    0.95033E-05   -0.21232E-05  3672   0.690E-03    0.143E-02
RMM:  12    -0.192678441482E+03    0.20372E-05   -0.19051E-05  3678   0.645E-03    0.898E-03
RMM:  13    -0.192678441269E+03    0.21295E-06   -0.49112E-06  3053   0.341E-03
  10 F= -.19267844E+03 E0= -.19255217E+03  d E =-.856826E-02
       N       E                     dE             d eps       ncg     rms          rms(c)
DAV:   1    -0.192670051859E+03    0.83896E-02   -0.15135E+01  3672   0.600E+00    0.298E-01
RMM:   2    -0.192687335261E+03   -0.17283E-01   -0.17156E-01  3680   0.889E-01    0.442E-01
RMM:   3    -0.192686842066E+03    0.49320E-03   -0.11680E-02  3765   0.191E-01    0.309E-01
RMM:   4    -0.192686137729E+03    0.70434E-03   -0.11050E-03  3677   0.585E-02    0.221E-01
RMM:   5    -0.192686342017E+03   -0.20429E-03   -0.73507E-04  3689   0.428E-02    0.300E-01
RMM:   6    -0.192685928098E+03    0.41392E-03   -0.96630E-04  3683   0.468E-02    0.258E-01
RMM:   7    -0.192685505410E+03    0.42269E-03   -0.22743E-03  3681   0.733E-02    0.138E-01
RMM:   8    -0.192685474207E+03    0.31204E-04   -0.57527E-04  3680   0.376E-02    0.818E-02
RMM:   9    -0.192685428318E+03    0.45888E-04   -0.70688E-05  3686   0.138E-02    0.593E-02
RMM:  10    -0.192685376241E+03    0.52077E-04   -0.70831E-05  3678   0.128E-02    0.376E-02
RMM:  11    -0.192685356739E+03    0.19502E-04   -0.46707E-05  3679   0.102E-02    0.204E-02
RMM:  12    -0.192685352905E+03    0.38344E-05   -0.42407E-05  3680   0.961E-03    0.130E-02
RMM:  13    -0.192685352468E+03    0.43688E-06   -0.94651E-06  3655   0.467E-03
  11 F= -.19268535E+03 E0= -.19255877E+03  d E =-.154795E-01
       N       E                     dE             d eps       ncg     rms          rms(c)
DAV:   1    -0.192617722507E+03    0.67630E-01   -0.60582E+01  3672   0.120E+01    0.594E-01
RMM:   2    -0.192687198123E+03   -0.69476E-01   -0.68594E-01  3680   0.178E+00    0.870E-01
RMM:   3    -0.192685472743E+03    0.17254E-02   -0.46526E-02  3754   0.380E-01    0.618E-01
RMM:   4    -0.192682536744E+03    0.29360E-02   -0.44354E-03  3677   0.117E-01    0.440E-01
RMM:   5    -0.192683543022E+03   -0.10063E-02   -0.27434E-03  3690   0.821E-02    0.616E-01
RMM:   6    -0.192681113529E+03    0.24295E-02   -0.37554E-03  3684   0.926E-02    0.470E-01
RMM:   7    -0.192679619189E+03    0.14943E-02   -0.93260E-03  3681   0.148E-01    0.269E-01
RMM:   8    -0.192679452933E+03    0.16626E-03   -0.22518E-03  3681   0.742E-02    0.164E-01
RMM:   9    -0.192679260562E+03    0.19237E-03   -0.28131E-04  3687   0.275E-02    0.118E-01
RMM:  10    -0.192679054219E+03    0.20634E-03   -0.28220E-04  3682   0.256E-02    0.744E-02
RMM:  11    -0.192678978119E+03    0.76100E-04   -0.18994E-04  3681   0.206E-02    0.392E-02
RMM:  12    -0.192678966143E+03    0.11976E-04   -0.17829E-04  3682   0.197E-02    0.255E-02
RMM:  13    -0.192678964493E+03    0.16496E-05   -0.32912E-05  3681   0.873E-03    0.127E-02
RMM:  14    -0.192678963197E+03    0.12961E-05   -0.26615E-06  2349   0.294E-03    0.940E-03
RMM:  15    -0.192678962000E+03    0.11972E-05   -0.28256E-06  2065   0.288E-03    0.389E-03
RMM:  16    -0.192678962352E+03   -0.35249E-06   -0.16203E-06  1974   0.230E-03
  12 F= -.19267896E+03 E0= -.19255174E+03  d E =-.908934E-02
       N       E                     dE             d eps       ncg     rms          rms(c)
DAV:   1    -0.192652803278E+03    0.26159E-01   -0.32942E+01  3672   0.885E+00    0.438E-01
RMM:   2    -0.192690439015E+03   -0.37636E-01   -0.37489E-01  3681   0.131E+00    0.631E-01
RMM:   3    -0.192689677997E+03    0.76102E-03   -0.25407E-02  3770   0.282E-01    0.460E-01
RMM:   4    -0.192688094492E+03    0.15835E-02   -0.24302E-03  3676   0.864E-02    0.327E-01
RMM:   5    -0.192688654206E+03   -0.55971E-03   -0.14761E-03  3690   0.603E-02    0.455E-01
RMM:   6    -0.192687412818E+03    0.12414E-02   -0.20247E-03  3684   0.681E-02    0.353E-01
RMM:   7    -0.192686637387E+03    0.77543E-03   -0.48893E-03  3681   0.107E-01    0.204E-01
RMM:   8    -0.192686550989E+03    0.86398E-04   -0.13644E-03  3681   0.576E-02    0.120E-01
RMM:   9    -0.192686454085E+03    0.96904E-04   -0.16142E-04  3687   0.208E-02    0.884E-02
RMM:  10    -0.192686345974E+03    0.10811E-03   -0.13419E-04  3682   0.177E-02    0.581E-02
RMM:  11    -0.192686302031E+03    0.43943E-04   -0.95044E-05  3681   0.146E-02    0.333E-02
RMM:  12    -0.192686289201E+03    0.12830E-04   -0.99028E-05  3682   0.147E-02    0.196E-02
RMM:  13    -0.192686287505E+03    0.16963E-05   -0.25164E-05  3678   0.756E-03    0.859E-03
RMM:  14    -0.192686286966E+03    0.53956E-06   -0.14796E-06  2049   0.226E-03
  13 F= -.19268629E+03 E0= -.19255954E+03  d E =-.164140E-01
       N       E                     dE             d eps       ncg     rms          rms(c)
DAV:   1    -0.192682724354E+03    0.35632E-02   -0.10083E+01  3684   0.490E+00    0.246E-01
RMM:   2    -0.192694409411E+03   -0.11685E-01   -0.11449E-01  3680   0.725E-01    0.381E-01
RMM:   3    -0.192693950613E+03    0.45880E-03   -0.79558E-03  3737   0.156E-01    0.264E-01
RMM:   4    -0.192693521384E+03    0.42923E-03   -0.81751E-04  3677   0.496E-02    0.210E-01
RMM:   5    -0.192693335276E+03    0.18611E-03   -0.24973E-04  3694   0.253E-02    0.183E-01
RMM:   6    -0.192693139159E+03    0.19612E-03   -0.59109E-04  3684   0.375E-02    0.165E-01
RMM:   7    -0.192692988730E+03    0.15043E-03   -0.15407E-03  3681   0.603E-02    0.102E-01
RMM:   8    -0.192692977522E+03    0.11208E-04   -0.37898E-04  3681   0.303E-02    0.628E-02
RMM:   9    -0.192692952665E+03    0.24857E-04   -0.47341E-05  3688   0.112E-02    0.437E-02
RMM:  10    -0.192692928454E+03    0.24211E-04   -0.32490E-05  3677   0.880E-03    0.300E-02
RMM:  11    -0.192692917156E+03    0.11298E-04   -0.25545E-05  3678   0.762E-03    0.168E-02
RMM:  12    -0.192692915098E+03    0.20581E-05   -0.20047E-05  3677   0.666E-03    0.108E-02
RMM:  13    -0.192692914621E+03    0.47718E-06   -0.70683E-06  3488   0.403E-03
  14 F= -.19269291E+03 E0= -.19256582E+03  d E =-.662766E-02
       N       E                     dE             d eps       ncg     rms          rms(c)
DAV:   1    -0.192686841645E+03    0.60735E-02   -0.83661E+00  3684   0.447E+00    0.223E-01
RMM:   2    -0.192696522641E+03   -0.96810E-02   -0.94756E-02  3680   0.660E-01    0.349E-01
RMM:   3    -0.192696110972E+03    0.41167E-03   -0.65807E-03  3738   0.142E-01    0.240E-01
RMM:   4    -0.192695762592E+03    0.34838E-03   -0.66895E-04  3677   0.449E-02    0.194E-01
RMM:   5    -0.192695595448E+03    0.16714E-03   -0.20144E-04  3694   0.228E-02    0.165E-01
RMM:   6    -0.192695437875E+03    0.15757E-03   -0.50086E-04  3684   0.346E-02    0.151E-01
RMM:   7    -0.192695317988E+03    0.11989E-03   -0.13139E-03  3681   0.556E-02    0.941E-02
RMM:   8    -0.192695308166E+03    0.98223E-05   -0.31468E-04  3681   0.277E-02    0.577E-02
RMM:   9    -0.192695287202E+03    0.20963E-04   -0.39489E-05  3687   0.103E-02    0.400E-02
RMM:  10    -0.192695267063E+03    0.20139E-04   -0.27812E-05  3677   0.813E-03    0.271E-02
RMM:  11    -0.192695258094E+03    0.89695E-05   -0.21499E-05  3675   0.699E-03    0.154E-02
RMM:  12    -0.192695256582E+03    0.15115E-05   -0.16935E-05  3677   0.611E-03    0.100E-02
RMM:  13    -0.192695256213E+03    0.36943E-06   -0.55773E-06  3138   0.362E-03
  15 F= -.19269526E+03 E0= -.19256784E+03  d E =-.896925E-02
       N       E                     dE             d eps       ncg     rms          rms(c)
DAV:   1    -0.192694757891E+03    0.49869E-03   -0.42123E+00  3696   0.317E+00    0.178E-01
RMM:   2    -0.192699388956E+03   -0.46311E-02   -0.46999E-02  3682   0.465E-01    0.203E-01
RMM:   3    -0.192699503551E+03   -0.11460E-03   -0.31994E-03  3723   0.987E-02    0.217E-01
RMM:   4    -0.192699214293E+03    0.28926E-03   -0.45309E-04  3677   0.359E-02    0.159E-01
RMM:   5    -0.192699026441E+03    0.18785E-03   -0.13168E-04  3688   0.186E-02    0.969E-02
RMM:   6    -0.192699017238E+03    0.92032E-05   -0.25699E-04  3683   0.250E-02    0.104E-01
RMM:   7    -0.192698966892E+03    0.50346E-04   -0.59647E-04  3681   0.378E-02    0.573E-02
RMM:   8    -0.192698959639E+03    0.72532E-05   -0.97030E-05  3675   0.157E-02    0.385E-02
RMM:   9    -0.192698944364E+03    0.15275E-04   -0.18043E-05  3677   0.698E-03    0.210E-02
RMM:  10    -0.192698939719E+03    0.46451E-05   -0.86880E-06  3649   0.462E-03    0.147E-02
RMM:  11    -0.192698937289E+03    0.24291E-05   -0.70279E-06  3589   0.404E-03    0.862E-03
RMM:  12    -0.192698936911E+03    0.37805E-06   -0.37096E-06  2552   0.305E-03
  16 F= -.19269894E+03 E0= -.19257146E+03  d E =-.368070E-02
       N       E                     dE             d eps       ncg     rms          rms(c)
DAV:   1    -0.192697995449E+03    0.94184E-03   -0.17710E+00  3720   0.206E+00    0.116E-01
RMM:   2    -0.192699938435E+03   -0.19430E-02   -0.19790E-02  3682   0.302E-01    0.133E-01
RMM:   3    -0.192699979884E+03   -0.41449E-04   -0.13519E-03  3722   0.641E-02    0.140E-01
RMM:   4    -0.192699859766E+03    0.12012E-03   -0.18959E-04  3677   0.233E-02    0.103E-01
RMM:   5    -0.192699783610E+03    0.76156E-04   -0.54698E-05  3687   0.120E-02    0.625E-02
RMM:   6    -0.192699784934E+03   -0.13242E-05   -0.10765E-04  3683   0.162E-02    0.680E-02
RMM:   7    -0.192699768771E+03    0.16163E-04   -0.25057E-04  3681   0.245E-02    0.373E-02
RMM:   8    -0.192699766085E+03    0.26855E-05   -0.41147E-05  3675   0.102E-02    0.249E-02
RMM:   9    -0.192699759974E+03    0.61111E-05   -0.74948E-06  3244   0.452E-03    0.140E-02
RMM:  10    -0.192699757921E+03    0.20530E-05   -0.34968E-06  2550   0.308E-03    0.983E-03
RMM:  11    -0.192699756791E+03    0.11297E-05   -0.30892E-06  2161   0.301E-03    0.590E-03
RMM:  12    -0.192699756637E+03    0.15422E-06   -0.21412E-06  1955   0.259E-03
  17 F= -.19269976E+03 E0= -.19257225E+03  d E =-.450042E-02
       N       E                     dE             d eps       ncg     rms          rms(c)
DAV:   1    -0.192698843064E+03    0.91373E-03   -0.40865E+00  3672   0.311E+00    0.138E-01
RMM:   2    -0.192703158470E+03   -0.43154E-02   -0.43669E-02  3677   0.454E-01    0.177E-01
RMM:   3    -0.192703120797E+03    0.37673E-04   -0.27485E-03  3773   0.938E-02    0.149E-01
RMM:   4    -0.192702947281E+03    0.17352E-03   -0.23864E-04  3677   0.276E-02    0.103E-01
RMM:   5    -0.192702941733E+03    0.55478E-05   -0.11427E-04  3689   0.174E-02    0.116E-01
RMM:   6    -0.192702990433E+03   -0.48700E-04   -0.27937E-04  3683   0.252E-02    0.153E-01
RMM:   7    -0.192702787293E+03    0.20314E-03   -0.59058E-04  3682   0.373E-02    0.498E-02
RMM:   8    -0.192702811620E+03   -0.24327E-04   -0.10184E-04  3679   0.159E-02    0.406E-02
RMM:   9    -0.192702802786E+03    0.88347E-05   -0.13534E-05  3678   0.612E-03    0.275E-02
RMM:  10    -0.192702796240E+03    0.65460E-05   -0.88989E-06  3655   0.472E-03    0.218E-02
RMM:  11    -0.192702788795E+03    0.74449E-05   -0.25442E-05  3673   0.758E-03    0.933E-03
RMM:  12    -0.192702788337E+03    0.45735E-06   -0.60654E-06  3371   0.374E-03
  18 F= -.19270279E+03 E0= -.19257508E+03  d E =-.303170E-02
       N       E                     dE             d eps       ncg     rms          rms(c)
DAV:   1    -0.192698762027E+03    0.40268E-02   -0.63759E+00  3672   0.388E+00    0.172E-01
RMM:   2    -0.192705508155E+03   -0.67461E-02   -0.68050E-02  3677   0.567E-01    0.222E-01
RMM:   3    -0.192705449591E+03    0.58565E-04   -0.42829E-03  3773   0.117E-01    0.186E-01
RMM:   4    -0.192705177409E+03    0.27218E-03   -0.36923E-04  3677   0.344E-02    0.129E-01
RMM:   5    -0.192705171882E+03    0.55269E-05   -0.17597E-04  3689   0.215E-02    0.149E-01
RMM:   6    -0.192705205553E+03   -0.33671E-04   -0.42281E-04  3683   0.311E-02    0.185E-01
RMM:   7    -0.192704905539E+03    0.30001E-03   -0.96120E-04  3682   0.476E-02    0.618E-02
RMM:   8    -0.192704939371E+03   -0.33832E-04   -0.15987E-04  3678   0.199E-02    0.509E-02
RMM:   9    -0.192704925290E+03    0.14081E-04   -0.21212E-05  3685   0.766E-03    0.347E-02
RMM:  10    -0.192704915055E+03    0.10235E-04   -0.13622E-05  3672   0.584E-03    0.275E-02
RMM:  11    -0.192704903309E+03    0.11746E-04   -0.40919E-05  3674   0.962E-03    0.118E-02
RMM:  12    -0.192704902560E+03    0.74886E-06   -0.98736E-06  3671   0.474E-03
  19 F= -.19270490E+03 E0= -.19257694E+03  d E =-.514592E-02
       N       E                     dE             d eps       ncg     rms          rms(c)
DAV:   1    -0.192678642135E+03    0.26261E-01   -0.25514E+01  3672   0.777E+00    0.346E-01
RMM:   2    -0.192705833217E+03   -0.27191E-01   -0.27253E-01  3677   0.113E+00    0.442E-01
RMM:   3    -0.192705684132E+03    0.14909E-03   -0.17140E-02  3768   0.234E-01    0.373E-01
RMM:   4    -0.192704556821E+03    0.11273E-02   -0.14989E-03  3678   0.692E-02    0.260E-01
RMM:   5    -0.192704563199E+03   -0.63784E-05   -0.69453E-04  3689   0.425E-02    0.307E-01
RMM:   6    -0.192704405774E+03    0.15743E-03   -0.16197E-03  3682   0.610E-02    0.347E-01
RMM:   7    -0.192703293823E+03    0.11120E-02   -0.39091E-03  3682   0.960E-02    0.122E-01
RMM:   8    -0.192703386407E+03   -0.92584E-04   -0.63822E-04  3678   0.398E-02    0.101E-01
RMM:   9    -0.192703326160E+03    0.60247E-04   -0.85079E-05  3689   0.153E-02    0.689E-02
RMM:  10    -0.192703284523E+03    0.41637E-04   -0.55575E-05  3680   0.118E-02    0.547E-02
RMM:  11    -0.192703236931E+03    0.47592E-04   -0.16798E-04  3678   0.195E-02    0.227E-02
RMM:  12    -0.192703234238E+03    0.26934E-05   -0.36029E-05  3674   0.905E-03    0.993E-03
RMM:  13    -0.192703235608E+03   -0.13703E-05   -0.84152E-06  3662   0.445E-03    0.903E-03
RMM:  14    -0.192703234855E+03    0.75336E-06   -0.94553E-07  2007   0.175E-03
  20 F= -.19270323E+03 E0= -.19257476E+03  d E =-.347822E-02
       N       E                     dE             d eps       ncg     rms          rms(c)
DAV:   1    -0.192692252313E+03    0.10983E-01   -0.13438E+01  3672   0.563E+00    0.254E-01
RMM:   2    -0.192706529409E+03   -0.14277E-01   -0.14370E-01  3677   0.824E-01    0.319E-01
RMM:   3    -0.192706468872E+03    0.60538E-04   -0.90596E-03  3767   0.170E-01    0.273E-01
RMM:   4    -0.192705859283E+03    0.60959E-03   -0.80243E-04  3677   0.507E-02    0.187E-01
RMM:   5    -0.192705873753E+03   -0.14470E-04   -0.36419E-04  3690   0.307E-02    0.220E-01
RMM:   6    -0.192705807789E+03    0.65964E-04   -0.82349E-04  3682   0.435E-02    0.248E-01
RMM:   7    -0.192705253188E+03    0.55460E-03   -0.20173E-03  3682   0.690E-02    0.875E-02
RMM:   8    -0.192705309921E+03   -0.56733E-04   -0.33529E-04  3678   0.289E-02    0.741E-02
RMM:   9    -0.192705277461E+03    0.32460E-04   -0.46022E-05  3688   0.113E-02    0.490E-02
RMM:  10    -0.192705256425E+03    0.21036E-04   -0.28896E-05  3680   0.851E-03    0.381E-02
RMM:  11    -0.192705233614E+03    0.22812E-04   -0.77420E-05  3676   0.132E-02    0.165E-02
RMM:  12    -0.192705232052E+03    0.15615E-05   -0.20624E-05  3672   0.683E-03    0.829E-03
RMM:  13    -0.192705232222E+03   -0.17016E-06   -0.43363E-06  2848   0.331E-03
  21 F= -.19270523E+03 E0= -.19257712E+03  d E =-.547559E-02
       N       E                     dE             d eps       ncg     rms          rms(c)
DAV:   1    -0.192703354185E+03    0.18779E-02   -0.40880E+00  3672   0.310E+00    0.140E-01
RMM:   2    -0.192707724225E+03   -0.43700E-02   -0.44323E-02  3673   0.456E-01    0.183E-01
RMM:   3    -0.192707692127E+03    0.32098E-04   -0.28345E-03  3818   0.952E-02    0.147E-01
RMM:   4    -0.192707560613E+03    0.13151E-03   -0.25469E-04  3680   0.280E-02    0.120E-01
RMM:   5    -0.192707557897E+03    0.27158E-05   -0.10916E-04  3689   0.166E-02    0.130E-01
RMM:   6    -0.192707508287E+03    0.49611E-04   -0.31536E-04  3679   0.271E-02    0.132E-01
RMM:   7    -0.192707367749E+03    0.14054E-03   -0.66381E-04  3682   0.396E-02    0.506E-02
RMM:   8    -0.192707391382E+03   -0.23634E-04   -0.12461E-04  3678   0.175E-02    0.435E-02
RMM:   9    -0.192707382457E+03    0.89257E-05   -0.14982E-05  3681   0.641E-03    0.319E-02
RMM:  10    -0.192707372129E+03    0.10327E-04   -0.11961E-05  3672   0.544E-03    0.252E-02
RMM:  11    -0.192707360805E+03    0.11324E-04   -0.36861E-05  3673   0.906E-03    0.957E-03
RMM:  12    -0.192707360273E+03    0.53196E-06   -0.71622E-06  3526   0.403E-03
  22 F= -.19270736E+03 E0= -.19257909E+03  d E =-.212805E-02
       N       E                     dE             d eps       ncg     rms          rms(c)
DAV:   1    -0.192706402344E+03    0.95846E-03   -0.14953E+00  3696   0.188E+00    0.836E-02
RMM:   2    -0.192707990474E+03   -0.15881E-02   -0.16131E-02  3674   0.276E-01    0.114E-01
RMM:   3    -0.192707966657E+03    0.23818E-04   -0.10287E-03  3823   0.574E-02    0.895E-02
RMM:   4    -0.192707920878E+03    0.45779E-04   -0.88325E-05  3678   0.165E-02    0.741E-02
RMM:   5    -0.192707917454E+03    0.34237E-05   -0.36408E-05  3691   0.959E-03    0.783E-02
RMM:   6    -0.192707902226E+03    0.15229E-04   -0.12013E-04  3680   0.167E-02    0.802E-02
RMM:   7    -0.192707854467E+03    0.47758E-04   -0.26921E-04  3682   0.252E-02    0.309E-02
RMM:   8    -0.192707864657E+03   -0.10189E-04   -0.47190E-05  3678   0.107E-02    0.269E-02
RMM:   9    -0.192707861139E+03    0.35181E-05   -0.52889E-06  2968   0.388E-03    0.201E-02
RMM:  10    -0.192707857162E+03    0.39771E-05   -0.41275E-06  2778   0.332E-03    0.161E-02
RMM:  11    -0.192707852492E+03    0.46695E-05   -0.15899E-05  3672   0.608E-03    0.607E-03
RMM:  12    -0.192707852247E+03    0.24545E-06   -0.26500E-06  2071   0.265E-03
  23 F= -.19270785E+03 E0= -.19257949E+03  d E =-.262002E-02
       N       E                     dE             d eps       ncg     rms          rms(c)
DAV:   1    -0.192707787745E+03    0.64747E-04   -0.99782E-02  3744   0.484E-01    0.214E-02
RMM:   2    -0.192707892644E+03   -0.10490E-03   -0.10733E-03  3674   0.713E-02    0.300E-02
RMM:   3    -0.192707889632E+03    0.30125E-05   -0.68199E-05  3824   0.148E-02    0.233E-02
RMM:   4    -0.192707886763E+03    0.28684E-05   -0.54129E-06  3177   0.416E-03    0.194E-02
RMM:   5    -0.192707886682E+03    0.81483E-07   -0.21079E-06  2118   0.253E-03
  24 F= -.19270789E+03 E0= -.19257948E+03  d E =-.265446E-02
       N       E                     dE             d eps       ncg     rms          rms(c)
DAV:   1    -0.192707918087E+03   -0.31324E-04   -0.64413E-01  3684   0.124E+00    0.712E-02
RMM:   2    -0.192708664396E+03   -0.74631E-03   -0.72281E-03  3682   0.182E-01    0.106E-01
RMM:   3    -0.192708670693E+03   -0.62973E-05   -0.52771E-04  3734   0.395E-02    0.102E-01
RMM:   4    -0.192708586915E+03    0.83778E-04   -0.75026E-05  3674   0.145E-02    0.618E-02
RMM:   5    -0.192708568120E+03    0.18795E-04   -0.33464E-05  3690   0.956E-03    0.444E-02
RMM:   6    -0.192708575251E+03   -0.71309E-05   -0.11172E-04  3682   0.163E-02    0.454E-02
RMM:   7    -0.192708561022E+03    0.14229E-04   -0.60069E-05  3681   0.121E-02    0.183E-02
RMM:   8    -0.192708561184E+03   -0.16212E-06   -0.85383E-06  3267   0.473E-03
  25 F= -.19270856E+03 E0= -.19258015E+03  d E =-.674502E-03
       N       E                     dE             d eps       ncg     rms          rms(c)
DAV:   1    -0.192708251251E+03    0.30977E-03   -0.41773E-01  3672   0.997E-01    0.585E-02
RMM:   2    -0.192708706769E+03   -0.45552E-03   -0.48744E-03  3682   0.148E-01    0.534E-02
RMM:   3    -0.192708727227E+03   -0.20458E-04   -0.32134E-04  3728   0.315E-02    0.583E-02
RMM:   4    -0.192708709364E+03    0.17863E-04   -0.48857E-05  3675   0.119E-02    0.473E-02
RMM:   5    -0.192708700952E+03    0.84125E-05   -0.18746E-05  3685   0.676E-03    0.389E-02
RMM:   6    -0.192708699556E+03    0.13958E-05   -0.35626E-05  3683   0.929E-03    0.349E-02
RMM:   7    -0.192708692147E+03    0.74087E-05   -0.39803E-05  3673   0.987E-03    0.124E-02
RMM:   8    -0.192708693440E+03   -0.12923E-05   -0.63306E-06  3061   0.407E-03    0.117E-02
RMM:   9    -0.192708691910E+03    0.15299E-05   -0.15372E-06  1990   0.224E-03    0.658E-03
RMM:  10    -0.192708691417E+03    0.49269E-06   -0.89978E-07  1936   0.160E-03
  26 F= -.19270869E+03 E0= -.19258026E+03  d E =-.804735E-03
       N       E                     dE             d eps       ncg     rms          rms(c)
DAV:   1    -0.192708574884E+03    0.11703E-03   -0.35864E-01  3672   0.923E-01    0.468E-02
RMM:   2    -0.192708964600E+03   -0.38972E-03   -0.40380E-03  3679   0.136E-01    0.500E-02
RMM:   3    -0.192708970273E+03   -0.56727E-05   -0.26064E-04  3738   0.285E-02    0.505E-02
RMM:   4    -0.192708958595E+03    0.11678E-04   -0.32303E-05  3677   0.957E-03    0.444E-02
RMM:   5    -0.192708944940E+03    0.13655E-04   -0.10388E-05  3626   0.525E-03    0.282E-02
RMM:   6    -0.192708948604E+03   -0.36634E-05   -0.34413E-05  3682   0.914E-03    0.358E-02
RMM:   7    -0.192708941653E+03    0.69510E-05   -0.42826E-05  3677   0.101E-02    0.152E-02
RMM:   8    -0.192708942557E+03   -0.90405E-06   -0.74914E-06  3251   0.436E-03
  27 F= -.19270894E+03 E0= -.19258051E+03  d E =-.251140E-03
