 vasp.5.4.1 24Jun15 (build Mar 14 2019 10:18:33) complex                        
  
 executed on INTEL-19.0.2+OPENMPI date 2022.07.15  17:11:57
 running on   36 total cores
 distrk:  each k-point on   36 cores,    1 groups
 distr:  one band on NCORES_PER_BAND=   6 cores,    6 groups


--------------------------------------------------------------------------------------------------------


 INCAR:
 POTCAR:    PAW_PBE Au 04Oct2007                  
 POTCAR:    PAW_PBE Pd 04Jan2005                  
 POTCAR:    PAW_PBE Au 04Oct2007                  
  local pseudopotential read in
  partial core-charges read in
  partial kinetic energy density read in
  atomic valenz-charges read in
  non local Contribution for L=           2  read in
    real space projection operators read in
  non local Contribution for L=           2  read in
    real space projection operators read in
  non local Contribution for L=           0  read in
    real space projection operators read in
  non local Contribution for L=           0  read in
    real space projection operators read in
  non local Contribution for L=           1  read in
    real space projection operators read in
  non local Contribution for L=           1  read in
    real space projection operators read in
    PAW grid and wavefunctions read in
 
   number of l-projection  operators is LMAX  =           6
   number of lm-projection operators is LMMAX =          18
 
 POTCAR:    PAW_PBE Pd 04Jan2005                  
  local pseudopotential read in
  partial core-charges read in
  partial kinetic energy density read in
  atomic valenz-charges read in
  non local Contribution for L=           2  read in
    real space projection operators read in
  non local Contribution for L=           2  read in
    real space projection operators read in
  non local Contribution for L=           0  read in
    real space projection operators read in
  non local Contribution for L=           0  read in
    real space projection operators read in
  non local Contribution for L=           1  read in
    real space projection operators read in
  non local Contribution for L=           1  read in
    real space projection operators read in
    PAW grid and wavefunctions read in
 
   number of l-projection  operators is LMAX  =           6
   number of lm-projection operators is LMMAX =          18
 
 Optimization of the real space projectors (new method)

 maximal supplied QI-value         = 15.12
 optimisation between [QCUT,QGAM] = [ 10.13, 20.41] = [ 28.73,116.64] Ry 
 Optimized for a Real-space Cutoff    1.51 Angstroem

   l    n(q)    QCUT    max X(q) W(low)/X(q) W(high)/X(q)  e(spline) 
   2      8    10.129    60.898    0.46E-03    0.46E-03    0.14E-06
   2      8    10.129    58.894    0.47E-03    0.47E-03    0.14E-06
   0      9    10.129   109.617    0.16E-03    0.11E-03    0.54E-07
   0      9    10.129    75.026    0.15E-03    0.11E-03    0.52E-07
   1      9    10.129    16.344    0.96E-04    0.15E-03    0.14E-06
   1      9    10.129    10.160    0.81E-04    0.12E-03    0.11E-06
 Optimization of the real space projectors (new method)

 maximal supplied QI-value         = 14.36
 optimisation between [QCUT,QGAM] = [ 10.20, 20.39] = [ 29.12,116.47] Ry 
 Optimized for a Real-space Cutoff    1.51 Angstroem

   l    n(q)    QCUT    max X(q) W(low)/X(q) W(high)/X(q)  e(spline) 
   2      8    10.197    59.108    0.26E-03    0.14E-03    0.96E-07
   2      8    10.197    58.101    0.27E-03    0.14E-03    0.98E-07
   0      9    10.197   102.235    0.54E-04    0.60E-05    0.72E-07
   0      9    10.197    58.388    0.52E-04    0.60E-05    0.68E-07
   1      9    10.197    22.191    0.18E-03    0.25E-03    0.79E-07
   1      9    10.197    15.590    0.15E-03    0.21E-03    0.69E-07
  PAW_PBE Au 04Oct2007                  :
 energy of atom  1       EATOM= -926.0867
 kinetic energy error for atom=    0.0062 (will be added to EATOM!!)
  PAW_PBE Pd 04Jan2005                  :
 energy of atom  2       EATOM= -809.7530
 kinetic energy error for atom=    0.0091 (will be added to EATOM!!)
 
 
 POSCAR: Au Pd                                   
  positions in cartesian coordinates
  No initial velocities read in
 exchange correlation table for  LEXCH =        8
   RHO(1)=    0.500       N(1)  =     2000
   RHO(2)=  100.500       N(2)  =     4000

 VTST: version 3.2, (02/03/18)

 CHAIN: initializing optimizer
 
 OPT: Using VASP Conjugate-Gradient optimizer
 CHAIN: Read ICHAIN            0
 
 POSCAR: Au Pd                                   
  positions in cartesian coordinates
  No initial velocities read in
 


--------------------------------------------------------------------------------------------------------


 ion  position               nearest neighbor table
   1  0.083  0.083  0.408-  19 2.75  12 2.75  22 2.75  27 2.75  28 2.75  20 2.75  34 2.75  44 2.75
                            30 2.75
   2  0.833  0.583  0.408-  23 2.75   5 2.75  27 2.75  28 2.75  33 2.75  36 2.75  39 2.75  37 2.75
                            31 2.75
   3  0.750  0.250  0.592-   4 2.75  30 2.75  24 2.75  26 2.75   6 2.75  32 2.75  38 2.75  40 2.75
                            25 2.75
   4  0.667  0.417  0.500-  42 2.75   3 2.75   6 2.75  25 2.75  30 2.75  31 2.75   7 2.75  41 2.75
                            37 2.75  39 2.75  27 2.75  32 2.75
   5  0.583  0.833  0.408-  11 2.75  10 2.75   2 2.75  20 2.75  39 2.75  33 2.75  12 2.75  31 2.75
                            47 2.75
   6  0.500  0.500  0.592-   7 2.75   4 2.75   3 2.75  16 2.75  35 2.75  40 2.75  13 2.75  32 2.75
                            41 2.75
   7  0.417  0.667  0.500-  45 2.75   6 2.75  16 2.75  41 2.75  44 2.75   4 2.75  47 2.75  14 2.75
                            31 2.75  12 2.75  35 2.75  39 2.75
   8  0.500  0.000  0.592-   9 2.75  11 2.75  15 2.75  35 2.75  40 2.75  48 2.75  46 2.75  26 2.75
                            47 2.75
   9  0.417  0.167  0.500-  20 2.75   8 2.75  15 2.75  11 2.75  29 2.75  41 2.75  47 2.75  25 2.75
                            19 2.75  18 2.75  10 2.75  40 2.75
  10  0.583  0.083  0.408-  25 2.75  18 2.75   5 2.75  33 2.75  42 2.75  34 2.75  20 2.75  11 2.75
                             9 2.75
  11  0.667  0.917  0.500-   5 2.75  48 2.75   8 2.75  23 2.75  25 2.75  31 2.75   9 2.75  47 2.75
                            43 2.75  10 2.75  33 2.75  26 2.75
  12  0.333  0.833  0.408-  47 2.75  20 2.75  39 2.75  45 2.75   1 2.75  22 2.75   5 2.75   7 2.75
                            44 2.75
  13  0.250  0.500  0.592-  14 2.75  41 2.75  16 2.75  21 2.75  40 2.75  15 2.75  17 2.75   6 2.75
                            29 2.75
  14  0.167  0.667  0.500-  36 2.75  13 2.75  21 2.75  29 2.75  41 2.75  43 2.75  44 2.75  23 2.75
                             7 2.75  22 2.75  16 2.75  45 2.75
  15  0.250  0.250  0.592-  29 2.75   9 2.75  13 2.75  17 2.75   8 2.75  46 2.75  40 2.75  38 2.75
                            19 2.75
  16  0.250  0.750  0.592-  44 2.75   7 2.75  13 2.75  24 2.75   6 2.75  46 2.75  21 2.75  35 2.75
                            14 2.75
  17  0.000  0.500  0.592-  23 2.75  29 2.75  15 2.75  21 2.75  38 2.75  48 2.75  13 2.75  32 2.75
                            37 2.75
  18  0.333  0.333  0.408-  41 2.75  20 2.75  36 2.75  10 2.75  45 2.75  42 2.75  28 2.75   9 2.75
                            29 2.75
  19  0.167  0.167  0.500-   1 2.75  46 2.75  38 2.75  29 2.75  44 2.75  37 2.75  47 2.75  30 2.75
                             9 2.75  28 2.75  15 2.75  20 2.75
  20  0.333  0.083  0.408-   9 2.75   5 2.75  12 2.75  18 2.75  28 2.75  10 2.75   1 2.75  47 2.75
                            19 2.75
  21  0.000  0.750  0.592-  43 2.75  14 2.75  17 2.75  24 2.75  26 2.75  13 2.75  16 2.75  48 2.75
                            23 2.75
  22  0.083  0.833  0.408-  44 2.75  34 2.75  36 2.75   1 2.75  45 2.75  12 2.75  33 2.75  14 2.75
                            43 2.75
  23  0.917  0.667  0.500-   2 2.75  17 2.75  48 2.75  29 2.75  37 2.75  43 2.75  11 2.75  31 2.75
                            14 2.75  33 2.75  36 2.75  21 2.75
  24  0.000  0.000  0.592-  30 2.75  44 2.75  21 2.75   3 2.75  38 2.75  16 2.75  26 2.75  46 2.75
                            43 2.75
  25  0.667  0.167  0.500-  10 2.75  26 2.75  40 2.75   4 2.75  11 2.75  41 2.75  43 2.75  30 2.75
                             9 2.75  42 2.75   3 2.75  34 2.75
  26  0.750  0.000  0.592-  25 2.75  43 2.75   3 2.75  40 2.75  21 2.75  48 2.75   8 2.75  24 2.75
                            11 2.75
  27  0.833  0.333  0.408-  37 2.75   2 2.75  34 2.75   1 2.75  39 2.75  28 2.75  42 2.75  30 2.75
                             4 2.75
  28  0.083  0.333  0.408-  29 2.75   2 2.75  20 2.75   1 2.75  36 2.75  18 2.75  27 2.75  19 2.75
                            37 2.75
  29  0.167  0.417  0.500-  28 2.75  15 2.75  17 2.75  14 2.75  19 2.75  23 2.75   9 2.75  37 2.75
                            41 2.75  36 2.75  13 2.75  18 2.75
  30  0.917  0.167  0.500-  34 2.75  24 2.75   3 2.75   4 2.75  37 2.75  43 2.75  44 2.75  19 2.75
                            25 2.75  27 2.75   1 2.75  38 2.75
  31  0.667  0.667  0.500-  39 2.75  32 2.75  35 2.75  11 2.75  37 2.75   4 2.75  47 2.75  23 2.75
                             7 2.75   5 2.75   2 2.75  48 2.75
  32  0.750  0.500  0.592-  31 2.75  37 2.75  35 2.75   3 2.75  38 2.75  48 2.75  17 2.75   6 2.75
                             4 2.75
  33  0.833  0.833  0.408-  43 2.75  10 2.75  34 2.75  36 2.75   2 2.75  22 2.75   5 2.75  23 2.75
                            11 2.75
  34  0.833  0.083  0.408-  30 2.75  27 2.75  22 2.75  33 2.75  42 2.75  10 2.75   1 2.75  43 2.75
                            25 2.75
  35  0.500  0.750  0.592-  47 2.75  31 2.75   6 2.75  32 2.75  46 2.75   8 2.75  16 2.75  48 2.75
                             7 2.75
  36  0.083  0.583  0.408-  14 2.75  18 2.75  22 2.75  28 2.75  33 2.75   2 2.75  45 2.75  29 2.75
                            23 2.75
  37  0.917  0.417  0.500-  27 2.75  38 2.75  32 2.75  30 2.75  31 2.75  23 2.75  19 2.75   4 2.75
                            29 2.75   2 2.75  28 2.75  17 2.75
  38  0.000  0.250  0.592-  37 2.75  19 2.75  24 2.75  32 2.75  17 2.75  46 2.75   3 2.75  15 2.75
                            30 2.75
  39  0.583  0.583  0.408-  31 2.75  12 2.75  27 2.75   5 2.75  42 2.75   2 2.75  45 2.75   4 2.75
                             7 2.75
  40  0.500  0.250  0.592-  41 2.75  25 2.75  13 2.75   6 2.75  26 2.75   8 2.75  15 2.75   3 2.75
                             9 2.75
  41  0.417  0.417  0.500-  18 2.75  40 2.75  13 2.75  14 2.75   9 2.75  25 2.75   7 2.75  29 2.75
                             4 2.75  45 2.75  42 2.75   6 2.75
  42  0.583  0.333  0.408-   4 2.75  10 2.75  34 2.75  39 2.75  45 2.75  27 2.75  18 2.75  25 2.75
                            41 2.75
  43  0.917  0.917  0.500-  33 2.75  21 2.75  26 2.75  25 2.75  14 2.75  30 2.75  23 2.75  11 2.75
                            44 2.75  34 2.75  22 2.75  24 2.75
  44  0.167  0.917  0.500-  22 2.75  16 2.75  24 2.75  19 2.75  14 2.75   7 2.75  30 2.75  43 2.75
                            47 2.75   1 2.75  46 2.75  12 2.75
  45  0.333  0.583  0.408-   7 2.75  12 2.75  18 2.75  22 2.75  42 2.75  39 2.75  36 2.75  41 2.75
                            14 2.75
  46  0.250  0.000  0.592-  19 2.75  47 2.75  15 2.75  35 2.75  38 2.75  16 2.75  24 2.75   8 2.75
                            44 2.75
  47  0.417  0.917  0.500-  12 2.75  35 2.75  46 2.75  19 2.75  31 2.75   9 2.75   7 2.75  44 2.75
                            11 2.75  20 2.75   8 2.75   5 2.75
  48  0.750  0.750  0.592-  11 2.75  23 2.75  17 2.75   8 2.75  26 2.75  32 2.75  21 2.75  35 2.75
                            31 2.75
 
  LATTYP: Found a hexagonal cell.
 ALAT       =    11.0025815153
 C/A-ratio  =     2.2260035120
  
  Lattice vectors:
  
 A1 = (   5.5012907576,  -9.5285150994,   0.0000000000)
 A2 = ( -11.0025815153,   0.0000000000,   0.0000000000)
 A3 = (   0.0000000000,   0.0000000000, -24.4917850943)


Analysis of symmetry for initial positions (statically):
=====================================================================
 Subroutine PRICEL returns:
 Original cell was already a primitive cell.
 

 Routine SETGRP: Setting up the symmetry group for a 
 hexagonal supercell.


 Subroutine GETGRP returns: Found  1 space group operations
 (whereof  1 operations were pure point group operations)
 out of a pool of 24 trial point group operations.


The static configuration has the point symmetry C_1 .


Analysis of symmetry for dynamics (positions and initial velocities):
=====================================================================
 Subroutine PRICEL returns:
 Original cell was already a primitive cell.
 

 Routine SETGRP: Setting up the symmetry group for a 
 hexagonal supercell.


 Subroutine GETGRP returns: Found  1 space group operations
 (whereof  1 operations were pure point group operations)
 out of a pool of 24 trial point group operations.


The dynamic configuration has the point symmetry C_1 .
 
 
 KPOINTS: Automatic mesh                          

Automatic generation of k-mesh.
Space group operators:
 irot       det(A)        alpha          n_x          n_y          n_z        tau_x        tau_y        tau_z
    1     1.000000     0.000000     1.000000     0.000000     0.000000     0.000000     0.000000     0.000000
 
 Subroutine IBZKPT returns following result:
 ===========================================
 
 Found      6 irreducible k-points:
 
 Following reciprocal coordinates:
            Coordinates               Weight
  0.250000  0.250000  0.000000     16.000000
  0.000000  0.250000  0.000000     16.000000
 -0.250000  0.000000  0.000000     16.000000
 -0.250000  0.250000  0.000000     16.000000
  0.500000 -0.250000  0.000000     16.000000
 -0.250000  0.500000  0.000000     16.000000
 
 Following cartesian coordinates:
            Coordinates               Weight
  0.022722  0.013119  0.000000     16.000000
  0.000000  0.026237  0.000000     16.000000
 -0.022722  0.013119  0.000000     16.000000
 -0.022722  0.039356  0.000000     16.000000
  0.045444 -0.052474  0.000000     16.000000
 -0.022722  0.065593  0.000000     16.000000
 


--------------------------------------------------------------------------------------------------------




 Dimension of arrays:
   k-points           NKPTS =      6   k-points in BZ     NKDIM =      6   number of bands    NBANDS=    306
   number of dos      NEDOS =    301   number of ions     NIONS =     48
   non local maximal  LDIM  =      6   non local SUM 2l+1 LMDIM =     18
   total plane-waves  NPLWV = 349920
   max r-space proj   IRMAX =   2009   max aug-charges    IRDMAX=   8532
   dimension x,y,z NGX =    54 NGY =   54 NGZ =  120
   dimension x,y,z NGXF=   108 NGYF=  108 NGZF=  240
   support grid    NGXF=   108 NGYF=  108 NGZF=  240
   ions per type =              24  24
 NGX,Y,Z   is equivalent  to a cutoff of   8.16,  8.16,  8.15 a.u.
 NGXF,Y,Z  is equivalent  to a cutoff of  16.32, 16.32, 16.29 a.u.


 I would recommend the setting:
   dimension x,y,z NGX =    54 NGY =   54 NGZ =  120
 SYSTEM =  unknown system                          
 POSCAR =  Au Pd                                   

 Startparameter for this run:
   NWRITE =      1    write-flag & timer
   PREC   = normal    normal or accurate (medium, high low for compatibility)
   ISTART =      0    job   : 0-new  1-cont  2-samecut
   ICHARG =      2    charge: 1-file 2-atom 10-const
   ISPIN  =      1    spin polarized calculation?
   LNONCOLLINEAR =      F non collinear calculations
   LSORBIT =      F    spin-orbit coupling
   INIWAV =      1    electr: 0-lowe 1-rand  2-diag
   LASPH  =      F    aspherical Exc in radial PAW
   METAGGA=      F    non-selfconsistent MetaGGA calc.

 Electronic Relaxation 1
   ENCUT  =  400.0 eV  29.40 Ry    5.42 a.u.  17.94 17.94 39.94*2*pi/ulx,y,z
   ENINI  =  400.0     initial cutoff
   ENAUG  =  416.2 eV  augmentation charge cutoff
   NELM   =    500;   NELMIN=  2; NELMDL= -5     # of ELM steps 
   EDIFF  = 0.1E-05   stopping-criterion for ELM
   LREAL  =      T    real-space projection
   NLSPLINE    = F    spline interpolate recip. space projectors
   LCOMPAT=      F    compatible to vasp.4.4
   GGA_COMPAT  = T    GGA compatible to vasp.4.4-vasp.4.6
   LMAXPAW     = -100 max onsite density
   LMAXMIX     =    2 max onsite mixed and CHGCAR
   VOSKOWN=      1    Vosko Wilk Nusair interpolation
   ROPT   =   -0.00050  -0.00050
 Ionic relaxation
   EDIFFG = -.2E-01   stopping-criterion for IOM
   NSW    =    500    number of steps for IOM
   NBLOCK =      1;   KBLOCK =    500    inner block; outer block 
   IBRION =      2    ionic relax: 0-MD 1-quasi-New 2-CG
   NFREE  =      2    steps in history (QN), initial steepest desc. (CG)
   ISIF   =      0    stress and relaxation
   IWAVPR =     11    prediction:  0-non 1-charg 2-wave 3-comb
   ISYM   =      2    0-nonsym 1-usesym 2-fastsym
   LCORR  =      T    Harris-Foulkes like correction to forces

   POTIM  = 0.3500    time-step for ionic-motion
   TEIN   =    0.0    initial temperature
   TEBEG  =    0.0;   TEEND  =   0.0 temperature during run
   SMASS  =  -3.00    Nose mass-parameter (am)
   estimated Nose-frequenzy (Omega)   =  0.10E-29 period in steps =****** mass=  -0.277E-26a.u.
   SCALEE = 1.0000    scale energy and forces
   NPACO  =    256;   APACO  = 16.0  distance and # of slots for P.C.
   PSTRESS=    0.0 pullay stress

  Mass of Ions in am
   POMASS = 196.97106.42
  Ionic Valenz
   ZVAL   =  11.00 10.00
  Atomic Wigner-Seitz radii
   RWIGS  =  -1.00 -1.00
  virtual crystal weights 
   VCA    =   1.00  1.00
   NELECT =     504.0000    total number of electrons
   NUPDOWN=      -1.0000    fix difference up-down

 DOS related values:
   EMIN   =  10.00;   EMAX   =-10.00  energy-range for DOS
   EFERMI =   0.00
   ISMEAR =     0;   SIGMA  =   0.10  broadening in eV -4-tet -1-fermi 0-gaus

 Electronic relaxation 2 (details)
   IALGO  =     68    algorithm
   LDIAG  =      T    sub-space diagonalisation (order eigenvalues)
   LSUBROT=      F    optimize rotation matrix (better conditioning)
   TURBO    =      0    0=normal 1=particle mesh
   IRESTART =      0    0=no restart 2=restart with 2 vectors
   NREBOOT  =      0    no. of reboots
   NMIN     =      0    reboot dimension
   EREF     =   0.00    reference energy to select bands
   IMIX   =      4    mixing-type and parameters
     AMIX     =   0.40;   BMIX     =  1.00
     AMIX_MAG =   1.60;   BMIX_MAG =  1.00
     AMIN     =   0.10
     WC   =   100.;   INIMIX=   1;  MIXPRE=   1;  MAXMIX= -45

 Intra band minimization:
   WEIMIN = 0.0010     energy-eigenvalue tresh-hold
   EBREAK =  0.82E-09  absolut break condition
   DEPER  =   0.30     relativ break condition  

   TIME   =   0.40     timestep for ELM

  volume/ion in A,a.u.               =      53.49       360.99
  Fermi-wavevector in a.u.,A,eV,Ry     =   0.951418  1.797920 12.315955  0.905197
  Thomas-Fermi vector in A             =   2.079887
 
 Write flags
   LWAVE  =      F    write WAVECAR
   LCHARG =      F    write CHGCAR
   LVTOT  =      F    write LOCPOT, total local potential
   LVHAR  =      F    write LOCPOT, Hartree potential only
   LELF   =      F    write electronic localiz. function (ELF)
   LORBIT =      0    0 simple, 1 ext, 2 COOP (PROOUT)


 Dipole corrections
   LMONO  =      F    monopole corrections only (constant potential shift)
   LDIPOL =      T    correct potential (dipole corrections)
   IDIPOL =      3    1-x, 2-y, 3-z, 4-all directions 
   EPSILON=  1.0000000 bulk dielectric constant

 Exchange correlation treatment:
   GGA     =    PE    GGA type
   LEXCH   =     8    internal setting for exchange type
   VOSKOWN=      1    Vosko Wilk Nusair interpolation
   LHFCALC =     F    Hartree Fock is set to
   LHFONE  =     F    Hartree Fock one center treatment
   AEXX    =    0.0000 exact exchange contribution

 Linear response parameters
   LEPSILON=     F    determine dielectric tensor
   LRPA    =     F    only Hartree local field effects (RPA)
   LNABLA  =     F    use nabla operator in PAW spheres
   LVEL    =     F    velocity operator in full k-point grid
   LINTERFAST=   F  fast interpolation
   KINTER  =     0    interpolate to denser k-point grid
   CSHIFT  =0.1000    complex shift for real part using Kramers Kronig
   OMEGAMAX=  -1.0    maximum frequency
   DEG_THRESHOLD= 0.2000000E-02 threshold for treating states as degnerate
   RTIME   =    0.100 relaxation time in fs

 Orbital magnetization related:
   ORBITALMAG=     F  switch on orbital magnetization
   LCHIMAG   =     F  perturbation theory with respect to B field
   DQ        =  0.001000  dq finite difference perturbation B field



--------------------------------------------------------------------------------------------------------


 conjugate gradient relaxation of ions
 charge density and potential will be updated during run
 non-spin polarized calculation
 RMM-DIIS sequential band-by-band and
  variant of blocked Davidson during initial phase
 perform sub-space diagonalisation
    before iterative eigenvector-optimisation
 modified Broyden-mixing scheme, WC =      100.0
 initial mixing is a Kerker type mixing with AMIX =  0.4000 and BMIX =      1.0000
 Hartree-type preconditioning will be used
 using additional bands           54
 real space projection scheme for non local part
 use partial core corrections
 calculate Harris-corrections to forces 
   (improved forces if not selfconsistent)
 use gradient corrections 
 use of overlap-Matrix (Vanderbilt PP)
 Gauss-broadening in eV      SIGMA  =   0.10


--------------------------------------------------------------------------------------------------------


  energy-cutoff  :      400.00
  volume of cell :     2567.68
      direct lattice vectors                 reciprocal lattice vectors
    11.002581515  0.000000000  0.000000000     0.090887761 -0.052474073  0.000000000
     5.501290758  9.528515099  0.000000000     0.000000000  0.104948147  0.000000000
     0.000000000  0.000000000 24.491785094     0.000000000  0.000000000  0.040830017

  length of vectors
    11.002581515 11.002581515 24.491785094     0.104948147  0.104948147  0.040830017


 
 k-points in units of 2pi/SCALE and weight: Automatic mesh                          
   0.02272194  0.01311852  0.00000000       0.167
   0.00000000  0.02623704  0.00000000       0.167
  -0.02272194  0.01311852  0.00000000       0.167
  -0.02272194  0.03935555  0.00000000       0.167
   0.04544388 -0.05247407  0.00000000       0.167
  -0.02272194  0.06559259  0.00000000       0.167
 
 k-points in reciprocal lattice and weights: Automatic mesh                          
   0.25000000  0.25000000  0.00000000       0.167
   0.00000000  0.25000000  0.00000000       0.167
  -0.25000000  0.00000000  0.00000000       0.167
  -0.25000000  0.25000000  0.00000000       0.167
   0.50000000 -0.25000000  0.00000000       0.167
  -0.25000000  0.50000000  0.00000000       0.167
 
 position of ions in fractional coordinates (direct lattice) 
   0.08333333  0.08333333  0.40830017
   0.83333333  0.58333333  0.40830017
   0.75000000  0.25000000  0.59169983
   0.66666667  0.41666667  0.50000000
   0.58333333  0.83333333  0.40830017
   0.50000000  0.50000000  0.59169983
   0.41666667  0.66666667  0.50000000
   0.50000000  0.00000000  0.59169983
   0.41666667  0.16666667  0.50000000
   0.58333333  0.08333333  0.40830017
   0.66666667  0.91666667  0.50000000
   0.33333333  0.83333333  0.40830017
   0.25000000  0.50000000  0.59169983
   0.16666667  0.66666667  0.50000000
   0.25000000  0.25000000  0.59169983
   0.25000000  0.75000000  0.59169983
   0.00000000  0.50000000  0.59169983
   0.33333333  0.33333333  0.40830017
   0.16666667  0.16666667  0.50000000
   0.33333333  0.08333333  0.40830017
   0.00000000  0.75000000  0.59169983
   0.08333333  0.83333333  0.40830017
   0.91666667  0.66666667  0.50000000
   0.00000000  0.00000000  0.59169983
   0.66666667  0.16666667  0.50000000
   0.75000000  0.00000000  0.59169983
   0.83333333  0.33333333  0.40830017
   0.08333333  0.33333333  0.40830017
   0.16666667  0.41666667  0.50000000
   0.91666667  0.16666667  0.50000000
   0.66666667  0.66666667  0.50000000
   0.75000000  0.50000000  0.59169983
   0.83333333  0.83333333  0.40830017
   0.83333333  0.08333333  0.40830017
   0.50000000  0.75000000  0.59169983
   0.08333333  0.58333333  0.40830017
   0.91666667  0.41666667  0.50000000
   0.00000000  0.25000000  0.59169983
   0.58333333  0.58333333  0.40830017
   0.50000000  0.25000000  0.59169983
   0.41666667  0.41666667  0.50000000
   0.58333333  0.33333333  0.40830017
   0.91666667  0.91666667  0.50000000
   0.16666667  0.91666667  0.50000000
   0.33333333  0.58333333  0.40830017
   0.25000000  0.00000000  0.59169983
   0.41666667  0.91666667  0.50000000
   0.75000000  0.75000000  0.59169983
 
 position of ions in cartesian coordinates  (Angst):
   1.37532269  0.79404292 10.00000000
  12.37790420  5.55830047 10.00000000
   9.62725883  2.38212877 14.49178509
   9.62725883  3.97021462 12.24589255
  11.00258152  7.94042925 10.00000000
   8.25193614  4.76425755 14.49178509
   8.25193614  6.35234340 12.24589255
   5.50129076  0.00000000 14.49178509
   5.50129076  1.58808585 12.24589255
   6.87661345  0.79404292 10.00000000
  12.37790420  8.73447217 12.24589255
   8.25193614  7.94042925 10.00000000
   5.50129076  4.76425755 14.49178509
   5.50129076  6.35234340 12.24589255
   4.12596807  2.38212877 14.49178509
   6.87661345  7.14638632 14.49178509
   2.75064538  4.76425755 14.49178509
   5.50129076  3.17617170 10.00000000
   2.75064538  1.58808585 12.24589255
   4.12596807  0.79404292 10.00000000
   4.12596807  7.14638632 14.49178509
   5.50129076  7.94042925 10.00000000
  13.75322689  6.35234340 12.24589255
   0.00000000  0.00000000 14.49178509
   8.25193614  1.58808585 12.24589255
   8.25193614  0.00000000 14.49178509
  11.00258152  3.17617170 10.00000000
   2.75064538  3.17617170 10.00000000
   4.12596807  3.97021462 12.24589255
  11.00258152  1.58808585 12.24589255
  11.00258152  6.35234340 12.24589255
  11.00258152  4.76425755 14.49178509
  13.75322689  7.94042925 10.00000000
   9.62725883  0.79404292 10.00000000
   9.62725883  7.14638632 14.49178509
   4.12596807  5.55830047 10.00000000
  12.37790420  3.97021462 12.24589255
   1.37532269  2.38212877 14.49178509
   9.62725883  5.55830047 10.00000000
   6.87661345  2.38212877 14.49178509
   6.87661345  3.97021462 12.24589255
   8.25193614  3.17617170 10.00000000
  15.12854958  8.73447217 12.24589255
   6.87661345  8.73447217 12.24589255
   6.87661345  5.55830047 10.00000000
   2.75064538  0.00000000 14.49178509
   9.62725883  8.73447217 12.24589255
  12.37790420  7.14638632 14.49178509
 


--------------------------------------------------------------------------------------------------------


 k-point  1 :   0.2500 0.2500 0.0000  plane waves:   46635
 k-point  2 :   0.0000 0.2500 0.0000  plane waves:   46635
 k-point  3 :  -0.2500 0.0000 0.0000  plane waves:   46635
 k-point  4 :  -0.2500 0.2500 0.0000  plane waves:   46644
 k-point  5 :   0.5000-0.2500 0.0000  plane waves:   46644
 k-point  6 :  -0.2500 0.5000 0.0000  plane waves:   46644

 maximum and minimum number of plane-waves per node :      7818     7732

 maximum number of plane-waves:     46644
 maximum index in each direction: 
   IXMAX=   18   IYMAX=   18   IZMAX=   39
   IXMIN=  -18   IYMIN=  -18   IZMIN=  -39

 WARNING: aliasing errors must be expected set NGX to  74 to avoid them
 WARNING: aliasing errors must be expected set NGY to  74 to avoid them
 WARNING: aliasing errors must be expected set NGZ to 158 to avoid them
 aliasing errors are usually negligible using standard VASP settings
 and one can safely disregard these warnings

 real space projection operators:
  total allocation   :      12803.06 KBytes
  max/ min on nodes  :       2145.66       2127.94


 parallel 3D FFT for wavefunctions:
    minimum data exchange during FFTs selected (reduces bandwidth)
 parallel 3D FFT for charge:
    minimum data exchange during FFTs selected (reduces bandwidth)


 total amount of memory used by VASP on root node    84353. kBytes
========================================================================

   base      :      30000. kBytes
   nonlr-proj:       4285. kBytes
   fftplans  :       4447. kBytes
   grid      :       6721. kBytes
   one-center:        124. kBytes
   wavefun   :      38776. kBytes
 
     INWAV:  cpu time    0.0000: real time    0.0001
 Broyden mixing: mesh for mixing (old mesh)
   NGX = 35   NGY = 35   NGZ = 79
  (NGX  =108   NGY  =108   NGZ  =240)
  gives a total of  96775 points

 initial charge density was supplied:
 charge density of overlapping atoms calculated
 number of electron     504.0000000 magnetization 
 keeping initial charge density in first step


--------------------------------------------------------------------------------------------------------


 Maximum index for non-local projection operator          355
 Maximum index for augmentation-charges          437 (set IRDMAX)


--------------------------------------------------------------------------------------------------------


 First call to EWALD:  gamma=   0.129
 Maximum number of real-space cells 4x 4x 2
 Maximum number of reciprocal cells 2x 2x 5

 FEWALD executed in parallel
    FEWALD:  cpu time    0.0024: real time    0.0025


----------------------------------------- Iteration    1(   1)  ---------------------------------------


    POTLOK:  cpu time    0.0452: real time    0.0462
    SETDIJ:  cpu time    0.0057: real time    0.0057
     EDDAV:  cpu time    7.2017: real time    7.2299
       DOS:  cpu time    0.0013: real time    0.0014
    --------------------------------------------
      LOOP:  cpu time    7.2567: real time    7.2894

 eigenvalue-minimisations  :  3672
 total energy-change (2. order) : 0.3200668E+04  (-0.1898532E+05)
 number of electron     504.0000000 magnetization 
 augmentation part      504.0000000 magnetization 

 DIPCOR: dipole corrections for dipol
 direction  3 min pos     1,
 dipolmoment           0.000000      0.000000     -0.000001 electrons x Angstroem
 Tr[quadrupol]    -10272.278088

 energy correction for charged system         0.000000 eV
 dipol+quadrupol energy correction           -0.000000 eV
 added-field ion interaction          0.000000 eV  (added to PSCEN)


 Free energy of the ion-electron system (eV)
  ---------------------------------------------------
  alpha Z        PSCENC =       805.86936440
  Ewald energy   TEWEN  =    199926.47811426
  -Hartree energ DENC   =   -242339.68498546
  -exchange      EXHF   =         0.00000000
  -V(xc)+E(xc)   XCENC  =      -327.69326882
  PAW double counting   =     40340.05962942   -38292.62782345
  entropy T*S    EENTRO =        -0.14875035
  eigenvalues    EBANDS =      1428.62942337
  atomic energy  EATOM  =     41659.78587232
  Solvation  Ediel_sol  =         0.00000000
  ---------------------------------------------------
  free energy    TOTEN  =      3200.66757569 eV

  energy without entropy =     3200.81632604  energy(sigma->0) =     3200.74195087


--------------------------------------------------------------------------------------------------------




----------------------------------------- Iteration    1(   2)  ---------------------------------------


     EDDAV:  cpu time    8.4976: real time    8.5214
       DOS:  cpu time    0.0014: real time    0.0014
    --------------------------------------------
      LOOP:  cpu time    8.4998: real time    8.5264

 eigenvalue-minimisations  :  4380
 total energy-change (2. order) :-0.3186218E+04  (-0.2932416E+04)
 number of electron     504.0000000 magnetization 
 augmentation part      504.0000000 magnetization 

 DIPCOR: dipole corrections for dipol
 direction  3 min pos     1,
 dipolmoment           0.000000      0.000000     -0.000001 electrons x Angstroem
 Tr[quadrupol]    -10272.278088

 energy correction for charged system         0.000000 eV
 dipol+quadrupol energy correction           -0.000000 eV
 added-field ion interaction          0.000000 eV  (added to PSCEN)


 Free energy of the ion-electron system (eV)
  ---------------------------------------------------
  alpha Z        PSCENC =       805.86936440
  Ewald energy   TEWEN  =    199926.47811426
  -Hartree energ DENC   =   -242339.68498546
  -exchange      EXHF   =         0.00000000
  -V(xc)+E(xc)   XCENC  =      -327.69326882
  PAW double counting   =     40340.05962942   -38292.62782345
  entropy T*S    EENTRO =        -0.13620322
  eigenvalues    EBANDS =     -1757.60131786
  atomic energy  EATOM  =     41659.78587232
  Solvation  Ediel_sol  =         0.00000000
  ---------------------------------------------------
  free energy    TOTEN  =        14.44938160 eV

  energy without entropy =       14.58558482  energy(sigma->0) =       14.51748321


--------------------------------------------------------------------------------------------------------




----------------------------------------- Iteration    1(   3)  ---------------------------------------


     EDDAV:  cpu time    8.1762: real time    8.2699
       DOS:  cpu time    0.0014: real time    0.0014
    --------------------------------------------
      LOOP:  cpu time    8.1785: real time    8.2744

 eigenvalue-minimisations  :  4116
 total energy-change (2. order) :-0.2155432E+03  (-0.2002830E+03)
 number of electron     504.0000000 magnetization 
 augmentation part      504.0000000 magnetization 

 DIPCOR: dipole corrections for dipol
 direction  3 min pos     1,
 dipolmoment           0.000000      0.000000     -0.000001 electrons x Angstroem
 Tr[quadrupol]    -10272.278088

 energy correction for charged system         0.000000 eV
 dipol+quadrupol energy correction           -0.000000 eV
 added-field ion interaction          0.000000 eV  (added to PSCEN)


 Free energy of the ion-electron system (eV)
  ---------------------------------------------------
  alpha Z        PSCENC =       805.86936440
  Ewald energy   TEWEN  =    199926.47811426
  -Hartree energ DENC   =   -242339.68498546
  -exchange      EXHF   =         0.00000000
  -V(xc)+E(xc)   XCENC  =      -327.69326882
  PAW double counting   =     40340.05962942   -38292.62782345
  entropy T*S    EENTRO =        -0.18522856
  eigenvalues    EBANDS =     -1973.09546296
  atomic energy  EATOM  =     41659.78587232
  Solvation  Ediel_sol  =         0.00000000
  ---------------------------------------------------
  free energy    TOTEN  =      -201.09378884 eV

  energy without entropy =     -200.90856028  energy(sigma->0) =     -201.00117456


--------------------------------------------------------------------------------------------------------




----------------------------------------- Iteration    1(   4)  ---------------------------------------


     EDDAV:  cpu time    8.3727: real time    8.3966
       DOS:  cpu time    0.0014: real time    0.0014
    --------------------------------------------
      LOOP:  cpu time    8.3751: real time    8.4021

 eigenvalue-minimisations  :  4212
 total energy-change (2. order) :-0.5795702E+01  (-0.5729577E+01)
 number of electron     504.0000000 magnetization 
 augmentation part      504.0000000 magnetization 

 DIPCOR: dipole corrections for dipol
 direction  3 min pos     1,
 dipolmoment           0.000000      0.000000     -0.000001 electrons x Angstroem
 Tr[quadrupol]    -10272.278088

 energy correction for charged system         0.000000 eV
 dipol+quadrupol energy correction           -0.000000 eV
 added-field ion interaction          0.000000 eV  (added to PSCEN)


 Free energy of the ion-electron system (eV)
  ---------------------------------------------------
  alpha Z        PSCENC =       805.86936440
  Ewald energy   TEWEN  =    199926.47811426
  -Hartree energ DENC   =   -242339.68498546
  -exchange      EXHF   =         0.00000000
  -V(xc)+E(xc)   XCENC  =      -327.69326882
  PAW double counting   =     40340.05962942   -38292.62782345
  entropy T*S    EENTRO =        -0.19370338
  eigenvalues    EBANDS =     -1978.88269024
  atomic energy  EATOM  =     41659.78587232
  Solvation  Ediel_sol  =         0.00000000
  ---------------------------------------------------
  free energy    TOTEN  =      -206.88949094 eV

  energy without entropy =     -206.69578756  energy(sigma->0) =     -206.79263925


--------------------------------------------------------------------------------------------------------




----------------------------------------- Iteration    1(   5)  ---------------------------------------


     EDDAV:  cpu time    8.7109: real time    8.7343
       DOS:  cpu time    0.0015: real time    0.0015
    CHARGE:  cpu time    0.2154: real time    0.2160
    MIXING:  cpu time    0.0021: real time    0.0022
    --------------------------------------------
      LOOP:  cpu time    8.9309: real time    8.9580

 eigenvalue-minimisations  :  4452
 total energy-change (2. order) :-0.1898176E+00  (-0.1892082E+00)
 number of electron     503.9998404 magnetization 
 augmentation part      191.2482538 magnetization 

 DIPCOR: dipole corrections for dipol
 direction  3 min pos     1,
 dipolmoment           0.000000      0.000000     -0.000001 electrons x Angstroem
 Tr[quadrupol]    -10272.278088

 energy correction for charged system         0.000000 eV
 dipol+quadrupol energy correction           -0.000000 eV
 added-field ion interaction          0.000000 eV  (added to PSCEN)


 Broyden mixing:
  rms(total) = 0.62169E+01    rms(broyden)= 0.62168E+01
  rms(prec ) = 0.63397E+01
  weight for this iteration     100.00

 Free energy of the ion-electron system (eV)
  ---------------------------------------------------
  alpha Z        PSCENC =       805.86936440
  Ewald energy   TEWEN  =    199926.47811426
  -Hartree energ DENC   =   -242339.68498546
  -exchange      EXHF   =         0.00000000
  -V(xc)+E(xc)   XCENC  =      -327.69326882
  PAW double counting   =     40340.05962942   -38292.62782345
  entropy T*S    EENTRO =        -0.19366588
  eigenvalues    EBANDS =     -1979.07254531
  atomic energy  EATOM  =     41659.78587232
  Solvation  Ediel_sol  =         0.00000000
  ---------------------------------------------------
  free energy    TOTEN  =      -207.07930852 eV

  energy without entropy =     -206.88564263  energy(sigma->0) =     -206.98247557


--------------------------------------------------------------------------------------------------------




----------------------------------------- Iteration    1(   6)  ---------------------------------------


    POTLOK:  cpu time    0.0404: real time    0.0413
    SETDIJ:  cpu time    0.0060: real time    0.0061
    EDDIAG:  cpu time    1.2905: real time    1.2936
  RMM-DIIS:  cpu time    3.4501: real time    3.4600
    ORTHCH:  cpu time    0.3562: real time    0.3571
       DOS:  cpu time    0.0014: real time    0.0014
    CHARGE:  cpu time    0.2226: real time    0.2231
    MIXING:  cpu time    0.0020: real time    0.0020
    --------------------------------------------
      LOOP:  cpu time    5.3698: real time    5.3881

 eigenvalue-minimisations  :  3678
 total energy-change (2. order) : 0.7084918E+01  (-0.9552881E+01)
 number of electron     503.9998420 magnetization 
 augmentation part      191.8674937 magnetization 

 DIPCOR: dipole corrections for dipol
 direction  3 min pos     1,
 dipolmoment           0.000000      0.000000     -0.336234 electrons x Angstroem
 Tr[quadrupol]    -10274.378753

 energy correction for charged system         0.000000 eV
 dipol+quadrupol energy correction           -0.003984 eV
 added-field ion interaction          0.053219 eV  (added to PSCEN)


 Broyden mixing:
  rms(total) = 0.52995E+01    rms(broyden)= 0.52994E+01
  rms(prec ) = 0.54872E+01
  weight for this iteration     100.00

 eigenvalues of (default mixing * dielectric matrix)
  average eigenvalue GAMMA=   0.7840
  0.7840

 Free energy of the ion-electron system (eV)
  ---------------------------------------------------
  alpha Z        PSCENC =       805.91859922
  Ewald energy   TEWEN  =    199926.47811426
  -Hartree energ DENC   =   -242113.59275897
  -exchange      EXHF   =         0.00000000
  -V(xc)+E(xc)   XCENC  =      -340.42500144
  PAW double counting   =     43906.64550874   -41918.66954297
  entropy T*S    EENTRO =        -0.26857016
  eigenvalues    EBANDS =     -2125.86661200
  atomic energy  EATOM  =     41659.78587232
  Solvation  Ediel_sol  =         0.00000000
  ---------------------------------------------------
  free energy    TOTEN  =      -199.99439101 eV

  energy without entropy =     -199.72582084  energy(sigma->0) =     -199.86010593


--------------------------------------------------------------------------------------------------------




----------------------------------------- Iteration    1(   7)  ---------------------------------------


    POTLOK:  cpu time    0.0404: real time    0.0413
    SETDIJ:  cpu time    0.0059: real time    0.0059
    EDDIAG:  cpu time    1.2891: real time    1.2932
  RMM-DIIS:  cpu time    3.4041: real time    3.4123
    ORTHCH:  cpu time    0.3542: real time    0.3551
       DOS:  cpu time    0.0014: real time    0.0014
    CHARGE:  cpu time    0.2145: real time    0.2151
    MIXING:  cpu time    0.0020: real time    0.0020
    --------------------------------------------
      LOOP:  cpu time    5.3124: real time    5.3296

 eigenvalue-minimisations  :  3683
 total energy-change (2. order) :-0.4928932E+01  (-0.5606225E+01)
 number of electron     503.9998367 magnetization 
 augmentation part      196.3800536 magnetization 

 DIPCOR: dipole corrections for dipol
 direction  3 min pos     1,
 dipolmoment           0.000000      0.000000      0.775252 electrons x Angstroem
 Tr[quadrupol]    -10272.266057

 energy correction for charged system         0.000000 eV
 dipol+quadrupol energy correction           -0.021178 eV
 added-field ion interaction         -0.122706 eV  (added to PSCEN)


 Broyden mixing:
  rms(total) = 0.39972E+01    rms(broyden)= 0.39969E+01
  rms(prec ) = 0.44506E+01
  weight for this iteration     100.00

 eigenvalues of (default mixing * dielectric matrix)
  average eigenvalue GAMMA=   1.0125
  1.6195  0.4055

 Free energy of the ion-electron system (eV)
  ---------------------------------------------------
  alpha Z        PSCENC =       805.72548034
  Ewald energy   TEWEN  =    199926.47811426
  -Hartree energ DENC   =   -241933.66853482
  -exchange      EXHF   =         0.00000000
  -V(xc)+E(xc)   XCENC  =      -342.69922405
  PAW double counting   =     45434.85185399   -43473.96204636
  entropy T*S    EENTRO =        -0.17513714
  eigenvalues    EBANDS =     -2281.25970165
  atomic energy  EATOM  =     41659.78587232
  Solvation  Ediel_sol  =         0.00000000
  ---------------------------------------------------
  free energy    TOTEN  =      -204.92332312 eV

  energy without entropy =     -204.74818598  energy(sigma->0) =     -204.83575455


--------------------------------------------------------------------------------------------------------




----------------------------------------- Iteration    1(   8)  ---------------------------------------


    POTLOK:  cpu time    0.0404: real time    0.0405
    SETDIJ:  cpu time    0.0060: real time    0.0060
    EDDIAG:  cpu time    1.2932: real time    1.2963
  RMM-DIIS:  cpu time    3.4480: real time    3.4565
    ORTHCH:  cpu time    0.3515: real time    0.3523
       DOS:  cpu time    0.0014: real time    0.0014
    CHARGE:  cpu time    0.2216: real time    0.2250
    MIXING:  cpu time    0.0020: real time    0.0020
    --------------------------------------------
      LOOP:  cpu time    5.3649: real time    5.3835

 eigenvalue-minimisations  :  3675
 total energy-change (2. order) :-0.1988065E+02  (-0.7731896E+01)
 number of electron     503.9998363 magnetization 
 augmentation part      195.6324048 magnetization 

 DIPCOR: dipole corrections for dipol
 direction  3 min pos     1,
 dipolmoment           0.000000      0.000000     -1.954550 electrons x Angstroem
 Tr[quadrupol]    -10274.256994

 energy correction for charged system         0.000000 eV
 dipol+quadrupol energy correction           -0.134616 eV
 added-field ion interaction          0.309363 eV  (added to PSCEN)


 Broyden mixing:
  rms(total) = 0.43502E+01    rms(broyden)= 0.43498E+01
  rms(prec ) = 0.54138E+01
  weight for this iteration     100.00

 eigenvalues of (default mixing * dielectric matrix)
  average eigenvalue GAMMA=   0.9431
  2.1032  0.4351  0.2910

 Free energy of the ion-electron system (eV)
  ---------------------------------------------------
  alpha Z        PSCENC =       806.04411156
  Ewald energy   TEWEN  =    199926.47811426
  -Hartree energ DENC   =   -241936.43054251
  -exchange      EXHF   =         0.00000000
  -V(xc)+E(xc)   XCENC  =      -344.78929159
  PAW double counting   =     47397.82167974   -45464.76638398
  entropy T*S    EENTRO =        -0.29384804
  eigenvalues    EBANDS =     -2268.65368826
  atomic energy  EATOM  =     41659.78587232
  Solvation  Ediel_sol  =         0.00000000
  ---------------------------------------------------
  free energy    TOTEN  =      -224.80397650 eV

  energy without entropy =     -224.51012846  energy(sigma->0) =     -224.65705248


--------------------------------------------------------------------------------------------------------




----------------------------------------- Iteration    1(   9)  ---------------------------------------


    POTLOK:  cpu time    0.0401: real time    0.0412
    SETDIJ:  cpu time    0.0046: real time    0.0054
    EDDIAG:  cpu time    1.2801: real time    1.3003
  RMM-DIIS:  cpu time    3.3760: real time    3.4494
    ORTHCH:  cpu time    0.3513: real time    0.3525
       DOS:  cpu time    0.0014: real time    0.0014
    CHARGE:  cpu time    0.2140: real time    0.2145
    MIXING:  cpu time    0.0021: real time    0.0021
    --------------------------------------------
      LOOP:  cpu time    5.2704: real time    5.3696

 eigenvalue-minimisations  :  3681
 total energy-change (2. order) : 0.1669410E+02  (-0.4597621E+01)
 number of electron     503.9998336 magnetization 
 augmentation part      198.6067913 magnetization 

 DIPCOR: dipole corrections for dipol
 direction  3 min pos     1,
 dipolmoment           0.000000      0.000000      0.713157 electrons x Angstroem
 Tr[quadrupol]    -10275.441285

 energy correction for charged system         0.000000 eV
 dipol+quadrupol energy correction           -0.017921 eV
 added-field ion interaction         -0.112877 eV  (added to PSCEN)


 Broyden mixing:
  rms(total) = 0.32550E+01    rms(broyden)= 0.32546E+01
  rms(prec ) = 0.36243E+01
  weight for this iteration     100.00

 eigenvalues of (default mixing * dielectric matrix)
  average eigenvalue GAMMA=   0.8367
  2.2768  0.4627  0.3037  0.3037

 Free energy of the ion-electron system (eV)
  ---------------------------------------------------
  alpha Z        PSCENC =       805.73856538
  Ewald energy   TEWEN  =    199926.47811426
  -Hartree energ DENC   =   -241940.80848411
  -exchange      EXHF   =         0.00000000
  -V(xc)+E(xc)   XCENC  =      -346.28843993
  PAW double counting   =     48563.58949502   -46648.76685850
  entropy T*S    EENTRO =        -0.21217288
  eigenvalues    EBANDS =     -2227.62596465
  atomic energy  EATOM  =     41659.78587232
  Solvation  Ediel_sol  =         0.00000000
  ---------------------------------------------------
  free energy    TOTEN  =      -208.10987308 eV

  energy without entropy =     -207.89770021  energy(sigma->0) =     -208.00378665


--------------------------------------------------------------------------------------------------------




----------------------------------------- Iteration    1(  10)  ---------------------------------------


    POTLOK:  cpu time    0.0402: real time    0.0404
    SETDIJ:  cpu time    0.0051: real time    0.0052
    EDDIAG:  cpu time    1.2891: real time    1.2932
  RMM-DIIS:  cpu time    3.3985: real time    3.4437
    ORTHCH:  cpu time    0.3530: real time    0.3538
       DOS:  cpu time    0.0014: real time    0.0014
    CHARGE:  cpu time    0.2186: real time    0.2192
    MIXING:  cpu time    0.0021: real time    0.0021
    --------------------------------------------
      LOOP:  cpu time    5.3087: real time    5.3622

 eigenvalue-minimisations  :  3681
 total energy-change (2. order) : 0.1409899E+02  (-0.1790556E+01)
 number of electron     503.9998336 magnetization 
 augmentation part      199.2737836 magnetization 

 DIPCOR: dipole corrections for dipol
 direction  3 min pos     1,
 dipolmoment           0.000000      0.000000     -0.179380 electrons x Angstroem
 Tr[quadrupol]    -10274.069046

 energy correction for charged system         0.000000 eV
 dipol+quadrupol energy correction           -0.001134 eV
 added-field ion interaction          0.028392 eV  (added to PSCEN)


 Broyden mixing:
  rms(total) = 0.16867E+01    rms(broyden)= 0.16865E+01
  rms(prec ) = 0.19346E+01
  weight for this iteration     100.00

 eigenvalues of (default mixing * dielectric matrix)
  average eigenvalue GAMMA=   0.7689
  2.2954  0.4698  0.4698  0.3580  0.2514

 Free energy of the ion-electron system (eV)
  ---------------------------------------------------
  alpha Z        PSCENC =       805.89662241
  Ewald energy   TEWEN  =    199926.47811426
  -Hartree energ DENC   =   -241910.42587176
  -exchange      EXHF   =         0.00000000
  -V(xc)+E(xc)   XCENC  =      -345.99297805
  PAW double counting   =     49100.42738086   -47190.63127651
  entropy T*S    EENTRO =        -0.18007271
  eigenvalues    EBANDS =     -2239.36867662
  atomic energy  EATOM  =     41659.78587232
  Solvation  Ediel_sol  =         0.00000000
  ---------------------------------------------------
  free energy    TOTEN  =      -194.01088581 eV

  energy without entropy =     -193.83081311  energy(sigma->0) =     -193.92084946


--------------------------------------------------------------------------------------------------------




----------------------------------------- Iteration    1(  11)  ---------------------------------------


    POTLOK:  cpu time    0.0398: real time    0.0399
    SETDIJ:  cpu time    0.0051: real time    0.0051
    EDDIAG:  cpu time    1.2853: real time    1.2920
  RMM-DIIS:  cpu time    3.4515: real time    3.4599
    ORTHCH:  cpu time    0.3517: real time    0.3525
       DOS:  cpu time    0.0014: real time    0.0014
    CHARGE:  cpu time    0.2110: real time    0.2116
    MIXING:  cpu time    0.0023: real time    0.0023
    --------------------------------------------
      LOOP:  cpu time    5.3488: real time    5.3672

 eigenvalue-minimisations  :  3681
 total energy-change (2. order) : 0.3107595E+01  (-0.9444506E+00)
 number of electron     503.9998345 magnetization 
 augmentation part      198.4624736 magnetization 

 DIPCOR: dipole corrections for dipol
 direction  3 min pos     1,
 dipolmoment           0.000000      0.000000      0.011998 electrons x Angstroem
 Tr[quadrupol]    -10275.015937

 energy correction for charged system         0.000000 eV
 dipol+quadrupol energy correction           -0.000005 eV
 added-field ion interaction         -0.001899 eV  (added to PSCEN)


 Broyden mixing:
  rms(total) = 0.95718E+00    rms(broyden)= 0.95683E+00
  rms(prec ) = 0.10800E+01
  weight for this iteration     100.00

 eigenvalues of (default mixing * dielectric matrix)
  average eigenvalue GAMMA=   0.7317
  2.2171  0.6361  0.6361  0.3324  0.3324  0.2363

 Free energy of the ion-electron system (eV)
  ---------------------------------------------------
  alpha Z        PSCENC =       805.86746014
  Ewald energy   TEWEN  =    199926.47811426
  -Hartree energ DENC   =   -241967.99206976
  -exchange      EXHF   =         0.00000000
  -V(xc)+E(xc)   XCENC  =      -345.40599503
  PAW double counting   =     49208.64032911   -47296.37658074
  entropy T*S    EENTRO =        -0.22435553
  eigenvalues    EBANDS =     -2181.67606587
  atomic energy  EATOM  =     41659.78587232
  Solvation  Ediel_sol  =         0.00000000
  ---------------------------------------------------
  free energy    TOTEN  =      -190.90329109 eV

  energy without entropy =     -190.67893556  energy(sigma->0) =     -190.79111333


--------------------------------------------------------------------------------------------------------




----------------------------------------- Iteration    1(  12)  ---------------------------------------


    POTLOK:  cpu time    0.0397: real time    0.0398
    SETDIJ:  cpu time    0.0051: real time    0.0051
    EDDIAG:  cpu time    1.2887: real time    1.2944
  RMM-DIIS:  cpu time    3.4423: real time    3.4506
    ORTHCH:  cpu time    0.3513: real time    0.3523
       DOS:  cpu time    0.0014: real time    0.0014
    CHARGE:  cpu time    0.2173: real time    0.2179
    MIXING:  cpu time    0.0025: real time    0.0025
    --------------------------------------------
      LOOP:  cpu time    5.3490: real time    5.3673

 eigenvalue-minimisations  :  3680
 total energy-change (2. order) : 0.1156140E+01  (-0.3636717E+00)
 number of electron     503.9998362 magnetization 
 augmentation part      197.1755465 magnetization 

 DIPCOR: dipole corrections for dipol
 direction  3 min pos     1,
 dipolmoment           0.000000      0.000000      0.038071 electrons x Angstroem
 Tr[quadrupol]    -10275.314181

 energy correction for charged system         0.000000 eV
 dipol+quadrupol energy correction           -0.000051 eV
 added-field ion interaction         -0.006026 eV  (added to PSCEN)


 Broyden mixing:
  rms(total) = 0.86944E+00    rms(broyden)= 0.86927E+00
  rms(prec ) = 0.95790E+00
  weight for this iteration     100.00

 eigenvalues of (default mixing * dielectric matrix)
  average eigenvalue GAMMA=   0.6937
  2.2674  0.7195  0.4970  0.4970  0.3054  0.3054  0.2640

 Free energy of the ion-electron system (eV)
  ---------------------------------------------------
  alpha Z        PSCENC =       805.86328737
  Ewald energy   TEWEN  =    199926.47811426
  -Hartree energ DENC   =   -242013.48730946
  -exchange      EXHF   =         0.00000000
  -V(xc)+E(xc)   XCENC  =      -344.42223083
  PAW double counting   =     49218.14281109   -47301.13759867
  entropy T*S    EENTRO =        -0.23595004
  eigenvalues    EBANDS =     -2140.73414681
  atomic energy  EATOM  =     41659.78587232
  Solvation  Ediel_sol  =         0.00000000
  ---------------------------------------------------
  free energy    TOTEN  =      -189.74715077 eV

  energy without entropy =     -189.51120073  energy(sigma->0) =     -189.62917575


--------------------------------------------------------------------------------------------------------




----------------------------------------- Iteration    1(  13)  ---------------------------------------


    POTLOK:  cpu time    0.0400: real time    0.0402
    SETDIJ:  cpu time    0.0051: real time    0.0051
    EDDIAG:  cpu time    1.2917: real time    1.2958
  RMM-DIIS:  cpu time    3.4187: real time    3.4271
    ORTHCH:  cpu time    0.3497: real time    0.3514
       DOS:  cpu time    0.0013: real time    0.0013
    CHARGE:  cpu time    0.2149: real time    0.2154
    MIXING:  cpu time    0.0026: real time    0.0026
    --------------------------------------------
      LOOP:  cpu time    5.3246: real time    5.3422

 eigenvalue-minimisations  :  3681
 total energy-change (2. order) : 0.3657041E+00  (-0.1373472E+00)
 number of electron     503.9998359 magnetization 
 augmentation part      197.2199121 magnetization 

 DIPCOR: dipole corrections for dipol
 direction  3 min pos     1,
 dipolmoment           0.000000      0.000000      0.007275 electrons x Angstroem
 Tr[quadrupol]    -10275.681714

 energy correction for charged system         0.000000 eV
 dipol+quadrupol energy correction           -0.000002 eV
 added-field ion interaction         -0.001152 eV  (added to PSCEN)


 Broyden mixing:
  rms(total) = 0.55979E+00    rms(broyden)= 0.55963E+00
  rms(prec ) = 0.61511E+00
  weight for this iteration     100.00

 eigenvalues of (default mixing * dielectric matrix)
  average eigenvalue GAMMA=   0.7208
  2.2836  0.7609  0.7609  0.8139  0.3322  0.3322  0.2412  0.2412

 Free energy of the ion-electron system (eV)
  ---------------------------------------------------
  alpha Z        PSCENC =       805.86821091
  Ewald energy   TEWEN  =    199926.47811426
  -Hartree energ DENC   =   -242025.30036472
  -exchange      EXHF   =         0.00000000
  -V(xc)+E(xc)   XCENC  =      -344.43058798
  PAW double counting   =     49272.39486839   -47355.67462325
  entropy T*S    EENTRO =        -0.24890110
  eigenvalues    EBANDS =     -2128.25403548
  atomic energy  EATOM  =     41659.78587232
  Solvation  Ediel_sol  =         0.00000000
  ---------------------------------------------------
  free energy    TOTEN  =      -189.38144664 eV

  energy without entropy =     -189.13254554  energy(sigma->0) =     -189.25699609


--------------------------------------------------------------------------------------------------------




----------------------------------------- Iteration    1(  14)  ---------------------------------------


    POTLOK:  cpu time    0.0400: real time    0.0401
    SETDIJ:  cpu time    0.0052: real time    0.0052
    EDDIAG:  cpu time    1.2859: real time    1.2890
  RMM-DIIS:  cpu time    3.4015: real time    3.4099
    ORTHCH:  cpu time    0.3541: real time    0.3552
       DOS:  cpu time    0.0014: real time    0.0014
    CHARGE:  cpu time    0.2183: real time    0.2188
    MIXING:  cpu time    0.0028: real time    0.0028
    --------------------------------------------
      LOOP:  cpu time    5.3099: real time    5.3260

 eigenvalue-minimisations  :  3679
 total energy-change (2. order) :-0.2493391E+00  (-0.7078190E-01)
 number of electron     503.9998357 magnetization 
 augmentation part      197.3684754 magnetization 

 DIPCOR: dipole corrections for dipol
 direction  3 min pos     1,
 dipolmoment           0.000000      0.000000     -0.063828 electrons x Angstroem
 Tr[quadrupol]    -10275.769767

 energy correction for charged system         0.000000 eV
 dipol+quadrupol energy correction           -0.000144 eV
 added-field ion interaction          0.010103 eV  (added to PSCEN)


 Broyden mixing:
  rms(total) = 0.67753E+00    rms(broyden)= 0.67739E+00
  rms(prec ) = 0.78871E+00
  weight for this iteration     100.00

 eigenvalues of (default mixing * dielectric matrix)
  average eigenvalue GAMMA=   0.7034
  2.2566  0.9178  0.9178  0.7970  0.3597  0.3597  0.2598  0.2598  0.2028

 Free energy of the ion-electron system (eV)
  ---------------------------------------------------
  alpha Z        PSCENC =       805.87932330
  Ewald energy   TEWEN  =    199926.47811426
  -Hartree energ DENC   =   -242028.15482745
  -exchange      EXHF   =         0.00000000
  -V(xc)+E(xc)   XCENC  =      -344.36101962
  PAW double counting   =     49293.63391172   -47376.57877972
  entropy T*S    EENTRO =        -0.26191266
  eigenvalues    EBANDS =     -2126.05146788
  atomic energy  EATOM  =     41659.78587232
  Solvation  Ediel_sol  =         0.00000000
  ---------------------------------------------------
  free energy    TOTEN  =      -189.63078574 eV

  energy without entropy =     -189.36887309  energy(sigma->0) =     -189.49982941


--------------------------------------------------------------------------------------------------------




----------------------------------------- Iteration    1(  15)  ---------------------------------------


    POTLOK:  cpu time    0.0401: real time    0.0402
    SETDIJ:  cpu time    0.0052: real time    0.0052
    EDDIAG:  cpu time    1.2797: real time    1.2827
  RMM-DIIS:  cpu time    3.4232: real time    3.4315
    ORTHCH:  cpu time    0.3464: real time    0.3482
       DOS:  cpu time    0.0014: real time    0.0014
    CHARGE:  cpu time    0.2128: real time    0.2133
    MIXING:  cpu time    0.0029: real time    0.0029
    --------------------------------------------
      LOOP:  cpu time    5.3123: real time    5.3282

 eigenvalue-minimisations  :  3679
 total energy-change (2. order) : 0.2474566E+00  (-0.1991445E-01)
 number of electron     503.9998357 magnetization 
 augmentation part      197.3788743 magnetization 

 DIPCOR: dipole corrections for dipol
 direction  3 min pos     1,
 dipolmoment           0.000000      0.000000     -0.059636 electrons x Angstroem
 Tr[quadrupol]    -10275.925332

 energy correction for charged system         0.000000 eV
 dipol+quadrupol energy correction           -0.000125 eV
 added-field ion interaction          0.009439 eV  (added to PSCEN)


 Broyden mixing:
  rms(total) = 0.49135E+00    rms(broyden)= 0.49131E+00
  rms(prec ) = 0.56710E+00
  weight for this iteration     100.00

 eigenvalues of (default mixing * dielectric matrix)
  average eigenvalue GAMMA=   0.7075
  2.2189  1.1940  1.1940  0.6439  0.4109  0.4109  0.2832  0.2832  0.2250  0.2110

 Free energy of the ion-electron system (eV)
  ---------------------------------------------------
  alpha Z        PSCENC =       805.87867803
  Ewald energy   TEWEN  =    199926.47811426
  -Hartree energ DENC   =   -242036.64426134
  -exchange      EXHF   =         0.00000000
  -V(xc)+E(xc)   XCENC  =      -344.21479158
  PAW double counting   =     49289.88557352   -47371.85857173
  entropy T*S    EENTRO =        -0.26512883
  eigenvalues    EBANDS =     -2118.42881382
  atomic energy  EATOM  =     41659.78587232
  Solvation  Ediel_sol  =         0.00000000
  ---------------------------------------------------
  free energy    TOTEN  =      -189.38332918 eV

  energy without entropy =     -189.11820035  energy(sigma->0) =     -189.25076476


--------------------------------------------------------------------------------------------------------




----------------------------------------- Iteration    1(  16)  ---------------------------------------


    POTLOK:  cpu time    0.0412: real time    0.0414
    SETDIJ:  cpu time    0.0050: real time    0.0057
    EDDIAG:  cpu time    1.2838: real time    1.2884
  RMM-DIIS:  cpu time    3.4079: real time    3.4926
    ORTHCH:  cpu time    0.3467: real time    0.3475
       DOS:  cpu time    0.0014: real time    0.0014
    CHARGE:  cpu time    0.2155: real time    0.2160
    MIXING:  cpu time    0.0029: real time    0.0029
    --------------------------------------------
      LOOP:  cpu time    5.3048: real time    5.3995

 eigenvalue-minimisations  :  3681
 total energy-change (2. order) : 0.1578013E+00  (-0.1613679E-01)
 number of electron     503.9998358 magnetization 
 augmentation part      197.3506645 magnetization 

 DIPCOR: dipole corrections for dipol
 direction  3 min pos     1,
 dipolmoment           0.000000      0.000000     -0.055072 electrons x Angstroem
 Tr[quadrupol]    -10276.136831

 energy correction for charged system         0.000000 eV
 dipol+quadrupol energy correction           -0.000107 eV
 added-field ion interaction          0.008717 eV  (added to PSCEN)


 Broyden mixing:
  rms(total) = 0.31314E+00    rms(broyden)= 0.31307E+00
  rms(prec ) = 0.36644E+00
  weight for this iteration     100.00

 eigenvalues of (default mixing * dielectric matrix)
  average eigenvalue GAMMA=   0.7353
  1.9822  1.6400  1.6400  0.5028  0.5028  0.3873  0.3873  0.3746  0.2447  0.2447
  0.1826

 Free energy of the ion-electron system (eV)
  ---------------------------------------------------
  alpha Z        PSCENC =       805.87797407
  Ewald energy   TEWEN  =    199926.47811426
  -Hartree energ DENC   =   -242048.45713317
  -exchange      EXHF   =         0.00000000
  -V(xc)+E(xc)   XCENC  =      -344.05912510
  PAW double counting   =     49286.29663040   -47367.10833770
  entropy T*S    EENTRO =        -0.27400580
  eigenvalues    EBANDS =     -2107.76551717
  atomic energy  EATOM  =     41659.78587232
  Solvation  Ediel_sol  =         0.00000000
  ---------------------------------------------------
  free energy    TOTEN  =      -189.22552790 eV

  energy without entropy =     -188.95152210  energy(sigma->0) =     -189.08852500


--------------------------------------------------------------------------------------------------------




----------------------------------------- Iteration    1(  17)  ---------------------------------------


    POTLOK:  cpu time    0.0399: real time    0.0400
    SETDIJ:  cpu time    0.0049: real time    0.0057
    EDDIAG:  cpu time    1.2755: real time    1.2785
  RMM-DIIS:  cpu time    3.4727: real time    3.4813
    ORTHCH:  cpu time    0.3465: real time    0.3474
       DOS:  cpu time    0.0014: real time    0.0014
    CHARGE:  cpu time    0.2138: real time    0.2143
    MIXING:  cpu time    0.0030: real time    0.0030
    --------------------------------------------
      LOOP:  cpu time    5.3583: real time    5.3737

 eigenvalue-minimisations  :  3678
 total energy-change (2. order) : 0.8781703E-01  (-0.1298202E-01)
 number of electron     503.9998360 magnetization 
 augmentation part      197.2230361 magnetization 

 DIPCOR: dipole corrections for dipol
 direction  3 min pos     1,
 dipolmoment           0.000000      0.000000     -0.037045 electrons x Angstroem
 Tr[quadrupol]    -10276.469061

 energy correction for charged system         0.000000 eV
 dipol+quadrupol energy correction           -0.000048 eV
 added-field ion interaction          0.005863 eV  (added to PSCEN)


 Broyden mixing:
  rms(total) = 0.16785E+00    rms(broyden)= 0.16779E+00
  rms(prec ) = 0.19323E+00
  weight for this iteration     100.00

 eigenvalues of (default mixing * dielectric matrix)
  average eigenvalue GAMMA=   0.7402
  2.1551  2.1551  1.3563  0.5581  0.5581  0.4139  0.4139  0.3395  0.2593  0.2593
  0.2320  0.1823

 Free energy of the ion-electron system (eV)
  ---------------------------------------------------
  alpha Z        PSCENC =       805.87517930
  Ewald energy   TEWEN  =    199926.47811426
  -Hartree energ DENC   =   -242066.42456603
  -exchange      EXHF   =         0.00000000
  -V(xc)+E(xc)   XCENC  =      -343.83519427
  PAW double counting   =     49290.66477505   -47369.89417872
  entropy T*S    EENTRO =        -0.27567927
  eigenvalues    EBANDS =     -2091.51203351
  atomic energy  EATOM  =     41659.78587232
  Solvation  Ediel_sol  =         0.00000000
  ---------------------------------------------------
  free energy    TOTEN  =      -189.13771087 eV

  energy without entropy =     -188.86203160  energy(sigma->0) =     -188.99987123


--------------------------------------------------------------------------------------------------------




----------------------------------------- Iteration    1(  18)  ---------------------------------------


    POTLOK:  cpu time    0.0399: real time    0.0400
    SETDIJ:  cpu time    0.0052: real time    0.0052
    EDDIAG:  cpu time    1.2812: real time    1.2842
  RMM-DIIS:  cpu time    3.4361: real time    3.4460
    ORTHCH:  cpu time    0.3464: real time    0.3472
       DOS:  cpu time    0.0014: real time    0.0014
    CHARGE:  cpu time    0.2181: real time    0.2187
    MIXING:  cpu time    0.0031: real time    0.0032
    --------------------------------------------
      LOOP:  cpu time    5.3322: real time    5.3493

 eigenvalue-minimisations  :  3679
 total energy-change (2. order) : 0.3158511E-01  (-0.3357782E-02)
 number of electron     503.9998360 magnetization 
 augmentation part      197.1397237 magnetization 

 DIPCOR: dipole corrections for dipol
 direction  3 min pos     1,
 dipolmoment           0.000000      0.000000     -0.018146 electrons x Angstroem
 Tr[quadrupol]    -10276.657367

 energy correction for charged system         0.000000 eV
 dipol+quadrupol energy correction           -0.000012 eV
 added-field ion interaction          0.002872 eV  (added to PSCEN)


 Broyden mixing:
  rms(total) = 0.82360E-01    rms(broyden)= 0.82324E-01
  rms(prec ) = 0.92903E-01
  weight for this iteration     100.00

 eigenvalues of (default mixing * dielectric matrix)
  average eigenvalue GAMMA=   0.7247
  2.2300  2.2300  1.3311  0.5871  0.5871  0.4154  0.4154  0.3518  0.3518  0.2515
  0.2515  0.2365  0.1822

 Free energy of the ion-electron system (eV)
  ---------------------------------------------------
  alpha Z        PSCENC =       805.87222480
  Ewald energy   TEWEN  =    199926.47811426
  -Hartree energ DENC   =   -242075.86949695
  -exchange      EXHF   =         0.00000000
  -V(xc)+E(xc)   XCENC  =      -343.74332858
  PAW double counting   =     49300.07019000   -47378.70890502
  entropy T*S    EENTRO =        -0.27491467
  eigenvalues    EBANDS =     -2082.71588191
  atomic energy  EATOM  =     41659.78587232
  Solvation  Ediel_sol  =         0.00000000
  ---------------------------------------------------
  free energy    TOTEN  =      -189.10612576 eV

  energy without entropy =     -188.83121108  energy(sigma->0) =     -188.96866842


--------------------------------------------------------------------------------------------------------




----------------------------------------- Iteration    1(  19)  ---------------------------------------


    POTLOK:  cpu time    0.0398: real time    0.0399
    SETDIJ:  cpu time    0.0052: real time    0.0053
    EDDIAG:  cpu time    1.2762: real time    1.2793
  RMM-DIIS:  cpu time    3.4170: real time    3.4258
    ORTHCH:  cpu time    0.3462: real time    0.3471
       DOS:  cpu time    0.0014: real time    0.0014
    CHARGE:  cpu time    0.2121: real time    0.2126
    MIXING:  cpu time    0.0040: real time    0.0040
    --------------------------------------------
      LOOP:  cpu time    5.3027: real time    5.3175

 eigenvalue-minimisations  :  3684
 total energy-change (2. order) : 0.6500657E-02  (-0.9788863E-03)
 number of electron     503.9998361 magnetization 
 augmentation part      197.0933169 magnetization 

 DIPCOR: dipole corrections for dipol
 direction  3 min pos     1,
 dipolmoment           0.000000      0.000000     -0.013645 electrons x Angstroem
 Tr[quadrupol]    -10276.771262

 energy correction for charged system         0.000000 eV
 dipol+quadrupol energy correction           -0.000007 eV
 added-field ion interaction          0.002160 eV  (added to PSCEN)


 Broyden mixing:
  rms(total) = 0.55069E-01    rms(broyden)= 0.55056E-01
  rms(prec ) = 0.60733E-01
  weight for this iteration     100.00

 eigenvalues of (default mixing * dielectric matrix)
  average eigenvalue GAMMA=   0.7222
  2.1852  2.1852  1.3738  0.6897  0.6897  0.5421  0.4430  0.4430  0.3310  0.3310
  0.2492  0.2492  0.2170  0.1810

 Free energy of the ion-electron system (eV)
  ---------------------------------------------------
  alpha Z        PSCENC =       805.87151751
  Ewald energy   TEWEN  =    199926.47811426
  -Hartree energ DENC   =   -242081.06030570
  -exchange      EXHF   =         0.00000000
  -V(xc)+E(xc)   XCENC  =      -343.70623298
  PAW double counting   =     49307.33462199   -47385.78746411
  entropy T*S    EENTRO =        -0.27612441
  eigenvalues    EBANDS =     -2077.73962398
  atomic energy  EATOM  =     41659.78587232
  Solvation  Ediel_sol  =         0.00000000
  ---------------------------------------------------
  free energy    TOTEN  =      -189.09962510 eV

  energy without entropy =     -188.82350069  energy(sigma->0) =     -188.96156290


--------------------------------------------------------------------------------------------------------




----------------------------------------- Iteration    1(  20)  ---------------------------------------


    POTLOK:  cpu time    0.0400: real time    0.0417
    SETDIJ:  cpu time    0.0051: real time    0.0053
    EDDIAG:  cpu time    1.2820: real time    1.2860
  RMM-DIIS:  cpu time    3.4549: real time    3.4633
    ORTHCH:  cpu time    0.3466: real time    0.3475
       DOS:  cpu time    0.0014: real time    0.0014
    CHARGE:  cpu time    0.2157: real time    0.2162
    MIXING:  cpu time    0.0035: real time    0.0035
    --------------------------------------------
      LOOP:  cpu time    5.3497: real time    5.3681

 eigenvalue-minimisations  :  3681
 total energy-change (2. order) : 0.1037568E-02  (-0.3487852E-03)
 number of electron     503.9998361 magnetization 
 augmentation part      197.0850145 magnetization 

 DIPCOR: dipole corrections for dipol
 direction  3 min pos     1,
 dipolmoment           0.000000      0.000000     -0.014337 electrons x Angstroem
 Tr[quadrupol]    -10276.860036

 energy correction for charged system         0.000000 eV
 dipol+quadrupol energy correction           -0.000007 eV
 added-field ion interaction          0.002269 eV  (added to PSCEN)


 Broyden mixing:
  rms(total) = 0.45215E-01    rms(broyden)= 0.45208E-01
  rms(prec ) = 0.50963E-01
  weight for this iteration     100.00

 eigenvalues of (default mixing * dielectric matrix)
  average eigenvalue GAMMA=   0.7170
  2.1470  2.1470  1.4484  0.8302  0.8302  0.4829  0.4829  0.5050  0.3655  0.3655
  0.2564  0.2564  0.2452  0.2119  0.1809

 Free energy of the ion-electron system (eV)
  ---------------------------------------------------
  alpha Z        PSCENC =       805.87162628
  Ewald energy   TEWEN  =    199926.47811426
  -Hartree energ DENC   =   -242084.61104387
  -exchange      EXHF   =         0.00000000
  -V(xc)+E(xc)   XCENC  =      -343.69726550
  PAW double counting   =     49312.25308070   -47390.72481586
  entropy T*S    EENTRO =        -0.27628507
  eigenvalues    EBANDS =     -2074.17787079
  atomic energy  EATOM  =     41659.78587232
  Solvation  Ediel_sol  =         0.00000000
  ---------------------------------------------------
  free energy    TOTEN  =      -189.09858753 eV

  energy without entropy =     -188.82230246  energy(sigma->0) =     -188.96044500


--------------------------------------------------------------------------------------------------------




----------------------------------------- Iteration    1(  21)  ---------------------------------------


    POTLOK:  cpu time    0.0405: real time    0.0410
    SETDIJ:  cpu time    0.0052: real time    0.0052
    EDDIAG:  cpu time    1.2752: real time    1.2792
  RMM-DIIS:  cpu time    3.4098: real time    3.4385
    ORTHCH:  cpu time    0.3431: real time    0.3487
       DOS:  cpu time    0.0014: real time    0.0014
    CHARGE:  cpu time    0.2169: real time    0.2186
    MIXING:  cpu time    0.0039: real time    0.0039
    --------------------------------------------
      LOOP:  cpu time    5.2967: real time    5.3394

 eigenvalue-minimisations  :  3681
 total energy-change (2. order) : 0.1525346E-02  (-0.2213227E-03)
 number of electron     503.9998361 magnetization 
 augmentation part      197.0752731 magnetization 

 DIPCOR: dipole corrections for dipol
 direction  3 min pos     1,
 dipolmoment           0.000000      0.000000     -0.014154 electrons x Angstroem
 Tr[quadrupol]    -10276.937533

 energy correction for charged system         0.000000 eV
 dipol+quadrupol energy correction           -0.000007 eV
 added-field ion interaction          0.002240 eV  (added to PSCEN)


 Broyden mixing:
  rms(total) = 0.30836E-01    rms(broyden)= 0.30831E-01
  rms(prec ) = 0.34364E-01
  weight for this iteration     100.00

 eigenvalues of (default mixing * dielectric matrix)
  average eigenvalue GAMMA=   0.7714
  2.2542  2.0706  2.0706  1.0761  0.9846  0.5791  0.5791  0.4349  0.4349  0.3919
  0.3125  0.2575  0.2575  0.2457  0.2120  0.1807

 Free energy of the ion-electron system (eV)
  ---------------------------------------------------
  alpha Z        PSCENC =       805.87159756
  Ewald energy   TEWEN  =    199926.47811426
  -Hartree energ DENC   =   -242087.95649667
  -exchange      EXHF   =         0.00000000
  -V(xc)+E(xc)   XCENC  =      -343.68096756
  PAW double counting   =     49314.43762838   -47392.87332496
  entropy T*S    EENTRO =        -0.27598430
  eigenvalues    EBANDS =     -2070.88350121
  atomic energy  EATOM  =     41659.78587232
  Solvation  Ediel_sol  =         0.00000000
  ---------------------------------------------------
  free energy    TOTEN  =      -189.09706218 eV

  energy without entropy =     -188.82107788  energy(sigma->0) =     -188.95907003


--------------------------------------------------------------------------------------------------------




----------------------------------------- Iteration    1(  22)  ---------------------------------------


    POTLOK:  cpu time    0.0400: real time    0.0420
    SETDIJ:  cpu time    0.0052: real time    0.0052
    EDDIAG:  cpu time    1.2803: real time    1.2878
  RMM-DIIS:  cpu time    3.4259: real time    3.4371
    ORTHCH:  cpu time    0.3460: real time    0.3468
       DOS:  cpu time    0.0014: real time    0.0014
    CHARGE:  cpu time    0.2191: real time    0.2197
    MIXING:  cpu time    0.0039: real time    0.0039
    --------------------------------------------
      LOOP:  cpu time    5.3224: real time    5.3476

 eigenvalue-minimisations  :  3680
 total energy-change (2. order) : 0.6277104E-03  (-0.1485100E-03)
 number of electron     503.9998361 magnetization 
 augmentation part      197.0558998 magnetization 

 DIPCOR: dipole corrections for dipol
 direction  3 min pos     1,
 dipolmoment           0.000000      0.000000     -0.014190 electrons x Angstroem
 Tr[quadrupol]    -10277.112727

 energy correction for charged system         0.000000 eV
 dipol+quadrupol energy correction           -0.000007 eV
 added-field ion interaction          0.002246 eV  (added to PSCEN)


 Broyden mixing:
  rms(total) = 0.23354E-01    rms(broyden)= 0.23350E-01
  rms(prec ) = 0.27835E-01
  weight for this iteration     100.00

 eigenvalues of (default mixing * dielectric matrix)
  average eigenvalue GAMMA=   0.7672
  2.3109  2.1873  2.1873  1.0983  1.0184  0.5847  0.5847  0.4245  0.4245  0.4369
  0.3253  0.3253  0.2528  0.2528  0.2383  0.2101  0.1806

 Free energy of the ion-electron system (eV)
  ---------------------------------------------------
  alpha Z        PSCENC =       805.87160323
  Ewald energy   TEWEN  =    199926.47811426
  -Hartree energ DENC   =   -242095.27594310
  -exchange      EXHF   =         0.00000000
  -V(xc)+E(xc)   XCENC  =      -343.64641887
  PAW double counting   =     49318.42506568   -47396.79410046
  entropy T*S    EENTRO =        -0.27632434
  eigenvalues    EBANDS =     -2063.66430319
  atomic energy  EATOM  =     41659.78587232
  Solvation  Ediel_sol  =         0.00000000
  ---------------------------------------------------
  free energy    TOTEN  =      -189.09643447 eV

  energy without entropy =     -188.82011013  energy(sigma->0) =     -188.95827230


--------------------------------------------------------------------------------------------------------




----------------------------------------- Iteration    1(  23)  ---------------------------------------


    POTLOK:  cpu time    0.0407: real time    0.0408
    SETDIJ:  cpu time    0.0052: real time    0.0052
    EDDIAG:  cpu time    1.2751: real time    1.2782
  RMM-DIIS:  cpu time    3.4175: real time    3.4257
    ORTHCH:  cpu time    0.3493: real time    0.3502
       DOS:  cpu time    0.0014: real time    0.0014
    CHARGE:  cpu time    0.2138: real time    0.2143
    MIXING:  cpu time    0.0041: real time    0.0041
    --------------------------------------------
      LOOP:  cpu time    5.3078: real time    5.3226

 eigenvalue-minimisations  :  3684
 total energy-change (2. order) : 0.4101624E-03  (-0.5265824E-04)
 number of electron     503.9998361 magnetization 
 augmentation part      197.0480391 magnetization 

 DIPCOR: dipole corrections for dipol
 direction  3 min pos     1,
 dipolmoment           0.000000      0.000000     -0.013703 electrons x Angstroem
 Tr[quadrupol]    -10277.183782

 energy correction for charged system         0.000000 eV
 dipol+quadrupol energy correction           -0.000007 eV
[...]
    275       1.7327      0.00000
    276       1.8423      0.00000
    277       2.1702      0.00000
    278       2.2148      0.00000
    279       2.3649      0.00000
    280       2.4227      0.00000
    281       2.4626      0.00000
    282       2.5283      0.00000
    283       2.6618      0.00000
    284       2.9551      0.00000
    285       3.1251      0.00000
    286       3.2518      0.00000
    287       3.5447      0.00000
    288       3.5799      0.00000
    289       3.8101      0.00000
    290       4.0130      0.00000
    291       4.1147      0.00000
    292       4.1907      0.00000
    293       4.4290      0.00000
    294       4.5576      0.00000
    295       4.6056      0.00000
    296       4.6415      0.00000
    297       4.6955      0.00000
    298       4.7802      0.00000
    299       4.8996      0.00000
    300       4.9160      0.00000
    301       4.9705      0.00000
    302       5.0251      0.00000
    303       5.0620      0.00000
    304       5.0850      0.00000
    305       5.1570      0.00000
    306       5.2444      0.00000


--------------------------------------------------------------------------------------------------------


 soft charge-density along one line, spin component           1
         0         1         2         3         4         5         6         7         8         9
 total charge-density along one line
 
 pseudopotential strength for first ion, spin component:           1
 -8.010   0.002   0.000  -0.006  -0.001  -8.158   0.002   0.000
  0.002  -7.929   0.000  -0.000   0.003   0.002  -8.078   0.000
  0.000   0.000  -7.923  -0.000   0.001   0.000   0.000  -8.073
 -0.006  -0.000  -0.000  -7.932   0.004  -0.006  -0.000  -0.000
 -0.001   0.003   0.001   0.004  -8.010  -0.001   0.003   0.001
 -8.158   0.002   0.000  -0.006  -0.001  -8.289   0.002   0.000
  0.002  -8.078   0.000  -0.000   0.003   0.002  -8.211   0.000
  0.000   0.000  -8.073  -0.000   0.001   0.000   0.000  -8.206
 -0.006  -0.000  -0.000  -8.081   0.004  -0.005  -0.000  -0.000
 -0.001   0.003   0.001   0.004  -8.157  -0.001   0.003   0.001
  0.000   0.002  -0.026  -0.002   0.001   0.000   0.002  -0.026
  0.000   0.003  -0.037  -0.002   0.001   0.000   0.003  -0.037
  0.004  -0.005   0.003   0.000   0.004   0.004  -0.005   0.003
  0.000  -0.004  -0.008   0.004  -0.000   0.000  -0.004  -0.007
 -0.004   0.000  -0.002  -0.005   0.004  -0.004   0.000  -0.002
  0.005  -0.005   0.003   0.000   0.005   0.004  -0.005   0.003
  0.000  -0.004  -0.008   0.005   0.000   0.000  -0.004  -0.008
 -0.005   0.000  -0.003  -0.005   0.005  -0.005   0.000  -0.003
 total augmentation occupancy for first ion, spin component:           1
  4.261  -0.008   0.027   0.045  -0.051  -2.444   0.013  -0.023  -0.089   0.034  -0.014   0.012   0.023  -0.008   0.006   0.003
 -0.008   4.028   0.095   0.035   0.073   0.013  -1.765  -0.064  -0.032  -0.069  -0.086   0.027  -0.154  -0.026  -0.006   0.002
  0.027   0.095   4.376   0.050   0.014  -0.023  -0.064  -2.256  -0.062  -0.006   1.014  -0.128  -0.039  -0.217   0.008   0.005
  0.045   0.035   0.050   4.090   0.028  -0.088  -0.032  -0.062  -1.832   0.007   0.042   0.014  -0.005  -0.006  -0.162   0.000
 -0.051   0.073   0.014   0.028   4.311   0.034  -0.069  -0.006   0.008  -2.490  -0.030   0.008  -0.052  -0.004  -0.040   0.007
 -2.444   0.013  -0.023  -0.088   0.034   2.508  -0.016   0.020   0.121  -0.022   0.010  -0.011  -0.023   0.007   0.003   0.000
  0.013  -1.765  -0.064  -0.032  -0.069  -0.016   1.475   0.040   0.029   0.066   0.074  -0.025   0.147   0.022   0.005  -0.005
 -0.023  -0.064  -2.256  -0.062  -0.006   0.020   0.040   2.083   0.071  -0.000  -0.939   0.143   0.027   0.222  -0.005  -0.002
 -0.089  -0.032  -0.062  -1.832   0.008   0.121   0.029   0.071   1.545  -0.034  -0.040  -0.010   0.005   0.002   0.152  -0.000
  0.034  -0.069  -0.006   0.007  -2.490  -0.022   0.066  -0.000  -0.034   2.552   0.028  -0.008   0.041   0.003   0.029  -0.003
 -0.014  -0.086   1.014   0.042  -0.030   0.010   0.074  -0.939  -0.040   0.028   2.393  -0.496  -0.008   0.118   0.003   0.000
  0.012   0.027  -0.128   0.014   0.008  -0.011  -0.025   0.143  -0.010  -0.008  -0.496   0.145   0.019  -0.052  -0.014  -0.001
  0.023  -0.154  -0.039  -0.005  -0.052  -0.023   0.147   0.027   0.005   0.041  -0.008   0.019   0.184   0.004   0.001  -0.006
 -0.008  -0.026  -0.217  -0.006  -0.004   0.007   0.022   0.222   0.002   0.003   0.118  -0.052   0.004   0.088  -0.004  -0.000
  0.006  -0.006   0.008  -0.162  -0.040   0.003   0.005  -0.005   0.152   0.029   0.003  -0.014   0.001  -0.004   0.187  -0.000
  0.003   0.002   0.005   0.000   0.007   0.000  -0.005  -0.002  -0.000  -0.003   0.000  -0.001  -0.006  -0.000  -0.000   0.000
  0.000  -0.004  -0.002   0.005   0.000  -0.000   0.000  -0.005  -0.002  -0.000  -0.008   0.002  -0.000  -0.003   0.000   0.000
 -0.005   0.000  -0.002   0.003   0.006   0.001  -0.000   0.000  -0.006  -0.003  -0.000   0.001  -0.000   0.000  -0.006   0.000


------------------------ aborting loop because EDIFF is reached ----------------------------------------


    CHARGE:  cpu time    0.2089: real time    0.2096
    FORLOC:  cpu time    0.0159: real time    0.0159
    FORNL :  cpu time    1.3052: real time    1.3093
    FORCOR:  cpu time    0.0556: real time    0.0558
    FORHAR:  cpu time    0.0241: real time    0.0242
    MIXING:  cpu time    0.0025: real time    0.0025
    OFIELD:  cpu time    0.0000: real time    0.0000

 VOLUME and BASIS-vectors are now :
 -----------------------------------------------------------------------------
  energy-cutoff  :      400.00
  volume of cell :     2567.68
      direct lattice vectors                 reciprocal lattice vectors
    11.002581515  0.000000000  0.000000000     0.090887761 -0.052474073  0.000000000
     5.501290758  9.528515099  0.000000000     0.000000000  0.104948147  0.000000000
     0.000000000  0.000000000 24.491785094     0.000000000  0.000000000  0.040830017

  length of vectors
    11.002581515 11.002581515 24.491785094     0.104948147  0.104948147  0.040830017


 FORCES acting on ions
    electron-ion (+dipol)            ewald-force                    non-local-force                 convergence-correction
 -----------------------------------------------------------------------------------------------
   0.150E+02 -.100E+02 0.227E+04   -.157E+02 0.109E+02 -.227E+04   0.721E+00 -.856E+00 -.224E+00   -.145E-02 0.175E-01 -.851E-02
   -.111E+02 0.131E+02 0.229E+04   0.110E+02 -.137E+02 -.229E+04   0.683E-02 0.546E+00 -.363E+00   -.399E-05 -.321E-02 -.512E-02
   -.898E+01 0.268E+01 -.226E+04   0.885E+01 -.282E+01 0.226E+04   0.142E+00 0.141E+00 0.201E+00   -.244E-02 -.631E-02 0.135E-01
   0.695E+01 0.100E+01 -.147E+02   -.657E+01 -.134E+01 0.136E+02   -.378E+00 0.341E+00 0.109E+01   -.351E-02 0.552E-03 -.535E-02
   -.659E+01 0.818E+01 0.228E+04   0.657E+01 -.869E+01 -.228E+04   -.480E-02 0.511E+00 -.365E+00   0.161E-01 -.702E-02 -.274E-02
   -.200E+02 -.346E+01 -.230E+04   0.203E+02 0.329E+01 0.230E+04   -.318E+00 0.168E+00 -.868E-01   0.799E-02 0.164E-02 0.149E-01
   0.820E+01 -.224E+01 -.582E+01   -.774E+01 0.270E+01 0.535E+01   -.476E+00 -.447E+00 0.472E+00   0.135E-01 -.149E-01 -.359E-02
   0.223E+01 0.152E+02 -.224E+04   -.216E+01 -.158E+02 0.224E+04   -.952E-01 0.620E+00 -.110E+00   0.217E-01 -.139E-01 0.258E-01
   0.734E+01 0.420E+01 0.113E+02   -.675E+01 -.355E+01 -.107E+02   -.597E+00 -.650E+00 -.589E+00   0.106E-01 -.286E-02 0.629E-03
   -.180E+02 -.128E+02 0.230E+04   0.193E+02 0.128E+02 -.230E+04   -.134E+01 -.205E-01 0.289E-01   0.885E-02 -.497E-02 -.103E-01
   0.115E+02 -.731E+01 0.404E+02   -.111E+02 0.714E+01 -.399E+02   -.399E+00 0.184E+00 -.482E+00   0.456E-02 -.917E-02 0.173E-01
   0.134E+02 0.165E+02 0.226E+04   -.133E+02 -.171E+02 -.226E+04   -.774E-01 0.636E+00 -.125E+00   -.921E-03 -.469E-02 0.845E-02
   -.628E+00 0.527E+01 -.226E+04   0.982E+00 -.605E+01 0.226E+04   -.343E+00 0.787E+00 0.262E+00   -.803E-02 -.514E-02 -.136E-01
   -.109E+01 -.515E+01 -.486E+02   0.111E+01 0.480E+01 0.475E+02   -.150E-01 0.355E+00 0.105E+01   -.101E-01 -.827E-02 0.931E-02
   0.100E+02 0.205E+02 -.228E+04   -.102E+02 -.206E+02 0.228E+04   0.192E+00 0.170E-01 0.580E-02   -.176E-02 0.420E-02 0.220E-01
   -.173E+02 -.198E+02 -.226E+04   0.182E+02 0.203E+02 0.226E+04   -.901E+00 -.544E+00 0.263E-01   0.846E-02 0.555E-02 0.111E-01
   0.245E+02 0.222E+01 -.225E+04   -.257E+02 -.241E+01 0.225E+04   0.118E+01 0.180E+00 0.328E+00   -.126E-02 0.281E-02 -.716E-02
   -.465E+01 -.233E+02 0.222E+04   0.461E+01 0.244E+02 -.222E+04   0.596E-01 -.111E+01 -.172E-01   -.748E-02 -.476E-03 -.102E-01
   -.874E+01 0.475E+01 0.297E+02   0.816E+01 -.469E+01 -.292E+02   0.585E+00 -.898E-01 -.537E+00   0.825E-03 0.185E-01 -.528E-02
   0.216E+01 -.151E+02 0.227E+04   -.245E+01 0.153E+02 -.227E+04   0.284E+00 -.198E+00 -.197E+00   0.408E-02 0.149E-01 0.135E-02
   0.155E+02 -.135E+02 -.229E+04   -.161E+02 0.142E+02 0.229E+04   0.687E+00 -.687E+00 -.332E-01   -.208E-01 0.861E-02 0.993E-03
   0.115E+02 0.129E+02 0.224E+04   -.123E+02 -.129E+02 -.224E+04   0.791E+00 -.387E-01 -.462E+00   -.140E-01 -.103E-01 -.168E-01
   -.375E+01 0.399E+01 -.522E+01   0.359E+01 -.423E+01 0.469E+01   0.181E+00 0.243E+00 0.534E+00   -.157E-01 -.312E-02 -.200E-02
   -.895E+01 -.100E+02 -.221E+04   0.912E+01 0.105E+02 0.221E+04   -.167E+00 -.494E+00 0.663E+00   -.600E-02 -.286E-02 0.202E-01
   0.311E+01 -.782E+00 0.156E+01   -.283E+01 0.762E+00 -.163E+01   -.287E+00 0.229E-01 0.663E-01   -.676E-02 -.604E-02 0.297E-02
   0.975E+01 0.512E+00 -.196E+04   -.981E+01 -.334E+00 0.196E+04   0.693E-01 -.178E+00 0.163E+01   -.121E-01 -.322E-02 0.195E-01
   0.610E+01 0.156E+01 0.199E+04   -.620E+01 -.172E+01 -.199E+04   0.108E+00 0.153E+00 -.168E+01   -.192E-02 0.479E-02 0.207E-02
   -.268E+01 -.149E+02 0.197E+04   0.243E+01 0.153E+02 -.196E+04   0.253E+00 -.351E+00 -.168E+01   -.964E-02 0.771E-02 -.991E-03
   -.540E+01 0.289E+01 -.519E+02   0.530E+01 -.277E+01 0.511E+02   0.115E+00 -.110E+00 0.883E+00   -.996E-02 -.793E-03 -.329E-02
   -.187E+01 0.304E+01 0.254E+01   0.167E+01 -.320E+01 -.293E+01   0.207E+00 0.139E+00 0.390E+00   -.586E-02 0.154E-01 0.709E-03
   -.171E+01 -.386E+01 0.632E+02   0.145E+01 0.382E+01 -.624E+02   0.242E+00 0.495E-01 -.805E+00   0.191E-01 -.306E-02 0.161E-01
   -.437E+01 -.806E+01 -.195E+04   0.474E+01 0.828E+01 0.195E+04   -.379E+00 -.228E+00 0.165E+01   0.845E-02 0.878E-02 -.646E-02
   -.181E+02 0.510E+01 0.199E+04   0.185E+02 -.485E+01 -.198E+04   -.458E+00 -.252E+00 -.137E+01   -.335E-02 -.818E-03 0.110E-02
   0.125E+01 -.616E+01 0.196E+04   -.139E+01 0.642E+01 -.196E+04   0.146E+00 -.267E+00 -.191E+01   -.715E-02 0.469E-02 -.785E-02
   -.161E+02 -.860E+01 -.194E+04   0.163E+02 0.868E+01 0.194E+04   -.189E+00 -.860E-01 0.165E+01   0.130E-01 0.584E-02 0.126E-01
   -.662E+01 0.346E+01 0.196E+04   0.651E+01 -.372E+01 -.196E+04   0.114E+00 0.256E+00 -.156E+01   -.121E-01 0.704E-02 -.394E-02
   -.483E+01 -.346E+01 0.204E+02   0.470E+01 0.317E+01 -.204E+02   0.127E+00 0.279E+00 -.282E-01   0.124E-01 0.175E-01 -.306E-02
   0.386E+01 0.669E+00 -.195E+04   -.402E+01 -.674E+00 0.195E+04   0.158E+00 -.342E-02 0.162E+01   0.243E-02 0.903E-02 0.173E-01
   0.105E+02 0.186E+02 0.201E+04   -.106E+02 -.189E+02 -.201E+04   0.861E-01 0.311E+00 -.157E+01   0.114E-01 -.792E-02 -.312E-02
   -.563E+01 0.158E+02 -.197E+04   0.592E+01 -.158E+02 0.197E+04   -.295E+00 -.689E-04 0.172E+01   0.459E-02 -.147E-01 -.119E-01
   0.406E+01 -.313E+01 -.387E+02   -.415E+01 0.266E+01 0.383E+02   0.894E-01 0.477E+00 0.447E+00   -.132E-02 -.254E-02 -.187E-01
   0.689E+00 -.686E+01 0.197E+04   -.354E+00 0.690E+01 -.197E+04   -.337E+00 -.289E-01 -.184E+01   0.245E-02 -.947E-02 -.111E-01
   -.708E+01 0.714E+01 -.129E+02   0.704E+01 -.631E+01 0.125E+02   0.578E-01 -.834E+00 0.419E+00   -.203E-01 0.353E-02 -.326E-02
   0.159E+01 0.415E+01 0.361E+02   -.148E+01 -.371E+01 -.355E+02   -.109E+00 -.453E+00 -.643E+00   0.177E-02 -.743E-03 -.662E-02
   0.510E+01 0.120E+02 0.196E+04   -.485E+01 -.125E+02 -.196E+04   -.246E+00 0.501E+00 -.164E+01   -.278E-02 -.520E-02 -.235E-01
   -.549E+01 0.355E+01 -.192E+04   0.540E+01 -.369E+01 0.192E+04   0.101E+00 0.157E+00 0.162E+01   -.850E-03 -.667E-02 0.343E-01
   -.229E+01 -.548E+01 0.596E+02   0.194E+01 0.508E+01 -.588E+02   0.332E+00 0.417E+00 -.887E+00   0.176E-01 -.820E-02 0.138E-01
   0.176E+02 -.474E+01 -.196E+04   -.180E+02 0.447E+01 0.196E+04   0.400E+00 0.259E+00 0.154E+01   -.220E-02 0.126E-01 -.289E-02
 -----------------------------------------------------------------------------------------------
   -.129E-01 0.140E+00 0.855E+00   -.398E-12 0.234E-12 -.136E-11   0.296E-01 -.177E+00 -.910E+00   0.830E-04 0.472E-02 0.689E-01
 
 
 POSITION                                       TOTAL-FORCE (eV/Angst)
 -----------------------------------------------------------------------------------
      1.34394      0.82936      9.70215         0.001864     -0.002193     -0.004765
     12.38314      5.53568      9.70169        -0.002569     -0.003422      0.004050
      9.61654      2.37032     14.76319         0.002483     -0.001029      0.001726
      9.64364      3.95786     12.25126        -0.000680      0.003648     -0.003177
     11.00919      7.92492      9.67252        -0.002190      0.000043      0.005134
      8.26483      4.75501     14.84348        -0.011092      0.001549     -0.004909
      8.27673      6.36845     12.24589        -0.003941      0.002292     -0.000513
      5.49465     -0.03246     14.72871        -0.002201      0.004310      0.001017
      5.52114      1.60862     12.24627        -0.000430     -0.002120      0.003173
      6.92514      0.81636      9.65972        -0.001943     -0.001614      0.004315
     12.39151      8.74295     12.20855        -0.004518      0.002977     -0.001200
      8.24103      7.92649      9.70595        -0.003844     -0.002694     -0.010786
      5.49947      4.74153     14.81974         0.002041     -0.003661      0.003866
      5.51029      6.34937     12.29095        -0.004457     -0.001524      0.000820
      4.10407      2.35544     14.81270        -0.002577      0.000629     -0.007244
      6.90003      7.15906     14.80011        -0.002375      0.002482      0.004270
      2.70629      4.75316     14.76162         0.009583     -0.003351      0.007003
      5.50783      3.21780      9.78183         0.008053      0.003924     -0.003832
      2.73961      1.59233     12.22025         0.003272     -0.003067      0.000489
      4.12864      0.81469      9.66937         0.004068     -0.005585     -0.002250
      4.08986      7.16267     14.83614        -0.001822      0.004026      0.000093
      5.46890      7.93764      9.77106        -0.000451      0.003389     -0.006859
     13.75499      6.34381     12.25036         0.001292      0.001174      0.000272
      0.00438      0.00693     14.70133        -0.001321     -0.007122      0.005977
      8.26749      1.59159     12.24884        -0.005563     -0.002364     -0.000995
      8.23456     -0.00483     14.60486        -0.000555     -0.002125     -0.000571
     10.98494      3.18046      9.87480         0.002279      0.001609     -0.006797
      2.74522      3.19204      9.88013        -0.000897     -0.000485      0.001053
      4.12870      3.96309     12.31126         0.004637      0.002144      0.003196
     10.99749      1.57044     12.24464         0.004252     -0.002712     -0.002887
     11.01501      6.35661     12.17249         0.005545      0.004078      0.001983
     11.00021      4.77506     14.58531        -0.000019     -0.002846      0.001452
     13.76040      7.94612      9.85280        -0.000041     -0.006019      0.003597
      9.62364      0.81028      9.90170        -0.001895      0.001044     -0.003290
      9.63701      7.13763     14.57369         0.000095      0.002231      0.003296
      4.12410      5.55370      9.91390        -0.003715      0.001508     -0.003881
     12.38044      3.97363     12.22332         0.002278      0.002821     -0.000245
      1.36102      2.37934     14.59179        -0.001153      0.001306     -0.002686
      9.61676      5.53656      9.83279         0.004420      0.002392      0.001331
      6.87271      2.36247     14.64863        -0.003090     -0.003288      0.006644
      6.88623      3.96369     12.29391        -0.001895      0.005409      0.005471
      8.27340      3.19301      9.89865        -0.000341      0.002504      0.002999
     15.15184      8.75629     12.26129         0.001381     -0.006406      0.001177
      6.87806      8.74532     12.20925        -0.000032     -0.005820     -0.003118
      6.88144      5.55181      9.90726         0.005356     -0.003535      0.002695
      2.75162     -0.01174     14.55369         0.003247      0.007147     -0.000276
      9.63768      8.73609     12.17868        -0.003657      0.008162     -0.005970
     12.34940      7.13070     14.59437         0.003117      0.000181     -0.000847
 -----------------------------------------------------------------------------------
    total drift:                                0.016832     -0.032826      0.014044


--------------------------------------------------------------------------------------------------------



  FREE ENERGIE OF THE ION-ELECTRON SYSTEM (eV)
  ---------------------------------------------------
  free  energy   TOTEN  =      -192.70894256 eV

  energy  without entropy=     -192.45208338  energy(sigma->0) =     -192.58051297
 
 d Force = 0.2515784E-03[ 0.120E-03, 0.383E-03]  d Energy = 0.2511399E-03 0.438E-06
 d Force = 0.1280296E+02[ 0.128E+02, 0.128E+02]  d Ewald  = 0.1280296E+02 0.110E-07


--------------------------------------------------------------------------------------------------------


    POTLOK:  cpu time    0.0483: real time    0.0485


--------------------------------------------------------------------------------------------------------


 stress matrix after NEB project (eV)
      0.00000      0.00000      0.00000
      0.00000      0.00000      0.00000
      0.00000      0.00000      0.00000
  FORCES: max atom, RMS     0.012333    0.006501
  FORCE total and by dimension    0.045043    0.011092
  Stress total and by dimension    0.000000    0.000000
 Conjugate gradient step on ions:
 trial-energy change:   -0.000251  1 .order   -0.000252   -0.000383   -0.000120
  (g-gl).g = 0.224E-03      g.g   = 0.182E-03  gl.gl    = 0.479E-03
 g(Force)  = 0.182E-03   g(Stress)= 0.000E+00 ortho     =-0.330E-04
 gamma     =   0.46859
 trial     =   2.29415
 opt step  =   3.34683  (harmonic =   3.34683) maximal distance =0.00360797
 next E    =  -192.708971   (d E  =  -0.00028)


--------------------------------------------------------------------------------------------------------


  
 reached required accuracy - stopping structural energy minimisation
     LOOP+:  cpu time   45.6316: real time   45.8533
    4ORBIT:  cpu time    0.0000: real time    0.0000

 total amount of memory used by VASP on root node    84353. kBytes
========================================================================

   base      :      30000. kBytes
   nonlr-proj:       4285. kBytes
   fftplans  :       4447. kBytes
   grid      :       6721. kBytes
   one-center:        124. kBytes
   wavefun   :      38776. kBytes
 
  
  
 General timing and accounting informations for this job:
 ========================================================
  
                  Total CPU time used (sec):     2037.607
                            User time (sec):     1946.749
                          System time (sec):       90.858
                         Elapsed time (sec):     2049.303
  
                   Maximum memory used (kb):     1024988.
                   Average memory used (kb):           0.
  
                          Minor page faults:      1012567
                          Major page faults:            0
                 Voluntary context switches:        11965
