<?xml version="1.0" encoding="ISO-8859-1"?>
<modeling>
 <generator>
  <i name="program" type="string">vasp </i>
  <i name="version" type="string">5.4.1  </i>
  <i name="subversion" type="string">24Jun15 (build Mar 14 2019 10:18:33) complex                          parallel </i>
  <i name="platform" type="string">INTEL-19.0.2+OPENMPI-3.1.3 </i>
  <i name="date" type="string">2022 07 15 </i>
  <i name="time" type="string">17:11:57 </i>
 </generator>
 <incar>
  <i type="int" name="ISTART">     0</i>
  <i type="string" name="PREC">normal</i>
  <i type="string" name="ALGO"> Fast</i>
  <i type="int" name="NELM">   500</i>
  <i type="int" name="IBRION">     2</i>
  <i type="int" name="NFREE">     2</i>
  <i name="EDIFF">      0.00000100</i>
  <i name="EDIFFG">     -0.02000000</i>
  <i type="int" name="NSW">   500</i>
  <i type="int" name="ISIF">     0</i>
  <i type="int" name="ISYM">     2</i>
  <i name="ENCUT">    400.00000000</i>
  <i name="POTIM">      0.35000000</i>
  <i type="string" name="LREAL"> Auto</i>
  <i type="logical" name="LPLANE"> T  </i>
  <i type="int" name="ISMEAR">     0</i>
  <i name="SIGMA">      0.10000000</i>
  <i type="int" name="NWRITE">     1</i>
  <i type="logical" name="LWAVE"> F  </i>
  <i type="logical" name="LCHARG"> F  </i>
  <i type="logical" name="LVTOT"> F  </i>
  <i type="logical" name="LORBIT"> F  </i>
  <i type="logical" name="LAECHG"> F  </i>
  <v type="int" name="KPOINT_BSE">    -1     0     0     0</v>
  <i type="int" name="NELM">   500</i>
  <i type="string" name="GGA"> PE          ! optPBE-vdW XC-functional</i>
  <i type="int" name="VOSKOWN">     1</i>
  <i type="logical" name="LDIPOL"> T  </i>
  <i type="logical" name="LMONO"> F  </i>
  <i type="int" name="IDIPOL">     3</i>
  <v name="DIPOL">      0.00000000      0.00000000      0.50000000</v>
 </incar>
 <kpoints>
  <generation param="Monkhorst-Pack">
   <v type="int" name="divisions">       2        2        1 </v>
   <v name="usershift">      0.00000000       0.00000000       0.00000000 </v>
   <v name="genvec1">      0.50000000      -0.00000000       0.00000000 </v>
   <v name="genvec2">      0.00000000       0.50000000       0.00000000 </v>
   <v name="genvec3">      0.00000000       0.00000000       1.00000000 </v>
   <v name="shift">      0.50000000       0.50000000       0.00000000 </v>
  </generation>
  <varray name="kpointlist" >
   <v>       0.25000000       0.25000000       0.00000000 </v>
   <v>       0.00000000       0.25000000       0.00000000 </v>
   <v>      -0.25000000       0.00000000       0.00000000 </v>
   <v>      -0.25000000       0.25000000       0.00000000 </v>
   <v>       0.50000000      -0.25000000       0.00000000 </v>
   <v>      -0.25000000       0.50000000       0.00000000 </v>
  </varray>
  <varray name="weights" >
   <v>       0.16666667 </v>
   <v>       0.16666667 </v>
   <v>       0.16666667 </v>
   <v>       0.16666667 </v>
   <v>       0.16666667 </v>
   <v>       0.16666667 </v>
  </varray>
 </kpoints>
 <parameters>
  <separator name="general" >
   <i type="string" name="SYSTEM">unknown system</i>
   <i type="logical" name="LCOMPAT"> F  </i>
  </separator>
  <separator name="electronic" >
   <i type="string" name="PREC">normal</i>
   <i name="ENMAX">    400.00000000</i>
   <i name="ENAUG">    416.23000000</i>
   <i name="EDIFF">      0.00000100</i>
   <i type="int" name="IALGO">    68</i>
   <i type="int" name="IWAVPR">    11</i>
   <i type="int" name="NBANDS">   306</i>
   <i name="NELECT">    504.00000000</i>
   <i type="int" name="TURBO">     0</i>
   <i type="int" name="IRESTART">     0</i>
   <i type="int" name="NREBOOT">     0</i>
   <i type="int" name="NMIN">     0</i>
   <i name="EREF">      0.00000000</i>
   <separator name="electronic smearing" >
    <i type="int" name="ISMEAR">     0</i>
    <i name="SIGMA">      0.10000000</i>
    <i name="KSPACING">      0.50000000</i>
    <i type="logical" name="KGAMMA"> T  </i>
   </separator>
   <separator name="electronic projectors" >
    <i type="logical" name="LREAL"> T  </i>
    <v name="ROPT">     -0.00050000     -0.00050000</v>
    <i type="int" name="LMAXPAW">  -100</i>
    <i type="int" name="LMAXMIX">     2</i>
    <i type="logical" name="NLSPLINE"> F  </i>
   </separator>
   <separator name="electronic startup" >
    <i type="int" name="ISTART">     0</i>
    <i type="int" name="ICHARG">     2</i>
    <i type="int" name="INIWAV">     1</i>
   </separator>
   <separator name="electronic spin" >
    <i type="int" name="ISPIN">     1</i>
    <i type="logical" name="LNONCOLLINEAR"> F  </i>
    <v name="MAGMOM">      1.00000000      1.00000000      1.00000000      1.00000000      1.00000000      1.00000000      1.00000000      1.00000000      1.00000000      1.00000000      1.00000000      1.00000000      1.00000000      1.00000000      1.00000000      1.00000000      1.00000000      1.00000000      1.00000000      1.00000000
      1.00000000      1.00000000      1.00000000      1.00000000      1.00000000      1.00000000      1.00000000      1.00000000      1.00000000      1.00000000      1.00000000      1.00000000      1.00000000      1.00000000      1.00000000      1.00000000      1.00000000      1.00000000      1.00000000      1.00000000
      1.00000000      1.00000000      1.00000000      1.00000000      1.00000000      1.00000000      1.00000000      1.00000000</v>
    <i name="NUPDOWN">     -1.00000000</i>
    <i type="logical" name="LSORBIT"> F  </i>
    <v name="SAXIS">      0.00000000      0.00000000      1.00000000</v>
    <i type="logical" name="LSPIRAL"> F  </i>
    <v name="QSPIRAL">      0.00000000      0.00000000      0.00000000</v>
    <i type="logical" name="LZEROZ"> F  </i>
   </separator>
   <separator name="electronic exchange-correlation" >
    <i type="logical" name="LASPH"> F  </i>
    <i type="logical" name="LMETAGGA"> F  </i>
   </separator>
   <separator name="electronic convergence" >
    <i type="int" name="NELM">   500</i>
    <i type="int" name="NELMDL">    -5</i>
    <i type="int" name="NELMIN">     2</i>
    <i name="ENINI">    400.00000000</i>
    <separator name="electronic convergence detail" >
     <i type="logical" name="LDIAG"> T  </i>
     <i type="logical" name="LSUBROT"> F  </i>
     <i name="WEIMIN">      0.00100000</i>
     <i name="EBREAK">      0.00000000</i>
     <i name="DEPER">      0.30000000</i>
     <i type="int" name="NRMM">     4</i>
     <i name="TIME">      0.40000000</i>
    </separator>
   </separator>
   <separator name="electronic mixer" >
    <i name="AMIX">      0.40000000</i>
    <i name="BMIX">      1.00000000</i>
    <i name="AMIN">      0.10000000</i>
    <i name="AMIX_MAG">      1.60000000</i>
    <i name="BMIX_MAG">      1.00000000</i>
    <separator name="electronic mixer details" >
     <i type="int" name="IMIX">     4</i>
     <i type="logical" name="MIXFIRST"> F  </i>
     <i type="int" name="MAXMIX">   -45</i>
     <i name="WC">    100.00000000</i>
     <i type="int" name="INIMIX">     1</i>
     <i type="int" name="MIXPRE">     1</i>
     <i type="int" name="MREMOVE">     5</i>
    </separator>
   </separator>
   <separator name="electronic dipolcorrection" >
    <i type="logical" name="LDIPOL"> T  </i>
    <i type="logical" name="LMONO"> F  </i>
    <i type="int" name="IDIPOL">     3</i>
    <i name="EPSILON">      1.00000000</i>
    <v name="DIPOL">      0.00000000      0.00000000      0.50000000</v>
    <i name="EFIELD">      0.00000000</i>
   </separator>
  </separator>
  <separator name="grids" >
   <i type="int" name="NGX">    54</i>
   <i type="int" name="NGY">    54</i>
   <i type="int" name="NGZ">   120</i>
   <i type="int" name="NGXF">   108</i>
   <i type="int" name="NGYF">   108</i>
   <i type="int" name="NGZF">   240</i>
   <i type="logical" name="ADDGRID"> F  </i>
  </separator>
  <separator name="ionic" >
   <i type="int" name="NSW">   500</i>
   <i type="int" name="IBRION">     2</i>
   <i type="int" name="ISIF">     0</i>
   <i name="PSTRESS">      0.00000000</i>
   <i name="EDIFFG">     -0.02000000</i>
   <i type="int" name="NFREE">     2</i>
   <i name="POTIM">      0.35000000</i>
   <i name="SMASS">     -3.00000000</i>
   <i name="SCALEE">      1.00000000</i>
  </separator>
  <separator name="ionic md" >
   <i name="TEBEG">      0.00010000</i>
   <i name="TEEND">      0.00010000</i>
   <i type="int" name="NBLOCK">     1</i>
   <i type="int" name="KBLOCK">   500</i>
   <i type="int" name="NPACO">   256</i>
   <i name="APACO">     16.00000000</i>
  </separator>
  <separator name="symmetry" >
   <i type="int" name="ISYM">     2</i>
   <i name="SYMPREC">      0.00001000</i>
  </separator>
  <separator name="dos" >
   <i type="logical" name="LORBIT"> F  </i>
   <v name="RWIGS">     -1.00000000     -1.00000000</v>
   <i type="int" name="NEDOS">   301</i>
   <i name="EMIN">     10.00000000</i>
   <i name="EMAX">    -10.00000000</i>
   <i name="EFERMI">      0.00000000</i>
  </separator>
  <separator name="writing" >
   <i type="int" name="NWRITE">     1</i>
   <i type="logical" name="LWAVE"> F  </i>
   <i type="logical" name="LCHARG"> F  </i>
   <i type="logical" name="LPARD"> F  </i>
   <i type="logical" name="LVTOT"> F  </i>
   <i type="logical" name="LVHAR"> F  </i>
   <i type="logical" name="LELF"> F  </i>
   <i type="logical" name="LOPTICS"> F  </i>
   <v name="STM">      0.00000000      0.00000000      0.00000000      0.00000000      0.00000000      0.00000000      0.00000000</v>
  </separator>
  <separator name="performance" >
   <i type="int" name="NPAR">     6</i>
   <i type="int" name="NSIM">     4</i>
   <i type="int" name="NBLK">    -1</i>
   <i type="logical" name="LPLANE"> T  </i>
   <i type="logical" name="LSCALAPACK"> T  </i>
   <i type="logical" name="LSCAAWARE"> F  </i>
   <i type="logical" name="LSCALU"> F  </i>
   <i type="logical" name="LASYNC"> F  </i>
   <i type="logical" name="LORBITALREAL"> F  </i>
  </separator>
  <separator name="miscellaneous" >
   <i type="int" name="IDIOT">     3</i>
   <i type="logical" name="LMUSIC"> F  </i>
   <v name="POMASS">    196.96600000    106.42000000</v>
   <v name="DARWINR">      0.00000000      0.00000000</v>
   <v name="DARWINV">      1.00000000      1.00000000</v>
   <i type="logical" name="LCORR"> T  </i>
  </separator>
  <i type="logical" name="GGA_COMPAT"> T  </i>
  <i type="logical" name="LBERRY"> F  </i>
  <i type="int" name="ICORELEVEL">     0</i>
  <i type="logical" name="LDAU"> F  </i>
  <i type="int" name="I_CONSTRAINED_M">     0</i>
  <separator name="electronic exchange-correlation" >
   <i type="string" name="GGA">PE</i>
   <i type="int" name="VOSKOWN">     1</i>
   <i type="logical" name="LHFCALC"> F  </i>
   <i type="string" name="PRECFOCK"></i>
   <i type="logical" name="LSYMGRAD"> F  </i>
   <i type="logical" name="LHFONE"> F  </i>
   <i type="logical" name="LRHFCALC"> F  </i>
   <i type="logical" name="LTHOMAS"> F  </i>
   <i type="logical" name="LMODELHF"> F  </i>
   <i name="ENCUT4O">     -1.00000000</i>
   <i type="int" name="EXXOEP">     0</i>
   <i type="int" name="FOURORBIT">     0</i>
   <i name="AEXX">      0.00000000</i>
   <i name="HFALPHA">      0.00000000</i>
   <i name="MCALPHA">      0.00000000</i>
   <i name="ALDAX">      1.00000000</i>
   <i name="AGGAX">      1.00000000</i>
   <i name="ALDAC">      1.00000000</i>
   <i name="AGGAC">      1.00000000</i>
   <i type="int" name="NKREDX">     1</i>
   <i type="int" name="NKREDY">     1</i>
   <i type="int" name="NKREDZ">     1</i>
   <i type="logical" name="SHIFTRED"> F  </i>
   <i type="logical" name="ODDONLY"> F  </i>
   <i type="logical" name="EVENONLY"> F  </i>
   <i type="int" name="LMAXFOCK">     0</i>
   <i type="int" name="NMAXFOCKAE">     0</i>
   <i type="logical" name="LFOCKAEDFT"> F  </i>
   <i name="HFSCREEN">      0.00000000</i>
   <i name="HFSCREENC">      0.00000000</i>
   <i type="int" name="NBANDSGWLOW">     0</i>
  </separator>
  <separator name="vdW DFT" >
   <i type="logical" name="LUSE_VDW"> F  </i>
   <i name="Zab_VDW">     -0.84910000</i>
   <i name="PARAM1">      0.12340000</i>
   <i name="PARAM2">      1.00000000</i>
   <i name="PARAM3">      0.00000000</i>
  </separator>
  <separator name="model GW" >
   <i type="int" name="MODEL_GW">     0</i>
   <i name="MODEL_EPS0">     32.09595293</i>
   <i name="MODEL_ALPHA">      1.00000000</i>
  </separator>
  <separator name="linear response parameters" >
   <i type="logical" name="LEPSILON"> F  </i>
   <i type="logical" name="LRPA"> F  </i>
   <i type="logical" name="LNABLA"> F  </i>
   <i type="logical" name="LVEL"> F  </i>
   <i type="int" name="KINTER">     0</i>
   <i name="CSHIFT">      0.10000000</i>
   <i name="OMEGAMAX">     -1.00000000</i>
   <i name="DEG_THRESHOLD">      0.00200000</i>
  </separator>
  <separator name="orbital magnetization" >
   <i type="logical" name="NUCIND"> F  </i>
   <v name="MAGPOS">      0.00000000      0.00000000      0.00000000</v>
   <i type="logical" name="LNICSALL"> T  </i>
   <i type="logical" name="ORBITALMAG"> F  </i>
   <i type="logical" name="LMAGBLOCH"> F  </i>
   <i type="logical" name="LCHIMAG"> F  </i>
   <i type="logical" name="LGAUGE"> T  </i>
   <i type="int" name="MAGATOM">     0</i>
   <v name="MAGDIPOL">      0.00000000      0.00000000      0.00000000</v>
   <v name="AVECCONST">      0.00000000      0.00000000      0.00000000</v>
  </separator>
  <separator name="response functions" >
   <i type="logical" name="LADDER"> F  </i>
   <i type="logical" name="LFXC"> F  </i>
   <i type="logical" name="LHARTREE"> T  </i>
   <i type="int" name="IBSE">     0</i>
   <v type="int" name="KPOINT">    -1     0     0     0</v>
   <i type="logical" name="LTCTE"> F  </i>
   <i type="logical" name="LTETE"> F  </i>
   <i type="logical" name="LTRIPLET"> F  </i>
   <i type="logical" name="LFXCEPS"> F  </i>
   <i type="logical" name="LFXHEG"> F  </i>
   <i type="int" name="NATURALO">     0</i>
   <i type="logical" name="L2ORDER"> F  </i>
   <i type="logical" name="LUSEW"> F  </i>
   <i name="ENCUTGW">     -2.00000000</i>
   <i name="ENCUTGWSOFT">     -2.00000000</i>
   <i name="ENCUTLF">     -1.00000000</i>
   <i type="int" name="LMAXMP2">    -1</i>
   <i name="SCISSOR">      0.00000000</i>
   <i type="int" name="NOMEGA">     0</i>
   <i type="int" name="NOMEGAR">     0</i>
   <i type="int" name="NBANDSGW">    -1</i>
   <i type="int" name="NBANDSO">    -1</i>
   <i type="int" name="NBANDSV">    -1</i>
   <i type="int" name="NELM">   500</i>
   <i type="int" name="NELMHF">     1</i>
   <i type="int" name="DIM">     3</i>
   <i type="int" name="ANTIRES">     0</i>
   <i name="OMEGAMAX">    -30.00000000</i>
   <i name="OMEGAMIN">    -30.00000000</i>
   <i name="OMEGATL">   -200.00000000</i>
   <i type="int" name="OMEGAGRID">     0</i>
   <i name="CSHIFT">     -0.10000000</i>
   <i type="logical" name="SELFENERGY"> F  </i>
   <i type="logical" name="LSPECTRAL"> F  </i>
   <i type="logical" name="LSPECTRALGW"> F  </i>
   <i type="logical" name="LSINGLES"> F  </i>
   <i type="logical" name="LFERMIGW"> F  </i>
   <i type="logical" name="ODDONLYGW"> F  </i>
   <i type="logical" name="EVENONLYGW"> F  </i>
   <i type="int" name="NKREDLFX">     1</i>
   <i type="int" name="NKREDLFY">     1</i>
   <i type="int" name="NKREDLFZ">     1</i>
   <i type="int" name="MAXMEM">  1800</i>
   <i type="int" name="TELESCOPE">     0</i>
   <i type="int" name="TAUPAR">     1</i>
   <i type="int" name="OMEGAPAR">    -1</i>
   <i name="LAMBDA">      1.00000000</i>
  </separator>
  <separator name="External order field" >
   <i name="OFIELD_KAPPA">      0.00000000</i>
   <v name="OFIELD_K">      0.00000000      0.00000000      0.00000000</v>
   <i name="OFIELD_Q6_NEAR">      0.00000000</i>
   <i name="OFIELD_Q6_FAR">      0.00000000</i>
   <i name="OFIELD_A">      0.00000000</i>
  </separator>
 </parameters>
 <atominfo>
  <atoms>      48 </atoms>
  <types>       2 </types>
  <array name="atoms" >
   <dimension dim="1">ion</dimension>
   <field type="string">element</field>
   <field type="int">atomtype</field>
   <set>
    <rc><c>Au</c><c>   1</c></rc>
    <rc><c>Au</c><c>   1</c></rc>
    <rc><c>Au</c><c>   1</c></rc>
    <rc><c>Au</c><c>   1</c></rc>
    <rc><c>Au</c><c>   1</c></rc>
    <rc><c>Au</c><c>   1</c></rc>
    <rc><c>Au</c><c>   1</c></rc>
    <rc><c>Au</c><c>   1</c></rc>
    <rc><c>Au</c><c>   1</c></rc>
    <rc><c>Au</c><c>   1</c></rc>
    <rc><c>Au</c><c>   1</c></rc>
    <rc><c>Au</c><c>   1</c></rc>
    <rc><c>Au</c><c>   1</c></rc>
    <rc><c>Au</c><c>   1</c></rc>
    <rc><c>Au</c><c>   1</c></rc>
    <rc><c>Au</c><c>   1</c></rc>
    <rc><c>Au</c><c>   1</c></rc>
    <rc><c>Au</c><c>   1</c></rc>
    <rc><c>Au</c><c>   1</c></rc>
    <rc><c>Au</c><c>   1</c></rc>
    <rc><c>Au</c><c>   1</c></rc>
    <rc><c>Au</c><c>   1</c></rc>
    <rc><c>Au</c><c>   1</c></rc>
    <rc><c>Au</c><c>   1</c></rc>
    <rc><c>Pd</c><c>   2</c></rc>
    <rc><c>Pd</c><c>   2</c></rc>
    <rc><c>Pd</c><c>   2</c></rc>
    <rc><c>Pd</c><c>   2</c></rc>
    <rc><c>Pd</c><c>   2</c></rc>
    <rc><c>Pd</c><c>   2</c></rc>
    <rc><c>Pd</c><c>   2</c></rc>
    <rc><c>Pd</c><c>   2</c></rc>
    <rc><c>Pd</c><c>   2</c></rc>
    <rc><c>Pd</c><c>   2</c></rc>
    <rc><c>Pd</c><c>   2</c></rc>
    <rc><c>Pd</c><c>   2</c></rc>
    <rc><c>Pd</c><c>   2</c></rc>
    <rc><c>Pd</c><c>   2</c></rc>
    <rc><c>Pd</c><c>   2</c></rc>
    <rc><c>Pd</c><c>   2</c></rc>
    <rc><c>Pd</c><c>   2</c></rc>
    <rc><c>Pd</c><c>   2</c></rc>
    <rc><c>Pd</c><c>   2</c></rc>
    <rc><c>Pd</c><c>   2</c></rc>
    <rc><c>Pd</c><c>   2</c></rc>
    <rc><c>Pd</c><c>   2</c></rc>
    <rc><c>Pd</c><c>   2</c></rc>
    <rc><c>Pd</c><c>   2</c></rc>
   </set>
  </array>
  <array name="atomtypes" >
   <dimension dim="1">type</dimension>
   <field type="int">atomspertype</field>
   <field type="string">element</field>
   <field>mass</field>
   <field>valence</field>
   <field type="string">pseudopotential</field>
   <set>
    <rc><c>  24</c><c>Au</c><c>    196.96600000</c><c>     11.00000000</c><c>  PAW_PBE Au 04Oct2007                  </c></rc>
    <rc><c>  24</c><c>Pd</c><c>    106.42000000</c><c>     10.00000000</c><c>  PAW_PBE Pd 04Jan2005                  </c></rc>
   </set>
  </array>
 </atominfo>
 <structure name="initialpos" >
  <crystal>
   <varray name="basis" >
    <v>      11.00258152       0.00000000       0.00000000 </v>
    <v>       5.50129076       9.52851510       0.00000000 </v>
    <v>       0.00000000       0.00000000      24.49178509 </v>
   </varray>
   <i name="volume">   2567.67623402 </i>
   <varray name="rec_basis" >
    <v>       0.09088776      -0.05247407       0.00000000 </v>
    <v>       0.00000000       0.10494815       0.00000000 </v>
    <v>       0.00000000       0.00000000       0.04083002 </v>
   </varray>
  </crystal>
  <varray name="positions" >
   <v>       0.08333333       0.08333333       0.40830017 </v>
   <v>       0.83333333       0.58333333       0.40830017 </v>
   <v>       0.75000000       0.25000000       0.59169983 </v>
   <v>       0.66666667       0.41666667       0.50000000 </v>
   <v>       0.58333333       0.83333333       0.40830017 </v>
   <v>       0.50000000       0.50000000       0.59169983 </v>
   <v>       0.41666667       0.66666667       0.50000000 </v>
   <v>       0.50000000       0.00000000       0.59169983 </v>
   <v>       0.41666667       0.16666667       0.50000000 </v>
   <v>       0.58333333       0.08333333       0.40830017 </v>
   <v>       0.66666667       0.91666667       0.50000000 </v>
   <v>       0.33333333       0.83333333       0.40830017 </v>
   <v>       0.25000000       0.50000000       0.59169983 </v>
   <v>       0.16666667       0.66666667       0.50000000 </v>
   <v>       0.25000000       0.25000000       0.59169983 </v>
   <v>       0.25000000       0.75000000       0.59169983 </v>
   <v>       0.00000000       0.50000000       0.59169983 </v>
   <v>       0.33333333       0.33333333       0.40830017 </v>
   <v>       0.16666667       0.16666667       0.50000000 </v>
   <v>       0.33333333       0.08333333       0.40830017 </v>
   <v>       0.00000000       0.75000000       0.59169983 </v>
   <v>       0.08333333       0.83333333       0.40830017 </v>
   <v>       0.91666667       0.66666667       0.50000000 </v>
   <v>       0.00000000       0.00000000       0.59169983 </v>
   <v>       0.66666667       0.16666667       0.50000000 </v>
   <v>       0.75000000       0.00000000       0.59169983 </v>
   <v>       0.83333333       0.33333333       0.40830017 </v>
   <v>       0.08333333       0.33333333       0.40830017 </v>
   <v>       0.16666667       0.41666667       0.50000000 </v>
   <v>       0.91666667       0.16666667       0.50000000 </v>
   <v>       0.66666667       0.66666667       0.50000000 </v>
   <v>       0.75000000       0.50000000       0.59169983 </v>
   <v>       0.83333333       0.83333333       0.40830017 </v>
   <v>       0.83333333       0.08333333       0.40830017 </v>
   <v>       0.50000000       0.75000000       0.59169983 </v>
   <v>       0.08333333       0.58333333       0.40830017 </v>
   <v>       0.91666667       0.41666667       0.50000000 </v>
   <v>       0.00000000       0.25000000       0.59169983 </v>
   <v>       0.58333333       0.58333333       0.40830017 </v>
   <v>       0.50000000       0.25000000       0.59169983 </v>
   <v>       0.41666667       0.41666667       0.50000000 </v>
   <v>       0.58333333       0.33333333       0.40830017 </v>
   <v>       0.91666667       0.91666667       0.50000000 </v>
   <v>       0.16666667       0.91666667       0.50000000 </v>
   <v>       0.33333333       0.58333333       0.40830017 </v>
   <v>       0.25000000       0.00000000       0.59169983 </v>
   <v>       0.41666667       0.91666667       0.50000000 </v>
   <v>       0.75000000       0.75000000       0.59169983 </v>
  </varray>
 </structure>
 <calculation>
  <scstep>
   <time name="dav">    7.20    7.23</time>
   <time name="total">    7.26    7.29</time>
   <dipole>
    <v name="dipole">      0.00000000       0.00000000      -0.00000074 </v>
    <i name="Tr[quadrupol]"> -10272.27808816 </i>
    <i name="Echarged">      0.00000000 </i>
    <i name="Edipol_quadrupol">      0.00000000 </i>
    <i name="Eion">      0.00000000 </i>
   </dipole>
   <energy>
    <i name="alphaZ">    805.86936440 </i>
    <i name="ewald"> 199926.47811426 </i>
    <i name="hartreedc">-242339.68498546 </i>
    <i name="XCdc">   -327.69326882 </i>
    <i name="pawpsdc">  40340.05962942 </i>
    <i name="pawaedc"> -38292.62782345 </i>
    <i name="eentropy">     -0.14875035 </i>
    <i name="bandstr">   1428.62942337 </i>
    <i name="atom">  41659.78587232 </i>
    <i name="e_fr_energy">   3200.66757569 </i>
    <i name="e_wo_entrp">   3200.81632604 </i>
    <i name="e_0_energy">   3200.74195087 </i>
   </energy>
  </scstep>
  <scstep>
   <time name="dav">    8.50    8.52</time>
   <time name="total">    8.50    8.53</time>
   <dipole>
    <v name="dipole">      0.00000000       0.00000000      -0.00000074 </v>
    <i name="Tr[quadrupol]"> -10272.27808816 </i>
    <i name="Echarged">      0.00000000 </i>
    <i name="Edipol_quadrupol">      0.00000000 </i>
    <i name="Eion">      0.00000000 </i>
   </dipole>
   <energy>
    <i name="e_fr_energy">     14.44938160 </i>
    <i name="e_wo_entrp">     14.58558482 </i>
    <i name="e_0_energy">     14.51748321 </i>
   </energy>
  </scstep>
  <scstep>
   <time name="dav">    8.18    8.27</time>
   <time name="total">    8.18    8.27</time>
   <dipole>
    <v name="dipole">      0.00000000       0.00000000      -0.00000074 </v>
    <i name="Tr[quadrupol]"> -10272.27808816 </i>
    <i name="Echarged">      0.00000000 </i>
    <i name="Edipol_quadrupol">      0.00000000 </i>
    <i name="Eion">      0.00000000 </i>
   </dipole>
   <energy>
    <i name="e_fr_energy">   -201.09378884 </i>
    <i name="e_wo_entrp">   -200.90856028 </i>
    <i name="e_0_energy">   -201.00117456 </i>
   </energy>
  </scstep>
  <scstep>
   <time name="dav">    8.37    8.40</time>
   <time name="total">    8.38    8.40</time>
   <dipole>
    <v name="dipole">      0.00000000       0.00000000      -0.00000074 </v>
    <i name="Tr[quadrupol]"> -10272.27808816 </i>
    <i name="Echarged">      0.00000000 </i>
    <i name="Edipol_quadrupol">      0.00000000 </i>
    <i name="Eion">      0.00000000 </i>
   </dipole>
   <energy>
    <i name="e_fr_energy">   -206.88949094 </i>
    <i name="e_wo_entrp">   -206.69578756 </i>
    <i name="e_0_energy">   -206.79263925 </i>
   </energy>
  </scstep>
  <scstep>
   <time name="dav">    8.71    8.73</time>
   <time name="total">    8.93    8.96</time>
   <dipole>
    <v name="dipole">      0.00000000       0.00000000      -0.00000074 </v>
    <i name="Tr[quadrupol]"> -10272.27808816 </i>
    <i name="Echarged">      0.00000000 </i>
    <i name="Edipol_quadrupol">      0.00000000 </i>
    <i name="Eion">      0.00000000 </i>
   </dipole>
   <energy>
    <i name="e_fr_energy">   -207.07930852 </i>
    <i name="e_wo_entrp">   -206.88564263 </i>
    <i name="e_0_energy">   -206.98247557 </i>
   </energy>
  </scstep>
  <scstep>
   <time name="diag">    1.29    1.29</time>
   <time name="diis">    3.45    3.46</time>
   <time name="orth">    0.36    0.36</time>
   <time name="total">    5.37    5.39</time>
   <dipole>
    <v name="dipole">      0.00000000       0.00000000      -0.33623414 </v>
    <i name="Tr[quadrupol]"> -10274.37875263 </i>
    <i name="Echarged">      0.00000000 </i>
    <i name="Edipol_quadrupol">      0.00000000 </i>
    <i name="Eion">      0.00000000 </i>
   </dipole>
   <energy>
    <i name="e_fr_energy">   -199.99439101 </i>
    <i name="e_wo_entrp">   -199.72582084 </i>
    <i name="e_0_energy">   -199.86010593 </i>
   </energy>
  </scstep>
  <scstep>
   <time name="diag">    1.29    1.29</time>
   <time name="diis">    3.40    3.41</time>
   <time name="orth">    0.35    0.36</time>
   <time name="total">    5.31    5.33</time>
   <dipole>
    <v name="dipole">      0.00000000       0.00000000       0.77525219 </v>
    <i name="Tr[quadrupol]"> -10272.26605727 </i>
    <i name="Echarged">      0.00000000 </i>
    <i name="Edipol_quadrupol">      0.00000000 </i>
    <i name="Eion">      0.00000000 </i>
   </dipole>
   <energy>
    <i name="e_fr_energy">   -204.92332312 </i>
    <i name="e_wo_entrp">   -204.74818598 </i>
    <i name="e_0_energy">   -204.83575455 </i>
   </energy>
  </scstep>
  <scstep>
   <time name="diag">    1.29    1.30</time>
   <time name="diis">    3.45    3.46</time>
   <time name="orth">    0.35    0.35</time>
   <time name="total">    5.36    5.38</time>
   <dipole>
    <v name="dipole">      0.00000000       0.00000000      -1.95454958 </v>
    <i name="Tr[quadrupol]"> -10274.25699439 </i>
    <i name="Echarged">      0.00000000 </i>
    <i name="Edipol_quadrupol">      0.00000000 </i>
    <i name="Eion">      0.00000000 </i>
   </dipole>
   <energy>
    <i name="e_fr_energy">   -224.80397650 </i>
    <i name="e_wo_entrp">   -224.51012846 </i>
    <i name="e_0_energy">   -224.65705248 </i>
   </energy>
  </scstep>
  <scstep>
   <time name="diag">    1.28    1.30</time>
   <time name="diis">    3.38    3.45</time>
   <time name="orth">    0.35    0.35</time>
   <time name="total">    5.27    5.37</time>
   <dipole>
    <v name="dipole">      0.00000000       0.00000000       0.71315717 </v>
    <i name="Tr[quadrupol]"> -10275.44128535 </i>
    <i name="Echarged">      0.00000000 </i>
    <i name="Edipol_quadrupol">      0.00000000 </i>
    <i name="Eion">      0.00000000 </i>
   </dipole>
   <energy>
    <i name="e_fr_energy">   -208.10987308 </i>
    <i name="e_wo_entrp">   -207.89770021 </i>
    <i name="e_0_energy">   -208.00378665 </i>
   </energy>
  </scstep>
  <scstep>
   <time name="diag">    1.29    1.29</time>
   <time name="diis">    3.40    3.44</time>
   <time name="orth">    0.35    0.35</time>
   <time name="total">    5.31    5.36</time>
   <dipole>
    <v name="dipole">      0.00000000       0.00000000      -0.17937974 </v>
    <i name="Tr[quadrupol]"> -10274.06904569 </i>
    <i name="Echarged">      0.00000000 </i>
    <i name="Edipol_quadrupol">      0.00000000 </i>
    <i name="Eion">      0.00000000 </i>
   </dipole>
   <energy>
    <i name="e_fr_energy">   -194.01088581 </i>
    <i name="e_wo_entrp">   -193.83081311 </i>
    <i name="e_0_energy">   -193.92084946 </i>
   </energy>
  </scstep>
  <scstep>
   <time name="diag">    1.29    1.29</time>
   <time name="diis">    3.45    3.46</time>
   <time name="orth">    0.35    0.35</time>
   <time name="total">    5.35    5.37</time>
   <dipole>
    <v name="dipole">      0.00000000       0.00000000       0.01199829 </v>
    <i name="Tr[quadrupol]"> -10275.01593721 </i>
    <i name="Echarged">      0.00000000 </i>
    <i name="Edipol_quadrupol">      0.00000000 </i>
    <i name="Eion">      0.00000000 </i>
   </dipole>
   <energy>
    <i name="e_fr_energy">   -190.90329109 </i>
    <i name="e_wo_entrp">   -190.67893556 </i>
    <i name="e_0_energy">   -190.79111333 </i>
   </energy>
  </scstep>
  <scstep>
   <time name="diag">    1.29    1.29</time>
   <time name="diis">    3.44    3.45</time>
   <time name="orth">    0.35    0.35</time>
   <time name="total">    5.35    5.37</time>
   <dipole>
    <v name="dipole">      0.00000000       0.00000000       0.03807113 </v>
    <i name="Tr[quadrupol]"> -10275.31418139 </i>
    <i name="Echarged">      0.00000000 </i>
    <i name="Edipol_quadrupol">      0.00000000 </i>
    <i name="Eion">      0.00000000 </i>
   </dipole>
   <energy>
    <i name="e_fr_energy">   -189.74715077 </i>
    <i name="e_wo_entrp">   -189.51120073 </i>
    <i name="e_0_energy">   -189.62917575 </i>
   </energy>
  </scstep>
  <scstep>
   <time name="diag">    1.29    1.30</time>
   <time name="diis">    3.42    3.43</time>
   <time name="orth">    0.35    0.35</time>
   <time name="total">    5.32    5.34</time>
   <dipole>
    <v name="dipole">      0.00000000       0.00000000       0.00727520 </v>
    <i name="Tr[quadrupol]"> -10275.68171448 </i>
    <i name="Echarged">      0.00000000 </i>
    <i name="Edipol_quadrupol">      0.00000000 </i>
    <i name="Eion">      0.00000000 </i>
   </dipole>
   <energy>
    <i name="e_fr_energy">   -189.38144664 </i>
    <i name="e_wo_entrp">   -189.13254554 </i>
    <i name="e_0_energy">   -189.25699609 </i>
   </energy>
  </scstep>
  <scstep>
   <time name="diag">    1.29    1.29</time>
   <time name="diis">    3.40    3.41</time>
   <time name="orth">    0.35    0.36</time>
   <time name="total">    5.31    5.33</time>
   <dipole>
    <v name="dipole">      0.00000000       0.00000000      -0.06382781 </v>
    <i name="Tr[quadrupol]"> -10275.76976693 </i>
    <i name="Echarged">      0.00000000 </i>
    <i name="Edipol_quadrupol">      0.00000000 </i>
    <i name="Eion">      0.00000000 </i>
   </dipole>
   <energy>
    <i name="e_fr_energy">   -189.63078574 </i>
    <i name="e_wo_entrp">   -189.36887309 </i>
    <i name="e_0_energy">   -189.49982941 </i>
   </energy>
  </scstep>
  <scstep>
   <time name="diag">    1.28    1.28</time>
   <time name="diis">    3.42    3.43</time>
   <time name="orth">    0.35    0.35</time>
   <time name="total">    5.31    5.33</time>
   <dipole>
    <v name="dipole">      0.00000000       0.00000000      -0.05963578 </v>
    <i name="Tr[quadrupol]"> -10275.92533176 </i>
    <i name="Echarged">      0.00000000 </i>
    <i name="Edipol_quadrupol">      0.00000000 </i>
    <i name="Eion">      0.00000000 </i>
   </dipole>
   <energy>
    <i name="e_fr_energy">   -189.38332918 </i>
    <i name="e_wo_entrp">   -189.11820035 </i>
    <i name="e_0_energy">   -189.25076476 </i>
   </energy>
  </scstep>
  <scstep>
   <time name="diag">    1.28    1.29</time>
   <time name="diis">    3.41    3.49</time>
   <time name="orth">    0.35    0.35</time>
   <time name="total">    5.30    5.40</time>
   <dipole>
    <v name="dipole">      0.00000000       0.00000000      -0.05507160 </v>
    <i name="Tr[quadrupol]"> -10276.13683103 </i>
    <i name="Echarged">      0.00000000 </i>
    <i name="Edipol_quadrupol">      0.00000000 </i>
    <i name="Eion">      0.00000000 </i>
   </dipole>
   <energy>
    <i name="e_fr_energy">   -189.22552790 </i>
    <i name="e_wo_entrp">   -188.95152210 </i>
    <i name="e_0_energy">   -189.08852500 </i>
   </energy>
  </scstep>
  <scstep>
   <time name="diag">    1.28    1.28</time>
   <time name="diis">    3.47    3.48</time>
   <time name="orth">    0.35    0.35</time>
   <time name="total">    5.36    5.37</time>
   <dipole>
    <v name="dipole">      0.00000000       0.00000000      -0.03704465 </v>
    <i name="Tr[quadrupol]"> -10276.46906124 </i>
    <i name="Echarged">      0.00000000 </i>
    <i name="Edipol_quadrupol">      0.00000000 </i>
    <i name="Eion">      0.00000000 </i>
   </dipole>
   <energy>
    <i name="e_fr_energy">   -189.13771087 </i>
    <i name="e_wo_entrp">   -188.86203160 </i>
    <i name="e_0_energy">   -188.99987123 </i>
   </energy>
  </scstep>
  <scstep>
   <time name="diag">    1.28    1.28</time>
   <time name="diis">    3.44    3.45</time>
   <time name="orth">    0.35    0.35</time>
   <time name="total">    5.33    5.35</time>
   <dipole>
    <v name="dipole">      0.00000000       0.00000000      -0.01814599 </v>
    <i name="Tr[quadrupol]"> -10276.65736732 </i>
    <i name="Echarged">      0.00000000 </i>
    <i name="Edipol_quadrupol">      0.00000000 </i>
    <i name="Eion">      0.00000000 </i>
   </dipole>
   <energy>
    <i name="e_fr_energy">   -189.10612576 </i>
    <i name="e_wo_entrp">   -188.83121108 </i>
    <i name="e_0_energy">   -188.96866842 </i>
   </energy>
  </scstep>
  <scstep>
   <time name="diag">    1.28    1.28</time>
   <time name="diis">    3.42    3.43</time>
   <time name="orth">    0.35    0.35</time>
   <time name="total">    5.30    5.32</time>
   <dipole>
    <v name="dipole">      0.00000000       0.00000000      -0.01364548 </v>
    <i name="Tr[quadrupol]"> -10276.77126205 </i>
    <i name="Echarged">      0.00000000 </i>
    <i name="Edipol_quadrupol">      0.00000000 </i>
    <i name="Eion">      0.00000000 </i>
   </dipole>
   <energy>
    <i name="e_fr_energy">   -189.09962510 </i>
    <i name="e_wo_entrp">   -188.82350069 </i>
    <i name="e_0_energy">   -188.96156290 </i>
   </energy>
  </scstep>
  <scstep>
   <time name="diag">    1.28    1.29</time>
   <time name="diis">    3.45    3.46</time>
   <time name="orth">    0.35    0.35</time>
   <time name="total">    5.35    5.37</time>
   <dipole>
    <v name="dipole">      0.00000000       0.00000000      -0.01433702 </v>
    <i name="Tr[quadrupol]"> -10276.86003629 </i>
    <i name="Echarged">      0.00000000 </i>
    <i name="Edipol_quadrupol">      0.00000000 </i>
    <i name="Eion">      0.00000000 </i>
   </dipole>
   <energy>
    <i name="e_fr_energy">   -189.09858753 </i>
    <i name="e_wo_entrp">   -188.82230246 </i>
    <i name="e_0_energy">   -188.96044500 </i>
   </energy>
  </scstep>
  <scstep>
   <time name="diag">    1.28    1.28</time>
   <time name="diis">    3.41    3.44</time>
   <time name="orth">    0.34    0.35</time>
   <time name="total">    5.30    5.34</time>
   <dipole>
    <v name="dipole">      0.00000000       0.00000000      -0.01415441 </v>
    <i name="Tr[quadrupol]"> -10276.93753295 </i>
    <i name="Echarged">      0.00000000 </i>
    <i name="Edipol_quadrupol">      0.00000000 </i>
    <i name="Eion">      0.00000000 </i>
   </dipole>
   <energy>
    <i name="e_fr_energy">   -189.09706218 </i>
    <i name="e_wo_entrp">   -188.82107788 </i>
    <i name="e_0_energy">   -188.95907003 </i>
   </energy>
  </scstep>
  <scstep>
   <time name="diag">    1.28    1.29</time>
   <time name="diis">    3.43    3.44</time>
   <time name="orth">    0.35    0.35</time>
   <time name="total">    5.32    5.35</time>
   <dipole>
    <v name="dipole">      0.00000000       0.00000000      -0.01419044 </v>
    <i name="Tr[quadrupol]"> -10277.11272714 </i>
    <i name="Echarged">      0.00000000 </i>
    <i name="Edipol_quadrupol">      0.00000000 </i>
    <i name="Eion">      0.00000000 </i>
   </dipole>
   <energy>
    <i name="e_fr_energy">   -189.09643447 </i>
    <i name="e_wo_entrp">   -188.82011013 </i>
    <i name="e_0_energy">   -188.95827230 </i>
   </energy>
  </scstep>
  <scstep>
   <time name="diag">    1.28    1.28</time>
   <time name="diis">    3.42    3.43</time>
   <time name="orth">    0.35    0.35</time>
   <time name="total">    5.31    5.32</time>
   <dipole>
    <v name="dipole">      0.00000000       0.00000000      -0.01370337 </v>
    <i name="Tr[quadrupol]"> -10277.18378203 </i>
    <i name="Echarged">      0.00000000 </i>
    <i name="Edipol_quadrupol">      0.00000000 </i>
    <i name="Eion">      0.00000000 </i>
   </dipole>
   <energy>
    <i name="e_fr_energy">   -189.09602431 </i>
    <i name="e_wo_entrp">   -188.81991860 </i>
    <i name="e_0_energy">   -188.95797146 </i>
   </energy>
  </scstep>
  <scstep>
   <time name="diag">    1.26    1.30</time>
   <time name="diis">    3.37    3.42</time>
   <time name="orth">    0.35    0.35</time>
   <time name="total">    5.25    5.34</time>
   <dipole>
    <v name="dipole">      0.00000000       0.00000000      -0.01134721 </v>
    <i name="Tr[quadrupol]"> -10277.27037421 </i>
    <i name="Echarged">      0.00000000 </i>
    <i name="Edipol_quadrupol">      0.00000000 </i>
    <i name="Eion">      0.00000000 </i>
   </dipole>
   <energy>
    <i name="e_fr_energy">   -189.09604356 </i>
    <i name="e_wo_entrp">   -188.81991554 </i>
    <i name="e_0_energy">   -188.95797955 </i>
   </energy>
  </scstep>
  <scstep>
   <time name="diag">    1.28    1.28</time>
   <time name="diis">    3.47    3.47</time>
   <time name="orth">    0.35    0.35</time>
   <time name="total">    5.36    5.37</time>
   <dipole>
    <v name="dipole">      0.00000000       0.00000000      -0.01021828 </v>
    <i name="Tr[quadrupol]"> -10277.31959541 </i>
    <i name="Echarged">      0.00000000 </i>
    <i name="Edipol_quadrupol">      0.00000000 </i>
    <i name="Eion">      0.00000000 </i>
   </dipole>
   <energy>
    <i name="e_fr_energy">   -189.09627401 </i>
    <i name="e_wo_entrp">   -188.82008206 </i>
    <i name="e_0_energy">   -188.95817803 </i>
   </energy>
  </scstep>
  <scstep>
   <time name="diag">    1.28    1.29</time>
   <time name="diis">    3.47    3.48</time>
   <time name="orth">    0.35    0.35</time>
   <time name="total">    5.37    5.40</time>
   <dipole>
    <v name="dipole">      0.00000000       0.00000000      -0.00953429 </v>
    <i name="Tr[quadrupol]"> -10277.37321376 </i>
    <i name="Echarged">      0.00000000 </i>
    <i name="Edipol_quadrupol">      0.00000000 </i>
    <i name="Eion">      0.00000000 </i>
   </dipole>
   <energy>
    <i name="e_fr_energy">   -189.09659178 </i>
    <i name="e_wo_entrp">   -188.82060381 </i>
    <i name="e_0_energy">   -188.95859779 </i>
   </energy>
  </scstep>
  <scstep>
   <time name="diag">    1.28    1.28</time>
   <time name="diis">    3.48    3.49</time>
   <time name="orth">    0.35    0.35</time>
   <time name="total">    5.36    5.38</time>
   <dipole>
    <v name="dipole">      0.00000000       0.00000000      -0.00947893 </v>
    <i name="Tr[quadrupol]"> -10277.45320414 </i>
    <i name="Echarged">      0.00000000 </i>
    <i name="Edipol_quadrupol">      0.00000000 </i>
    <i name="Eion">      0.00000000 </i>
   </dipole>
   <energy>
    <i name="e_fr_energy">   -189.09714468 </i>
    <i name="e_wo_entrp">   -188.82093851 </i>
    <i name="e_0_energy">   -188.95904159 </i>
   </energy>
  </scstep>
  <scstep>
   <time name="diag">    1.28    1.28</time>
   <time name="diis">    3.57    3.58</time>
   <time name="orth">    0.35    0.35</time>
   <time name="total">    5.46    5.48</time>
   <dipole>
    <v name="dipole">      0.00000000       0.00000000      -0.00917734 </v>
    <i name="Tr[quadrupol]"> -10277.48907412 </i>
    <i name="Echarged">      0.00000000 </i>
    <i name="Edipol_quadrupol">      0.00000000 </i>
    <i name="Eion">      0.00000000 </i>
   </dipole>
   <energy>
    <i name="e_fr_energy">   -189.09746550 </i>
    <i name="e_wo_entrp">   -188.82140639 </i>
    <i name="e_0_energy">   -188.95943595 </i>
   </energy>
  </scstep>
  <scstep>
   <time name="diag">    1.28    1.28</time>
   <time name="diis">    3.55    3.56</time>
   <time name="orth">    0.35    0.35</time>
   <time name="total">    5.43    5.45</time>
   <dipole>
    <v name="dipole">      0.00000000       0.00000000      -0.00816581 </v>
    <i name="Tr[quadrupol]"> -10277.54768513 </i>
    <i name="Echarged">      0.00000000 </i>
    <i name="Edipol_quadrupol">      0.00000000 </i>
    <i name="Eion">      0.00000000 </i>
   </dipole>
   <energy>
    <i name="e_fr_energy">   -189.09809185 </i>
    <i name="e_wo_entrp">   -188.82194668 </i>
    <i name="e_0_energy">   -188.96001926 </i>
   </energy>
  </scstep>
  <scstep>
   <time name="diag">    1.29    1.30</time>
   <time name="diis">    3.36    3.37</time>
   <time name="orth">    0.35    0.35</time>
   <time name="total">    5.28    5.29</time>
   <dipole>
    <v name="dipole">      0.00000000       0.00000000      -0.00764226 </v>
    <i name="Tr[quadrupol]"> -10277.58380032 </i>
    <i name="Echarged">      0.00000000 </i>
    <i name="Edipol_quadrupol">      0.00000000 </i>
    <i name="Eion">      0.00000000 </i>
   </dipole>
   <energy>
    <i name="e_fr_energy">   -189.09854369 </i>
    <i name="e_wo_entrp">   -188.82243870 </i>
    <i name="e_0_energy">   -188.96049119 </i>
   </energy>
  </scstep>
  <scstep>
   <time name="diag">    1.28    1.29</time>
   <time name="diis">    3.22    3.31</time>
   <time name="orth">    0.35    0.35</time>
   <time name="total">    5.11    5.22</time>
   <dipole>
    <v name="dipole">      0.00000000       0.00000000      -0.00674200 </v>
    <i name="Tr[quadrupol]"> -10277.63196290 </i>
    <i name="Echarged">      0.00000000 </i>
    <i name="Edipol_quadrupol">      0.00000000 </i>
    <i name="Eion">      0.00000000 </i>
   </dipole>
   <energy>
    <i name="e_fr_energy">   -189.09905717 </i>
    <i name="e_wo_entrp">   -188.82294164 </i>
    <i name="e_0_energy">   -188.96099941 </i>
   </energy>
  </scstep>
  <scstep>
   <time name="diag">    1.28    1.28</time>
   <time name="diis">    2.85    2.86</time>
   <time name="orth">    0.35    0.35</time>
   <time name="total">    4.75    4.76</time>
   <dipole>
    <v name="dipole">      0.00000000       0.00000000      -0.00628175 </v>
    <i name="Tr[quadrupol]"> -10277.65773673 </i>
    <i name="Echarged">      0.00000000 </i>
    <i name="Edipol_quadrupol">      0.00000000 </i>
    <i name="Eion">      0.00000000 </i>
   </dipole>
   <energy>
    <i name="e_fr_energy">   -189.09926179 </i>
    <i name="e_wo_entrp">   -188.82313235 </i>
    <i name="e_0_energy">   -188.96119707 </i>
   </energy>
  </scstep>
  <scstep>
   <time name="diag">    1.25    1.28</time>
   <time name="diis">    2.51    2.52</time>
   <time name="orth">    0.35    0.35</time>
   <time name="total">    4.37    4.42</time>
   <dipole>
    <v name="dipole">      0.00000000       0.00000000      -0.00599969 </v>
    <i name="Tr[quadrupol]"> -10277.66944936 </i>
    <i name="Echarged">      0.00000000 </i>
    <i name="Edipol_quadrupol">      0.00000000 </i>
    <i name="Eion">      0.00000000 </i>
   </dipole>
   <energy>
    <i name="e_fr_energy">   -189.09938011 </i>
    <i name="e_wo_entrp">   -188.82326683 </i>
    <i name="e_0_energy">   -188.96132347 </i>
   </energy>
  </scstep>
  <scstep>
   <time name="diag">    1.28    1.28</time>
   <time name="diis">    2.15    2.16</time>
   <time name="orth">    0.35    0.35</time>
   <time name="total">    4.06    4.07</time>
   <dipole>
    <v name="dipole">      0.00000000       0.00000000      -0.00581729 </v>
    <i name="Tr[quadrupol]"> -10277.67568558 </i>
    <i name="Echarged">      0.00000000 </i>
    <i name="Edipol_quadrupol">      0.00000000 </i>
    <i name="Eion">      0.00000000 </i>
   </dipole>
   <energy>
    <i name="e_fr_energy">   -189.09943860 </i>
    <i name="e_wo_entrp">   -188.82331970 </i>
    <i name="e_0_energy">   -188.96137915 </i>
   </energy>
  </scstep>
  <scstep>
   <time name="diag">    1.28    1.28</time>
   <time name="diis">    2.16    2.16</time>
   <time name="orth">    0.35    0.35</time>
   <time name="total">    4.05    4.06</time>
   <dipole>
    <v name="dipole">      0.00000000       0.00000000      -0.00551112 </v>
    <i name="Tr[quadrupol]"> -10277.68356559 </i>
    <i name="Echarged">      0.00000000 </i>
    <i name="Edipol_quadrupol">      0.00000000 </i>
    <i name="Eion">      0.00000000 </i>
   </dipole>
   <energy>
    <i name="e_fr_energy">   -189.09950758 </i>
    <i name="e_wo_entrp">   -188.82339533 </i>
    <i name="e_0_energy">   -188.96145146 </i>
   </energy>
  </scstep>
  <scstep>
   <time name="diag">    1.28    1.28</time>
   <time name="diis">    2.10    2.11</time>
   <time name="orth">    0.35    0.35</time>
   <time name="total">    3.99    4.01</time>
   <dipole>
    <v name="dipole">      0.00000000       0.00000000      -0.00538904 </v>
    <i name="Tr[quadrupol]"> -10277.68699302 </i>
    <i name="Echarged">      0.00000000 </i>
    <i name="Edipol_quadrupol">      0.00000000 </i>
    <i name="Eion">      0.00000000 </i>
   </dipole>
   <energy>
    <i name="e_fr_energy">   -189.09953188 </i>
    <i name="e_wo_entrp">   -188.82341209 </i>
    <i name="e_0_energy">   -188.96147199 </i>
   </energy>
  </scstep>
  <scstep>
   <time name="diag">    1.27    1.28</time>
   <time name="diis">    2.13    2.14</time>
   <time name="orth">    0.35    0.35</time>
   <time name="total">    4.02    4.03</time>
   <dipole>
    <v name="dipole">      0.00000000       0.00000000      -0.00522060 </v>
    <i name="Tr[quadrupol]"> -10277.69193599 </i>
    <i name="Echarged">      0.00000000 </i>
    <i name="Edipol_quadrupol">      0.00000000 </i>
    <i name="Eion">      0.00000000 </i>
   </dipole>
   <energy>
    <i name="e_fr_energy">   -189.09955731 </i>
    <i name="e_wo_entrp">   -188.82343919 </i>
    <i name="e_0_energy">   -188.96149825 </i>
   </energy>
  </scstep>
  <scstep>
   <time name="diag">    1.28    1.28</time>
   <time name="diis">    1.70    1.70</time>
   <time name="orth">    0.35    0.35</time>
   <time name="total">    3.60    3.61</time>
   <dipole>
    <v name="dipole">      0.00000000       0.00000000      -0.00515816 </v>
    <i name="Tr[quadrupol]"> -10277.69404439 </i>
    <i name="Echarged">      0.00000000 </i>
    <i name="Edipol_quadrupol">      0.00000000 </i>
    <i name="Eion">      0.00000000 </i>
   </dipole>
   <energy>
    <i name="e_fr_energy">   -189.09956312 </i>
    <i name="e_wo_entrp">   -188.82344386 </i>
    <i name="e_0_energy">   -188.96150349 </i>
   </energy>
  </scstep>
  <scstep>
   <time name="diag">    1.27    1.28</time>
   <time name="diis">    1.79    1.80</time>
   <time name="orth">    0.35    0.35</time>
   <time name="total">    3.68    3.69</time>
   <dipole>
    <v name="dipole">      0.00000000       0.00000000      -0.00508725 </v>
    <i name="Tr[quadrupol]"> -10277.69662882 </i>
    <i name="Echarged">      0.00000000 </i>
    <i name="Edipol_quadrupol">      0.00000000 </i>
    <i name="Eion">      0.00000000 </i>
   </dipole>
   <energy>
    <i name="e_fr_energy">   -189.09956673 </i>
    <i name="e_wo_entrp">   -188.82344872 </i>
    <i name="e_0_energy">   -188.96150773 </i>
   </energy>
  </scstep>
  <scstep>
   <time name="diag">    1.28    1.28</time>
   <time name="diis">    1.55    1.56</time>
   <time name="orth">    0.35    0.35</time>
   <time name="total">    3.45    3.46</time>
   <dipole>
    <v name="dipole">      0.00000000       0.00000000      -0.00503977 </v>
    <i name="Tr[quadrupol]"> -10277.69849425 </i>
    <i name="Echarged">      0.00000000 </i>
    <i name="Edipol_quadrupol">      0.00000000 </i>
    <i name="Eion">      0.00000000 </i>
   </dipole>
   <energy>
    <i name="e_fr_energy">   -189.09956775 </i>
    <i name="e_wo_entrp">   -188.82344934 </i>
    <i name="e_0_energy">   -188.96150854 </i>
   </energy>
  </scstep>
  <scstep>
   <time name="diag">    1.27    1.27</time>
   <time name="diis">    1.36    1.44</time>
   <time name="orth">    0.35    0.35</time>
   <time name="total">    3.02    3.11</time>
   <dipole>
    <v name="dipole">      0.00000000       0.00000000      -0.00500897 </v>
    <i name="Tr[quadrupol]"> -10277.69981337 </i>
    <i name="Echarged">      0.00000000 </i>
    <i name="Edipol_quadrupol">      0.00000000 </i>
    <i name="Eion">      0.00000000 </i>
   </dipole>
   <energy>
    <i name="alphaZ">    805.87015621 </i>
    <i name="ewald"> 199926.47811426 </i>
    <i name="hartreedc">-242117.77203178 </i>
    <i name="XCdc">   -343.57795929 </i>
    <i name="pawpsdc">  49313.81426838 </i>
    <i name="pawaedc"> -47392.10941122 </i>
    <i name="eentropy">     -0.27611777 </i>
    <i name="bandstr">  -2041.31245923 </i>
    <i name="atom">  41659.78587232 </i>
    <i name="e_fr_energy">   -189.09956813 </i>
    <i name="e_wo_entrp">   -188.82345035 </i>
    <i name="e_0_energy">   -188.96150924 </i>
   </energy>
  </scstep>
  <structure>
   <crystal>
    <varray name="basis" >
     <v>      11.00258152       0.00000000       0.00000000 </v>
     <v>       5.50129076       9.52851510       0.00000000 </v>
     <v>       0.00000000       0.00000000      24.49178509 </v>
    </varray>
    <i name="volume">   2567.67623402 </i>
    <varray name="rec_basis" >
     <v>       0.09088776      -0.05247407       0.00000000 </v>
     <v>       0.00000000       0.10494815       0.00000000 </v>
     <v>       0.00000000       0.00000000       0.04083002 </v>
    </varray>
   </crystal>
   <varray name="positions" >
    <v>       0.08333333       0.08333333       0.40830017 </v>
    <v>       0.83333333       0.58333333       0.40830017 </v>
    <v>       0.75000000       0.25000000       0.59169983 </v>
    <v>       0.66666667       0.41666667       0.50000000 </v>
    <v>       0.58333333       0.83333333       0.40830017 </v>
    <v>       0.50000000       0.50000000       0.59169983 </v>
    <v>       0.41666667       0.66666667       0.50000000 </v>
    <v>       0.50000000       0.00000000       0.59169983 </v>
    <v>       0.41666667       0.16666667       0.50000000 </v>
    <v>       0.58333333       0.08333333       0.40830017 </v>
    <v>       0.66666667       0.91666667       0.50000000 </v>
    <v>       0.33333333       0.83333333       0.40830017 </v>
    <v>       0.25000000       0.50000000       0.59169983 </v>
    <v>       0.16666667       0.66666667       0.50000000 </v>
    <v>       0.25000000       0.25000000       0.59169983 </v>
    <v>       0.25000000       0.75000000       0.59169983 </v>
    <v>       0.00000000       0.50000000       0.59169983 </v>
    <v>       0.33333333       0.33333333       0.40830017 </v>
    <v>       0.16666667       0.16666667       0.50000000 </v>
    <v>       0.33333333       0.08333333       0.40830017 </v>
    <v>       0.00000000       0.75000000       0.59169983 </v>
    <v>       0.08333333       0.83333333       0.40830017 </v>
    <v>       0.91666667       0.66666667       0.50000000 </v>
    <v>       0.00000000       0.00000000       0.59169983 </v>
    <v>       0.66666667       0.16666667       0.50000000 </v>
    <v>       0.75000000       0.00000000       0.59169983 </v>
    <v>       0.83333333       0.33333333       0.40830017 </v>
    <v>       0.08333333       0.33333333       0.40830017 </v>
    <v>       0.16666667       0.41666667       0.50000000 </v>
    <v>       0.91666667       0.16666667       0.50000000 </v>
    <v>       0.66666667       0.66666667       0.50000000 </v>
    <v>       0.75000000       0.50000000       0.59169983 </v>
    <v>       0.83333333       0.83333333       0.40830017 </v>
    <v>       0.83333333       0.08333333       0.40830017 </v>
    <v>       0.50000000       0.75000000       0.59169983 </v>
    <v>       0.08333333       0.58333333       0.40830017 </v>
    <v>       0.91666667       0.41666667       0.50000000 </v>
    <v>       0.00000000       0.25000000       0.59169983 </v>
    <v>       0.58333333       0.58333333       0.40830017 </v>
    <v>       0.50000000       0.25000000       0.59169983 </v>
    <v>       0.41666667       0.41666667       0.50000000 </v>
    <v>       0.58333333       0.33333333       0.40830017 </v>
    <v>       0.91666667       0.91666667       0.50000000 </v>
    <v>       0.16666667       0.91666667       0.50000000 </v>
    <v>       0.33333333       0.58333333       0.40830017 </v>
    <v>       0.25000000       0.00000000       0.59169983 </v>
    <v>       0.41666667       0.91666667       0.50000000 </v>
    <v>       0.75000000       0.75000000       0.59169983 </v>
   </varray>
  </structure>
  <varray name="forces" >
   <v>      -0.40934439       0.35577831      -1.34942777 </v>
   <v>       0.02444105      -0.29158245      -1.32230082 </v>
   <v>      -0.01629860      -0.17240449       1.31659221 </v>
   <v>       0.32404294      -0.18457822      -0.55920635 </v>
   <v>      -0.02002612      -0.31759773      -1.41327220 </v>
   <v>       0.11518500      -0.09135383       1.59525380 </v>
   <v>       0.38539165       0.15682171      -0.26194695 </v>
   <v>      -0.01147805      -0.32212984       1.50942612 </v>
   <v>       0.36700220       0.37582143       0.29960249 </v>
   <v>       0.64659487       0.10235369      -1.59229385 </v>
   <v>       0.37076426      -0.19328461       0.29068771 </v>
   <v>       0.01177442      -0.28842478      -1.37595050 </v>
   <v>       0.12456244      -0.38518336       1.42647419 </v>
   <v>      -0.02784316      -0.21428871      -0.61514838 </v>
   <v>      -0.12582548      -0.05624846       1.55307702 </v>
   <v>       0.38929411       0.38108341       1.60601679 </v>
   <v>      -0.50111744      -0.13504210       1.35658096 </v>
   <v>       0.02229136       0.57282736      -1.34459468 </v>
   <v>      -0.52626633       0.10676996       0.26287487 </v>
   <v>      -0.12761534       0.07905090      -1.62777068 </v>
   <v>      -0.36380132       0.37873373       1.61461804 </v>
   <v>      -0.36838180      -0.00774666      -1.30707989 </v>
   <v>      -0.16004989      -0.04031546      -0.26336508 </v>
   <v>       0.07307486       0.22185243       1.11696095 </v>
   <v>       0.20904865       0.01120140      -0.05918286 </v>
   <v>      -0.04033426       0.08102994       0.67641055 </v>
   <v>      -0.12657266      -0.03591399      -0.62731690 </v>
   <v>      -0.16961395       0.21992918      -0.73016902 </v>
   <v>      -0.11942863       0.06807967      -0.31727892 </v>
   <v>      -0.12177050      -0.04659916      -0.16414519 </v>
   <v>      -0.11316168      -0.07958595       0.31156801 </v>
   <v>       0.21860880       0.16712931       0.67889436 </v>
   <v>       0.23050270       0.07823885      -0.86061922 </v>
   <v>      -0.06002097       0.13922291      -0.51898146 </v>
   <v>       0.20543539       0.06995075       0.71708668 </v>
   <v>       0.01844845      -0.12340961      -0.79341633 </v>
   <v>      -0.15791912      -0.18194053      -0.05033856 </v>
   <v>      -0.05706084       0.01291056       0.67374026 </v>
   <v>      -0.06991726      -0.24340290      -0.81385355 </v>
   <v>       0.14736188      -0.06984275       0.75960241 </v>
   <v>       0.00436935      -0.26092694      -0.26274211 </v>
   <v>       0.27002050       0.05931950      -0.63777410 </v>
   <v>      -0.02727226       0.52884821      -0.19072570 </v>
   <v>       0.03260962       0.28371802       0.19898118 </v>
   <v>       0.03733910      -0.23943031      -0.81303948 </v>
   <v>      -0.01348738      -0.05875814       0.71149212 </v>
   <v>      -0.21535113      -0.31196375       0.38914809 </v>
   <v>      -0.27820504      -0.09871650       0.80685175 </v>
  </varray>
  <energy>
   <i name="e_fr_energy">   -189.09956813 </i>
   <i name="e_wo_entrp">   -188.96150924 </i>
   <i name="e_0_energy">     -0.27611777 </i>
  </energy>
  <time name="totalsc">  221.19  222.49</time>
 </calculation>
 <calculation>
  <scstep>
   <time name="dav">    7.30    7.32</time>
   <time name="total">    7.56    7.59</time>
   <dipole>
    <v name="dipole">      0.00000000       0.00000000      -0.00498035 </v>
    <i name="Tr[quadrupol]"> -10269.86006573 </i>
    <i name="Echarged">      0.00000000 </i>
    <i name="Edipol_quadrupol">      0.00000000 </i>
    <i name="Eion">      0.00000000 </i>
   </dipole>
   <energy>
    <i name="alphaZ">    805.87016255 </i>
    <i name="ewald"> 197265.20648889 </i>
    <i name="hartreedc">-239472.16190285 </i>
    <i name="XCdc">   -345.74894997 </i>
    <i name="pawpsdc">  49313.81195803 </i>
    <i name="pawaedc"> -47392.10706221 </i>
    <i name="eentropy">     -0.27255628 </i>
    <i name="bandstr">  -2024.54573932 </i>
    <i name="atom">  41659.78587232 </i>
    <i name="e_fr_energy">   -190.16172884 </i>
    <i name="e_wo_entrp">   -189.88917257 </i>
    <i name="e_0_energy">   -190.02545070 </i>
   </energy>
  </scstep>
  <scstep>
   <time name="diag">    1.29    1.29</time>
   <time name="diis">    3.42    3.43</time>
   <time name="orth">    0.35    0.35</time>
   <time name="total">    5.32    5.34</time>
   <dipole>
    <v name="dipole">      0.00000000       0.00000000       0.00404062 </v>
    <i name="Tr[quadrupol]"> -10269.61681957 </i>
    <i name="Echarged">      0.00000000 </i>
    <i name="Edipol_quadrupol">      0.00000000 </i>
    <i name="Eion">      0.00000000 </i>
   </dipole>
   <energy>
    <i name="e_fr_energy">   -190.54340612 </i>
    <i name="e_wo_entrp">   -190.27395566 </i>
    <i name="e_0_energy">   -190.40868089 </i>
   </energy>
  </scstep>
  <scstep>
   <time name="diag">    1.27    1.27</time>
   <time name="diis">    3.60    3.61</time>
   <time name="orth">    0.35    0.35</time>
   <time name="total">    5.48    5.50</time>
   <dipole>
    <v name="dipole">      0.00000000       0.00000000      -0.04042441 </v>
    <i name="Tr[quadrupol]"> -10270.10448204 </i>
    <i name="Echarged">      0.00000000 </i>
    <i name="Edipol_quadrupol">      0.00000000 </i>
    <i name="Eion">      0.00000000 </i>
   </dipole>
   <energy>
    <i name="e_fr_energy">   -190.67096001 </i>
    <i name="e_wo_entrp">   -190.40492032 </i>
    <i name="e_0_energy">   -190.53794016 </i>
   </energy>
  </scstep>
  <scstep>
   <time name="diag">    1.28    1.28</time>
   <time name="diis">    3.47    3.48</time>
   <time name="orth">    0.34    0.35</time>
   <time name="total">    5.35    5.38</time>
   <dipole>
    <v name="dipole">      0.00000000       0.00000000       0.01244963 </v>
    <i name="Tr[quadrupol]"> -10269.97881844 </i>
    <i name="Echarged">      0.00000000 </i>
    <i name="Edipol_quadrupol">      0.00000000 </i>
    <i name="Eion">      0.00000000 </i>
   </dipole>
   <energy>
    <i name="e_fr_energy">   -190.51943562 </i>
    <i name="e_wo_entrp">   -190.24671742 </i>
    <i name="e_0_energy">   -190.38307652 </i>
   </energy>
  </scstep>
  <scstep>
   <time name="diag">    1.26    1.28</time>
   <time name="diis">    3.43    3.45</time>
   <time name="orth">    0.35    0.35</time>
   <time name="total">    5.30    5.34</time>
   <dipole>
    <v name="dipole">      0.00000000       0.00000000      -0.07398606 </v>
    <i name="Tr[quadrupol]"> -10269.94424701 </i>
    <i name="Echarged">      0.00000000 </i>
    <i name="Edipol_quadrupol">      0.00000000 </i>
    <i name="Eion">      0.00000000 </i>
   </dipole>
   <energy>
    <i name="e_fr_energy">   -190.61345171 </i>
    <i name="e_wo_entrp">   -190.34943303 </i>
    <i name="e_0_energy">   -190.48144237 </i>
   </energy>
  </scstep>
  <scstep>
   <time name="diag">    1.28    1.28</time>
   <time name="diis">    3.51    3.52</time>
   <time name="orth">    0.34    0.35</time>
   <time name="total">    5.39    5.41</time>
   <dipole>
    <v name="dipole">      0.00000000       0.00000000       0.01630557 </v>
    <i name="Tr[quadrupol]"> -10269.95757632 </i>
    <i name="Echarged">      0.00000000 </i>
    <i name="Edipol_quadrupol">      0.00000000 </i>
    <i name="Eion">      0.00000000 </i>
   </dipole>
   <energy>
    <i name="e_fr_energy">   -190.52134181 </i>
    <i name="e_wo_entrp">   -190.24993280 </i>
    <i name="e_0_energy">   -190.38563730 </i>
   </energy>
  </scstep>
  <scstep>
   <time name="diag">    1.27    1.27</time>
   <time name="diis">    3.40    3.49</time>
   <time name="orth">    0.34    0.35</time>
   <time name="total">    5.28    5.38</time>
   <dipole>
    <v name="dipole">      0.00000000       0.00000000      -0.00797707 </v>
    <i name="Tr[quadrupol]"> -10269.93362247 </i>
    <i name="Echarged">      0.00000000 </i>
    <i name="Edipol_quadrupol">      0.00000000 </i>
    <i name="Eion">      0.00000000 </i>
   </dipole>
   <energy>
    <i name="e_fr_energy">   -190.51082448 </i>
    <i name="e_wo_entrp">   -190.23577480 </i>
    <i name="e_0_energy">   -190.37329964 </i>
   </energy>
  </scstep>
  <scstep>
   <time name="diag">    1.28    1.28</time>
   <time name="diis">    3.47    3.48</time>
   <time name="orth">    0.34    0.34</time>
   <time name="total">    5.36    5.38</time>
   <dipole>
    <v name="dipole">      0.00000000       0.00000000      -0.00291327 </v>
    <i name="Tr[quadrupol]"> -10269.91335073 </i>
    <i name="Echarged">      0.00000000 </i>
    <i name="Edipol_quadrupol">      0.00000000 </i>
    <i name="Eion">      0.00000000 </i>
   </dipole>
   <energy>
    <i name="e_fr_energy">   -190.50919440 </i>
    <i name="e_wo_entrp">   -190.23514828 </i>
    <i name="e_0_energy">   -190.37217134 </i>
   </energy>
  </scstep>
  <scstep>
   <time name="diag">    1.27    1.28</time>
   <time name="diis">    3.41    3.42</time>
   <time name="orth">    0.34    0.35</time>
   <time name="total">    5.29    5.31</time>
   <dipole>
    <v name="dipole">      0.00000000       0.00000000      -0.00369097 </v>
    <i name="Tr[quadrupol]"> -10269.90077443 </i>
    <i name="Echarged">      0.00000000 </i>
    <i name="Edipol_quadrupol">      0.00000000 </i>
    <i name="Eion">      0.00000000 </i>
   </dipole>
   <energy>
    <i name="e_fr_energy">   -190.50814915 </i>
    <i name="e_wo_entrp">   -190.23404916 </i>
    <i name="e_0_energy">   -190.37109916 </i>
   </energy>
  </scstep>
  <scstep>
   <time name="diag">    1.28    1.28</time>
   <time name="diis">    3.41    3.42</time>
   <time name="orth">    0.34    0.35</time>
   <time name="total">    5.30    5.32</time>
   <dipole>
    <v name="dipole">      0.00000000       0.00000000      -0.00278975 </v>
    <i name="Tr[quadrupol]"> -10269.89565582 </i>
    <i name="Echarged">      0.00000000 </i>
    <i name="Edipol_quadrupol">      0.00000000 </i>
    <i name="Eion">      0.00000000 </i>
   </dipole>
   <energy>
    <i name="e_fr_energy">   -190.50798685 </i>
    <i name="e_wo_entrp">   -190.23318816 </i>
    <i name="e_0_energy">   -190.37058750 </i>
   </energy>
  </scstep>
  <scstep>
   <time name="diag">    1.27    1.27</time>
   <time name="diis">    3.42    3.43</time>
   <time name="orth">    0.35    0.35</time>
   <time name="total">    5.30    5.31</time>
   <dipole>
    <v name="dipole">      0.00000000       0.00000000      -0.00300677 </v>
    <i name="Tr[quadrupol]"> -10269.89520280 </i>
    <i name="Echarged">      0.00000000 </i>
    <i name="Edipol_quadrupol">      0.00000000 </i>
    <i name="Eion">      0.00000000 </i>
   </dipole>
   <energy>
    <i name="e_fr_energy">   -190.50787473 </i>
    <i name="e_wo_entrp">   -190.23360380 </i>
    <i name="e_0_energy">   -190.37073927 </i>
   </energy>
  </scstep>
  <scstep>
   <time name="diag">    1.28    1.28</time>
   <time name="diis">    3.45    3.45</time>
   <time name="orth">    0.34    0.34</time>
   <time name="total">    5.33    5.35</time>
   <dipole>
    <v name="dipole">      0.00000000       0.00000000      -0.00290558 </v>
    <i name="Tr[quadrupol]"> -10269.89877930 </i>
    <i name="Echarged">      0.00000000 </i>
    <i name="Edipol_quadrupol">      0.00000000 </i>
    <i name="Eion">      0.00000000 </i>
   </dipole>
   <energy>
    <i name="e_fr_energy">   -190.50786615 </i>
    <i name="e_wo_entrp">   -190.23345897 </i>
    <i name="e_0_energy">   -190.37066256 </i>
   </energy>
  </scstep>
  <scstep>
   <time name="diag">    1.28    1.28</time>
   <time name="diis">    3.51    3.52</time>
   <time name="orth">    0.34    0.34</time>
   <time name="total">    5.40    5.42</time>
   <dipole>
    <v name="dipole">      0.00000000       0.00000000      -0.00334136 </v>
    <i name="Tr[quadrupol]"> -10269.90195576 </i>
    <i name="Echarged">      0.00000000 </i>
    <i name="Edipol_quadrupol">      0.00000000 </i>
    <i name="Eion">      0.00000000 </i>
   </dipole>
   <energy>
    <i name="e_fr_energy">   -190.50785376 </i>
    <i name="e_wo_entrp">   -190.23341374 </i>
    <i name="e_0_energy">   -190.37063375 </i>
   </energy>
  </scstep>
  <scstep>
   <time name="diag">    1.28    1.28</time>
   <time name="diis">    3.49    3.55</time>
   <time name="orth">    0.34    0.36</time>
   <time name="total">    5.37    5.46</time>
   <dipole>
    <v name="dipole">      0.00000000       0.00000000      -0.00331713 </v>
    <i name="Tr[quadrupol]"> -10269.90572098 </i>
    <i name="Echarged">      0.00000000 </i>
    <i name="Edipol_quadrupol">      0.00000000 </i>
    <i name="Eion">      0.00000000 </i>
   </dipole>
   <energy>
    <i name="e_fr_energy">   -190.50785134 </i>
    <i name="e_wo_entrp">   -190.23350055 </i>
    <i name="e_0_energy">   -190.37067595 </i>
   </energy>
  </scstep>
  <scstep>
   <time name="diag">    1.27    1.27</time>
   <time name="diis">    2.80    2.81</time>
   <time name="orth">    0.34    0.34</time>
   <time name="total">    4.68    4.70</time>
   <dipole>
    <v name="dipole">      0.00000000       0.00000000      -0.00334366 </v>
    <i name="Tr[quadrupol]"> -10269.90803938 </i>
    <i name="Echarged">      0.00000000 </i>
    <i name="Edipol_quadrupol">      0.00000000 </i>
    <i name="Eion">      0.00000000 </i>
   </dipole>
   <energy>
    <i name="e_fr_energy">   -190.50784877 </i>
    <i name="e_wo_entrp">   -190.23346694 </i>
    <i name="e_0_energy">   -190.37065785 </i>
   </energy>
  </scstep>
  <scstep>
   <time name="diag">    1.27    1.28</time>
   <time name="diis">    2.02    2.03</time>
   <time name="orth">    0.34    0.34</time>
   <time name="total">    3.69    3.70</time>
   <dipole>
    <v name="dipole">      0.00000000       0.00000000      -0.00337701 </v>
    <i name="Tr[quadrupol]"> -10269.90969058 </i>
    <i name="Echarged">      0.00000000 </i>
    <i name="Edipol_quadrupol">      0.00000000 </i>
    <i name="Eion">      0.00000000 </i>
   </dipole>
   <energy>
    <i name="alphaZ">    805.86990575 </i>
    <i name="ewald"> 197265.20648889 </i>
    <i name="hartreedc">-239474.76235105 </i>
    <i name="XCdc">   -345.68973620 </i>
    <i name="pawpsdc">  48875.16746408 </i>
    <i name="pawaedc"> -46950.36677007 </i>
    <i name="eentropy">     -0.27435694 </i>
    <i name="bandstr">  -2025.44436634 </i>
    <i name="atom">  41659.78587232 </i>
    <i name="e_fr_energy">   -190.50784956 </i>
    <i name="e_wo_entrp">   -190.23349262 </i>
    <i name="e_0_energy">   -190.37067109 </i>
   </energy>
  </scstep>
  <structure>
   <crystal>
    <varray name="basis" >
     <v>      11.00258152       0.00000000       0.00000000 </v>
     <v>       5.50129076       9.52851510       0.00000000 </v>
     <v>       0.00000000       0.00000000      24.49178509 </v>
    </varray>
    <i name="volume">   2567.67623402 </i>
    <varray name="rec_basis" >
     <v>       0.09088776      -0.05247407       0.00000000 </v>
     <v>       0.00000000       0.10494815       0.00000000 </v>
     <v>       0.00000000       0.00000000       0.04083002 </v>
    </varray>
   </crystal>
   <varray name="positions" >
    <v>       0.08144649       0.08459424       0.40643955 </v>
    <v>       0.83392505       0.58229994       0.40647695 </v>
    <v>       0.75025548       0.24938898       0.59351518 </v>
    <v>       0.66798832       0.41601251       0.49922895 </v>
    <v>       0.58383466       0.83220774       0.40635152 </v>
    <v>       0.50051542       0.49967623       0.59389940 </v>
    <v>       0.41757164       0.66722246       0.49963882 </v>
    <v>       0.50053560      -0.00114166       0.59378106 </v>
    <v>       0.41712712       0.16799861       0.50041310 </v>
    <v>       0.58513653       0.08369608       0.40610468 </v>
    <v>       0.66814715       0.91598165       0.50040081 </v>
    <v>       0.33388057       0.83231113       0.40640298 </v>
    <v>       0.25106488       0.49863488       0.59366669 </v>
    <v>       0.16696094       0.66590721       0.49915182 </v>
    <v>       0.24971348       0.24980065       0.59384125 </v>
    <v>       0.25051955       0.75135059       0.59391424 </v>
    <v>      -0.00129876       0.49952140       0.59357032 </v>
    <v>       0.33238668       0.33536348       0.40644621 </v>
    <v>       0.16486221       0.16704507       0.50036246 </v>
    <v>       0.33280157       0.08361350       0.40605576 </v>
    <v>      -0.00178774       0.75134226       0.59392610 </v>
    <v>       0.08221640       0.83330588       0.40649794 </v>
    <v>       0.91624687       0.66652379       0.49963687 </v>
    <v>      -0.00016885       0.00078626       0.59323992 </v>
    <v>       0.66728844       0.16670637       0.49991840 </v>
    <v>       0.74973261       0.00028718       0.59263248 </v>
    <v>       0.83300849       0.33320605       0.40743521 </v>
    <v>       0.08242302       0.33411278       0.40729339 </v>
    <v>       0.16617947       0.41690795       0.49956253 </v>
    <v>       0.91637550       0.16650152       0.49977367 </v>
    <v>       0.66646037       0.66638461       0.50042960 </v>
    <v>       0.75037481       0.50059232       0.59263591 </v>
    <v>       0.83390217       0.83361062       0.40711353 </v>
    <v>       0.83290240       0.08382675       0.40758459 </v>
    <v>       0.50050658       0.75024791       0.59268857 </v>
    <v>       0.08360864       0.58289596       0.40720619 </v>
    <v>       0.91650438       0.41602185       0.49993059 </v>
    <v>      -0.00019801       0.25004576       0.59262880 </v>
    <v>       0.58355006       0.58247069       0.40717801 </v>
    <v>       0.50057606       0.24975247       0.59274719 </v>
    <v>       0.41714245       0.41574192       0.49963772 </v>
    <v>       0.58405698       0.33354357       0.40742079 </v>
    <v>       0.91564582       0.91854095       0.49973702 </v>
    <v>       0.16626399       0.91767219       0.50027436 </v>
    <v>       0.33387222       0.58248477       0.40717913 </v>
    <v>       0.25006273      -0.00020824       0.59268085 </v>
    <v>       0.41655851       0.91556104       0.50053657 </v>
    <v>       0.74932104       0.74965014       0.59281234 </v>
   </varray>
  </structure>
  <varray name="forces" >
   <v>      -0.21354292       0.16892908      -1.02028864 </v>
   <v>      -0.01429312      -0.16491084      -0.99770440 </v>
   <v>       0.00259401      -0.02410939       0.95633699 </v>
   <v>       0.10966256      -0.10289183      -0.11368418 </v>
   <v>       0.04455104      -0.13566280      -0.94516627 </v>
   <v>       0.12960285      -0.03222273       1.04003666 </v>
   <v>       0.09307860       0.01150371      -0.02125233 </v>
   <v>      -0.00244168      -0.14394774       1.09654581 </v>
   <v>       0.09818347       0.06624671       0.04320080 </v>
   <v>       0.27158164       0.06052682      -1.09865659 </v>
   <v>       0.04608323      -0.01483862       0.04006214 </v>
   <v>      -0.07564744      -0.09948911      -1.01564098 </v>
   <v>       0.03082444      -0.08756906       0.95207495 </v>
   <v>       0.03404193      -0.02587482      -0.07435498 </v>
   <v>      -0.08463798      -0.07470253       1.12443050 </v>
   <v>       0.15499726       0.11536462       1.06269375 </v>
   <v>      -0.22341420      -0.03109539       0.95162194 </v>
   <v>       0.01017564       0.22182338      -1.02237905 </v>
   <v>      -0.12751908       0.03092079       0.05563387 </v>
   <v>      -0.00741210       0.08329743      -1.01401474 </v>
   <v>      -0.15419343       0.13597698       1.04562092 </v>
   <v>      -0.16607405       0.01849101      -0.98800124 </v>
   <v>      -0.04541009      -0.07593045      -0.06725359 </v>
   <v>       0.03383885       0.11909140       0.85052473 </v>
   <v>       0.13031318       0.03261736      -0.01861072 </v>
   <v>      -0.04513043       0.06114525       0.56903281 </v>
   <v>      -0.07583345      -0.01715278      -0.59932010 </v>
   <v>      -0.10000415       0.08600783      -0.57237463 </v>
   <v>      -0.10384468      -0.00879236      -0.03733162 </v>
   <v>      -0.11147649      -0.06712932      -0.03787290 </v>
   <v>       0.00555695      -0.04180373       0.07628440 </v>
   <v>       0.04458927       0.05403220       0.52654989 </v>
   <v>       0.08826703       0.02072605      -0.66419041 </v>
   <v>      -0.01935770       0.10798235      -0.48584422 </v>
   <v>       0.10574349      -0.01535601       0.62386996 </v>
   <v>      -0.03255376      -0.04812087      -0.70194220 </v>
   <v>      -0.07134235      -0.04592232      -0.03182642 </v>
   <v>      -0.07852663       0.00930530       0.57081803 </v>
   <v>      -0.02596818      -0.17304124      -0.69440198 </v>
   <v>       0.09566525      -0.08234588       0.62175378 </v>
   <v>       0.08675848      -0.06831830      -0.06111764 </v>
   <v>       0.16895504       0.04598771      -0.56946180 </v>
   <v>       0.11169903       0.23650231      -0.04031255 </v>
   <v>      -0.05395911       0.08507186       0.01452654 </v>
   <v>       0.06796385      -0.12048784      -0.67258122 </v>
   <v>       0.02573371       0.01306985       0.60590290 </v>
   <v>      -0.00391307      -0.00075080       0.08256804 </v>
   <v>      -0.15396471      -0.08215324       0.65549600 </v>
  </varray>
  <energy>
   <i name="e_fr_energy">   -190.50784956 </i>
   <i name="e_wo_entrp">   -190.37067109 </i>
   <i name="e_0_energy">     -0.27435694 </i>
  </energy>
  <time name="totalsc">   87.87   88.36</time>
 </calculation>
 <calculation>
  <scstep>
   <time name="dav">    7.23    7.25</time>
   <time name="total">    7.49    7.52</time>
   <dipole>
    <v name="dipole">      0.00000000       0.00000000      -0.00338904 </v>
    <i name="Tr[quadrupol]"> -10247.37494235 </i>
    <i name="Echarged">      0.00000000 </i>
    <i name="Edipol_quadrupol">      0.00000000 </i>
    <i name="Eion">      0.00000000 </i>
   </dipole>
   <energy>
    <i name="alphaZ">    805.86992984 </i>
    <i name="ewald"> 189404.10267902 </i>
    <i name="hartreedc">-231654.24201429 </i>
    <i name="XCdc">   -351.09260586 </i>
    <i name="pawpsdc">  48875.08501743 </i>
    <i name="pawaedc"> -46950.28435292 </i>
    <i name="eentropy">     -0.25386308 </i>
    <i name="bandstr">  -1977.98786205 </i>
    <i name="atom">  41659.78587232 </i>
    <i name="e_fr_energy">   -189.01719960 </i>
    <i name="e_wo_entrp">   -188.76333652 </i>
    <i name="e_0_energy">   -188.89026806 </i>
   </energy>
  </scstep>
  <scstep>
   <time name="diag">    1.27    1.27</time>
   <time name="diis">    3.46    3.47</time>
   <time name="orth">    0.34    0.35</time>
   <time name="total">    5.33    5.36</time>
   <dipole>
    <v name="dipole">      0.00000000       0.00000000       0.02432650 </v>
    <i name="Tr[quadrupol]"> -10246.54930446 </i>
    <i name="Echarged">      0.00000000 </i>
    <i name="Edipol_quadrupol">      0.00000000 </i>
    <i name="Eion">      0.00000000 </i>
   </dipole>
   <energy>
    <i name="e_fr_energy">   -192.42046579 </i>
    <i name="e_wo_entrp">   -192.18155285 </i>
    <i name="e_0_energy">   -192.30100932 </i>
   </energy>
  </scstep>
  <scstep>
   <time name="diag">    1.28    1.28</time>
   <time name="diis">    3.59    3.60</time>
   <time name="orth">    0.34    0.34</time>
   <time name="total">    5.47    5.49</time>
   <dipole>
    <v name="dipole">      0.00000000       0.00000000      -0.09298569 </v>
    <i name="Tr[quadrupol]"> -10247.76290139 </i>
    <i name="Echarged">      0.00000000 </i>
    <i name="Edipol_quadrupol">      0.00000000 </i>
    <i name="Eion">      0.00000000 </i>
   </dipole>
   <energy>
    <i name="e_fr_energy">   -193.14668926 </i>
    <i name="e_wo_entrp">   -192.95298832 </i>
    <i name="e_0_energy">   -193.04983879 </i>
   </energy>
  </scstep>
  <scstep>
   <time name="diag">    1.27    1.27</time>
   <time name="diis">    3.46    3.47</time>
   <time name="orth">    0.34    0.34</time>
   <time name="total">    5.33    5.35</time>
   <dipole>
    <v name="dipole">      0.00000000       0.00000000       0.00386622 </v>
    <i name="Tr[quadrupol]"> -10247.50817789 </i>
    <i name="Echarged">      0.00000000 </i>
    <i name="Edipol_quadrupol">      0.00000000 </i>
    <i name="Eion">      0.00000000 </i>
   </dipole>
   <energy>
    <i name="e_fr_energy">   -192.13944651 </i>
    <i name="e_wo_entrp">   -191.87850673 </i>
    <i name="e_0_energy">   -192.00897662 </i>
   </energy>
  </scstep>
  <scstep>
   <time name="diag">    1.27    1.28</time>
   <time name="diis">    3.43    3.49</time>
   <time name="orth">    0.34    0.36</time>
   <time name="total">    5.31    5.40</time>
   <dipole>
    <v name="dipole">      0.00000000       0.00000000       0.02402355 </v>
    <i name="Tr[quadrupol]"> -10247.60581198 </i>
    <i name="Echarged">      0.00000000 </i>
    <i name="Edipol_quadrupol">      0.00000000 </i>
    <i name="Eion">      0.00000000 </i>
   </dipole>
   <energy>
    <i name="e_fr_energy">   -192.38264462 </i>
    <i name="e_wo_entrp">   -192.11990472 </i>
    <i name="e_0_energy">   -192.25127467 </i>
   </energy>
  </scstep>
  <scstep>
   <time name="diag">    1.27    1.27</time>
   <time name="diis">    3.49    3.50</time>
   <time name="orth">    0.34    0.35</time>
   <time name="total">    5.37    5.39</time>
   <dipole>
    <v name="dipole">      0.00000000       0.00000000      -0.02435299 </v>
    <i name="Tr[quadrupol]"> -10247.58943432 </i>
    <i name="Echarged">      0.00000000 </i>
    <i name="Edipol_quadrupol">      0.00000000 </i>
    <i name="Eion">      0.00000000 </i>
   </dipole>
   <energy>
    <i name="e_fr_energy">   -192.12104276 </i>
    <i name="e_wo_entrp">   -191.86467805 </i>
    <i name="e_0_energy">   -191.99286040 </i>
   </energy>
  </scstep>
  <scstep>
   <time name="diag">    1.27    1.28</time>
   <time name="diis">    3.49    3.50</time>
   <time name="orth">    0.34    0.34</time>
   <time name="total">    5.38    5.39</time>
   <dipole>
    <v name="dipole">      0.00000000       0.00000000       0.06469199 </v>
    <i name="Tr[quadrupol]"> -10247.51550922 </i>
    <i name="Echarged">      0.00000000 </i>
    <i name="Edipol_quadrupol">      0.00000000 </i>
    <i name="Eion">      0.00000000 </i>
   </dipole>
   <energy>
    <i name="e_fr_energy">   -192.14847351 </i>
    <i name="e_wo_entrp">   -191.89003950 </i>
    <i name="e_0_energy">   -192.01925651 </i>
   </energy>
  </scstep>
  <scstep>
   <time name="diag">    1.28    1.28</time>
   <time name="diis">    3.49    3.50</time>
   <time name="orth">    0.34    0.34</time>
   <time name="total">    5.38    5.39</time>
   <dipole>
    <v name="dipole">      0.00000000       0.00000000      -0.02334729 </v>
    <i name="Tr[quadrupol]"> -10247.42595424 </i>
    <i name="Echarged">      0.00000000 </i>
    <i name="Edipol_quadrupol">      0.00000000 </i>
    <i name="Eion">      0.00000000 </i>
[...]
       <r>    2.3649    0.0000 </r>
       <r>    2.4227    0.0000 </r>
       <r>    2.4626    0.0000 </r>
       <r>    2.5283    0.0000 </r>
       <r>    2.6618    0.0000 </r>
       <r>    2.9551    0.0000 </r>
       <r>    3.1251    0.0000 </r>
       <r>    3.2518    0.0000 </r>
       <r>    3.5447    0.0000 </r>
       <r>    3.5799    0.0000 </r>
       <r>    3.8101    0.0000 </r>
       <r>    4.0130    0.0000 </r>
       <r>    4.1147    0.0000 </r>
       <r>    4.1907    0.0000 </r>
       <r>    4.4290    0.0000 </r>
       <r>    4.5576    0.0000 </r>
       <r>    4.6056    0.0000 </r>
       <r>    4.6415    0.0000 </r>
       <r>    4.6955    0.0000 </r>
       <r>    4.7802    0.0000 </r>
       <r>    4.8996    0.0000 </r>
       <r>    4.9160    0.0000 </r>
       <r>    4.9705    0.0000 </r>
       <r>    5.0251    0.0000 </r>
       <r>    5.0620    0.0000 </r>
       <r>    5.0850    0.0000 </r>
       <r>    5.1570    0.0000 </r>
       <r>    5.2444    0.0000 </r>
      </set>
     </set>
    </set>
   </array>
  </eigenvalues>
  <separator name="orbital magnetization" >
   <v name="MAGDIPOLOUT">      0.00000000      0.00000000      0.00000000</v>
  </separator>
  <dos>
   <i name="efermi">     -1.10310306 </i>
   <total>
    <array>
     <dimension dim="1">gridpoints</dimension>
     <dimension dim="2">spin</dimension>
     <field>energy</field>
     <field>total</field>
     <field>integrated</field>
     <set>
      <set comment="spin 1">
       <r>    -9.6445     0.0000     0.0000 </r>
       <r>    -9.5911     0.0000     0.0000 </r>
       <r>    -9.5376     0.0000     0.0000 </r>
       <r>    -9.4842     0.0000     0.0000 </r>
       <r>    -9.4308     0.0000     0.0000 </r>
       <r>    -9.3774     0.0000     0.0000 </r>
       <r>    -9.3240     0.0000     0.0000 </r>
       <r>    -9.2706     0.0000     0.0000 </r>
       <r>    -9.2171     0.0000     0.0000 </r>
       <r>    -9.1637     0.0000     0.0000 </r>
       <r>    -9.1103     0.0000     0.0000 </r>
       <r>    -9.0569     0.0000     0.0000 </r>
       <r>    -9.0035     0.0000     0.0000 </r>
       <r>    -8.9501     0.0001     0.0000 </r>
       <r>    -8.8966     0.0029     0.0002 </r>
       <r>    -8.8432     0.0392     0.0023 </r>
       <r>    -8.7898     0.3052     0.0186 </r>
       <r>    -8.7364     1.3730     0.0919 </r>
       <r>    -8.6830     3.5809     0.2832 </r>
       <r>    -8.6296     5.4506     0.5743 </r>
       <r>    -8.5762     5.0648     0.8449 </r>
       <r>    -8.5227     3.8271     1.0493 </r>
       <r>    -8.4693     4.3401     1.2811 </r>
       <r>    -8.4159     5.5406     1.5771 </r>
       <r>    -8.3625     4.7193     1.8292 </r>
       <r>    -8.3091     2.4026     1.9575 </r>
       <r>    -8.2557     0.9194     2.0066 </r>
       <r>    -8.2022     1.1824     2.0698 </r>
       <r>    -8.1488     3.0343     2.2319 </r>
       <r>    -8.0954     5.2404     2.5118 </r>
       <r>    -8.0420     6.0104     2.8329 </r>
       <r>    -7.9886     5.8007     3.1427 </r>
       <r>    -7.9352     6.0120     3.4638 </r>
       <r>    -7.8817     5.9510     3.7817 </r>
       <r>    -7.8283     5.5053     4.0758 </r>
       <r>    -7.7749     5.9151     4.3918 </r>
       <r>    -7.7215     6.5421     4.7412 </r>
       <r>    -7.6681     6.6591     5.0969 </r>
       <r>    -7.6147     7.2745     5.4855 </r>
       <r>    -7.5612     8.5058     5.9399 </r>
       <r>    -7.5078    10.1354     6.4813 </r>
       <r>    -7.4544    11.8113     7.1122 </r>
       <r>    -7.4010    12.0452     7.7556 </r>
       <r>    -7.3476    11.2917     8.3587 </r>
       <r>    -7.2942    11.2535     8.9599 </r>
       <r>    -7.2407    11.9091     9.5960 </r>
       <r>    -7.1873    12.3769    10.2571 </r>
       <r>    -7.1339    11.6677    10.8804 </r>
       <r>    -7.0805    10.5582    11.4444 </r>
       <r>    -7.0271    11.9874    12.0847 </r>
       <r>    -6.9737    17.4551    13.0171 </r>
       <r>    -6.9202    25.0058    14.3528 </r>
       <r>    -6.8668    31.7415    16.0483 </r>
       <r>    -6.8134    37.6008    18.0568 </r>
       <r>    -6.7600    44.2176    20.4188 </r>
       <r>    -6.7066    50.1976    23.1001 </r>
       <r>    -6.6532    52.6554    25.9128 </r>
       <r>    -6.5997    52.1830    28.7002 </r>
       <r>    -6.5463    51.3106    31.4411 </r>
       <r>    -6.4929    51.1913    34.1755 </r>
       <r>    -6.4395    51.8350    36.9444 </r>
       <r>    -6.3861    52.2449    39.7351 </r>
       <r>    -6.3327    52.3254    42.5301 </r>
       <r>    -6.2792    55.4485    45.4920 </r>
       <r>    -6.2258    63.4903    48.8834 </r>
       <r>    -6.1724    72.9771    52.7816 </r>
       <r>    -6.1190    79.3976    57.0227 </r>
       <r>    -6.0656    81.8822    61.3966 </r>
       <r>    -6.0122    82.7664    65.8177 </r>
       <r>    -5.9587    83.5069    70.2783 </r>
       <r>    -5.9053    83.8523    74.7574 </r>
       <r>    -5.8519    84.2113    79.2557 </r>
       <r>    -5.7985    84.1937    83.7530 </r>
       <r>    -5.7451    81.1904    88.0899 </r>
       <r>    -5.6917    75.0059    92.0965 </r>
       <r>    -5.6382    69.9692    95.8340 </r>
       <r>    -5.5848    68.2397    99.4791 </r>
       <r>    -5.5314    68.4078   103.1332 </r>
       <r>    -5.4780    70.0563   106.8754 </r>
       <r>    -5.4246    72.6287   110.7549 </r>
       <r>    -5.3712    75.9504   114.8119 </r>
       <r>    -5.3177    80.3881   119.1060 </r>
       <r>    -5.2643    83.5827   123.5707 </r>
       <r>    -5.2109    84.0466   128.0601 </r>
       <r>    -5.1575    83.7816   132.5354 </r>
       <r>    -5.1041    83.5902   137.0005 </r>
       <r>    -5.0507    83.2266   141.4462 </r>
       <r>    -4.9972    83.6221   145.9130 </r>
       <r>    -4.9438    84.7828   150.4418 </r>
       <r>    -4.8904    85.4692   155.0073 </r>
       <r>    -4.8370    85.0525   159.5505 </r>
       <r>    -4.7836    84.3423   164.0557 </r>
       <r>    -4.7302    84.4486   168.5667 </r>
       <r>    -4.6768    84.7061   173.0914 </r>
       <r>    -4.6233    85.0405   177.6339 </r>
       <r>    -4.5699    86.8856   182.2750 </r>
       <r>    -4.5165    89.6349   187.0630 </r>
       <r>    -4.4631    91.4328   191.9470 </r>
       <r>    -4.4097    90.7522   196.7947 </r>
       <r>    -4.3563    87.5700   201.4724 </r>
       <r>    -4.3028    84.9524   206.0102 </r>
       <r>    -4.2494    84.9388   210.5474 </r>
       <r>    -4.1960    86.7043   215.1788 </r>
       <r>    -4.1426    89.6435   219.9672 </r>
       <r>    -4.0892    92.1537   224.8898 </r>
       <r>    -4.0358    92.7041   229.8417 </r>
       <r>    -3.9823    92.2581   234.7698 </r>
       <r>    -3.9289    91.5897   239.6622 </r>
       <r>    -3.8755    91.8384   244.5678 </r>
       <r>    -3.8221    94.4399   249.6125 </r>
       <r>    -3.7687    98.0995   254.8526 </r>
       <r>    -3.7153   100.3189   260.2113 </r>
       <r>    -3.6618   100.5271   265.5811 </r>
       <r>    -3.6084   100.0385   270.9248 </r>
       <r>    -3.5550    99.6352   276.2470 </r>
       <r>    -3.5016    98.8673   281.5281 </r>
       <r>    -3.4482    98.3008   286.7790 </r>
       <r>    -3.3948   100.0254   292.1220 </r>
       <r>    -3.3413   103.6623   297.6592 </r>
       <r>    -3.2879   104.8486   303.2599 </r>
       <r>    -3.2345   101.7809   308.6967 </r>
       <r>    -3.1811    98.1285   313.9383 </r>
       <r>    -3.1277    96.2001   319.0770 </r>
       <r>    -3.0743    94.4818   324.1239 </r>
       <r>    -3.0208    92.2273   329.0503 </r>
       <r>    -2.9674    90.7770   333.8993 </r>
       <r>    -2.9140    90.9794   338.7591 </r>
       <r>    -2.8606    91.9179   343.6690 </r>
       <r>    -2.8072    91.6239   348.5633 </r>
       <r>    -2.7538    89.3751   353.3374 </r>
       <r>    -2.7003    87.1400   357.9921 </r>
       <r>    -2.6469    86.8257   362.6300 </r>
       <r>    -2.5935    87.5635   367.3073 </r>
       <r>    -2.5401    88.8504   372.0534 </r>
       <r>    -2.4867    90.6869   376.8976 </r>
       <r>    -2.4333    91.3576   381.7776 </r>
       <r>    -2.3798    90.8536   386.6306 </r>
       <r>    -2.3264    90.3564   391.4572 </r>
       <r>    -2.2730    89.8701   396.2577 </r>
       <r>    -2.2196    90.1077   401.0709 </r>
       <r>    -2.1662    92.4282   406.0081 </r>
       <r>    -2.1128    95.7883   411.1248 </r>
       <r>    -2.0593    97.4222   416.3287 </r>
       <r>    -2.0059    96.6270   421.4902 </r>
       <r>    -1.9525    95.9042   426.6131 </r>
       <r>    -1.8991    98.1263   431.8546 </r>
       <r>    -1.8457   102.2974   437.3190 </r>
       <r>    -1.7923   104.1823   442.8840 </r>
       <r>    -1.7388   101.9887   448.3319 </r>
       <r>    -1.6854    98.2850   453.5819 </r>
       <r>    -1.6320    95.8627   458.7026 </r>
       <r>    -1.5786    95.0964   463.7823 </r>
       <r>    -1.5252    95.1103   468.8627 </r>
       <r>    -1.4718    94.7352   473.9232 </r>
       <r>    -1.4183    93.8654   478.9371 </r>
       <r>    -1.3649    92.9820   483.9039 </r>
       <r>    -1.3115    91.2048   488.7757 </r>
       <r>    -1.2581    86.7323   493.4087 </r>
       <r>    -1.2047    78.6784   497.6114 </r>
       <r>    -1.1513    68.1815   501.2534 </r>
       <r>    -1.0978    56.4083   504.2665 </r>
       <r>    -1.0444    43.1804   506.5731 </r>
       <r>    -0.9910    29.0184   508.1231 </r>
       <r>    -0.9376    17.8413   509.0761 </r>
       <r>    -0.8842    12.9981   509.7704 </r>
       <r>    -0.8308    12.0005   510.4115 </r>
       <r>    -0.7774    11.0171   511.0000 </r>
       <r>    -0.7239     9.4235   511.5033 </r>
       <r>    -0.6705     8.1767   511.9401 </r>
       <r>    -0.6171     8.7686   512.4085 </r>
       <r>    -0.5637    12.2723   513.0640 </r>
       <r>    -0.5103    17.7544   514.0124 </r>
       <r>    -0.4569    22.2935   515.2033 </r>
       <r>    -0.4034    22.6235   516.4117 </r>
       <r>    -0.3500    18.5509   517.4026 </r>
       <r>    -0.2966    14.7960   518.1930 </r>
       <r>    -0.2432    16.1667   519.0566 </r>
       <r>    -0.1898    20.3592   520.1441 </r>
       <r>    -0.1364    21.2018   521.2766 </r>
       <r>    -0.0829    17.4511   522.2088 </r>
       <r>    -0.0295    13.2653   522.9174 </r>
       <r>     0.0239    12.2998   523.5744 </r>
       <r>     0.0773    14.7566   524.3626 </r>
       <r>     0.1307    18.0235   525.3254 </r>
       <r>     0.1841    18.8248   526.3309 </r>
       <r>     0.2376    17.5353   527.2676 </r>
       <r>     0.2910    17.4617   528.2003 </r>
       <r>     0.3444    18.6203   529.1950 </r>
       <r>     0.3978    18.4455   530.1803 </r>
       <r>     0.4512    17.0965   531.0935 </r>
       <r>     0.5046    16.8582   531.9940 </r>
       <r>     0.5581    18.2611   532.9694 </r>
       <r>     0.6115    20.2879   534.0532 </r>
       <r>     0.6649    21.8970   535.2228 </r>
       <r>     0.7183    22.1747   536.4073 </r>
       <r>     0.7717    20.9394   537.5258 </r>
       <r>     0.8251    18.2639   538.5014 </r>
       <r>     0.8786    14.3891   539.2700 </r>
       <r>     0.9320    10.5230   539.8321 </r>
       <r>     0.9854     8.7027   540.2970 </r>
       <r>     1.0388     9.4256   540.8005 </r>
       <r>     1.0922    10.5201   541.3624 </r>
       <r>     1.1456    10.2783   541.9115 </r>
       <r>     1.1991     9.1995   542.4029 </r>
       <r>     1.2525     8.2135   542.8416 </r>
       <r>     1.3059     7.6161   543.2484 </r>
       <r>     1.3593     7.5489   543.6517 </r>
       <r>     1.4127     8.8441   544.1241 </r>
       <r>     1.4661    12.3756   544.7851 </r>
       <r>     1.5196    16.1175   545.6461 </r>
       <r>     1.5730    16.9040   546.5490 </r>
       <r>     1.6264    15.7167   547.3885 </r>
       <r>     1.6798    15.3271   548.2073 </r>
       <r>     1.7332    15.8940   549.0563 </r>
       <r>     1.7866    16.8470   549.9562 </r>
       <r>     1.8401    17.1569   550.8726 </r>
       <r>     1.8935    14.8661   551.6667 </r>
       <r>     1.9469    10.9133   552.2497 </r>
       <r>     2.0003     7.6243   552.6569 </r>
       <r>     2.0537     5.7287   552.9629 </r>
       <r>     2.1071     6.7460   553.3233 </r>
       <r>     2.1606    11.3124   553.9276 </r>
       <r>     2.2140    16.2847   554.7974 </r>
       <r>     2.2674    19.2856   555.8276 </r>
       <r>     2.3208    21.8303   556.9937 </r>
       <r>     2.3742    24.9409   558.3260 </r>
       <r>     2.4276    27.1785   559.7777 </r>
       <r>     2.4811    27.3071   561.2364 </r>
       <r>     2.5345    25.2190   562.5835 </r>
       <r>     2.5879    22.1471   563.7665 </r>
       <r>     2.6413    20.9171   564.8838 </r>
       <r>     2.6947    22.0789   566.0632 </r>
       <r>     2.7481    21.9508   567.2357 </r>
       <r>     2.8016    17.7904   568.1860 </r>
       <r>     2.8550    11.7644   568.8144 </r>
       <r>     2.9084     7.9281   569.2379 </r>
       <r>     2.9618     6.6850   569.5950 </r>
       <r>     3.0152     5.7749   569.9035 </r>
       <r>     3.0686     5.3827   570.1910 </r>
       <r>     3.1220     6.4710   570.5367 </r>
       <r>     3.1755     8.1579   570.9724 </r>
       <r>     3.2289    10.2752   571.5213 </r>
       <r>     3.2823    12.4044   572.1839 </r>
       <r>     3.3357    12.6292   572.8585 </r>
       <r>     3.3891    11.0518   573.4489 </r>
       <r>     3.4425     9.6627   573.9650 </r>
       <r>     3.4960    10.0738   574.5031 </r>
       <r>     3.5494    12.8527   575.1897 </r>
       <r>     3.6028    16.3405   576.0625 </r>
       <r>     3.6562    17.6737   577.0066 </r>
       <r>     3.7096    16.6862   577.8979 </r>
       <r>     3.7630    15.9355   578.7491 </r>
       <r>     3.8165    15.7695   579.5915 </r>
       <r>     3.8699    13.8358   580.3305 </r>
       <r>     3.9233    10.6525   580.8995 </r>
       <r>     3.9767    10.3220   581.4509 </r>
       <r>     4.0301    13.6588   582.1805 </r>
       <r>     4.0835    15.9822   583.0342 </r>
       <r>     4.1370    15.0574   583.8385 </r>
       <r>     4.1904    13.7981   584.5756 </r>
       <r>     4.2438    12.6977   585.2538 </r>
       <r>     4.2972     9.9210   585.7838 </r>
       <r>     4.3506     8.0487   586.2137 </r>
       <r>     4.4040    10.0780   586.7521 </r>
       <r>     4.4575    13.5972   587.4784 </r>
       <r>     4.5109    16.4937   588.3594 </r>
       <r>     4.5643    20.7947   589.4702 </r>
       <r>     4.6177    26.2312   590.8714 </r>
       <r>     4.6711    28.8276   592.4112 </r>
       <r>     4.7245    26.6954   593.8372 </r>
       <r>     4.7780    22.2198   595.0241 </r>
       <r>     4.8314    19.8692   596.0854 </r>
       <r>     4.8848    21.9059   597.2556 </r>
       <r>     4.9382    26.6900   598.6813 </r>
       <r>     4.9916    31.8774   600.3840 </r>
       <r>     5.0450    36.3110   602.3236 </r>
       <r>     5.0985    37.6170   604.3330 </r>
       <r>     5.1519    34.3082   606.1656 </r>
       <r>     5.2053    29.3293   607.7323 </r>
       <r>     5.2587    25.4954   609.0942 </r>
       <r>     5.3121    21.7866   610.2579 </r>
       <r>     5.3655    16.4631   611.1373 </r>
       <r>     5.4190    10.0214   611.6726 </r>
       <r>     5.4724     4.4867   611.9123 </r>
       <r>     5.5258     1.3526   611.9846 </r>
       <r>     5.5792     0.2573   611.9983 </r>
       <r>     5.6326     0.0297   611.9999 </r>
       <r>     5.6860     0.0020   612.0000 </r>
       <r>     5.7395     0.0001   612.0000 </r>
       <r>     5.7929     0.0000   612.0000 </r>
       <r>     5.8463     0.0000   612.0000 </r>
       <r>     5.8997     0.0000   612.0000 </r>
       <r>     5.9531     0.0000   612.0000 </r>
       <r>     6.0065     0.0000   612.0000 </r>
       <r>     6.0600     0.0000   612.0000 </r>
       <r>     6.1134     0.0000   612.0000 </r>
       <r>     6.1668     0.0000   612.0000 </r>
       <r>     6.2202     0.0000   612.0000 </r>
       <r>     6.2736     0.0000   612.0000 </r>
       <r>     6.3270     0.0000   612.0000 </r>
       <r>     6.3805     0.0000   612.0000 </r>
      </set>
     </set>
    </array>
   </total>
  </dos>
 </calculation>
 <structure name="finalpos" >
  <crystal>
   <varray name="basis" >
    <v>      11.00258152       0.00000000       0.00000000 </v>
    <v>       5.50129076       9.52851510       0.00000000 </v>
    <v>       0.00000000       0.00000000      24.49178509 </v>
   </varray>
   <i name="volume">   2567.67623402 </i>
   <varray name="rec_basis" >
    <v>       0.09088776      -0.05247407       0.00000000 </v>
    <v>       0.00000000       0.10494815       0.00000000 </v>
    <v>       0.00000000       0.00000000       0.04083002 </v>
   </varray>
  </crystal>
  <varray name="positions" >
   <v>       0.07862817       0.08703965       0.39613896 </v>
   <v>       0.83499606       0.58095898       0.39612009 </v>
   <v>       0.74964526       0.24876026       0.60278132 </v>
   <v>       0.66880350       0.41537043       0.50021915 </v>
   <v>       0.58474715       0.83170616       0.39492903 </v>
   <v>       0.50165697       0.49902898       0.60605946 </v>
   <v>       0.41807491       0.66835716       0.50000006 </v>
   <v>       0.50109993      -0.00340635       0.60137347 </v>
   <v>       0.41739326       0.16882213       0.50001526 </v>
   <v>       0.58657288       0.08567555       0.39440658 </v>
   <v>       0.66745870       0.91755628       0.49847521 </v>
   <v>       0.33307340       0.83187027       0.39629394 </v>
   <v>       0.25102712       0.49761486       0.60509011 </v>
   <v>       0.16764082       0.66635454       0.50183961 </v>
   <v>       0.24941003       0.24719870       0.60480262 </v>
   <v>       0.25146292       0.75133018       0.60428855 </v>
   <v>      -0.00344902       0.49883536       0.60271700 </v>
   <v>       0.33174353       0.33770211       0.39939213 </v>
   <v>       0.16544120       0.16711159       0.49895304 </v>
   <v>       0.33249305       0.08550026       0.39480062 </v>
   <v>      -0.00413655       0.75170934       0.60575967 </v>
   <v>       0.08053547       0.83304066       0.39895272 </v>
   <v>       0.91727456       0.66577156       0.50018242 </v>
   <v>       0.00003459       0.00072683       0.60025546 </v>
   <v>       0.66789612       0.16703451       0.50012046 </v>
   <v>       0.74867389      -0.00050708       0.59631665 </v>
   <v>       0.83150471       0.33378389       0.40318819 </v>
   <v>       0.08200774       0.33499917       0.40340584 </v>
   <v>       0.16728901       0.41591906       0.50266910 </v>
   <v>       0.91712969       0.16481473       0.49994898 </v>
   <v>       0.66757244       0.66711422       0.49700317 </v>
   <v>       0.74921775       0.50113346       0.59551826 </v>
   <v>       0.83368665       0.83393039       0.40228983 </v>
   <v>       0.83215259       0.08503741       0.40428674 </v>
   <v>       0.50134607       0.74908107       0.59504382 </v>
   <v>       0.08340491       0.58285052       0.40478452 </v>
   <v>       0.91671782       0.41702553       0.49907820 </v>
   <v>      -0.00115377       0.24970706       0.59578306 </v>
   <v>       0.58351995       0.58105139       0.40147305 </v>
   <v>       0.50067673       0.24793642       0.59810381 </v>
   <v>       0.41788286       0.41598168       0.50196070 </v>
   <v>       0.58440078       0.33510031       0.40416188 </v>
   <v>       0.91763819       0.91895635       0.50062875 </v>
   <v>       0.16622938       0.91780487       0.49850385 </v>
   <v>       0.33411271       0.58265191       0.40451340 </v>
   <v>       0.25070403      -0.00123177       0.59422737 </v>
   <v>       0.41752887       0.91683603       0.49725559 </v>
   <v>       0.74823299       0.74835338       0.59588829 </v>
  </varray>
 </structure>
</modeling>
