unknown system                          
           1
    11.002582    0.000000    0.000000
     5.501291    9.528515    0.000000
     0.000000    0.000000   24.491785
   Au   Pd
  24  24
Direct configuration=     1
   0.08333333  0.08333333  0.40830017
   0.83333333  0.58333333  0.40830017
   0.75000000  0.25000000  0.59169983
   0.66666667  0.41666667  0.50000000
   0.58333333  0.83333333  0.40830017
   0.50000000  0.50000000  0.59169983
   0.41666667  0.66666667  0.50000000
   0.50000000  0.00000000  0.59169983
   0.41666667  0.16666667  0.50000000
   0.58333333  0.08333333  0.40830017
   0.66666667  0.91666667  0.50000000
   0.33333333  0.83333333  0.40830017
   0.25000000  0.50000000  0.59169983
   0.16666667  0.66666667  0.50000000
   0.25000000  0.25000000  0.59169983
   0.25000000  0.75000000  0.59169983
   0.00000000  0.50000000  0.59169983
   0.33333333  0.33333333  0.40830017
   0.16666667  0.16666667  0.50000000
   0.33333333  0.08333333  0.40830017
   0.00000000  0.75000000  0.59169983
   0.08333333  0.83333333  0.40830017
   0.91666667  0.66666667  0.50000000
   0.00000000  0.00000000  0.59169983
   0.66666667  0.16666667  0.50000000
   0.75000000  0.00000000  0.59169983
   0.83333333  0.33333333  0.40830017
   0.08333333  0.33333333  0.40830017
   0.16666667  0.41666667  0.50000000
   0.91666667  0.16666667  0.50000000
   0.66666667  0.66666667  0.50000000
   0.75000000  0.50000000  0.59169983
   0.83333333  0.83333333  0.40830017
   0.83333333  0.08333333  0.40830017
   0.50000000  0.75000000  0.59169983
   0.08333333  0.58333333  0.40830017
   0.91666667  0.41666667  0.50000000
   0.00000000  0.25000000  0.59169983
   0.58333333  0.58333333  0.40830017
   0.50000000  0.25000000  0.59169983
   0.41666667  0.41666667  0.50000000
   0.58333333  0.33333333  0.40830017
   0.91666667  0.91666667  0.50000000
   0.16666667  0.91666667  0.50000000
   0.33333333  0.58333333  0.40830017
   0.25000000  0.00000000  0.59169983
   0.41666667  0.91666667  0.50000000
   0.75000000  0.75000000  0.59169983
Direct configuration=     2
   0.08144649  0.08459424  0.40643955
   0.83392505  0.58229994  0.40647695
   0.75025548  0.24938898  0.59351518
   0.66798832  0.41601251  0.49922895
   0.58383466  0.83220774  0.40635152
   0.50051542  0.49967623  0.59389940
   0.41757164  0.66722246  0.49963882
   0.50053560 -0.00114166  0.59378106
   0.41712712  0.16799861  0.50041310
   0.58513653  0.08369608  0.40610468
   0.66814715  0.91598165  0.50040081
   0.33388057  0.83231113  0.40640298
   0.25106488  0.49863488  0.59366669
   0.16696094  0.66590721  0.49915182
   0.24971348  0.24980065  0.59384125
   0.25051955  0.75135059  0.59391424
  -0.00129876  0.49952140  0.59357032
   0.33238668  0.33536348  0.40644621
   0.16486221  0.16704507  0.50036246
   0.33280157  0.08361350  0.40605576
  -0.00178774  0.75134226  0.59392610
   0.08221640  0.83330588  0.40649794
   0.91624687  0.66652379  0.49963687
  -0.00016885  0.00078626  0.59323992
   0.66728844  0.16670637  0.49991840
   0.74973261  0.00028718  0.59263248
   0.83300849  0.33320605  0.40743521
   0.08242302  0.33411278  0.40729339
   0.16617947  0.41690795  0.49956253
   0.91637550  0.16650152  0.49977367
   0.66646037  0.66638461  0.50042960
   0.75037481  0.50059232  0.59263591
   0.83390217  0.83361062  0.40711353
   0.83290240  0.08382675  0.40758459
   0.50050658  0.75024791  0.59268857
   0.08360864  0.58289596  0.40720619
   0.91650438  0.41602185  0.49993059
  -0.00019801  0.25004576  0.59262880
   0.58355006  0.58247069  0.40717801
   0.50057606  0.24975247  0.59274719
   0.41714245  0.41574192  0.49963772
   0.58405698  0.33354357  0.40742079
   0.91564582  0.91854095  0.49973702
   0.16626399  0.91767219  0.50027436
   0.33387222  0.58248477  0.40717913
   0.25006273 -0.00020824  0.59268085
   0.41655851  0.91556104  0.50053657
   0.74932104  0.74965014  0.59281234
Direct configuration=     3
   0.07578597  0.08837697  0.40085768
   0.83570018  0.57919976  0.40100729
   0.75102193  0.24755594  0.59896123
   0.67195328  0.41405002  0.49691581
   0.58533866  0.82883096  0.40050556
   0.50206167  0.49870494  0.60049813
   0.42028657  0.66888982  0.49855529
   0.50214239 -0.00456662  0.60002476
   0.41850849  0.17199444  0.50165240
   0.59054612  0.08478433  0.39951820
   0.67258860  0.91392660  0.50160323
   0.33552229  0.82924453  0.40071140
   0.25425951  0.49453951  0.59956726
   0.16784375  0.66362884  0.49660727
   0.24885393  0.24920260  0.60026551
   0.25207821  0.75540237  0.60055749
  -0.00519505  0.49808560  0.59918178
   0.32954671  0.34145393  0.40088433
   0.15944886  0.16818027  0.50144983
   0.33120627  0.08445399  0.39932253
  -0.00715094  0.75536906  0.60060493
   0.07886559  0.83322351  0.40109124
   0.91498749  0.66609514  0.49854746
  -0.00067538  0.00314505  0.59786020
   0.66915377  0.16682546  0.49967359
   0.74893046  0.00114871  0.59543043
   0.83203396  0.33282420  0.40484033
   0.07969208  0.33645112  0.40427307
   0.16471787  0.41763179  0.49825011
   0.91550198  0.16600606  0.49909469
   0.66584149  0.66553843  0.50171839
   0.75149923  0.50236928  0.59544413
   0.83560866  0.83444247  0.40355360
   0.83160962  0.08530700  0.40543783
   0.50202632  0.75099165  0.59565478
   0.08443457  0.58158384  0.40392424
   0.91601751  0.41408742  0.49972237
  -0.00079205  0.25018302  0.59541571
   0.58420024  0.57988277  0.40381153
   0.50230423  0.24900989  0.59588926
   0.41856980  0.41296768  0.49855090
   0.58622793  0.33417427  0.40478266
   0.91258328  0.92416380  0.49894809
   0.16505598  0.92068875  0.50109744
   0.33548887  0.57993909  0.40381602
   0.25025090 -0.00083298  0.59562392
   0.41623404  0.91224416  0.50214627
   0.74728418  0.74860056  0.59614986
Direct configuration=     4
   0.07722473  0.08726200  0.39929809
   0.83484570  0.57992990  0.39948682
   0.75040029  0.24920685  0.60027130
   0.67008815  0.41468281  0.49811903
   0.58578350  0.82983141  0.39949873
   0.50261145  0.49929017  0.60167276
   0.41861237  0.66700584  0.49906316
   0.50155103 -0.00316545  0.60157393
   0.41794189  0.16891330  0.50119048
   0.58821198  0.08490366  0.39809343
   0.66892574  0.91571768  0.50102761
   0.33355853  0.83056242  0.39921321
   0.25219564  0.49711361  0.60057424
   0.16784741  0.66548122  0.49776319
   0.24931939  0.24829717  0.60178645
   0.25190176  0.75318809  0.60176330
  -0.00373858  0.49910788  0.60041082
   0.33105462  0.33829447  0.39924145
   0.16291541  0.16781591  0.50094356
   0.33191648  0.08497722  0.39842897
  -0.00536266  0.75361827  0.60172157
   0.08011659  0.83356983  0.39960866
   0.91620970  0.66504866  0.49889790
  -0.00055076  0.00256502  0.59915076
   0.66842356  0.16739207  0.49983750
   0.74834861  0.00136968  0.59642706
   0.83208526  0.33310436  0.40335059
   0.08065852  0.33509585  0.40343460
   0.16475708  0.41651282  0.49896482
   0.91536022  0.16533623  0.49948280
   0.66719703  0.66567061  0.50108329
   0.74999916  0.50128818  0.59620695
   0.83468980  0.83379676  0.40259402
   0.83207495  0.08557587  0.40428344
   0.50208436  0.74959502  0.59689839
   0.08297343  0.58252741  0.40246387
   0.91592294  0.41554387  0.49974374
  -0.00150166  0.25019777  0.59648074
   0.58466335  0.57968861  0.40245413
   0.50269096  0.24813297  0.59694155
   0.41905865  0.41499449  0.49896699
   0.58574848  0.33427668  0.40354088
   0.91561532  0.92226469  0.49929669
   0.16480870  0.91866797  0.50061826
   0.33585957  0.58103148  0.40266109
   0.25039322  0.00042885  0.59672949
   0.41647340  0.91592569  0.50149331
   0.74803471  0.74836412  0.59724638
Direct configuration=     5
   0.07787657  0.08675686  0.39859151
   0.83445857  0.58026070  0.39879796
   0.75011865  0.24995481  0.60086485
   0.66924313  0.41496949  0.49866416
   0.58598504  0.83028468  0.39904257
   0.50286054  0.49955532  0.60220495
   0.41785386  0.66615228  0.49929326
   0.50128311 -0.00253064  0.60227580
   0.41768518  0.16751737  0.50098121
   0.58715447  0.08495773  0.39744792
   0.66726625  0.91652915  0.50076682
   0.33266883  0.83115950  0.39853444
   0.25126058  0.49827983  0.60103046
   0.16784907  0.66632045  0.49828689
   0.24953027  0.24788696  0.60247552
   0.25182182  0.75218490  0.60230960
  -0.00307871  0.49957103  0.60096764
   0.33173780  0.33686305  0.39849713
   0.16448597  0.16765082  0.50071419
   0.33223825  0.08521428  0.39802413
  -0.00455247  0.75282506  0.60222748
   0.08068337  0.83372674  0.39893697
   0.91676343  0.66457455  0.49905667
  -0.00049430  0.00230222  0.59973546
   0.66809274  0.16764877  0.49991176
   0.74808500  0.00146979  0.59687860
   0.83210851  0.33323129  0.40267565
   0.08109637  0.33448183  0.40305472
   0.16477484  0.41600586  0.49928862
   0.91529600  0.16503276  0.49965863
   0.66781118  0.66573050  0.50079556
   0.74931954  0.50079838  0.59655255
   0.83427351  0.83350422  0.40215928
   0.83228578  0.08569769  0.40376043
   0.50211065  0.74896226  0.59746182
   0.08231145  0.58295491  0.40180223
   0.91588010  0.41620373  0.49975342
  -0.00182315  0.25020446  0.59696326
   0.58487316  0.57960064  0.40183915
   0.50286617  0.24773567  0.59741830
   0.41928012  0.41591276  0.49915550
   0.58553127  0.33432308  0.40297828
   0.91698901  0.92140429  0.49945463
   0.16469667  0.91775244  0.50040117
   0.33602752  0.58152639  0.40213784
   0.25045770  0.00100054  0.59723038
   0.41658185  0.91759364  0.50119748
   0.74837475  0.74825700  0.59774317
Direct configuration=     6
   0.07896256  0.08644114  0.39814036
   0.83433627  0.58045088  0.39824342
   0.74999152  0.24996640  0.60136707
   0.66914571  0.41526132  0.49906383
   0.58500414  0.83100633  0.39880767
   0.50195110  0.49955965  0.60266557
   0.41778045  0.66764361  0.49955399
   0.50142608 -0.00257506  0.60283770
   0.41729969  0.16841894  0.50073672
   0.58659143  0.08481037  0.39702664
   0.66762508  0.91666139  0.50046814
   0.33301937  0.83195638  0.39822657
   0.25120473  0.49853421  0.60119879
   0.16710505  0.66612503  0.49875512
   0.24952671  0.24858178  0.60302713
   0.25149938  0.75182834  0.60263034
  -0.00265970  0.49947472  0.60131474
   0.33197352  0.33669493  0.39818824
   0.16474925  0.16694835  0.50043944
   0.33267617  0.08458046  0.39776811
  -0.00393387  0.75254469  0.60249249
   0.08076103  0.83337731  0.39845027
   0.91707051  0.66556894  0.49924691
  -0.00024201  0.00158712  0.60012275
   0.66748139  0.16721655  0.49990786
   0.74856916  0.00083679  0.59700055
   0.83213231  0.33330675  0.40233557
   0.08152647  0.33405123  0.40289789
   0.16621815  0.41587906  0.49967754
   0.91619914  0.16520921  0.49984284
   0.66712381  0.66636040  0.50028055
   0.74962041  0.50062466  0.59672587
   0.83398161  0.83363191  0.40214334
   0.83209161  0.08537010  0.40343648
   0.50163736  0.74921847  0.59755636
   0.08265939  0.58300466  0.40165062
   0.91600627  0.41602783  0.49973618
  -0.00165554  0.25048395  0.59707742
   0.58453834  0.58033011  0.40156911
   0.50178659  0.24841058  0.59759315
   0.41830220  0.41537614  0.49944044
   0.58518694  0.33427582  0.40262944
   0.91713356  0.91980796  0.49965808
   0.16568938  0.91760864  0.50021827
   0.33545874  0.58161307  0.40188460
   0.25044180  0.00044137  0.59731237
   0.41642112  0.91697820  0.50076527
   0.74858561  0.74848927  0.59788818
Direct configuration=     7
   0.07929552  0.08634435  0.39800203
   0.83429877  0.58050919  0.39807340
   0.74995254  0.24996995  0.60152105
   0.66911584  0.41535080  0.49918637
   0.58470340  0.83122759  0.39873565
   0.50167227  0.49956097  0.60280679
   0.41775795  0.66810086  0.49963394
   0.50146991 -0.00258868  0.60300998
   0.41718150  0.16869536  0.50066175
   0.58641880  0.08476519  0.39689747
   0.66773509  0.91670194  0.50037657
   0.33312685  0.83220071  0.39813217
   0.25118761  0.49861221  0.60125041
   0.16687693  0.66606511  0.49889868
   0.24952562  0.24879481  0.60319626
   0.25140052  0.75171902  0.60272868
  -0.00253123  0.49944519  0.60142116
   0.33204580  0.33664339  0.39809354
   0.16482998  0.16673297  0.50035520
   0.33281044  0.08438612  0.39768962
  -0.00374420  0.75245872  0.60257374
   0.08078484  0.83327018  0.39830105
   0.91716466  0.66587383  0.49930524
  -0.00016466  0.00136787  0.60024150
   0.66729395  0.16708403  0.49990667
   0.74871761  0.00064272  0.59703794
   0.83213961  0.33332989  0.40223129
   0.08165834  0.33391920  0.40284981
   0.16666067  0.41584018  0.49979678
   0.91647604  0.16526331  0.49989931
   0.66691306  0.66655352  0.50012265
   0.74971266  0.50057140  0.59677900
   0.83389211  0.83367106  0.40213846
   0.83203208  0.08526966  0.40333716
   0.50149225  0.74929703  0.59758534
   0.08276607  0.58301992  0.40160414
   0.91604496  0.41597390  0.49973090
  -0.00160414  0.25056965  0.59711243
   0.58443569  0.58055377  0.40148631
   0.50145559  0.24861751  0.59764676
   0.41800236  0.41521161  0.49952780
   0.58508137  0.33426133  0.40252248
   0.91717788  0.91931852  0.49972046
   0.16599374  0.91756455  0.50016220
   0.33528435  0.58163965  0.40180696
   0.25043693  0.00026993  0.59733751
   0.41637183  0.91678951  0.50063275
   0.74865026  0.74856049  0.59793264
Direct configuration=     8
   0.07916877  0.08629364  0.39778749
   0.83453993  0.58054683  0.39786002
   0.74993106  0.24952345  0.60174642
   0.66885454  0.41525469  0.49920907
   0.58458838  0.83127846  0.39855981
   0.50139385  0.49948563  0.60304685
   0.41771261  0.66824826  0.49965102
   0.50148468 -0.00271044  0.60316207
   0.41712911  0.16865339  0.50061110
   0.58652796  0.08473755  0.39663429
   0.66763530  0.91681390  0.50030665
   0.33333297  0.83192471  0.39799552
   0.25128077  0.49847173  0.60141650
   0.16737195  0.66585983  0.49895430
   0.24954262  0.24878783  0.60347351
   0.25131731  0.75189446  0.60290166
  -0.00271677  0.49940865  0.60153052
   0.33179997  0.33705197  0.39800559
   0.16474856  0.16676219  0.50031847
   0.33283535  0.08450804  0.39749422
  -0.00375803  0.75241616  0.60281091
   0.08073094  0.83314206  0.39815403
   0.91695113  0.66563245  0.49937937
  -0.00018265  0.00140860  0.60033648
   0.66765652  0.16690054  0.49984938
   0.74885299  0.00045582  0.59697675
   0.83209047  0.33318906  0.40228017
   0.08178834  0.33410956  0.40292211
   0.16676016  0.41592558  0.49996467
   0.91666376  0.16499572  0.49992711
   0.66700465  0.66681626  0.49980347
   0.74988413  0.50091073  0.59676487
   0.83379084  0.83375980  0.40219788
   0.83207268  0.08506915  0.40341042
   0.50138534  0.74953650  0.59746136
   0.08310368  0.58274522  0.40178628
   0.91637093  0.41620887  0.49964458
  -0.00119025  0.25044808  0.59703626
   0.58397935  0.58082244  0.40151525
   0.50105344  0.24877484  0.59766502
   0.41769445  0.41549313  0.49959309
   0.58503564  0.33439494  0.40257725
   0.91709180  0.91940167  0.49979409
   0.16605169  0.91762179  0.50004467
   0.33494872  0.58181827  0.40199169
   0.25045428  0.00001468  0.59717340
   0.41663005  0.91659624  0.50048557
   0.74860601  0.74859705  0.59778879
Direct configuration=     9
   0.07903059  0.08623836  0.39755358
   0.83480285  0.58058787  0.39762740
   0.74990765  0.24903666  0.60199212
   0.66856966  0.41514991  0.49923382
   0.58446300  0.83133391  0.39836811
   0.50109033  0.49940350  0.60330856
   0.41766318  0.66840896  0.49966964
   0.50150077 -0.00284318  0.60332787
   0.41707200  0.16860763  0.50055588
   0.58664697  0.08470741  0.39634737
   0.66752651  0.91693596  0.50023043
   0.33355770  0.83162382  0.39784654
   0.25138234  0.49831858  0.60159757
   0.16791162  0.66563603  0.49901494
   0.24956115  0.24878022  0.60377578
   0.25122661  0.75208573  0.60309025
  -0.00291904  0.49936882  0.60164975
   0.33153197  0.33749740  0.39790970
   0.16465980  0.16679404  0.50027842
   0.33286251  0.08464096  0.39728118
  -0.00377310  0.75236977  0.60306947
   0.08067217  0.83300239  0.39799376
   0.91671835  0.66536930  0.49946018
  -0.00020226  0.00145301  0.60044004
   0.66805179  0.16670050  0.49978692
   0.74900058  0.00025207  0.59691004
   0.83203690  0.33303554  0.40233345
   0.08193006  0.33431709  0.40300092
   0.16686862  0.41601869  0.50014771
   0.91686840  0.16470399  0.49995742
   0.66710451  0.66710270  0.49945549
   0.75007107  0.50128067  0.59674946
   0.83368043  0.83385653  0.40226267
   0.83211694  0.08485055  0.40349028
   0.50126879  0.74979758  0.59732620
   0.08347175  0.58244573  0.40198484
   0.91672630  0.41646503  0.49955048
  -0.00073902  0.25031554  0.59695322
   0.58348185  0.58111535  0.40154679
   0.50061502  0.24894635  0.59768492
   0.41735876  0.41580004  0.49966428
   0.58498578  0.33454061  0.40263696
   0.91699796  0.91949233  0.49987437
   0.16611486  0.91768419  0.49991654
   0.33458281  0.58201301  0.40219309
   0.25047319 -0.00026359  0.59699448
   0.41691156  0.91638554  0.50032512
   0.74855777  0.74863691  0.59763197
Direct configuration=    10
   0.07894031  0.08620786  0.39733356
   0.83489470  0.58056297  0.39736876
   0.74980281  0.24904003  0.60219410
   0.66865169  0.41514991  0.49934377
   0.58460750  0.83127677  0.39810124
   0.50140617  0.49931900  0.60355666
   0.41791403  0.66828149  0.49974716
   0.50144254 -0.00284904  0.60342489
   0.41713453  0.16851726  0.50051002
   0.58656693  0.08497197  0.39603963
   0.66735745  0.91721775  0.50015995
   0.33336602  0.83159116  0.39766554
   0.25110370  0.49839479  0.60186026
   0.16772489  0.66596546  0.49914329
   0.24966192  0.24847186  0.60408136
   0.25115820  0.75214742  0.60328674
  -0.00291569  0.49937255  0.60179880
   0.33164677  0.33757637  0.39784214
   0.16477611  0.16688137  0.50021242
   0.33271563  0.08490816  0.39703587
  -0.00373048  0.75221517  0.60334921
   0.08057401  0.83294520  0.39789933
   0.91691009  0.66533093  0.49951874
  -0.00018317  0.00152692  0.60052097
   0.66808193  0.16671498  0.49974863
   0.74887666  0.00014601  0.59681248
   0.83192543  0.33307645  0.40249786
   0.08201203  0.33435283  0.40310771
   0.16688532  0.41601024  0.50040293
   0.91688766  0.16468359  0.49998250
   0.66717406  0.66696323  0.49906742
   0.74983474  0.50134043  0.59658369
   0.83372349  0.83373944  0.40236389
   0.83221826  0.08469019  0.40360392
   0.50129895  0.74973250  0.59710266
   0.08345893  0.58248030  0.40229082
   0.91668801  0.41652657  0.49943396
  -0.00067397  0.25018469  0.59681282
   0.58340210  0.58104758  0.40161950
   0.50058378  0.24867871  0.59764549
   0.41751522  0.41575318  0.49974225
   0.58485431  0.33468336  0.40276433
   0.91728833  0.91923931  0.49996539
   0.16601454  0.91770433  0.49973379
   0.33438114  0.58222391  0.40241735
   0.25054813 -0.00029303  0.59672903
   0.41703378  0.91655530  0.50015639
   0.74846051  0.74874257  0.59742074
Direct configuration=    11
   0.07880720  0.08616289  0.39700912
   0.83503015  0.58052624  0.39698740
   0.74964822  0.24904500  0.60249192
   0.66877265  0.41514992  0.49950589
   0.58482057  0.83119250  0.39770774
   0.50187188  0.49919441  0.60392248
   0.41828391  0.66809353  0.49986146
   0.50135668 -0.00285768  0.60356795
   0.41722672  0.16838401  0.50044240
   0.58644892  0.08536206  0.39558588
   0.66710817  0.91763325  0.50005603
   0.33308340  0.83154300  0.39739865
   0.25069284  0.49850718  0.60224760
   0.16744957  0.66645120  0.49933255
   0.24981049  0.24801718  0.60453194
   0.25105733  0.75223838  0.60357648
  -0.00291074  0.49937806  0.60201858
   0.33181604  0.33769281  0.39774253
   0.16494760  0.16701013  0.50011510
   0.33249907  0.08530215  0.39667416
  -0.00366763  0.75198723  0.60376169
   0.08042926  0.83286087  0.39776010
   0.91719281  0.66527436  0.49960508
  -0.00015503  0.00163589  0.60064029
   0.66812638  0.16673633  0.49969217
   0.74869394 -0.00001037  0.59666862
   0.83176108  0.33313677  0.40274028
   0.08213290  0.33440554  0.40326518
   0.16690994  0.41599778  0.50077926
   0.91691605  0.16465352  0.50001949
   0.66727660  0.66675759  0.49849522
   0.74948626  0.50142855  0.59633927
   0.83378697  0.83356679  0.40251314
   0.83236765  0.08445373  0.40377146
   0.50134342  0.74963655  0.59677305
   0.08344003  0.58253128  0.40274199
   0.91663154  0.41661730  0.49926215
  -0.00057804  0.24999175  0.59660581
   0.58328450  0.58094765  0.40172672
   0.50053771  0.24828407  0.59758736
   0.41774593  0.41568408  0.49985722
   0.58466045  0.33489385  0.40295215
   0.91771649  0.91886625  0.50009960
   0.16586661  0.91773402  0.49946432
   0.33408377  0.58253486  0.40274802
   0.25065864 -0.00033643  0.59633763
   0.41721400  0.91680561  0.49990760
   0.74831709  0.74889836  0.59710929
Direct configuration=    12
   0.07854097  0.08607294  0.39636026
   0.83530104  0.58045278  0.39622467
   0.74933904  0.24905494  0.60308754
   0.66901456  0.41514993  0.49983014
   0.58524671  0.83102398  0.39692074
   0.50280330  0.49894522  0.60465413
   0.41902366  0.66771762  0.50009006
   0.50118496 -0.00287496  0.60385407
   0.41741111  0.16811752  0.50030716
   0.58621289  0.08614224  0.39467837
   0.66660961  0.91846425  0.49984818
   0.33251816  0.83144669  0.39686488
   0.24987112  0.49873194  0.60302226
   0.16689891  0.66742269  0.49971106
   0.25010764  0.24710782  0.60543309
   0.25085560  0.75242030  0.60415594
  -0.00290085  0.49938907  0.60245813
   0.33215458  0.33792570  0.39754329
   0.16529058  0.16726765  0.49992047
   0.33206594  0.08609013  0.39595073
  -0.00354193  0.75153133  0.60458665
   0.08013978  0.83269222  0.39748163
   0.91775824  0.66516123  0.49977775
  -0.00009873  0.00185384  0.60087894
   0.66821527  0.16677904  0.49957925
   0.74832849 -0.00032314  0.59638090
   0.83143238  0.33325741  0.40322513
   0.08237464  0.33451096  0.40358010
   0.16695919  0.41597287  0.50153191
   0.91697282  0.16459338  0.50009345
   0.66748170  0.66634629  0.49735081
   0.74878931  0.50160479  0.59585043
   0.83391394  0.83322148  0.40281165
   0.83266642  0.08398082  0.40410656
   0.50143236  0.74944465  0.59611384
   0.08340223  0.58263322  0.40364431
   0.91651860  0.41679876  0.49891854
  -0.00038618  0.24960587  0.59619178
   0.58304930  0.58074779  0.40194114
   0.50044557  0.24749479  0.59747109
   0.41820734  0.41554588  0.50008716
   0.58427275  0.33531483  0.40332777
   0.91857280  0.91812012  0.50036802
   0.16557076  0.91779341  0.49892539
   0.33348902  0.58315678  0.40340936
   0.25087966 -0.00042324  0.59555483
   0.41757444  0.91730622  0.49941002
   0.74803027  0.74920994  0.59648637
Direct configuration=    13
   0.07873734  0.08613928  0.39683886
   0.83510123  0.58050696  0.39678726
   0.74956709  0.24904761  0.60264821
   0.66883613  0.41514992  0.49959098
   0.58493239  0.83114828  0.39750123
   0.50211629  0.49912902  0.60411447
   0.41847802  0.66799489  0.49992145
   0.50131163 -0.00286222  0.60364303
   0.41727511  0.16831409  0.50040691
   0.58638699  0.08556678  0.39534775
   0.66697735  0.91785130  0.50000149
   0.33293508  0.83151773  0.39725859
   0.25047722  0.49856616  0.60245087
   0.16730507  0.66670612  0.49943187
   0.24988846  0.24777856  0.60476840
   0.25100440  0.75228612  0.60372853
  -0.00290815  0.49938095  0.60213392
   0.33190487  0.33775392  0.39769025
   0.16503760  0.16707770  0.50006403
   0.33238541  0.08550891  0.39648433
  -0.00363465  0.75186760  0.60397816
   0.08035330  0.83281662  0.39768703
   0.91734118  0.66524468  0.49965039
  -0.00014026  0.00169308  0.60070291
   0.66814970  0.16674754  0.49966254
   0.74859805 -0.00009244  0.59659312
   0.83167483  0.33316842  0.40286751
   0.08219633  0.33443320  0.40334781
   0.16692287  0.41599124  0.50097675
   0.91693094  0.16463774  0.50003890
   0.66733042  0.66664966  0.49819492
   0.74930338  0.50147480  0.59621100
   0.83382029  0.83347618  0.40259147
   0.83244605  0.08432964  0.40385939
   0.50136676  0.74958620  0.59660008
   0.08343011  0.58255803  0.40297876
   0.91660190  0.41666491  0.49917199
  -0.00052770  0.24989050  0.59649717
   0.58322278  0.58089521  0.40178298
   0.50051353  0.24807696  0.59755685
   0.41786701  0.41564781  0.49991755
   0.58455872  0.33500431  0.40305071
   0.91794118  0.91867047  0.50017003
   0.16578898  0.91774961  0.49932291
   0.33392771  0.58269805  0.40292155
   0.25071664 -0.00035921  0.59613223
   0.41730858  0.91693697  0.49977703
   0.74824183  0.74898012  0.59694583
Direct configuration=    14
   0.07875465  0.08628533  0.39662852
   0.83508483  0.58037757  0.39648042
   0.74957998  0.24906458  0.60280462
   0.66912805  0.41494151  0.49982068
   0.58474961  0.83140097  0.39714212
   0.50196729  0.49910434  0.60442375
   0.41826587  0.66816684  0.50005794
   0.50126648 -0.00303260  0.60368221
   0.41718660  0.16864086  0.50032146
   0.58636301  0.08562564  0.39500002
   0.66722210  0.91769793  0.49980891
   0.33280749  0.83187222  0.39707750
   0.25077282  0.49841985  0.60277300
   0.16745023  0.66673388  0.49975634
   0.24979405  0.24766490  0.60506994
   0.25115602  0.75204162  0.60389809
  -0.00307921  0.49917126  0.60227336
   0.33198345  0.33777872  0.39773077
   0.16520117  0.16705635  0.49990396
   0.33241810  0.08536272  0.39619885
  -0.00377192  0.75206102  0.60431020
   0.08021119  0.83287850  0.39761688
   0.91724110  0.66547378  0.49976958
  -0.00020151  0.00153716  0.60072929
   0.66805577  0.16685547  0.49966878
   0.74863132 -0.00011910  0.59649202
   0.83164044  0.33322904  0.40304367
   0.08219619  0.33439812  0.40345263
   0.16716862  0.41588440  0.50132915
   0.91696469  0.16468324  0.50009054
   0.66753109  0.66667760  0.49784831
   0.74938236  0.50130521  0.59592725
   0.83370231  0.83353469  0.40270129
   0.83237660  0.08435229  0.40398671
   0.50141295  0.74947690  0.59628764
   0.08329434  0.58257841  0.40333547
   0.91648010  0.41666191  0.49912498
  -0.00088884  0.25006600  0.59631598
   0.58335743  0.58080214  0.40178562
   0.50051910  0.24808393  0.59749655
   0.41792777  0.41557893  0.50013527
   0.58450798  0.33506712  0.40321519
   0.91796620  0.91861849  0.50031925
   0.16600870  0.91775278  0.49910409
   0.33392741  0.58278544  0.40317697
   0.25081085 -0.00045509  0.59579639
   0.41724845  0.91700355  0.49944605
   0.74822675  0.74885357  0.59664180
Direct configuration=    15
   0.07877041  0.08641835  0.39643695
   0.83506989  0.58025973  0.39620095
   0.74959173  0.24908005  0.60294708
   0.66939392  0.41475170  0.50002988
   0.58458314  0.83163112  0.39681505
   0.50183159  0.49908185  0.60470544
   0.41807265  0.66832345  0.50018226
   0.50122537 -0.00318778  0.60371789
   0.41710598  0.16893848  0.50024364
   0.58634117  0.08567925  0.39468332
   0.66744502  0.91755824  0.49963350
   0.33269129  0.83219509  0.39691256
   0.25104204  0.49828659  0.60306638
   0.16758244  0.66675917  0.50005186
   0.24970806  0.24756137  0.60534458
   0.25129412  0.75181893  0.60405253
  -0.00323502  0.49898027  0.60240037
   0.33205502  0.33780131  0.39776768
   0.16535015  0.16703690  0.49975817
   0.33244787  0.08522957  0.39593885
  -0.00389694  0.75223719  0.60461261
   0.08008175  0.83293486  0.39755298
   0.91714995  0.66568244  0.49987814
  -0.00025731  0.00139516  0.60075332
   0.66797022  0.16695377  0.49967446
   0.74866162 -0.00014339  0.59639994
   0.83160911  0.33328425  0.40320411
   0.08219606  0.33436617  0.40354810
   0.16739244  0.41578709  0.50165010
   0.91699542  0.16472469  0.50013758
   0.66771385  0.66670304  0.49753262
   0.74945429  0.50115076  0.59566881
   0.83359486  0.83358799  0.40280131
   0.83231334  0.08437293  0.40410267
   0.50145501  0.74937736  0.59600307
   0.08317067  0.58259698  0.40366037
   0.91636915  0.41665917  0.49908217
  -0.00121778  0.25022584  0.59615095
   0.58348007  0.58071737  0.40178802
   0.50052417  0.24809027  0.59744164
   0.41798312  0.41551619  0.50033356
   0.58446178  0.33512432  0.40336500
   0.91798898  0.91857115  0.50045515
   0.16620882  0.91775567  0.49890478
   0.33392713  0.58286503  0.40340960
   0.25089666 -0.00054242  0.59549052
   0.41719368  0.91706420  0.49914459
   0.74821302  0.74873832  0.59636489
Direct configuration=    16
   0.07866480  0.08665129  0.39637909
   0.83493023  0.58035421  0.39609179
   0.74961406  0.24898573  0.60297321
   0.66898951  0.41492835  0.50013212
   0.58445135  0.83173868  0.39656397
   0.50160845  0.49908288  0.60491529
   0.41807270  0.66828016  0.50017492
   0.50130396 -0.00327967  0.60354933
   0.41724158  0.16882042  0.50017954
   0.58642150  0.08551676  0.39456871
   0.66720715  0.91766217  0.49944946
   0.33284020  0.83214780  0.39686918
   0.25115893  0.49806597  0.60328336
   0.16780094  0.66646023  0.50037937
   0.24950495  0.24768503  0.60539117
   0.25136285  0.75174673  0.60409770
  -0.00319743  0.49898524  0.60242392
   0.33183796  0.33779271  0.39793628
   0.16534228  0.16705037  0.49963300
   0.33258427  0.08519026  0.39578751
  -0.00398465  0.75216884  0.60478571
   0.08013101  0.83301279  0.39764081
   0.91736012  0.66544972  0.49996670
  -0.00008535  0.00119567  0.60068425
   0.66792425  0.16688524  0.49972895
   0.74861021 -0.00000660  0.59639609
   0.83164907  0.33322507  0.40322032
   0.08223298  0.33435467  0.40356985
   0.16729058  0.41593507  0.50184592
   0.91724512  0.16445951  0.50014709
   0.66762008  0.66691257  0.49743532
   0.74947981  0.50119729  0.59555869
   0.83344065  0.83371913  0.40276115
   0.83219617  0.08456967  0.40415817
   0.50150086  0.74929874  0.59582392
   0.08313982  0.58252738  0.40384646
   0.91666757  0.41674827  0.49909538
  -0.00132170  0.25018558  0.59607751
   0.58346496  0.58087614  0.40175551
   0.50060626  0.24813536  0.59746318
   0.41791812  0.41577974  0.50053106
   0.58457354  0.33505227  0.40347106
   0.91793639  0.91886290  0.50051878
   0.16626296  0.91785795  0.49880303
   0.33406865  0.58289499  0.40354803
   0.25073290 -0.00064773  0.59530581
   0.41730283  0.91699745  0.49884942
   0.74829657  0.74848697  0.59623291
Direct configuration=    17
   0.07859632  0.08680234  0.39634158
   0.83483967  0.58041548  0.39602101
   0.74962855  0.24892457  0.60299015
   0.66872727  0.41504291  0.50019842