  48  48   0   0
  0.5349325E+02  0.1100258E-08  0.1100258E-08  0.2449179E-08  0.3500000E-15
  1.000000000000000E-004
  CAR 
 unknown system                          
      6.32682990     -9.74799141  301     -1.10170371      1.00000000
     -9.748  0.0000E+00  0.0000E+00
     -9.694  0.0000E+00  0.0000E+00
     -9.641  0.0000E+00  0.0000E+00
     -9.587  0.0000E+00  0.0000E+00
     -9.534  0.0000E+00  0.0000E+00
     -9.480  0.0000E+00  0.0000E+00
     -9.426  0.0000E+00  0.0000E+00
     -9.373  0.0000E+00  0.0000E+00
     -9.319  0.9669E-17  0.5181E-18
     -9.266  0.3538E-14  0.1901E-15
     -9.212  0.7688E-12  0.4138E-13
     -9.159  0.9516E-10  0.5140E-11
     -9.105  0.6724E-08  0.3654E-09
     -9.051  0.2718E-06  0.1493E-07
     -8.998  0.6297E-05  0.3524E-06
     -8.944  0.8387E-04  0.4846E-05
     -8.891  0.6439E-03  0.3935E-04
     -8.837  0.2862E-02  0.1927E-03
     -8.784  0.7446E-02  0.5917E-03
     -8.730  0.1180E-01  0.1224E-02
     -8.676  0.1301E-01  0.1921E-02
     -8.623  0.1294E-01  0.2614E-02
     -8.569  0.1226E-01  0.3271E-02
     -8.516  0.8635E-02  0.3734E-02
     -8.462  0.3804E-02  0.3938E-02
     -8.408  0.9925E-03  0.3991E-02
     -8.355  0.1513E-03  0.3999E-02
     -8.301  0.1921E-04  0.4000E-02
     -8.248  0.7121E-04  0.4004E-02
     -8.194  0.4970E-03  0.4031E-02
     -8.141  0.2101E-02  0.4143E-02
     -8.087  0.5560E-02  0.4441E-02
     -8.033  0.1006E-01  0.4980E-02
     -7.980  0.1417E-01  0.5740E-02
     -7.926  0.1674E-01  0.6637E-02
     -7.873  0.1679E-01  0.7536E-02
     -7.819  0.1650E-01  0.8420E-02
     -7.765  0.1875E-01  0.9425E-02
     -7.712  0.2064E-01  0.1053E-01
     -7.658  0.1807E-01  0.1150E-01
     -7.605  0.1440E-01  0.1227E-01
     -7.551  0.1500E-01  0.1307E-01
     -7.498  0.1766E-01  0.1402E-01
     -7.444  0.1772E-01  0.1497E-01
     -7.390  0.1633E-01  0.1584E-01
     -7.337  0.1760E-01  0.1679E-01
     -7.283  0.2289E-01  0.1801E-01
     -7.230  0.3011E-01  0.1963E-01
     -7.176  0.3584E-01  0.2155E-01
     -7.122  0.3888E-01  0.2363E-01
     -7.069  0.4152E-01  0.2586E-01
     -7.015  0.4670E-01  0.2836E-01
     -6.962  0.5429E-01  0.3127E-01
     -6.908  0.6184E-01  0.3458E-01
     -6.855  0.6871E-01  0.3826E-01
     -6.801  0.7540E-01  0.4230E-01
     -6.747  0.8067E-01  0.4662E-01
     -6.694  0.8226E-01  0.5103E-01
     -6.640  0.8013E-01  0.5533E-01
     -6.587  0.7957E-01  0.5959E-01
     -6.533  0.8599E-01  0.6420E-01
     -6.479  0.9656E-01  0.6937E-01
     -6.426  0.1056E+00  0.7503E-01
     -6.372  0.1147E+00  0.8118E-01
     -6.319  0.1257E+00  0.8791E-01
     -6.265  0.1330E+00  0.9504E-01
     -6.212  0.1340E+00  0.1022E+00
     -6.158  0.1323E+00  0.1093E+00
     -6.104  0.1334E+00  0.1165E+00
     -6.051  0.1414E+00  0.1240E+00
     -5.997  0.1526E+00  0.1322E+00
     -5.944  0.1589E+00  0.1407E+00
     -5.890  0.1567E+00  0.1491E+00
     -5.836  0.1503E+00  0.1572E+00
     -5.783  0.1447E+00  0.1649E+00
     -5.729  0.1396E+00  0.1724E+00
     -5.676  0.1362E+00  0.1797E+00
     -5.622  0.1386E+00  0.1871E+00
     -5.569  0.1473E+00  0.1950E+00
     -5.515  0.1570E+00  0.2034E+00
     -5.461  0.1627E+00  0.2122E+00
     -5.408  0.1637E+00  0.2209E+00
     -5.354  0.1629E+00  0.2297E+00
     -5.301  0.1629E+00  0.2384E+00
     -5.247  0.1635E+00  0.2471E+00
     -5.193  0.1644E+00  0.2560E+00
     -5.140  0.1663E+00  0.2649E+00
     -5.086  0.1677E+00  0.2738E+00
     -5.033  0.1690E+00  0.2829E+00
     -4.979  0.1720E+00  0.2921E+00
     -4.926  0.1761E+00  0.3015E+00
     -4.872  0.1804E+00  0.3112E+00
     -4.818  0.1841E+00  0.3211E+00
     -4.765  0.1849E+00  0.3310E+00
     -4.711  0.1854E+00  0.3409E+00
     -4.658  0.1905E+00  0.3511E+00
     -4.604  0.1965E+00  0.3617E+00
     -4.550  0.1963E+00  0.3722E+00
     -4.497  0.1905E+00  0.3824E+00
     -4.443  0.1837E+00  0.3922E+00
     -4.390  0.1787E+00  0.4018E+00
     -4.336  0.1765E+00  0.4113E+00
     -4.283  0.1750E+00  0.4206E+00
     -4.229  0.1732E+00  0.4299E+00
     -4.175  0.1742E+00  0.4393E+00
     -4.122  0.1768E+00  0.4487E+00
     -4.068  0.1781E+00  0.4583E+00
     -4.015  0.1795E+00  0.4679E+00
     -3.961  0.1838E+00  0.4777E+00
     -3.907  0.1913E+00  0.4880E+00
     -3.854  0.1991E+00  0.4987E+00
     -3.800  0.2036E+00  0.5096E+00
     -3.747  0.2050E+00  0.5206E+00
     -3.693  0.2070E+00  0.5316E+00
     -3.640  0.2123E+00  0.5430E+00
     -3.586  0.2175E+00  0.5547E+00
     -3.532  0.2165E+00  0.5663E+00
     -3.479  0.2105E+00  0.5776E+00
     -3.425  0.2064E+00  0.5886E+00
     -3.372  0.2078E+00  0.5997E+00
     -3.318  0.2113E+00  0.6111E+00
     -3.264  0.2105E+00  0.6223E+00
     -3.211  0.2016E+00  0.6331E+00
     -3.157  0.1889E+00  0.6433E+00
     -3.104  0.1795E+00  0.6529E+00
     -3.050  0.1745E+00  0.6622E+00
     -2.997  0.1730E+00  0.6715E+00
     -2.943  0.1763E+00  0.6810E+00
     -2.889  0.1809E+00  0.6906E+00
     -2.836  0.1825E+00  0.7004E+00
     -2.782  0.1821E+00  0.7102E+00
     -2.729  0.1811E+00  0.7199E+00
     -2.675  0.1769E+00  0.7294E+00
     -2.621  0.1704E+00  0.7385E+00
     -2.568  0.1690E+00  0.7476E+00
     -2.514  0.1740E+00  0.7569E+00
     -2.461  0.1807E+00  0.7666E+00
     -2.407  0.1875E+00  0.7766E+00
     -2.354  0.1935E+00  0.7870E+00
     -2.300  0.1948E+00  0.7974E+00
     -2.246  0.1889E+00  0.8075E+00
     -2.193  0.1810E+00  0.8172E+00
     -2.139  0.1786E+00  0.8268E+00
     -2.086  0.1812E+00  0.8365E+00
     -2.032  0.1839E+00  0.8464E+00
     -1.978  0.1834E+00  0.8562E+00
     -1.925  0.1791E+00  0.8658E+00
     -1.871  0.1744E+00  0.8751E+00
     -1.818  0.1744E+00  0.8845E+00
     -1.764  0.1797E+00  0.8941E+00
     -1.711  0.1871E+00  0.9041E+00
     -1.657  0.1933E+00  0.9145E+00
     -1.603  0.1958E+00  0.9250E+00
     -1.550  0.1932E+00  0.9353E+00
     -1.496  0.1880E+00  0.9454E+00
     -1.443  0.1848E+00  0.9553E+00
     -1.389  0.1841E+00  0.9652E+00
     -1.336  0.1807E+00  0.9748E+00
     -1.282  0.1701E+00  0.9840E+00
     -1.228  0.1542E+00  0.9922E+00
     -1.175  0.1368E+00  0.9996E+00
     -1.121  0.1190E+00  0.1006E+01
     -1.068  0.1001E+00  0.1011E+01
     -1.014  0.7885E-01  0.1016E+01
     -0.960  0.5526E-01  0.1018E+01
     -0.907  0.3433E-01  0.1020E+01
     -0.853  0.2146E-01  0.1021E+01
     -0.800  0.1653E-01  0.1022E+01
     -0.746  0.1683E-01  0.1023E+01
     -0.693  0.2011E-01  0.1024E+01
     -0.639  0.2571E-01  0.1026E+01
     -0.585  0.3371E-01  0.1028E+01
     -0.532  0.4144E-01  0.1030E+01
     -0.478  0.4319E-01  0.1032E+01
     -0.425  0.3638E-01  0.1034E+01
     -0.371  0.2520E-01  0.1035E+01
     -0.317  0.1871E-01  0.1036E+01
     -0.264  0.2357E-01  0.1038E+01
     -0.210  0.3600E-01  0.1040E+01
     -0.157  0.4402E-01  0.1042E+01
     -0.103  0.4065E-01  0.1044E+01
     -0.050  0.3287E-01  0.1046E+01
      0.004  0.3164E-01  0.1048E+01
      0.058  0.3677E-01  0.1050E+01
      0.111  0.4035E-01  0.1052E+01
      0.165  0.3982E-01  0.1054E+01
      0.218  0.3817E-01  0.1056E+01
      0.272  0.3647E-01  0.1058E+01
      0.326  0.3435E-01  0.1060E+01
      0.379  0.3282E-01  0.1061E+01
      0.433  0.3245E-01  0.1063E+01
      0.486  0.3293E-01  0.1065E+01
      0.540  0.3402E-01  0.1067E+01
      0.593  0.3649E-01  0.1069E+01
      0.647  0.4025E-01  0.1071E+01
      0.701  0.4287E-01  0.1073E+01
      0.754  0.4075E-01  0.1075E+01
      0.808  0.3186E-01  0.1077E+01
      0.861  0.2085E-01  0.1078E+01
      0.915  0.1472E-01  0.1079E+01
      0.969  0.1502E-01  0.1080E+01
      1.022  0.1962E-01  0.1081E+01
      1.076  0.2494E-01  0.1082E+01
      1.129  0.2627E-01  0.1084E+01
      1.183  0.2307E-01  0.1085E+01
      1.236  0.1961E-01  0.1086E+01
      1.290  0.1770E-01  0.1087E+01
      1.344  0.1668E-01  0.1088E+01
      1.397  0.1827E-01  0.1089E+01
      1.451  0.2336E-01  0.1090E+01
      1.504  0.2789E-01  0.1091E+01
      1.558  0.2940E-01  0.1093E+01
      1.612  0.2981E-01  0.1095E+01
      1.665  0.3077E-01  0.1096E+01
      1.719  0.3220E-01  0.1098E+01
      1.772  0.3327E-01  0.1100E+01
      1.826  0.3298E-01  0.1101E+01
      1.879  0.2891E-01  0.1103E+01
      1.933  0.2244E-01  0.1104E+01
      1.987  0.1920E-01  0.1105E+01
      2.040  0.2069E-01  0.1106E+01
      2.094  0.2632E-01  0.1108E+01
      2.147  0.3367E-01  0.1110E+01
      2.201  0.3804E-01  0.1112E+01
      2.255  0.3975E-01  0.1114E+01
      2.308  0.4087E-01  0.1116E+01
      2.362  0.3892E-01  0.1118E+01
      2.415  0.3369E-01  0.1120E+01
      2.469  0.3148E-01  0.1122E+01
      2.522  0.3623E-01  0.1123E+01
      2.576  0.4391E-01  0.1126E+01
      2.630  0.4905E-01  0.1128E+01
      2.683  0.5037E-01  0.1131E+01
      2.737  0.4646E-01  0.1134E+01
      2.790  0.3579E-01  0.1136E+01
      2.844  0.2414E-01  0.1137E+01
      2.898  0.1833E-01  0.1138E+01
      2.951  0.1750E-01  0.1139E+01
      3.005  0.1757E-01  0.1140E+01
      3.058  0.1694E-01  0.1141E+01
      3.112  0.1649E-01  0.1142E+01
      3.165  0.1867E-01  0.1143E+01
      3.219  0.2444E-01  0.1144E+01
      3.273  0.2764E-01  0.1145E+01
      3.326  0.2362E-01  0.1147E+01
      3.380  0.1747E-01  0.1147E+01
      3.433  0.1487E-01  0.1148E+01
      3.487  0.1601E-01  0.1149E+01
      3.541  0.1991E-01  0.1150E+01
      3.594  0.2753E-01  0.1152E+01
      3.648  0.3619E-01  0.1154E+01
      3.701  0.4034E-01  0.1156E+01
      3.755  0.4027E-01  0.1158E+01
      3.808  0.3662E-01  0.1160E+01
      3.862  0.2854E-01  0.1161E+01
      3.916  0.2276E-01  0.1163E+01
      3.969  0.2391E-01  0.1164E+01
      4.023  0.2584E-01  0.1165E+01
      4.076  0.2560E-01  0.1167E+01
      4.130  0.2570E-01  0.1168E+01
      4.184  0.2436E-01  0.1169E+01
      4.237  0.2066E-01  0.1170E+01
      4.291  0.1715E-01  0.1171E+01
      4.344  0.1655E-01  0.1172E+01
      4.398  0.2142E-01  0.1173E+01
      4.451  0.2895E-01  0.1175E+01
      4.505  0.3635E-01  0.1177E+01
      4.559  0.4639E-01  0.1179E+01
      4.612  0.5535E-01  0.1182E+01
      4.666  0.5580E-01  0.1185E+01
      4.719  0.5040E-01  0.1188E+01
      4.773  0.4729E-01  0.1191E+01
      4.827  0.4834E-01  0.1193E+01
      4.880  0.5048E-01  0.1196E+01
      4.934  0.5348E-01  0.1199E+01
      4.987  0.5979E-01  0.1202E+01
      5.041  0.6906E-01  0.1206E+01
      5.094  0.7482E-01  0.1210E+01
      5.148  0.7223E-01  0.1214E+01
      5.202  0.6424E-01  0.1217E+01
      5.255  0.5384E-01  0.1220E+01
      5.309  0.3998E-01  0.1222E+01
      5.362  0.2354E-01  0.1223E+01
      5.416  0.9910E-02  0.1224E+01
      5.470  0.2770E-02  0.1224E+01
      5.523  0.4916E-03  0.1224E+01
      5.577  0.5386E-04  0.1224E+01
      5.630  0.3575E-05  0.1224E+01
      5.684  0.1416E-06  0.1224E+01
      5.737  0.3309E-08  0.1224E+01
      5.791  0.4514E-10  0.1224E+01
      5.845  0.3567E-12  0.1224E+01
      5.898  0.1623E-14  0.1224E+01
      5.952  0.4144E-17  0.1224E+01
      6.005  0.0000E+00  0.1224E+01
      6.059  0.0000E+00  0.1224E+01
      6.112  0.0000E+00  0.1224E+01
      6.166  0.0000E+00  0.1224E+01
      6.220  0.0000E+00  0.1224E+01
      6.273  0.0000E+00  0.1224E+01
      6.327  0.0000E+00  0.1224E+01
