unknown system                          
           1
    11.002582    0.000000    0.000000
     5.501291    9.528515    0.000000
     0.000000    0.000000   24.491785
   Au   Pd
  24  24
Direct configuration=     1
   0.33333333  0.33333333  0.40830017
   0.41666667  0.41666667  0.50000000
   0.58333333  0.33333333  0.40830017
   0.50000000  0.00000000  0.59169983
   0.50000000  0.50000000  0.59169983
   0.33333333  0.83333333  0.40830017
   0.50000000  0.75000000  0.59169983
   0.83333333  0.08333333  0.40830017
   0.33333333  0.58333333  0.40830017
   0.75000000  0.00000000  0.59169983
   0.50000000  0.25000000  0.59169983
   0.83333333  0.33333333  0.40830017
   0.16666667  0.16666667  0.50000000
   0.58333333  0.58333333  0.40830017
   0.66666667  0.41666667  0.50000000
   0.91666667  0.16666667  0.50000000
   0.08333333  0.83333333  0.40830017
   0.00000000  0.50000000  0.59169983
   0.83333333  0.58333333  0.40830017
   0.66666667  0.66666667  0.50000000
   0.00000000  0.25000000  0.59169983
   0.33333333  0.08333333  0.40830017
   0.75000000  0.50000000  0.59169983
   0.91666667  0.41666667  0.50000000
   0.83333333  0.83333333  0.40830017
   0.41666667  0.91666667  0.50000000
   0.58333333  0.83333333  0.40830017
   0.66666667  0.16666667  0.50000000
   0.75000000  0.25000000  0.59169983
   0.41666667  0.66666667  0.50000000
   0.08333333  0.08333333  0.40830017
   0.25000000  0.75000000  0.59169983
   0.58333333  0.08333333  0.40830017
   0.66666667  0.91666667  0.50000000
   0.16666667  0.91666667  0.50000000
   0.25000000  0.50000000  0.59169983
   0.16666667  0.66666667  0.50000000
   0.25000000  0.25000000  0.59169983
   0.16666667  0.41666667  0.50000000
   0.25000000  0.00000000  0.59169983
   0.00000000  0.75000000  0.59169983
   0.91666667  0.91666667  0.50000000
   0.91666667  0.66666667  0.50000000
   0.08333333  0.58333333  0.40830017
   0.08333333  0.33333333  0.40830017
   0.00000000  0.00000000  0.59169983
   0.41666667  0.16666667  0.50000000
   0.75000000  0.75000000  0.59169983
Direct configuration=     2
   0.33230768  0.33308364  0.40642751
   0.41476111  0.41709438  0.50047087
   0.58357073  0.33191616  0.40602699
   0.49930492  0.00004570  0.59328094
   0.49887344  0.50058491  0.59390456
   0.33333316  0.83406978  0.40672035
   0.49860247  0.75111479  0.59356293
   0.83314347  0.08219188  0.40643159
   0.33213612  0.58395896  0.40639452
   0.75144805 -0.00075940  0.59323079
   0.49950858  0.25015808  0.59356581
   0.83481561  0.33258423  0.40568208
   0.16846739  0.16570961  0.50003688
   0.58276331  0.58452560  0.40604774
   0.66606377  0.41580286  0.50044383
   0.91729095  0.16395889  0.50040363
   0.08264296  0.83327039  0.40677287
   0.00099508  0.50107160  0.59357011
   0.83447376  0.58435562  0.40616985
   0.66583278  0.66989091  0.49995432
   0.00081871  0.24848293  0.59422035
   0.33386642  0.08306523  0.40653302
   0.75007485  0.50002064  0.59425731
   0.91860351  0.41715293  0.49961987
   0.83294400  0.83342739  0.40767205
   0.41653993  0.91678089  0.50005700
   0.58355319  0.83418272  0.40738997
   0.66687332  0.16517081  0.50001467
   0.75037377  0.24920790  0.59295711
   0.41474963  0.66835170  0.50027133
   0.08348933  0.08340935  0.40711926
   0.24865934  0.75074059  0.59225659
   0.58406248  0.08206146  0.40764741
   0.66702591  0.91677335  0.49949724
   0.16702351  0.91573012  0.50055195
   0.24912065  0.50061537  0.59259157
   0.16548593  0.66735180  0.50051649
   0.25024836  0.25001967  0.59264068
   0.16657257  0.41752162  0.50000555
   0.24992233 -0.00037125  0.59261244
   0.00054861  0.74989042  0.59226280
   0.91699376  0.91541558  0.50025268
   0.91746828  0.66791161  0.49993682
   0.08275568  0.58348272  0.40761527
   0.08353809  0.33358991  0.40712289
   0.00046161 -0.00080934  0.59253879
   0.41715029  0.16593106  0.50006399
   0.75074059  0.75026425  0.59267674
Direct configuration=     3
   0.32923073  0.33233455  0.40080954
   0.40904444  0.41837753  0.50188349
   0.58428292  0.32766463  0.39920744
   0.49721968  0.00018282  0.59802429
   0.49549376  0.50233965  0.60051876
   0.33333265  0.83627913  0.40198087
   0.49440989  0.75445914  0.59915222
   0.83257389  0.07876754  0.40082587
   0.32854449  0.58583583  0.40067756
   0.75579221 -0.00303760  0.59782365
   0.49803430  0.25063232  0.59916376
   0.83926245  0.33033690  0.39782780
   0.17386955  0.16283842  0.50014751
   0.58105322  0.58810241  0.39929047
   0.66425509  0.41321143  0.50177531
   0.91916380  0.15583555  0.50161450
   0.08057186  0.83308155  0.40219097
   0.00398031  0.50428641  0.59918093
   0.83789505  0.58742247  0.39977887
   0.66333112  0.67956363  0.49981726
   0.00327486  0.24393172  0.60178191
   0.33546568  0.08226093  0.40123156
   0.75029939  0.50008257  0.60192975
   0.92441405  0.41861170  0.49847950
   0.83177601  0.83370956  0.40578769
   0.41615973  0.91712358  0.50022800
   0.58421275  0.83673087  0.40465939
   0.66749328  0.16068323  0.50005866
   0.75149509  0.24683161  0.59672895
   0.40899851  0.67340678  0.50108531
   0.08395734  0.08363739  0.40357653
   0.24463736  0.75296236  0.59392688
   0.58624992  0.07824584  0.40568915
   0.66810362  0.91709338  0.49798898
   0.16809402  0.91292049  0.50220779
   0.24648258  0.50246147  0.59526677
   0.16194373  0.66940719  0.50206596
   0.25099342  0.25007869  0.59546321
   0.16629029  0.42008649  0.50002221
   0.24968932 -0.00148501  0.59535026
   0.00219445  0.74956167  0.59395171
   0.91797506  0.91166231  0.50101073
   0.91987311  0.67164643  0.49974728
   0.08102270  0.58393088  0.40556059
   0.08415237  0.33435965  0.40359105
   0.00184643 -0.00323735  0.59505568
   0.41860116  0.16372426  0.50025595
   0.75296237  0.75105699  0.59560745
Direct configuration=     4
   0.33043162  0.33253027  0.39961615
   0.41124820  0.41807611  0.50127502
   0.58362381  0.32917012  0.39816167
   0.49870841  0.00004751  0.59914436
   0.49567979  0.50266700  0.60198908
   0.33250678  0.83643428  0.40096953
   0.49573519  0.75274147  0.60048661
   0.83323426  0.07954996  0.39959392
   0.32968202  0.58456939  0.39975009
   0.75437739 -0.00265021  0.59905107
   0.49891359  0.25002446  0.60049498
   0.83760892  0.33149568  0.39670659
   0.17129252  0.16403073  0.50009307
   0.58286013  0.58605887  0.39849624
   0.66491780  0.41495059  0.50138255
   0.91898523  0.15896865  0.50101359
   0.08089295  0.83346815  0.40122535
   0.00251160  0.50277669  0.60049261
   0.83611454  0.58684636  0.39835326
   0.66536763  0.67398988  0.50003017
   0.00286367  0.24545501  0.60314651
   0.33507852  0.08270895  0.39982391
   0.75111776  0.50008952  0.60291000
   0.92084620  0.41872183  0.49891238
   0.83208798  0.83370620  0.40489414
   0.41582485  0.91737948  0.50019062
   0.58435745  0.83592817  0.40352328
   0.66648623  0.16169391  0.50022680
   0.75103268  0.24742447  0.59758247
   0.41130583  0.67100695  0.50066930
   0.08382399  0.08341697  0.40326361
   0.24485641  0.75247844  0.59519256
   0.58513206  0.07932481  0.40486892
   0.66753046  0.91914090  0.49899852
   0.16793042  0.91320388  0.50125747
   0.24744245  0.50231835  0.59653528
   0.16323954  0.66930403  0.50111313
   0.25002197  0.25054649  0.59611766
   0.16666283  0.41939447  0.49998439
   0.24891633 -0.00079528  0.59630035
   0.00198285  0.75002963  0.59522867
   0.91747833  0.91249763  0.50058067
   0.91906044  0.67007498  0.49980298
   0.08196031  0.58401947  0.40495447
   0.08433017  0.33355550  0.40268045
   0.00212464 -0.00332290  0.59636706
   0.41938515  0.16399713  0.50028884
   0.75242812  0.75095505  0.59625965
Direct configuration=     5
   0.33141438  0.33269045  0.39863952
   0.41305168  0.41782944  0.50077708
   0.58308442  0.33040215  0.39730586
   0.49992672 -0.00006321  0.60006099
   0.49583202  0.50293490  0.60319233
   0.33183093  0.83656124  0.40014188
   0.49681976  0.75133579  0.60157863
   0.83377468  0.08019027  0.39858574
   0.33061293  0.58353299  0.39899108
   0.75321956 -0.00233319  0.60005555
   0.49963317  0.24952702  0.60158440
   0.83625573  0.33244398  0.39578904
   0.16918358  0.16500647  0.50004852
   0.58433883  0.58438651  0.39784627
   0.66546015  0.41637384  0.50106114
   0.91883909  0.16153265  0.50052182
   0.08115572  0.83378453  0.40043512
   0.00130968  0.50154119  0.60156604
   0.83465744  0.58637489  0.39718659
   0.66703423  0.66942854  0.50020441
   0.00252717  0.24670161  0.60426325
   0.33476168  0.08307559  0.39867194
   0.75178748  0.50009520  0.60371220
   0.91792641  0.41881195  0.49926663
   0.83234328  0.83370345  0.40416290
   0.41555081  0.91758891  0.50016003
   0.58447587  0.83527126  0.40259352
   0.66566211  0.16252101  0.50036440
   0.75065427  0.24790965  0.59828096
   0.41319406  0.66904302  0.50032885
   0.08371486  0.08323658  0.40300753
   0.24503567  0.75208243  0.59622835
   0.58421724  0.08020779  0.40419768
   0.66706140  0.92081650  0.49982468
   0.16779654  0.91343580  0.50047977
   0.24822797  0.50220123  0.59757337
   0.16429999  0.66921960  0.50033337
   0.24922698  0.25092932  0.59665324
   0.16696769  0.41882816  0.49995343
   0.24828374 -0.00023084  0.59707786
   0.00180968  0.75041259  0.59627368
   0.91707183  0.91318123  0.50022873
   0.91839537  0.66878896  0.49984856
   0.08272761  0.58409197  0.40445845
   0.08447567  0.33289742  0.40193525
   0.00235232 -0.00339291  0.59744025
   0.42002673  0.16422043  0.50031575
   0.75199090  0.75087163  0.59679339
Direct configuration=     6
   0.33161184  0.33260701  0.39820934
   0.41425672  0.41749121  0.50076769
   0.58362953  0.33051955  0.39692583
   0.49928518 -0.00044265  0.60045855
   0.49671555  0.50214296  0.60372547
   0.33292927  0.83523736  0.39982529
   0.49710693  0.75157220  0.60189100
   0.83306555  0.08146792  0.39820142
   0.33158837  0.58363616  0.39856883
   0.75356381 -0.00207034  0.60059939
   0.49921992  0.25041394  0.60206966
   0.83603231  0.33222681  0.39520831
   0.16888810  0.16595444  0.50007080
   0.58378347  0.58443256  0.39756168
   0.66548702  0.41595464  0.50100065
   0.91747134  0.16290500  0.50055497
   0.08157893  0.83355225  0.39991212
   0.00154827  0.50145592  0.60198924
   0.83521064  0.58580371  0.39665186
   0.66609151  0.67016832  0.50017383
   0.00185127  0.24693828  0.60488725
   0.33444479  0.08323866  0.39826076
   0.75132017  0.49979771  0.60425860
   0.91797811  0.41801508  0.49932667
   0.83208479  0.83362516  0.40400266
   0.41663089  0.91661386  0.50020681
   0.58432814  0.83481845  0.40266485
   0.66640630  0.16436514  0.50043514
   0.75079172  0.24842153  0.59823896
   0.41419140  0.66864067  0.50018777
   0.08316838  0.08397966  0.40292209
   0.24551246  0.75205940  0.59644361
   0.58436513  0.08065182  0.40395315
   0.66678374  0.91893968  0.50027035
   0.16791548  0.91325170  0.50020952
   0.24822262  0.50179148  0.59772882
   0.16486586  0.66871696  0.50005629
   0.24954241  0.25081363  0.59666414
   0.16670194  0.41845819  0.50005517
   0.24882440 -0.00037525  0.59719387
   0.00168793  0.74981937  0.59646194
   0.91690037  0.91433710  0.50018435
   0.91819394  0.66784667  0.49994945
   0.08220766  0.58383041  0.40434918
   0.08398794  0.33319965  0.40186667
   0.00169689 -0.00230936  0.59758868
   0.41856028  0.16502011  0.50039522
   0.75177073  0.75046530  0.59687206
Direct configuration=     7
   0.33165074  0.33259057  0.39812458
   0.41449416  0.41742456  0.50076584
   0.58373694  0.33054268  0.39685095
   0.49915877 -0.00051742  0.60053689
   0.49688963  0.50198692  0.60383052
   0.33314568  0.83497651  0.39976291
   0.49716351  0.75161878  0.60195255
   0.83292583  0.08171966  0.39812570
   0.33178056  0.58365649  0.39848563
   0.75363164 -0.00201855  0.60070655
   0.49913850  0.25058869  0.60216528
   0.83598829  0.33218402  0.39509388
   0.16882988  0.16614122  0.50007520
   0.58367404  0.58444164  0.39750561
   0.66549232  0.41587204  0.50098873
   0.91720185  0.16317540  0.50056150
   0.08166231  0.83350649  0.39980908
   0.00159528  0.50143912  0.60207263
   0.83531964  0.58569117  0.39654650
   0.66590577  0.67031408  0.50016780
   0.00171810  0.24698492  0.60501020
   0.33438235  0.08327078  0.39817974
   0.75122809  0.49973910  0.60436626
   0.91798830  0.41785806  0.49933850
   0.83203386  0.83360973  0.40397109
   0.41684370  0.91642174  0.50021603
   0.58429903  0.83472923  0.40267891
   0.66655293  0.16472850  0.50044908
   0.75081881  0.24852239  0.59823069
   0.41438792  0.66856139  0.50015997
   0.08306071  0.08412608  0.40290526
   0.24560640  0.75205487  0.59648603
   0.58439426  0.08073930  0.40390497
   0.66672903  0.91856988  0.50035816
   0.16793892  0.91321542  0.50015628
   0.24822156  0.50171074  0.59775945
   0.16497736  0.66861793  0.50000170
   0.24960456  0.25079084  0.59666629
   0.16664958  0.41838530  0.50007522
   0.24893093 -0.00040370  0.59721673
   0.00166394  0.74970249  0.59649904
   0.91686659  0.91456485  0.50017560
   0.91815425  0.66766100  0.49996933
   0.08210521  0.58377887  0.40432765
   0.08389184  0.33325921  0.40185315
   0.00156774 -0.00209587  0.59761793
   0.41827133  0.16517768  0.50041087
   0.75172735  0.75038523  0.59688757
Direct configuration=     8
   0.33148857  0.33275481  0.39801629
   0.41422565  0.41733772  0.50086601
   0.58381125  0.33055845  0.39659825
   0.49882062 -0.00018596  0.60070502
   0.49703059  0.50189288  0.60408357
   0.33342847  0.83502465  0.39967468
   0.49705531  0.75161005  0.60202840
   0.83283958  0.08158378  0.39800418
   0.33172806  0.58355686  0.39826365
   0.75368625 -0.00185644  0.60085714
   0.49897841  0.25064926  0.60233008
   0.83607750  0.33232647  0.39462464
   0.16927635  0.16554544  0.50012979
   0.58385844  0.58445432  0.39732460
   0.66535527  0.41629490  0.50097750
   0.91742950  0.16296700  0.50066142
   0.08148067  0.83353943  0.39954780
   0.00182515  0.50144961  0.60220350
   0.83558633  0.58541196  0.39632254
   0.66570807  0.67049368  0.50007665
   0.00182111  0.24681068  0.60537265
   0.33433926  0.08301427  0.39814128
   0.75090518  0.49974139  0.60472619
   0.91800712  0.41790726  0.49935183
   0.83178013  0.83385895  0.40414736
   0.41664746  0.91659115  0.50021998
   0.58425381  0.83474469  0.40293261
   0.66660625  0.16454347  0.50048458
   0.75086852  0.24861627  0.59816285
   0.41436217  0.66875694  0.50024252
   0.08309282  0.08424067  0.40296643
   0.24578370  0.75210561  0.59628434
   0.58465795  0.08058950  0.40413086
   0.66674653  0.91837502  0.50053690
   0.16800208  0.91333180  0.50013446
   0.24815870  0.50168698  0.59756197
   0.16502239  0.66834014  0.49997283
   0.24986469  0.25054140  0.59662315
   0.16664080  0.41865958  0.50014145
   0.24897691 -0.00044313  0.59702724
   0.00174271  0.74943556  0.59625442
   0.91669784  0.91477882  0.50019628
   0.91829678  0.66750558  0.50002661
   0.08204777  0.58360335  0.40439100
   0.08366198  0.33350814  0.40194832
   0.00140426 -0.00167865  0.59740244
   0.41809890  0.16530569  0.50043267
   0.75182215  0.75011997  0.59689105
Direct configuration=     9
   0.33130385  0.33294189  0.39789295
   0.41391981  0.41723881  0.50098012
   0.58389589  0.33057642  0.39631041
   0.49843546  0.00019158  0.60089653
   0.49719116  0.50178577  0.60437181
   0.33375059  0.83507949  0.39957419
   0.49693206  0.75160012  0.60211480
   0.83274134  0.08142900  0.39786576
   0.33166825  0.58344338  0.39801081
   0.75374844 -0.00167179  0.60102866
   0.49879605  0.25071825  0.60251781
   0.83617911  0.33248873  0.39409016
   0.16978491  0.16486681  0.50019197
   0.58406849  0.58446877  0.39711842
   0.66519917  0.41677656  0.50096471
   0.91768880  0.16272963  0.50077524
   0.08127377  0.83357695  0.39925020
   0.00208697  0.50146155  0.60235256
   0.83589009  0.58509394  0.39606744
   0.66548289  0.67069826  0.49997282
   0.00193844  0.24661221  0.60578551
   0.33429019  0.08272209  0.39809747
   0.75053736  0.49974401  0.60513617
   0.91802855  0.41796330  0.49936701
   0.83149112  0.83414282  0.40434814
   0.41642392  0.91678411  0.50022448
   0.58420231  0.83476229  0.40322158
   0.66666699  0.16433271  0.50052501
   0.75092515  0.24872320  0.59808558
   0.41433284  0.66897968  0.50033655
   0.08312940  0.08437120  0.40303612
   0.24598565  0.75216342  0.59605461
   0.58495831  0.08041886  0.40438815
   0.66676646  0.91815307  0.50074049
   0.16807401  0.91346436  0.50010962
   0.24808710  0.50165992  0.59733703
   0.16507369  0.66802374  0.49993994
   0.25016100  0.25025729  0.59657401
   0.16663081  0.41897201  0.50021688
   0.24902927 -0.00048805  0.59681141
   0.00183242  0.74913151  0.59597579
   0.91650563  0.91502255  0.50021983
   0.91845913  0.66732854  0.50009185
   0.08198234  0.58340343  0.40446316
   0.08340015  0.33379169  0.40205672
   0.00121804 -0.00120342  0.59715698
   0.41790248  0.16545151  0.50045750
   0.75193013  0.74981782  0.59689502
Direct configuration=    10
   0.33131321  0.33274201  0.39783028
   0.41411173  0.41718038  0.50102532
   0.58392574  0.33060833  0.39606157
   0.49861970  0.00017625  0.60106315
   0.49705228  0.50173822  0.60465382
   0.33364815  0.83495152  0.39950635
   0.49694327  0.75164330  0.60218161
   0.83288377  0.08144924  0.39776606
   0.33153534  0.58354691  0.39782894
   0.75367980 -0.00171117  0.60116246
   0.49886427  0.25070425  0.60268661
   0.83622251  0.33239148  0.39354687
   0.16966062  0.16500571  0.50021192
   0.58420453  0.58442700  0.39690711
   0.66511443  0.41694447  0.50091724
   0.91773747  0.16295266  0.50076050
   0.08129400  0.83351561  0.39902524
   0.00207626  0.50114473  0.60248994
   0.83585187  0.58524882  0.39583772
   0.66564942  0.67056112  0.49993983
   0.00213051  0.24672922  0.60618883
   0.33430159  0.08290858  0.39808811
   0.75065580  0.49970414  0.60552374
   0.91812472  0.41782601  0.49944494
   0.83137034  0.83408250  0.40463697
   0.41643399  0.91684347  0.50025893
   0.58440076  0.83476113  0.40349597
   0.66651845  0.16428687  0.50057906
   0.75080831  0.24885050  0.59800214
   0.41410793  0.66904641  0.50036001
   0.08302684  0.08437928  0.40312224
   0.24596187  0.75220801  0.59578375
   0.58478296  0.08046850  0.40472724
   0.66675332  0.91829326  0.50104330
   0.16805522  0.91321497  0.49996138
   0.24822710  0.50171852  0.59714984
   0.16503487  0.66824296  0.49978029
   0.25009698  0.25019445  0.59653732
   0.16645956  0.41890144  0.50024931
   0.24896924 -0.00051777  0.59663853
   0.00185109  0.74926677  0.59566594
   0.91649425  0.91489574  0.50019582
   0.91841966  0.66735077  0.50010164
   0.08192731  0.58351255  0.40453825
   0.08349022  0.33373312  0.40222199
   0.00131258 -0.00128840  0.59694614
   0.41802429  0.16541097  0.50045650
   0.75187183  0.74975514  0.59689928
Direct configuration=    11
   0.33132511  0.33248759  0.39775050
   0.41435603  0.41710602  0.50108285
   0.58396373  0.33064894  0.39574482
   0.49885422  0.00015674  0.60127523
   0.49687551  0.50167771  0.60501280
   0.33351775  0.83478863  0.39941999
   0.49695755  0.75169827  0.60226664
   0.83306508  0.08147501  0.39763916
   0.33136615  0.58367869  0.39759743
   0.75359243 -0.00176129  0.60133277
   0.49895111  0.25068643  0.60290148
   0.83627776  0.33226770  0.39285532
   0.16950242  0.16518251  0.50023731
   0.58437770  0.58437385  0.39663814
   0.66500657  0.41715819  0.50085682
   0.91779943  0.16323655  0.50074175
   0.08131975  0.83343753  0.39873889
   0.00206263  0.50074144  0.60266480
   0.83580322  0.58544597  0.39554531
   0.66586140  0.67038655  0.49989783
   0.00237499  0.24687816  0.60670223
   0.33431611  0.08314596  0.39807620
   0.75080657  0.49965339  0.60601706
   0.91824713  0.41765125  0.49954414
   0.83121661  0.83400572  0.40500461
   0.41644680  0.91691902  0.50030278
   0.58465336  0.83475966  0.40384523
   0.66632939  0.16422853  0.50064786
   0.75065958  0.24901254  0.59789593
   0.41382165  0.66913135  0.50038987
   0.08289631  0.08438957  0.40323187
   0.24593161  0.75226477  0.59543899
   0.58455975  0.08053169  0.40515887
   0.66673659  0.91847171  0.50142873
   0.16803129  0.91289753  0.49977269
   0.24840530  0.50179312  0.59691157
   0.16498546  0.66852200  0.49957707
   0.25001549  0.25011447  0.59649062
   0.16624157  0.41881162  0.50029060
   0.24889282 -0.00055560  0.59641846
   0.00187486  0.74943895  0.59527154
   0.91647977  0.91473433  0.50016526
   0.91836941  0.66737905  0.50011410
   0.08185727  0.58365146  0.40463382
   0.08360486  0.33365856  0.40243236
   0.00143293 -0.00139656  0.59667777
   0.41817934  0.16535936  0.50045522
   0.75179761  0.74967534  0.59690470
Direct configuration=    12
   0.33132827  0.33242006  0.39772933
   0.41442087  0.41708628  0.50109813
   0.58397382  0.33065972  0.39566074
   0.49891646  0.00015156  0.60133152
   0.49682859  0.50166164  0.60510808
   0.33348314  0.83474539  0.39939707
   0.49696133  0.75171286  0.60228921
   0.83311320  0.08148185  0.39760547
   0.33132125  0.58371367  0.39753598
   0.75356924 -0.00177460  0.60137797
   0.49897416  0.25068170  0.60295851
   0.83629242  0.33223484  0.39267177
   0.16946043  0.16522944  0.50024405
   0.58442366  0.58435974  0.39656675
   0.66497794  0.41721492  0.50084078
   0.91781588  0.16331191  0.50073677
   0.08132658  0.83341681  0.39866289
   0.00205901  0.50063440  0.60271122
   0.83579031  0.58549830  0.39546770
   0.66591766  0.67034022  0.49988668
   0.00243989  0.24691770  0.60683849
   0.33431996  0.08320896  0.39807304
   0.75084658  0.49963992  0.60614800
   0.91827962  0.41760486  0.49957047
   0.83117580  0.83398534  0.40510219
   0.41645020  0.91693908  0.50031442
   0.58472041  0.83475927  0.40393793
   0.66627920  0.16421304  0.50066612
   0.75062010  0.24905555  0.59786774
   0.41374566  0.66915390  0.50039779
   0.08286166  0.08439230  0.40326097
   0.24592358  0.75227983  0.59534748
   0.58450051  0.08054847  0.40527344
   0.66673214  0.91851908  0.50153103
   0.16802494  0.91281328  0.49972261
   0.24845260  0.50181292  0.59684832
   0.16497235  0.66859607  0.49952313
   0.24999386  0.25009324  0.59647822
   0.16618371  0.41878778  0.50030156
   0.24887254 -0.00056564  0.59636004
   0.00188117  0.74948465  0.59516686
   0.91647593  0.91469149  0.50015715
   0.91835607  0.66738656  0.50011741
   0.08183868  0.58368833  0.40465919
   0.08363529  0.33363877  0.40248820
   0.00146488 -0.00142527  0.59660654
   0.41822050  0.16534566  0.50045489
   0.75177791  0.74965416  0.59690614
Direct configuration=    13
   0.33149309  0.33263349  0.39776083
   0.41465401  0.41717327  0.50095350
   0.58383965  0.33070073  0.39548037
   0.49906396 -0.00007679  0.60147757
   0.49682422  0.50186820  0.60538831
   0.33343609  0.83481032  0.39937128
   0.49718339  0.75153009  0.60231380
   0.83307497  0.08159252  0.39759296
   0.33154241  0.58343054  0.39740449
   0.75373475 -0.00189325  0.60153313
   0.49903265  0.25062727  0.60312565
   0.83631131  0.33223280  0.39215760
   0.16918255  0.16552634  0.50023895
   0.58435172  0.58432168  0.39638927
   0.66511454  0.41703305  0.50076049
   0.91728419  0.16374997  0.50060709
   0.08115292  0.83352050  0.39845573
   0.00197970  0.50078217  0.60282464
   0.83577041  0.58542201  0.39528890
   0.66617809  0.66988256  0.50000365
   0.00232656  0.24683019  0.60723442
   0.33431416  0.08302368  0.39811077
   0.75092442  0.49961693  0.60652559
   0.91781103  0.41772762  0.49966497
   0.83135782  0.83398639  0.40541394
   0.41660498  0.91677862  0.50037143
   0.58450772  0.83485415  0.40414567
   0.66653859  0.16450011  0.50073839
   0.75072281  0.24905599  0.59776964
   0.41399416  0.66886950  0.50028293
   0.08286687  0.08430906  0.40331396
   0.24589491  0.75221925  0.59514571
   0.58443964  0.08074006  0.40558467
   0.66672050  0.91858173  0.50194033
   0.16776059  0.91293840  0.49936054
   0.24831655  0.50188403  0.59670083
   0.16504808  0.66858097  0.49913811
   0.25007651  0.25010338  0.59646313
   0.16632396  0.41866935  0.50030871
   0.24888053 -0.00052648  0.59625923
   0.00178965  0.74949859  0.59496024
   0.91640308  0.91496655  0.50000266
   0.91820986  0.66716765  0.50012168
   0.08190655  0.58378355  0.40469779
   0.08352936  0.33354334  0.40263468
   0.00150210 -0.00151226  0.59644068
   0.41815725  0.16538914  0.50058549
   0.75186717  0.74955304  0.59695555
Direct configuration=    14
   0.33159281  0.33276264  0.39777989
   0.41479507  0.41722590  0.50086599
   0.58375846  0.33072554  0.39537124
   0.49915320 -0.00021496  0.60156594
   0.49682157  0.50199317  0.60555787
   0.33340762  0.83484960  0.39935568
   0.49731774  0.75141950  0.60232868
   0.83305184  0.08165948  0.39758539
   0.33167623  0.58325924  0.39732493
   0.75383490 -0.00196505  0.60162701
   0.49906804  0.25059434  0.60322678
   0.83632274  0.33223157  0.39184650
   0.16901442  0.16570598  0.50023587
   0.58430818  0.58429865  0.39628189
   0.66519718  0.41692301  0.50071190
   0.91696249  0.16401503  0.50052862
   0.08104785  0.83358323  0.39833038
   0.00193170  0.50087157  0.60289327
   0.83575836  0.58537585  0.39518072
   0.66633567  0.66960566  0.50007442
   0.00225800  0.24677724  0.60747398
   0.33431065  0.08291157  0.39813360
   0.75097152  0.49960302  0.60675406
   0.91752751  0.41780189  0.49972215
   0.83146796  0.83398702  0.40560257
   0.41669862  0.91668154  0.50040592
   0.58437902  0.83491157  0.40427137
   0.66669554  0.16467381  0.50078213
   0.75078495  0.24905626  0.59771028
   0.41414452  0.66869742  0.50021344
   0.08287002  0.08425869  0.40334602
   0.24587757  0.75218259  0.59502362
   0.58440281  0.08085599  0.40577299
   0.66671346  0.91861964  0.50218797
   0.16760064  0.91301411  0.49914146
   0.24823424  0.50192707  0.59661159
   0.16509390  0.66857183  0.49890515
   0.25012651  0.25010952  0.59645400
   0.16640881  0.41859769  0.50031304
   0.24888536 -0.00050278  0.59619824
   0.00173428  0.74950702  0.59483523
   0.91635899  0.91513298  0.49990918
   0.91812139  0.66703519  0.50012427
   0.08194762  0.58384117  0.40472114
   0.08346526  0.33348560  0.40272332
   0.00152462 -0.00156489  0.59634032
   0.41811899  0.16541545  0.50066451
   0.75192119  0.74949186  0.59698544
Direct configuration=    15
   0.33161585  0.33279247  0.39778430
   0.41482766  0.41723806  0.50084578
   0.58373971  0.33073128  0.39534603
   0.49917382 -0.00024688  0.60158636
   0.49682096  0.50202205  0.60559704
   0.33340104  0.83485868  0.39935208
   0.49734878  0.75139395  0.60233212
   0.83304649  0.08167495  0.39758365
   0.33170715  0.58321966  0.39730655
   0.75385803 -0.00198163  0.60164870
   0.49907621  0.25058673  0.60325014
   0.83632538  0.33223128  0.39177462
   0.16897557  0.16574748  0.50023515
   0.58429813  0.58429333  0.39625708
   0.66521628  0.41689758  0.50070068
   0.91688816  0.16407627  0.50051049
   0.08102357  0.83359773  0.39830142
   0.00192062  0.50089223  0.60290913
   0.83575558  0.58536519  0.39515572
   0.66637207  0.66954168  0.50009077
   0.00224216  0.24676501  0.60752933
   0.33430984  0.08288567  0.39813887
   0.75098240  0.49959980  0.60680684
   0.91746200  0.41781905  0.49973536
   0.83149340  0.83398717  0.40564615
   0.41672026  0.91665911  0.50041389
   0.58434929  0.83492483  0.40430041
   0.66673180  0.16471394  0.50079223
   0.75079931  0.24905632  0.59769657
   0.41417926  0.66865766  0.50019738
   0.08287075  0.08424705  0.40335343
   0.24587356  0.75217412  0.59499542
   0.58439430  0.08088277  0.40581650
   0.66671183  0.91862840  0.50224519
   0.16756369  0.91303160  0.49909085
   0.24821522  0.50193701  0.59659097
   0.16510448  0.66856972  0.49885133
   0.25013807  0.25011094  0.59645189
   0.16642842  0.41858113  0.50031404
   0.24888648 -0.00049730  0.59618414
   0.00172148  0.74950897  0.59480634
   0.91634881  0.91517143  0.49988758
   0.91810095  0.66700459  0.50012487
   0.08195711  0.58385448  0.40472654
   0.08345045  0.33347226  0.40274379
   0.00152982 -0.00157705  0.59631714
   0.41811014  0.16542152  0.50068277
   0.75193367  0.74947772  0.59699235
Direct configuration=    16
   0.33140584  0.33270984  0.39789341
   0.41482535  0.41720747  0.50077268
   0.58400870  0.33057719  0.39526893
   0.49904608 -0.00027660  0.60166584
   0.49698580  0.50194938  0.60565528
   0.33348243  0.83470630  0.39934585
   0.49732475  0.75129379  0.60228046
   0.83273962  0.08191020  0.39759881
   0.33177902  0.58343563  0.39721450
   0.75406517 -0.00192407  0.60173755
   0.49907885  0.25074299  0.60326781
   0.83628218  0.33230345  0.39154332
   0.16882002  0.16567426  0.50031070
   0.58423379  0.58433647  0.39620873
   0.66507629  0.41699246  0.50063156
   0.91699079  0.16411259  0.50036749
   0.08113218  0.83357842  0.39812680
   0.00197723  0.50102701  0.60292507
   0.83574532  0.58530765  0.39516068
   0.66611499  0.66959669  0.50020834
   0.00212986  0.24654352  0.60764431
   0.33423490  0.08301306  0.39823974
   0.75097789  0.49950653  0.60699051
   0.91741871  0.41782918  0.49981811
   0.83141990  0.83405555  0.40576169
   0.41668686  0.91653717  0.50048813
   0.58435565  0.83484136  0.40441232
   0.66664669  0.16484931  0.50088455
   0.75088314  0.24901013  0.59772413
   0.41453931  0.66858715  0.50005533
   0.08277474  0.08440039  0.40325809
   0.24583919  0.75215915  0.59482378
   0.58453284  0.08083327  0.40598506
   0.66674882  0.91855541  0.50241969
   0.16744878  0.91341060  0.49892214
   0.24823427  0.50188545  0.59650467
   0.16515993  0.66835088  0.49861897
   0.25014061  0.25014867  0.59649080
   0.16647182  0.41871882  0.50029658
   0.24895012 -0.00054104  0.59614665
   0.00179028  0.74933571  0.59474924
   0.91630239  0.91540651  0.49979693
   0.91815067  0.66680055  0.50013093
   0.08190201  0.58369427  0.40465016
   0.08342172  0.33347477  0.40277645
   0.00156686 -0.00156265  0.59621254
   0.41803282  0.16553851  0.50087943
   0.75212484  0.74935669  0.59713527
Direct configuration=    17
   0.33135641  0.33269039  0.39791910
   0.41482481  0.41720027  0.50075547
   0.58407202  0.33054092  0.39525079
   0.49901601 -0.00028360  0.60168456