  48  48   0   0
  0.5349325E+02  0.1100258E-08  0.1100258E-08  0.2449179E-08  0.3500000E-15
  1.000000000000000E-004
  CAR 
 unknown system                          
      6.37544842     -9.65690517  301     -1.09829959      1.00000000
     -9.657  0.0000E+00  0.0000E+00
     -9.603  0.0000E+00  0.0000E+00
     -9.550  0.0000E+00  0.0000E+00
     -9.497  0.0000E+00  0.0000E+00
     -9.443  0.0000E+00  0.0000E+00
     -9.390  0.0000E+00  0.0000E+00
     -9.336  0.0000E+00  0.0000E+00
     -9.283  0.0000E+00  0.0000E+00
     -9.229  0.8310E-17  0.4441E-18
     -9.176  0.3204E-14  0.1717E-15
     -9.122  0.6981E-12  0.3748E-13
     -9.069  0.8682E-10  0.4677E-11
     -9.016  0.6174E-08  0.3346E-09
     -8.962  0.2516E-06  0.1378E-07
     -8.909  0.5885E-05  0.3283E-06
     -8.855  0.7921E-04  0.4562E-05
     -8.802  0.6151E-03  0.3743E-04
     -8.748  0.2761E-02  0.1850E-03
     -8.695  0.7189E-02  0.5692E-03
     -8.642  0.1095E-01  0.1154E-02
     -8.588  0.1033E-01  0.1707E-02
     -8.535  0.8260E-02  0.2148E-02
     -8.481  0.9458E-02  0.2653E-02
     -8.428  0.1118E-01  0.3251E-02
     -8.374  0.8713E-02  0.3717E-02
     -8.321  0.4032E-02  0.3932E-02
     -8.267  0.1131E-02  0.3992E-02
     -8.214  0.5019E-03  0.4019E-02
     -8.161  0.1536E-02  0.4101E-02
     -8.107  0.4269E-02  0.4330E-02
     -8.054  0.7675E-02  0.4740E-02
     -8.000  0.9918E-02  0.5270E-02
     -7.947  0.1164E-01  0.5892E-02
     -7.893  0.1503E-01  0.6695E-02
     -7.840  0.1937E-01  0.7730E-02
     -7.786  0.2182E-01  0.8896E-02
     -7.733  0.2138E-01  0.1004E-01
     -7.680  0.1854E-01  0.1103E-01
     -7.626  0.1493E-01  0.1183E-01
     -7.573  0.1395E-01  0.1257E-01
     -7.519  0.1670E-01  0.1347E-01
     -7.466  0.1925E-01  0.1449E-01
     -7.412  0.1811E-01  0.1546E-01
     -7.359  0.1543E-01  0.1629E-01
     -7.305  0.1468E-01  0.1707E-01
     -7.252  0.1584E-01  0.1792E-01
     -7.199  0.1865E-01  0.1891E-01
     -7.145  0.2320E-01  0.2015E-01
     -7.092  0.2797E-01  0.2165E-01
     -7.038  0.3472E-01  0.2350E-01
     -6.985  0.4572E-01  0.2595E-01
     -6.931  0.5614E-01  0.2895E-01
     -6.878  0.6284E-01  0.3231E-01
     -6.825  0.7030E-01  0.3606E-01
     -6.771  0.8129E-01  0.4041E-01
     -6.718  0.9297E-01  0.4538E-01
     -6.664  0.1010E+00  0.5077E-01
     -6.611  0.1028E+00  0.5627E-01
     -6.557  0.1019E+00  0.6171E-01
     -6.504  0.1033E+00  0.6723E-01
     -6.450  0.1060E+00  0.7290E-01
     -6.397  0.1076E+00  0.7865E-01
     -6.344  0.1117E+00  0.8462E-01
     -6.290  0.1209E+00  0.9108E-01
     -6.237  0.1308E+00  0.9807E-01
     -6.183  0.1383E+00  0.1055E+00
     -6.130  0.1459E+00  0.1133E+00
     -6.076  0.1549E+00  0.1215E+00
     -6.023  0.1631E+00  0.1302E+00
     -5.969  0.1676E+00  0.1392E+00
     -5.916  0.1693E+00  0.1483E+00
     -5.863  0.1700E+00  0.1573E+00
     -5.809  0.1701E+00  0.1664E+00
     -5.756  0.1685E+00  0.1754E+00
     -5.702  0.1620E+00  0.1841E+00
     -5.649  0.1504E+00  0.1921E+00
     -5.595  0.1381E+00  0.1995E+00
     -5.542  0.1308E+00  0.2065E+00
     -5.488  0.1315E+00  0.2135E+00
     -5.435  0.1382E+00  0.2209E+00
     -5.382  0.1471E+00  0.2288E+00
     -5.328  0.1559E+00  0.2371E+00
     -5.275  0.1617E+00  0.2457E+00
     -5.221  0.1642E+00  0.2545E+00
     -5.168  0.1659E+00  0.2634E+00
     -5.114  0.1672E+00  0.2723E+00
     -5.061  0.1672E+00  0.2813E+00
     -5.008  0.1670E+00  0.2902E+00
     -4.954  0.1676E+00  0.2991E+00
     -4.901  0.1689E+00  0.3082E+00
     -4.847  0.1702E+00  0.3173E+00
     -4.794  0.1718E+00  0.3264E+00
     -4.740  0.1738E+00  0.3357E+00
     -4.687  0.1747E+00  0.3451E+00
     -4.633  0.1730E+00  0.3543E+00
     -4.580  0.1710E+00  0.3634E+00
     -4.527  0.1728E+00  0.3727E+00
     -4.473  0.1779E+00  0.3822E+00
     -4.420  0.1824E+00  0.3919E+00
     -4.366  0.1831E+00  0.4017E+00
     -4.313  0.1798E+00  0.4113E+00
     -4.259  0.1757E+00  0.4207E+00
     -4.206  0.1734E+00  0.4300E+00
     -4.152  0.1736E+00  0.4393E+00
     -4.099  0.1761E+00  0.4487E+00
     -4.046  0.1794E+00  0.4583E+00
     -3.992  0.1822E+00  0.4680E+00
     -3.939  0.1833E+00  0.4778E+00
     -3.885  0.1832E+00  0.4876E+00
     -3.832  0.1835E+00  0.4974E+00
     -3.778  0.1860E+00  0.5073E+00
     -3.725  0.1913E+00  0.5176E+00
     -3.671  0.1972E+00  0.5281E+00
     -3.618  0.2017E+00  0.5389E+00
     -3.565  0.2060E+00  0.5499E+00
     -3.511  0.2110E+00  0.5612E+00
     -3.458  0.2133E+00  0.5726E+00
     -3.404  0.2115E+00  0.5839E+00
     -3.351  0.2073E+00  0.5949E+00
     -3.297  0.2002E+00  0.6056E+00
     -3.244  0.1910E+00  0.6158E+00
     -3.191  0.1826E+00  0.6256E+00
     -3.137  0.1760E+00  0.6350E+00
     -3.084  0.1706E+00  0.6441E+00
     -3.030  0.1662E+00  0.6530E+00
     -2.977  0.1647E+00  0.6618E+00
     -2.923  0.1669E+00  0.6707E+00
     -2.870  0.1716E+00  0.6799E+00
     -2.816  0.1782E+00  0.6894E+00
     -2.763  0.1831E+00  0.6992E+00
     -2.710  0.1826E+00  0.7090E+00
     -2.656  0.1793E+00  0.7185E+00
     -2.603  0.1776E+00  0.7280E+00
     -2.549  0.1788E+00  0.7376E+00
     -2.496  0.1829E+00  0.7474E+00
     -2.442  0.1864E+00  0.7573E+00
     -2.389  0.1857E+00  0.7673E+00
     -2.335  0.1833E+00  0.7771E+00
     -2.282  0.1817E+00  0.7868E+00
     -2.229  0.1812E+00  0.7964E+00
     -2.175  0.1847E+00  0.8063E+00
     -2.122  0.1922E+00  0.8166E+00
     -2.068  0.1971E+00  0.8271E+00
     -2.015  0.1970E+00  0.8376E+00
     -1.961  0.1963E+00  0.8481E+00
     -1.908  0.1971E+00  0.8587E+00
     -1.854  0.1999E+00  0.8694E+00
     -1.801  0.2054E+00  0.8803E+00
     -1.748  0.2098E+00  0.8915E+00
     -1.694  0.2093E+00  0.9027E+00
     -1.641  0.2075E+00  0.9138E+00
     -1.587  0.2069E+00  0.9249E+00
     -1.534  0.2045E+00  0.9358E+00
     -1.480  0.2002E+00  0.9465E+00
     -1.427  0.1964E+00  0.9570E+00
     -1.374  0.1906E+00  0.9672E+00
     -1.320  0.1798E+00  0.9768E+00
     -1.267  0.1666E+00  0.9857E+00
     -1.213  0.1528E+00  0.9939E+00
     -1.160  0.1357E+00  0.1001E+01
     -1.106  0.1136E+00  0.1007E+01
     -1.053  0.8925E-01  0.1012E+01
     -0.999  0.6460E-01  0.1015E+01
     -0.946  0.4213E-01  0.1018E+01
     -0.893  0.2628E-01  0.1019E+01
     -0.839  0.1869E-01  0.1020E+01
     -0.786  0.1785E-01  0.1021E+01
     -0.732  0.1968E-01  0.1022E+01
     -0.679  0.1993E-01  0.1023E+01
     -0.625  0.1926E-01  0.1024E+01
     -0.572  0.2185E-01  0.1025E+01
     -0.518  0.2934E-01  0.1027E+01
     -0.465  0.3820E-01  0.1029E+01
     -0.412  0.4254E-01  0.1031E+01
     -0.358  0.4090E-01  0.1033E+01
     -0.305  0.3831E-01  0.1035E+01
     -0.251  0.3968E-01  0.1038E+01
     -0.198  0.4309E-01  0.1040E+01
     -0.144  0.4096E-01  0.1042E+01
     -0.091  0.3126E-01  0.1044E+01
     -0.037  0.2235E-01  0.1045E+01
      0.016  0.2260E-01  0.1046E+01
      0.069  0.3113E-01  0.1048E+01
      0.123  0.3936E-01  0.1050E+01
      0.176  0.3992E-01  0.1052E+01
      0.230  0.3459E-01  0.1054E+01
      0.283  0.3169E-01  0.1056E+01
      0.337  0.3459E-01  0.1057E+01
      0.390  0.3797E-01  0.1059E+01
      0.443  0.3712E-01  0.1061E+01
      0.497  0.3599E-01  0.1063E+01
      0.550  0.3877E-01  0.1065E+01
      0.604  0.4187E-01  0.1068E+01
      0.657  0.4221E-01  0.1070E+01
      0.711  0.4139E-01  0.1072E+01
      0.764  0.4035E-01  0.1074E+01
      0.818  0.3708E-01  0.1076E+01
      0.871  0.3042E-01  0.1078E+01
      0.924  0.2326E-01  0.1079E+01
      0.978  0.1888E-01  0.1080E+01
      1.031  0.1814E-01  0.1081E+01
      1.085  0.1966E-01  0.1082E+01
      1.138  0.2081E-01  0.1083E+01
      1.192  0.2007E-01  0.1084E+01
      1.245  0.1748E-01  0.1085E+01
      1.299  0.1372E-01  0.1086E+01
      1.352  0.1076E-01  0.1087E+01
      1.405  0.1295E-01  0.1087E+01
      1.459  0.2235E-01  0.1089E+01
      1.512  0.3334E-01  0.1090E+01
      1.566  0.3712E-01  0.1092E+01
      1.619  0.3318E-01  0.1094E+01
      1.673  0.2997E-01  0.1096E+01
      1.726  0.3304E-01  0.1097E+01
      1.780  0.3839E-01  0.1099E+01
      1.833  0.3759E-01  0.1101E+01
      1.886  0.2822E-01  0.1103E+01
      1.940  0.1734E-01  0.1104E+01
      1.993  0.1276E-01  0.1105E+01
      2.047  0.1402E-01  0.1105E+01
      2.100  0.1752E-01  0.1106E+01
      2.154  0.2383E-01  0.1108E+01
      2.207  0.3195E-01  0.1109E+01
      2.260  0.3797E-01  0.1111E+01
      2.314  0.4159E-01  0.1114E+01
      2.367  0.4485E-01  0.1116E+01
      2.421  0.4821E-01  0.1118E+01
      2.474  0.5103E-01  0.1121E+01
      2.528  0.5168E-01  0.1124E+01
      2.581  0.4929E-01  0.1127E+01
      2.635  0.4644E-01  0.1129E+01
      2.688  0.4576E-01  0.1132E+01
      2.741  0.4423E-01  0.1134E+01
      2.795  0.3685E-01  0.1136E+01
      2.848  0.2518E-01  0.1137E+01
      2.902  0.1637E-01  0.1138E+01
      2.955  0.1377E-01  0.1139E+01
      3.009  0.1355E-01  0.1140E+01
      3.062  0.1367E-01  0.1140E+01
      3.116  0.1785E-01  0.1141E+01
      3.169  0.2551E-01  0.1143E+01
      3.222  0.2849E-01  0.1144E+01
      3.276  0.2185E-01  0.1145E+01
      3.329  0.1207E-01  0.1146E+01
      3.383  0.8171E-02  0.1146E+01
      3.436  0.1079E-01  0.1147E+01
      3.490  0.1627E-01  0.1148E+01
      3.543  0.2331E-01  0.1149E+01
      3.597  0.3108E-01  0.1151E+01
      3.650  0.3743E-01  0.1153E+01
      3.703  0.4115E-01  0.1155E+01
      3.757  0.4099E-01  0.1157E+01
      3.810  0.3518E-01  0.1159E+01
      3.864  0.2686E-01  0.1160E+01
      3.917  0.2233E-01  0.1162E+01
      3.971  0.2352E-01  0.1163E+01
      4.024  0.2808E-01  0.1164E+01
      4.077  0.3009E-01  0.1166E+01
      4.131  0.2663E-01  0.1167E+01
      4.184  0.2342E-01  0.1169E+01
      4.238  0.2350E-01  0.1170E+01
      4.291  0.2175E-01  0.1171E+01
      4.345  0.1755E-01  0.1172E+01
      4.398  0.1737E-01  0.1173E+01
      4.452  0.2265E-01  0.1174E+01
      4.505  0.3015E-01  0.1176E+01
      4.558  0.3985E-01  0.1178E+01
      4.612  0.4999E-01  0.1181E+01
      4.665  0.5410E-01  0.1183E+01
      4.719  0.5079E-01  0.1186E+01
      4.772  0.4529E-01  0.1189E+01
      4.826  0.4379E-01  0.1191E+01
      4.879  0.4950E-01  0.1194E+01
      4.933  0.5848E-01  0.1197E+01
      4.986  0.6562E-01  0.1200E+01
      5.039  0.7013E-01  0.1204E+01
      5.093  0.6994E-01  0.1208E+01
      5.146  0.6487E-01  0.1211E+01
      5.200  0.6157E-01  0.1214E+01
      5.253  0.6042E-01  0.1218E+01
      5.307  0.5233E-01  0.1220E+01
      5.360  0.3583E-01  0.1222E+01
      5.414  0.1922E-01  0.1223E+01
      5.467  0.8039E-02  0.1224E+01
      5.520  0.2444E-02  0.1224E+01
      5.574  0.4913E-03  0.1224E+01
      5.627  0.6095E-04  0.1224E+01
      5.681  0.4496E-05  0.1224E+01
      5.734  0.1935E-06  0.1224E+01
      5.788  0.4814E-08  0.1224E+01
      5.841  0.6878E-10  0.1224E+01
      5.894  0.5627E-12  0.1224E+01
      5.948  0.2629E-14  0.1224E+01
      6.001  0.5540E-17  0.1224E+01
      6.055  0.0000E+00  0.1224E+01
      6.108  0.0000E+00  0.1224E+01
      6.162  0.0000E+00  0.1224E+01
      6.215  0.0000E+00  0.1224E+01
      6.269  0.0000E+00  0.1224E+01
      6.322  0.0000E+00  0.1224E+01
      6.375  0.0000E+00  0.1224E+01
