       N       E                     dE             d eps       ncg     rms          rms(c)
DAV:   1     0.320171520585E+04    0.32017E+04   -0.18984E+05  3672   0.112E+03
DAV:   2     0.149561386988E+02   -0.31868E+04   -0.29324E+04  4380   0.263E+02
DAV:   3    -0.200870643719E+03   -0.21583E+03   -0.20038E+03  4128   0.651E+01
DAV:   4    -0.206648774775E+03   -0.57781E+01   -0.57165E+01  4188   0.108E+01
DAV:   5    -0.206839093593E+03   -0.19032E+00   -0.18973E+00  4428   0.199E+00    0.621E+01
RMM:   6    -0.199047885957E+03    0.77912E+01   -0.91060E+01  3679   0.151E+01    0.511E+01
RMM:   7    -0.206042534649E+03   -0.69946E+01   -0.56650E+01  3681   0.129E+01    0.411E+01
RMM:   8    -0.225623725001E+03   -0.19581E+02   -0.82869E+01  3672   0.135E+01    0.438E+01
RMM:   9    -0.207995689663E+03    0.17628E+02   -0.40706E+01  3672   0.971E+00    0.319E+01
RMM:  10    -0.194320009583E+03    0.13676E+02   -0.16094E+01  3682   0.662E+00    0.167E+01
RMM:  11    -0.191986232043E+03    0.23338E+01   -0.98599E+00  3683   0.504E+00    0.115E+01
RMM:  12    -0.189750815125E+03    0.22354E+01   -0.32993E+00  3682   0.283E+00    0.680E+00
RMM:  13    -0.189844582352E+03   -0.93767E-01   -0.14765E+00  3680   0.188E+00    0.643E+00
RMM:  14    -0.189705381334E+03    0.13920E+00   -0.43879E-01  3680   0.103E+00    0.561E+00
RMM:  15    -0.189585967101E+03    0.11941E+00   -0.19985E-01  3679   0.701E-01    0.410E+00
RMM:  16    -0.189533124765E+03    0.52842E-01   -0.20228E-01  3682   0.689E-01    0.353E+00
RMM:  17    -0.189439143395E+03    0.93981E-01   -0.12267E-01  3680   0.545E-01    0.181E+00
RMM:  18    -0.189406532220E+03    0.32611E-01   -0.40741E-02  3679   0.309E-01    0.899E-01
RMM:  19    -0.189400210634E+03    0.63216E-02   -0.13709E-02  3684   0.176E-01    0.642E-01
RMM:  20    -0.189397556570E+03    0.26541E-02   -0.29427E-03  3683   0.831E-02    0.458E-01
RMM:  21    -0.189397051055E+03    0.50551E-03   -0.21643E-03  3681   0.732E-02    0.380E-01
RMM:  22    -0.189395394401E+03    0.16567E-02   -0.21476E-03  3681   0.671E-02    0.189E-01
RMM:  23    -0.189395176763E+03    0.21764E-03   -0.87634E-04  3681   0.433E-02    0.941E-02
RMM:  24    -0.189395323091E+03   -0.14633E-03   -0.29746E-04  3680   0.241E-02    0.670E-02
RMM:  25    -0.189395692468E+03   -0.36938E-03   -0.16990E-04  3683   0.183E-02    0.803E-02
RMM:  26    -0.189396119572E+03   -0.42710E-03   -0.81264E-05  3682   0.140E-02    0.514E-02
RMM:  27    -0.189396469153E+03   -0.34958E-03   -0.42344E-05  3675   0.977E-03    0.344E-02
RMM:  28    -0.189396887068E+03   -0.41791E-03   -0.24493E-05  3667   0.710E-03    0.183E-02
RMM:  29    -0.189397318672E+03   -0.43160E-03   -0.19339E-05  3630   0.620E-03    0.196E-02
RMM:  30    -0.189398172214E+03   -0.85354E-03   -0.52174E-05  3672   0.997E-03    0.157E-02
RMM:  31    -0.189398449386E+03   -0.27717E-03   -0.20293E-05  3242   0.565E-03    0.101E-02
RMM:  32    -0.189398591708E+03   -0.14232E-03   -0.87584E-06  2807   0.367E-03    0.510E-03
RMM:  33    -0.189398694273E+03   -0.10256E-03   -0.33994E-06  2526   0.243E-03    0.597E-03
RMM:  34    -0.189398743891E+03   -0.49618E-04   -0.11864E-06  2193   0.158E-03    0.272E-03
RMM:  35    -0.189398802093E+03   -0.58202E-04   -0.96929E-07  2180   0.137E-03    0.169E-03
RMM:  36    -0.189398820958E+03   -0.18864E-04   -0.40776E-07  2089   0.861E-04    0.135E-03
RMM:  37    -0.189398841323E+03   -0.20365E-04   -0.37950E-07  2129   0.946E-04    0.974E-04
RMM:  38    -0.189398847479E+03   -0.61561E-05   -0.14619E-07  1313   0.531E-04    0.911E-04
RMM:  39    -0.189398850684E+03   -0.32048E-05   -0.92893E-08  1342   0.494E-04    0.422E-04
RMM:  40    -0.189398851390E+03   -0.70575E-06   -0.22513E-08   749   0.365E-04
   1 F= -.18939885E+03 E0= -.18926462E+03  d E =-.189399E+03
       N       E                     dE             d eps       ncg     rms          rms(c)
DAV:   1    -0.190402672753E+03   -0.10038E+01   -0.34267E+02  3684   0.284E+01    0.347E+00
RMM:   2    -0.190762704152E+03   -0.36003E+00   -0.36298E+00  3682   0.412E+00    0.227E+00
RMM:   3    -0.190892052926E+03   -0.12935E+00   -0.38958E-01  3703   0.108E+00    0.424E+00
RMM:   4    -0.190734842002E+03    0.15721E+00   -0.14877E-01  3687   0.658E-01    0.117E+00
RMM:   5    -0.190773039854E+03   -0.38198E-01   -0.79606E-02  3687   0.447E-01    0.210E+00
RMM:   6    -0.190732372670E+03    0.40667E-01   -0.40677E-02  3685   0.325E-01    0.696E-01
RMM:   7    -0.190730121526E+03    0.22511E-02   -0.10835E-02  3682   0.161E-01    0.602E-01
RMM:   8    -0.190727938715E+03    0.21828E-02   -0.47257E-03  3684   0.103E-01    0.473E-01
RMM:   9    -0.190725698982E+03    0.22397E-02   -0.23732E-03  3684   0.768E-02    0.155E-01
RMM:  10    -0.190725612601E+03    0.86380E-04   -0.79904E-04  3686   0.446E-02    0.119E-01
RMM:  11    -0.190725489756E+03    0.12285E-03   -0.21823E-04  3687   0.236E-02    0.608E-02
RMM:  12    -0.190725476387E+03    0.13369E-04   -0.57081E-05  3683   0.121E-02    0.436E-02
RMM:  13    -0.190725467397E+03    0.89903E-05   -0.24205E-05  3678   0.821E-03    0.230E-02
RMM:  14    -0.190725465702E+03    0.16955E-05   -0.10570E-05  3546   0.534E-03    0.122E-02
RMM:  15    -0.190725465174E+03    0.52791E-06   -0.31591E-06  2587   0.297E-03
   2 F= -.19072547E+03 E0= -.19059337E+03  d E =-.132661E+01
       N       E                     dE             d eps       ncg     rms          rms(c)
DAV:   1    -0.189485859992E+03    0.12396E+01   -0.32014E+03  3672   0.888E+01    0.841E+00
RMM:   2    -0.192600971467E+03   -0.31151E+01   -0.31701E+01  3682   0.123E+01    0.550E+00
RMM:   3    -0.193254790729E+03   -0.65382E+00   -0.24784E+00  3708   0.271E+00    0.953E+00
RMM:   4    -0.192372653251E+03    0.88214E+00   -0.76180E-01  3687   0.150E+00    0.315E+00
RMM:   5    -0.192724792078E+03   -0.35214E+00   -0.59918E-01  3684   0.120E+00    0.593E+00
RMM:   6    -0.192500572364E+03    0.22422E+00   -0.37014E-01  3685   0.921E-01    0.394E+00
RMM:   7    -0.192343427808E+03    0.15714E+00   -0.16264E-01  3683   0.623E-01    0.165E+00
RMM:   8    -0.192325114208E+03    0.18314E-01   -0.57802E-02  3684   0.373E-01    0.121E+00
RMM:   9    -0.192307778235E+03    0.17336E-01   -0.22524E-02  3683   0.237E-01    0.371E-01
RMM:  10    -0.192307189441E+03    0.58879E-03   -0.54345E-03  3685   0.115E-01    0.277E-01
RMM:  11    -0.192306545400E+03    0.64404E-03   -0.15059E-03  3685   0.620E-02    0.140E-01
RMM:  12    -0.192306508718E+03    0.36682E-04   -0.38024E-04  3685   0.321E-02    0.965E-02
RMM:  13    -0.192306468748E+03    0.39970E-04   -0.22105E-04  3678   0.240E-02    0.561E-02
RMM:  14    -0.192306451250E+03    0.17497E-04   -0.67312E-05  3679   0.134E-02    0.243E-02
RMM:  15    -0.192306454673E+03   -0.34221E-05   -0.15627E-05  3678   0.633E-03    0.158E-02
RMM:  16    -0.192306459116E+03   -0.44433E-05   -0.43228E-06  2788   0.346E-03    0.971E-03
RMM:  17    -0.192306463980E+03   -0.48646E-05   -0.19163E-06  2214   0.235E-03    0.751E-03
RMM:  18    -0.192306471432E+03   -0.74513E-05   -0.81194E-07  2104   0.165E-03    0.384E-03
RMM:  19    -0.192306474124E+03   -0.26927E-05   -0.29618E-07  2000   0.919E-04    0.191E-03
RMM:  20    -0.192306479177E+03   -0.50523E-05   -0.13752E-07  1441   0.563E-04    0.107E-03
RMM:  21    -0.192306483244E+03   -0.40676E-05   -0.10827E-07  1269   0.518E-04    0.870E-04
RMM:  22    -0.192306490456E+03   -0.72113E-05   -0.26778E-07  1908   0.622E-04    0.736E-04
RMM:  23    -0.192306494664E+03   -0.42086E-05   -0.20394E-07  1375   0.507E-04    0.748E-04
RMM:  24    -0.192306496854E+03   -0.21900E-05   -0.14838E-07  1256   0.463E-04    0.437E-04
RMM:  25    -0.192306497991E+03   -0.11363E-05   -0.67956E-08   895   0.417E-04    0.424E-04
RMM:  26    -0.192306498635E+03   -0.64436E-06   -0.73987E-08   962   0.426E-04
   3 F= -.19230650E+03 E0= -.19218156E+03  d E =-.290765E+01
       N       E                     dE             d eps       ncg     rms          rms(c)
DAV:   1    -0.192450105463E+03   -0.14361E+00   -0.25808E+02  3672   0.248E+01    0.221E+00
RMM:   2    -0.192732274265E+03   -0.28217E+00   -0.28941E+00  3684   0.363E+00    0.166E+00
RMM:   3    -0.192799335301E+03   -0.67061E-01   -0.23507E-01  3706   0.834E-01    0.309E+00
RMM:   4    -0.192724341743E+03    0.74994E-01   -0.61698E-02  3687   0.419E-01    0.133E+00
RMM:   5    -0.192727263485E+03   -0.29217E-02   -0.25390E-02  3689   0.243E-01    0.143E+00
RMM:   6    -0.192713033216E+03    0.14230E-01   -0.36187E-02  3684   0.300E-01    0.666E-01
RMM:   7    -0.192708411270E+03    0.46219E-02   -0.11208E-02  3683   0.169E-01    0.291E-01
RMM:   8    -0.192707681332E+03    0.72994E-03   -0.29949E-03  3682   0.864E-02    0.257E-01
RMM:   9    -0.192706900765E+03    0.78057E-03   -0.11508E-03  3682   0.542E-02    0.963E-02
RMM:  10    -0.192706834321E+03    0.66444E-04   -0.27707E-04  3685   0.256E-02    0.599E-02
RMM:  11    -0.192706800097E+03    0.34224E-04   -0.87148E-05  3683   0.147E-02    0.282E-02
RMM:  12    -0.192706802211E+03   -0.21138E-05   -0.36331E-05  3683   0.960E-03    0.270E-02
RMM:  13    -0.192706798116E+03    0.40954E-05   -0.12741E-05  3672   0.582E-03    0.149E-02
RMM:  14    -0.192706797776E+03    0.33978E-06   -0.35431E-06  2663   0.322E-03
   4 F= -.19270680E+03 E0= -.19258467E+03  d E =-.400299E+00
       N       E                     dE             d eps       ncg     rms          rms(c)
DAV:   1    -0.192699318633E+03    0.74795E-02   -0.43843E+01  3744   0.102E+01    0.839E-01
RMM:   2    -0.192747915441E+03   -0.48597E-01   -0.49805E-01  3684   0.150E+00    0.690E-01
RMM:   3    -0.192756834024E+03   -0.89186E-02   -0.38915E-02  3708   0.341E-01    0.118E+00
RMM:   4    -0.192746840560E+03    0.99935E-02   -0.92408E-03  3687   0.162E-01    0.586E-01
RMM:   5    -0.192745452654E+03    0.13879E-02   -0.33740E-03  3688   0.896E-02    0.459E-01
RMM:   6    -0.192744390514E+03    0.10621E-02   -0.62207E-03  3683   0.124E-01    0.272E-01
RMM:   7    -0.192743719403E+03    0.67111E-03   -0.20586E-03  3682   0.722E-02    0.138E-01
RMM:   8    -0.192743593166E+03    0.12624E-03   -0.53374E-04  3683   0.367E-02    0.118E-01
RMM:   9    -0.192743416841E+03    0.17632E-03   -0.23508E-04  3682   0.246E-02    0.392E-02
RMM:  10    -0.192743403025E+03    0.13817E-04   -0.55067E-05  3681   0.114E-02    0.236E-02
RMM:  11    -0.192743397748E+03    0.52766E-05   -0.17228E-05  3680   0.639E-03    0.118E-02
RMM:  12    -0.192743398647E+03   -0.89916E-06   -0.77797E-06  3672   0.437E-03
   5 F= -.19274340E+03 E0= -.19262230E+03  d E =-.436900E+00
       N       E                     dE             d eps       ncg     rms          rms(c)
DAV:   1    -0.192755121543E+03   -0.11724E-01   -0.27330E+01  3708   0.804E+00    0.675E-01
RMM:   2    -0.192783879199E+03   -0.28758E-01   -0.30200E-01  3684   0.118E+00    0.433E-01
RMM:   3    -0.192789733991E+03   -0.58548E-02   -0.19954E-02  3718   0.249E-01    0.870E-01
RMM:   4    -0.192783963522E+03    0.57705E-02   -0.51707E-03  3686   0.119E-01    0.427E-01
RMM:   5    -0.192784201609E+03   -0.23809E-03   -0.30039E-03  3683   0.847E-02    0.453E-01
RMM:   6    -0.192782907257E+03    0.12944E-02   -0.36907E-03  3684   0.966E-02    0.254E-01
RMM:   7    -0.192782385464E+03    0.52179E-03   -0.14734E-03  3682   0.612E-02    0.116E-01
RMM:   8    -0.192782255837E+03    0.12963E-03   -0.30310E-04  3683   0.289E-02    0.661E-02
RMM:   9    -0.192782209669E+03    0.46168E-04   -0.13479E-04  3683   0.182E-02    0.451E-02
RMM:  10    -0.192782185359E+03    0.24310E-04   -0.48791E-05  3678   0.109E-02    0.199E-02
RMM:  11    -0.192782182419E+03    0.29397E-05   -0.11754E-05  3672   0.537E-03    0.113E-02
RMM:  12    -0.192782182327E+03    0.91728E-07   -0.40371E-06  2663   0.324E-03
   6 F= -.19278218E+03 E0= -.19266120E+03  d E =-.387837E-01
       N       E                     dE             d eps       ncg     rms          rms(c)
DAV:   1    -0.192780014257E+03    0.21682E-02   -0.75658E+00  3732   0.423E+00    0.345E-01
RMM:   2    -0.192788000039E+03   -0.79858E-02   -0.83805E-02  3684   0.622E-01    0.231E-01
RMM:   3    -0.192789704065E+03   -0.17040E-02   -0.56779E-03  3722   0.133E-01    0.470E-01
RMM:   4    -0.192787995439E+03    0.17086E-02   -0.14509E-03  3686   0.632E-02    0.229E-01
RMM:   5    -0.192787971707E+03    0.23733E-04   -0.75798E-04  3683   0.428E-02    0.220E-01
RMM:   6    -0.192787695083E+03    0.27662E-03   -0.10298E-03  3684   0.510E-02    0.132E-01
RMM:   7    -0.192787559581E+03    0.13550E-03   -0.42368E-04  3681   0.328E-02    0.631E-02
RMM:   8    -0.192787522089E+03    0.37492E-04   -0.84721E-05  3683   0.153E-02    0.350E-02
RMM:   9    -0.192787509772E+03    0.12317E-04   -0.37652E-05  3677   0.962E-03    0.253E-02
RMM:  10    -0.192787502057E+03    0.77153E-05   -0.14667E-05  3672   0.595E-03    0.109E-02
RMM:  11    -0.192787501056E+03    0.10010E-05   -0.33585E-06  2487   0.297E-03    0.605E-03
RMM:  12    -0.192787501020E+03    0.35529E-07   -0.15231E-06  1978   0.219E-03
   7 F= -.19278750E+03 E0= -.19266658E+03  d E =-.441024E-01
       N       E                     dE             d eps       ncg     rms          rms(c)
DAV:   1    -0.192790061444E+03   -0.25604E-02   -0.79678E+00  3684   0.430E+00    0.294E-01
RMM:   2    -0.192798246064E+03   -0.81846E-02   -0.85749E-02  3683   0.630E-01    0.236E-01
RMM:   3    -0.192799390316E+03   -0.11443E-02   -0.51711E-03  3725   0.129E-01    0.377E-01
RMM:   4    -0.192798266532E+03    0.11238E-02   -0.11884E-03  3675   0.560E-02    0.231E-01
RMM:   5    -0.192798080457E+03    0.18607E-03   -0.10592E-03  3683   0.513E-02    0.198E-01
RMM:   6    -0.192797910540E+03    0.16992E-03   -0.10459E-03  3684   0.516E-02    0.151E-01
RMM:   7    -0.192797775819E+03    0.13472E-03   -0.46515E-04  3682   0.344E-02    0.774E-02
RMM:   8    -0.192797721953E+03    0.53866E-04   -0.93866E-05  3686   0.159E-02    0.390E-02
RMM:   9    -0.192797706129E+03    0.15824E-04   -0.44286E-05  3673   0.104E-02    0.326E-02
RMM:  10    -0.192797691356E+03    0.14773E-04   -0.28941E-05  3678   0.820E-03    0.150E-02
RMM:  11    -0.192797688942E+03    0.24139E-05   -0.84248E-06  3671   0.443E-03    0.727E-03
RMM:  12    -0.192797688515E+03    0.42715E-06   -0.35036E-06  2298   0.295E-03
   8 F= -.19279769E+03 E0= -.19267683E+03  d E =-.101875E-01
       N       E                     dE             d eps       ncg     rms          rms(c)
DAV:   1    -0.192797128600E+03    0.56034E-03   -0.22211E+00  3744   0.227E+00    0.152E-01
RMM:   2    -0.192799406984E+03   -0.22784E-02   -0.23911E-02  3683   0.333E-01    0.124E-01
RMM:   3    -0.192799697654E+03   -0.29067E-03   -0.14328E-03  3726   0.679E-02    0.193E-01
RMM:   4    -0.192799409332E+03    0.28832E-03   -0.31917E-04  3675   0.291E-02    0.123E-01
RMM:   5    -0.192799362644E+03    0.46688E-04   -0.27980E-04  3683   0.264E-02    0.109E-01
RMM:   6    -0.192799308070E+03    0.54574E-04   -0.29816E-04  3684   0.275E-02    0.806E-02
RMM:   7    -0.192799272980E+03    0.35090E-04   -0.14079E-04  3682   0.189E-02    0.420E-02
RMM:   8    -0.192799257549E+03    0.15431E-04   -0.27679E-05  3683   0.864E-03    0.211E-02
RMM:   9    -0.192799253044E+03    0.45057E-05   -0.12405E-05  3672   0.553E-03    0.177E-02
RMM:  10    -0.192799248455E+03    0.45890E-05   -0.86983E-06  3672   0.449E-03    0.751E-03
RMM:  11    -0.192799247838E+03    0.61698E-06   -0.22006E-06  2076   0.241E-03
   9 F= -.19279925E+03 E0= -.19267841E+03  d E =-.117468E-01
       N       E                     dE             d eps       ncg     rms          rms(c)
DAV:   1    -0.192799753269E+03   -0.50481E-03   -0.50848E+00  3684   0.345E+00    0.211E-01
RMM:   2    -0.192805043714E+03   -0.52904E-02   -0.54938E-02  3681   0.507E-01    0.188E-01
RMM:   3    -0.192805370498E+03   -0.32678E-03   -0.32795E-03  3743   0.103E-01    0.228E-01
RMM:   4    -0.192805164174E+03    0.20632E-03   -0.61491E-04  3677   0.402E-02    0.204E-01
RMM:   5    -0.192804904733E+03    0.25944E-03   -0.51460E-04  3685   0.357E-02    0.150E-01
RMM:   6    -0.192804813730E+03    0.91003E-04   -0.72853E-04  3682   0.423E-02    0.119E-01
RMM:   7    -0.192804743748E+03    0.69982E-04   -0.40139E-04  3684   0.318E-02    0.658E-02
RMM:   8    -0.192804709169E+03    0.34579E-04   -0.73196E-05  3684   0.138E-02    0.347E-02
RMM:   9    -0.192804696456E+03    0.12713E-04   -0.21839E-05  3678   0.737E-03    0.290E-02
RMM:  10    -0.192804685847E+03    0.10609E-04   -0.19359E-05  3673   0.678E-03    0.175E-02
RMM:  11    -0.192804681851E+03    0.39960E-05   -0.10294E-05  3672   0.486E-03    0.773E-03
RMM:  12    -0.192804681287E+03    0.56452E-06   -0.62063E-06  3553   0.367E-03
  10 F= -.19280468E+03 E0= -.19268382E+03  d E =-.543345E-02
       N       E                     dE             d eps       ncg     rms          rms(c)
DAV:   1    -0.192803269532E+03    0.14123E-02   -0.31467E+00  3684   0.271E+00    0.164E-01
RMM:   2    -0.192806537958E+03   -0.32684E-02   -0.33958E-02  3681   0.399E-01    0.147E-01
RMM:   3    -0.192806729505E+03   -0.19155E-03   -0.20227E-03  3748   0.810E-02    0.177E-01
RMM:   4    -0.192806602857E+03    0.12665E-03   -0.37100E-04  3677   0.313E-02    0.159E-01
RMM:   5    -0.192806442776E+03    0.16008E-03   -0.31189E-04  3685   0.279E-02    0.117E-01
RMM:   6    -0.192806390700E+03    0.52076E-04   -0.46072E-04  3682   0.337E-02    0.929E-02
RMM:   7    -0.192806350259E+03    0.40440E-04   -0.24727E-04  3684   0.249E-02    0.524E-02
RMM:   8    -0.192806327735E+03    0.22524E-04   -0.45104E-05  3682   0.109E-02    0.266E-02
RMM:   9    -0.192806319764E+03    0.79714E-05   -0.13893E-05  3674   0.587E-03    0.226E-02
RMM:  10    -0.192806313352E+03    0.64121E-05   -0.11771E-05  3672   0.530E-03    0.136E-02
RMM:  11    -0.192806311041E+03    0.23114E-05   -0.60716E-06  3350   0.376E-03    0.631E-03
RMM:  12    -0.192806310672E+03    0.36860E-06   -0.36106E-06  2315   0.301E-03
  11 F= -.19280631E+03 E0= -.19268542E+03  d E =-.706283E-02
       N       E                     dE             d eps       ncg     rms          rms(c)
DAV:   1    -0.192805839241E+03    0.47180E-03   -0.31534E+00  3672   0.274E+00    0.142E-01
RMM:   2    -0.192809216228E+03   -0.33770E-02   -0.35217E-02  3681   0.403E-01    0.146E-01
RMM:   3    -0.192809279148E+03   -0.62920E-04   -0.21893E-03  3734   0.832E-02    0.151E-01
RMM:   4    -0.192809097230E+03    0.18192E-03   -0.27218E-04  3675   0.289E-02    0.935E-02
RMM:   5    -0.192809061733E+03    0.35497E-04   -0.13884E-04  3686   0.191E-02    0.895E-02
RMM:   6    -0.192809223801E+03   -0.16207E-03   -0.29133E-04  3683   0.255E-02    0.159E-01
RMM:   7    -0.192808994977E+03    0.22882E-03   -0.31956E-04  3683   0.273E-02    0.480E-02
RMM:   8    -0.192808999968E+03   -0.49912E-05   -0.65120E-05  3681   0.130E-02    0.274E-02
RMM:   9    -0.192808993489E+03    0.64794E-05   -0.10616E-05  3644   0.525E-03    0.226E-02
RMM:  10    -0.192808986292E+03    0.71970E-05   -0.10677E-05  3672   0.504E-03    0.138E-02
RMM:  11    -0.192808983754E+03    0.25375E-05   -0.67270E-06  3454   0.392E-03    0.718E-03
RMM:  12    -0.192808983355E+03    0.39959E-06   -0.57076E-06  3463   0.359E-03
  12 F= -.19280898E+03 E0= -.19268792E+03  d E =-.267268E-02
       N       E                     dE             d eps       ncg     rms          rms(c)
DAV:   1    -0.192808355095E+03    0.62866E-03   -0.11771E+00  3696   0.167E+00    0.864E-02
RMM:   2    -0.192809612014E+03   -0.12569E-02   -0.13129E-02  3681   0.246E-01    0.899E-02
RMM:   3    -0.192809630426E+03   -0.18412E-04   -0.81804E-04  3735   0.509E-02    0.922E-02
RMM:   4    -0.192809562871E+03    0.67555E-04   -0.99385E-05  3675   0.175E-02    0.567E-02
RMM:   5    -0.192809544410E+03    0.18461E-04   -0.53451E-05  3686   0.119E-02    0.487E-02
RMM:   6    -0.192809540471E+03    0.39381E-05   -0.18873E-04  3681   0.211E-02    0.412E-02
RMM:   7    -0.192809561565E+03   -0.21094E-04   -0.56586E-05  3681   0.113E-02    0.567E-02
RMM:   8    -0.192809531332E+03    0.30234E-04   -0.17835E-05  3673   0.658E-03    0.182E-02
RMM:   9    -0.192809530319E+03    0.10124E-05   -0.41433E-06  2750   0.331E-03    0.143E-02
RMM:  10    -0.192809527523E+03    0.27958E-05   -0.43524E-06  2910   0.337E-03    0.869E-03
RMM:  11    -0.192809526496E+03    0.10271E-05   -0.28385E-06  2054   0.285E-03    0.459E-03
RMM:  12    -0.192809526402E+03    0.94136E-07   -0.26692E-06  1968   0.280E-03
  13 F= -.19280953E+03 E0= -.19268835E+03  d E =-.321573E-02
       N       E                     dE             d eps       ncg     rms          rms(c)
DAV:   1    -0.192807626348E+03    0.19001E-02   -0.39080E+00  3672   0.305E+00    0.161E-01
RMM:   2    -0.192812014990E+03   -0.43886E-02   -0.44589E-02  3679   0.451E-01    0.203E-01
RMM:   3    -0.192812045785E+03   -0.30794E-04   -0.30559E-03  3727   0.966E-02    0.197E-01
RMM:   4    -0.192811783695E+03    0.26209E-03   -0.34691E-04  3680   0.323E-02    0.123E-01
RMM:   5    -0.192811739578E+03    0.44117E-04   -0.11726E-04  3686   0.171E-02    0.116E-01
RMM:   6    -0.192811650545E+03    0.89033E-04   -0.21215E-04  3681   0.225E-02    0.894E-02
RMM:   7    -0.192811613378E+03    0.37167E-04   -0.61231E-04  3678   0.379E-02    0.467E-02
RMM:   8    -0.192811616501E+03   -0.31235E-05   -0.92257E-05  3672   0.150E-02    0.345E-02
RMM:   9    -0.192811605996E+03    0.10505E-04   -0.13180E-05  3671   0.598E-03    0.238E-02
RMM:  10    -0.192811598656E+03    0.73404E-05   -0.10296E-05  3672   0.494E-03    0.159E-02
RMM:  11    -0.192811595180E+03    0.34757E-05   -0.99244E-06  3659   0.473E-03    0.804E-03
RMM:  12    -0.192811594896E+03    0.28401E-06   -0.68594E-06  3470   0.388E-03
  14 F= -.19281159E+03 E0= -.19269013E+03  d E =-.206849E-02
       N       E                     dE             d eps       ncg     rms          rms(c)
DAV:   1    -0.192810752350E+03    0.84283E-03   -0.12395E+00  3684   0.172E+00    0.907E-02
RMM:   2    -0.192812136635E+03   -0.13843E-02   -0.14123E-02  3679   0.254E-01    0.115E-01
RMM:   3    -0.192812137758E+03   -0.11232E-05   -0.96801E-04  3727   0.544E-02    0.110E-01
RMM:   4    -0.192812056715E+03    0.81043E-04   -0.10806E-04  3679   0.181E-02    0.687E-02
RMM:   5    -0.192812045591E+03    0.11124E-04   -0.36727E-05  3682   0.961E-03    0.660E-02
RMM:   6    -0.192812020962E+03    0.24629E-04   -0.68202E-05  3674   0.128E-02    0.511E-02
RMM:   7    -0.192812014524E+03    0.64378E-05   -0.19778E-04  3680   0.215E-02    0.267E-02
RMM:   8    -0.192812016077E+03   -0.15532E-05   -0.29748E-05  3672   0.855E-03    0.199E-02
RMM:   9    -0.192812012647E+03    0.34302E-05   -0.41603E-06  2773   0.342E-03    0.136E-02
RMM:  10    -0.192812010257E+03    0.23902E-05   -0.31849E-06  2406   0.292E-03    0.927E-03
RMM:  11    -0.192812009113E+03    0.11442E-05   -0.34339E-06  2381   0.310E-03    0.492E-03
RMM:  12    -0.192812009079E+03    0.33360E-07   -0.24677E-06  1962   0.268E-03
  15 F= -.19281201E+03 E0= -.19269037E+03  d E =-.248268E-02
       N       E                     dE             d eps       ncg     rms          rms(c)
DAV:   1    -0.192809673105E+03    0.23360E-02   -0.38248E+00  3672   0.301E+00    0.146E-01
RMM:   2    -0.192813972122E+03   -0.42990E-02   -0.43201E-02  3678   0.445E-01    0.209E-01
RMM:   3    -0.192813971120E+03    0.10024E-05   -0.28924E-03  3764   0.942E-02    0.185E-01
RMM:   4    -0.192813780208E+03    0.19091E-03   -0.32615E-04  3678   0.305E-02    0.139E-01
RMM:   5    -0.192813674012E+03    0.10620E-03   -0.96486E-05  3690   0.162E-02    0.108E-01
RMM:   6    -0.192813654946E+03    0.19067E-04   -0.25586E-04  3682   0.247E-02    0.118E-01
RMM:   7    -0.192813560516E+03    0.94429E-04   -0.73513E-04  3679   0.416E-02    0.473E-02
RMM:   8    -0.192813579113E+03   -0.18596E-04   -0.11548E-04  3678   0.167E-02    0.403E-02
RMM:   9    -0.192813569153E+03    0.99595E-05   -0.13162E-05  3665   0.602E-03    0.307E-02
RMM:  10    -0.192813559940E+03    0.92136E-05   -0.86238E-06  3589   0.462E-03    0.236E-02
RMM:  11    -0.192813550088E+03    0.98518E-05   -0.23853E-05  3678   0.730E-03    0.106E-02
RMM:  12    -0.192813549121E+03    0.96665E-06   -0.12002E-05  3667   0.512E-03    0.550E-03
RMM:  13    -0.192813549228E+03   -0.10681E-06   -0.16712E-06  2005   0.214E-03
  16 F= -.19281355E+03 E0= -.19269161E+03  d E =-.154015E-02
       N       E                     dE             d eps       ncg     rms          rms(c)
DAV:   1    -0.192812993674E+03    0.55545E-03   -0.76397E-01  3708   0.135E+00    0.646E-02
RMM:   2    -0.192813841108E+03   -0.84743E-03   -0.85955E-03  3679   0.199E-01    0.932E-02
RMM:   3    -0.192813832664E+03    0.84440E-05   -0.57179E-04  3767   0.419E-02    0.806E-02
RMM:   4    -0.192813797879E+03    0.34785E-04   -0.62109E-05  3677   0.134E-02    0.615E-02
RMM:   5    -0.192813780142E+03    0.17737E-04   -0.18086E-05  3682   0.701E-03    0.489E-02
RMM:   6    -0.192813779813E+03    0.32948E-06   -0.52463E-05  3680   0.112E-02    0.534E-02
RMM:   7    -0.192813766081E+03    0.13731E-04   -0.15218E-04  3677   0.189E-02    0.214E-02
RMM:   8    -0.192813770624E+03   -0.45431E-05   -0.23530E-05  3672   0.754E-03    0.185E-02
RMM:   9    -0.192813768502E+03    0.21223E-05   -0.24843E-06  2328   0.273E-03    0.139E-02
RMM:  10    -0.192813766491E+03    0.20108E-05   -0.17718E-06  1960   0.231E-03    0.107E-02
RMM:  11    -0.192813764445E+03    0.20467E-05   -0.55349E-06  3194   0.370E-03    0.451E-03
RMM:  12    -0.192813764313E+03    0.13191E-06   -0.22859E-06  1968   0.252E-03
  17 F= -.19281376E+03 E0= -.19269169E+03  d E =-.175523E-02
       N       E                     dE             d eps       ncg     rms          rms(c)
DAV:   1    -0.192811127657E+03    0.26368E-02   -0.37951E+00  3672   0.300E+00    0.141E-01
RMM:   2    -0.192815252481E+03   -0.41248E-02   -0.41978E-02  3678   0.442E-01    0.181E-01
RMM:   3    -0.192815341131E+03   -0.88650E-04   -0.27049E-03  3795   0.917E-02    0.183E-01
RMM:   4    -0.192815135077E+03    0.20605E-03   -0.31334E-04  3677   0.297E-02    0.134E-01
RMM:   5    -0.192815034733E+03    0.10034E-03   -0.98949E-05  3688   0.164E-02    0.106E-01
RMM:   6    -0.192815032282E+03    0.24508E-05   -0.28640E-04  3680   0.262E-02    0.124E-01
RMM:   7    -0.192814932229E+03    0.10005E-03   -0.67990E-04  3681   0.401E-02    0.481E-02
RMM:   8    -0.192814952896E+03   -0.20667E-04   -0.10863E-04  3680   0.163E-02    0.420E-02
RMM:   9    -0.192814942631E+03    0.10265E-04   -0.12808E-05  3665   0.594E-03    0.312E-02
RMM:  10    -0.192814934182E+03    0.84490E-05   -0.78852E-06  3494   0.447E-03    0.244E-02
RMM:  11    -0.192814922919E+03    0.11263E-04   -0.36128E-05  3676   0.900E-03    0.912E-03
RMM:  12    -0.192814922592E+03    0.32700E-06   -0.83718E-06  3621   0.431E-03
  18 F= -.19281492E+03 E0= -.19269269E+03  d E =-.115828E-02
       N       E                     dE             d eps       ncg     rms          rms(c)
DAV:   1    -0.192814804754E+03    0.11816E-03   -0.17532E-01  3744   0.645E-01    0.297E-02
RMM:   2    -0.192814992099E+03   -0.18734E-03   -0.19231E-03  3678   0.949E-02    0.409E-02
RMM:   3    -0.192814990657E+03    0.14419E-05   -0.12362E-04  3810   0.196E-02    0.379E-02
RMM:   4    -0.192814982294E+03    0.83630E-05   -0.13022E-05  3571   0.609E-03    0.287E-02
RMM:   5    -0.192814978999E+03    0.32952E-05   -0.36146E-06  2636   0.326E-03    0.235E-02
RMM:   6    -0.192814980727E+03   -0.17284E-05   -0.14681E-05  3672   0.604E-03    0.277E-02
RMM:   7    -0.192814978269E+03    0.24583E-05   -0.36465E-05  3673   0.928E-03    0.115E-02
RMM:   8    -0.192814979325E+03   -0.10559E-05   -0.54094E-06  2995   0.370E-03    0.948E-03
RMM:   9    -0.192814978841E+03    0.48345E-06   -0.75972E-07  1949   0.164E-03
  19 F= -.19281498E+03 E0= -.19269271E+03  d E =-.121453E-02
       N       E                     dE             d eps       ncg     rms          rms(c)
DAV:   1    -0.192814350857E+03    0.62847E-03   -0.12644E+00  3672   0.174E+00    0.855E-02
RMM:   2    -0.192815690645E+03   -0.13398E-02   -0.13980E-02  3678   0.255E-01    0.823E-02
RMM:   3    -0.192815727747E+03   -0.37102E-04   -0.87225E-04  3736   0.524E-02    0.966E-02
RMM:   4    -0.192815666318E+03    0.61429E-04   -0.96670E-05  3676   0.170E-02    0.668E-02
RMM:   5    -0.192815645944E+03    0.20374E-04   -0.32594E-05  3689   0.918E-03    0.560E-02
RMM:   6    -0.192815639196E+03    0.67484E-05   -0.73140E-05  3681   0.134E-02    0.570E-02
RMM:   7    -0.192815624732E+03    0.14464E-04   -0.15534E-04  3679   0.192E-02    0.267E-02
RMM:   8    -0.192815629106E+03   -0.43741E-05   -0.30501E-05  3679   0.866E-03    0.222E-02
RMM:   9    -0.192815625049E+03    0.40572E-05   -0.44894E-06  2813   0.357E-03    0.132E-02
RMM:  10    -0.192815623713E+03    0.13365E-05   -0.18267E-06  2033   0.232E-03    0.101E-02
RMM:  11    -0.192815622232E+03    0.14805E-05   -0.58686E-06  3411   0.381E-03    0.369E-03
RMM:  12    -0.192815622162E+03    0.69689E-07   -0.13632E-06  1946   0.196E-03
  20 F= -.19281562E+03 E0= -.19269325E+03  d E =-.643321E-03
