unknown system                          
           1
    11.002582    0.000000    0.000000
     5.501291    9.528515    0.000000
     0.000000    0.000000   24.491785
   Au   Pd
  24  24
Direct configuration=     1
   0.75000000  0.75000000  0.59169983
   0.50000000  0.25000000  0.59169983
   0.58333333  0.33333333  0.40830017
   0.50000000  0.00000000  0.59169983
   0.50000000  0.75000000  0.59169983
   0.58333333  0.08333333  0.40830017
   0.66666667  0.91666667  0.50000000
   0.83333333  0.08333333  0.40830017
   0.33333333  0.83333333  0.40830017
   0.25000000  0.50000000  0.59169983
   0.16666667  0.66666667  0.50000000
   0.16666667  0.41666667  0.50000000
   0.58333333  0.83333333  0.40830017
   0.25000000  0.00000000  0.59169983
   0.33333333  0.33333333  0.40830017
   0.33333333  0.08333333  0.40830017
   0.91666667  0.16666667  0.50000000
   0.75000000  0.50000000  0.59169983
   0.91666667  0.41666667  0.50000000
   0.91666667  0.66666667  0.50000000
   0.08333333  0.58333333  0.40830017
   0.00000000  0.75000000  0.59169983
   0.75000000  0.25000000  0.59169983
   0.41666667  0.66666667  0.50000000
   0.83333333  0.58333333  0.40830017
   0.66666667  0.41666667  0.50000000
   0.83333333  0.33333333  0.40830017
   0.66666667  0.66666667  0.50000000
   0.66666667  0.16666667  0.50000000
   0.75000000  0.00000000  0.59169983
   0.83333333  0.83333333  0.40830017
   0.41666667  0.91666667  0.50000000
   0.08333333  0.08333333  0.40830017
   0.58333333  0.58333333  0.40830017
   0.41666667  0.41666667  0.50000000
   0.41666667  0.16666667  0.50000000
   0.16666667  0.91666667  0.50000000
   0.33333333  0.58333333  0.40830017
   0.25000000  0.25000000  0.59169983
   0.16666667  0.16666667  0.50000000
   0.91666667  0.91666667  0.50000000
   0.08333333  0.83333333  0.40830017
   0.00000000  0.50000000  0.59169983
   0.00000000  0.25000000  0.59169983
   0.08333333  0.33333333  0.40830017
   0.00000000  0.00000000  0.59169983
   0.50000000  0.50000000  0.59169983
   0.25000000  0.75000000  0.59169983
Direct configuration=     2
   0.75052859  0.74967635  0.59396700
   0.50001121  0.25007203  0.59321929
   0.58326505  0.33480019  0.40674181
   0.49934860  0.00115292  0.59353002
   0.49950075  0.74945538  0.59352478
   0.58385084  0.08316534  0.40642437
   0.66697262  0.91751965  0.49993995
   0.83464316  0.08232781  0.40651779
   0.33233275  0.83323068  0.40649312
   0.25056393  0.49960009  0.59383788
   0.16743479  0.66842868  0.49966971
   0.16763398  0.41405669  0.50035276
   0.58456565  0.83153003  0.40644008
   0.24855558  0.00079490  0.59320391
   0.33312227  0.33378038  0.40637424
   0.33174038  0.08402603  0.40671490
   0.91778893  0.16570624  0.49998266
   0.75024994  0.49952569  0.59364099
   0.91652291  0.41613696  0.49959097
   0.91543481  0.66713356  0.49957647
   0.08264477  0.58415556  0.40583257
  -0.00025220  0.75137025  0.59390795
   0.75028610  0.24946497  0.59351375
   0.41751158  0.66558341  0.49994542
   0.83291598  0.58292836  0.40711947
   0.66585240  0.41713512  0.49969312
   0.83344651  0.33421211  0.40722578
   0.66629666  0.66593414  0.49945858
   0.66636786  0.16692795  0.50028875
   0.75059420  0.00009958  0.59273847
   0.83392451  0.83309579  0.40706965
   0.41576165  0.91738906  0.49998170
   0.08327620  0.08349408  0.40745303
   0.58411189  0.58271687  0.40731953
   0.41803332  0.41614224  0.50004197
   0.41606016  0.16695804  0.50027115
   0.16580613  0.91742467  0.50000454
   0.33358142  0.58349750  0.40712380
   0.24928072  0.25006495  0.59269168
   0.16720212  0.16601380  0.49999390
   0.91686351  0.91737591  0.49998446
   0.08308708  0.83365840  0.40731508
   0.00041564  0.49900612  0.59316800
   0.00072316  0.24976938  0.59285503
   0.08255162  0.33306747  0.40712585
   0.00007197 -0.00025174  0.59260057
   0.49985090  0.50010472  0.59268774
   0.24966743  0.75054169  0.59284576
Direct configuration=     3
   0.75211436  0.74870539  0.60076850
   0.50004482  0.25028813  0.59777766
   0.58306021  0.33920076  0.40206674
   0.49739440  0.00461167  0.59902059
   0.49800301  0.74782152  0.59899963
   0.58540337  0.08266135  0.40079698
   0.66789048  0.92007861  0.49975979
   0.83857265  0.07931125  0.40117067
   0.32933099  0.83292273  0.40107199
   0.25225571  0.49840035  0.60025202
   0.16973915  0.67371472  0.49867885
   0.17053592  0.40622676  0.50141102
   0.58826259  0.82612012  0.40085980
   0.24422233  0.00317959  0.59771614
   0.33248909  0.33512151  0.40059646
   0.32696151  0.08610411  0.40195908
   0.92115571  0.16282496  0.49993064
   0.75099975  0.49810277  0.59946449
   0.91609165  0.41454783  0.49836386
   0.91173925  0.66853425  0.49830588
   0.08057908  0.58662225  0.39842977
  -0.00100881  0.75548100  0.60053232
   0.75114441  0.24785988  0.59895549
   0.42004632  0.66233365  0.49978166
   0.83166393  0.58171345  0.40357739
   0.66340959  0.41854049  0.49877248
   0.83378604  0.33684845  0.40400262
   0.66518665  0.66373654  0.49783433
   0.66547143  0.16771181  0.50115499
   0.75237681  0.00039833  0.59585437
   0.83569803  0.83238318  0.40337811
   0.41304659  0.91955623  0.49992681
   0.08310479  0.08397634  0.40491161
   0.58644754  0.58086747  0.40437763
   0.42213328  0.41456897  0.50016788
   0.41424065  0.16783217  0.50108459
   0.16322452  0.91969868  0.50001816
   0.33432568  0.58398999  0.40359469
   0.24712288  0.25025980  0.59566724
   0.16880846  0.16405519  0.49997560
   0.91745405  0.91950364  0.49993784
   0.08234832  0.83463359  0.40435981
   0.00166256  0.49602448  0.59757249
   0.00289263  0.24907751  0.59632065
   0.08020646  0.33226986  0.40360289
   0.00028789 -0.00100697  0.59530277
   0.49940358  0.50041889  0.59565146
   0.24866972  0.75216677  0.59628356
Direct configuration=     4
   0.75160147  0.74888034  0.60190567
   0.50000855  0.25054115  0.59898301
   0.58427994  0.33697468  0.40083062
   0.49801818  0.00272878  0.60011510
   0.49820449  0.74914234  0.59994750
   0.58469818  0.08300404  0.39975151
   0.66595693  0.91991446  0.49985203
   0.83722201  0.08128651  0.39997108
   0.33040129  0.83263877  0.39999904
   0.25053086  0.50000089  0.60119316
   0.16786842  0.67020651  0.49903172
   0.16915781  0.41172794  0.50095903
   0.58648358  0.82824661  0.39976518
   0.24553338  0.00209841  0.59889419
   0.33190454  0.33555789  0.39958564
   0.32917746  0.08495472  0.40088076
   0.91804270  0.16531656  0.50004943
   0.75142228  0.49774513  0.60046074
   0.91547165  0.41490928  0.49908057
   0.91496271  0.66709375  0.49881284
   0.08122044  0.58549155  0.39727048
   0.00005408  0.75313143  0.60159989
   0.75187750  0.24831351  0.60002420
   0.41937971  0.66541150  0.49979946
   0.83326439  0.58112596  0.40236777
   0.66633175  0.41557300  0.49933885
   0.83400597  0.33541833  0.40303169
   0.66442478  0.66562603  0.49867915
   0.66573767  0.16873118  0.50076249
   0.75161968  0.00015930  0.59659909
   0.83521767  0.83244049  0.40247716
   0.41415240  0.91846433  0.49984530
   0.08216709  0.08442535  0.40396393
   0.58538853  0.58188557  0.40313498
   0.42025468  0.41363678  0.50013832
   0.41660565  0.16608730  0.50059661
   0.16620461  0.91907578  0.50003320
   0.33363351  0.58412978  0.40266704
   0.24744916  0.25025050  0.59696628
   0.16943516  0.16230004  0.49997909
   0.91694059  0.91864500  0.49997742
   0.08259800  0.83415359  0.40331543
   0.00145381  0.49730525  0.59807954
   0.00126501  0.24993936  0.59697842
   0.08014002  0.33368843  0.40267636
  -0.00013460 -0.00007689  0.59617449
   0.49964186  0.50008479  0.59644150
   0.24872444  0.75161401  0.59701304
Direct configuration=     5
   0.75138983  0.74895254  0.60237493
   0.49999358  0.25064556  0.59948040
   0.58478326  0.33605608  0.40032052
   0.49827558  0.00195179  0.60056675
   0.49828764  0.74968739  0.60033864
   0.58440718  0.08314545  0.39932009
   0.66515905  0.91984672  0.49989009
   0.83666466  0.08210161  0.39947606
   0.33084296  0.83252160  0.39955628
   0.24981909  0.50066136  0.60158152
   0.16709646  0.66875883  0.49917734
   0.16858913  0.41399803  0.50077251
   0.58574947  0.82912412  0.39931348
   0.24607439  0.00165225  0.59938032
   0.33166333  0.33573796  0.39916851
   0.33009188  0.08448041  0.40043578
   0.91675811  0.16634474  0.50009844
   0.75159664  0.49759755  0.60087185
   0.91521580  0.41505843  0.49937632
   0.91629289  0.66649932  0.49902203
   0.08148510  0.58502496  0.39679210
   0.00049269  0.75216187  0.60204042
   0.75218001  0.24850070  0.60046520
   0.41910463  0.66668160  0.49980680
   0.83392483  0.58088353  0.40186862
   0.66753760  0.41434845  0.49957257
   0.83409672  0.33482818  0.40263104
   0.66411040  0.66640574  0.49902777
   0.66584754  0.16915183  0.50060052
   0.75130725  0.00006066  0.59690640
   0.83501945  0.83246415  0.40210538
   0.41460871  0.91801376  0.49981167
   0.08178014  0.08461064  0.40357287
   0.58495152  0.58230570  0.40262220
   0.41947947  0.41325210  0.50012613
   0.41758158  0.16536727  0.50039524
   0.16743436  0.91881874  0.50003941
   0.33334788  0.58418746  0.40228424
   0.24758380  0.25024666  0.59750233
   0.16969376  0.16157577  0.49998054
   0.91672871  0.91829067  0.49999375
   0.08270103  0.83395551  0.40288447
   0.00136767  0.49783377  0.59828878
   0.00059337  0.25029501  0.59724985
   0.08011260  0.33427380  0.40229403
  -0.00030895  0.00030691  0.59653421
   0.49974019  0.49994692  0.59676752
   0.24874702  0.75138590  0.59731406
Direct configuration=     6
   0.75143315  0.74892293  0.60276390
   0.49974820  0.25060161  0.59986696
   0.58453205  0.33579714  0.39990770
   0.49852306  0.00166062  0.60097760
   0.49871453  0.74949569  0.60074231
   0.58424238  0.08325674  0.39890096
   0.66579920  0.91854317  0.49989619
   0.83621423  0.08219767  0.39900185
   0.33100587  0.83264959  0.39905350
   0.24983250  0.50063946  0.60196227
   0.16736976  0.66823755  0.49930696
   0.16883346  0.41360873  0.50057598
   0.58562127  0.82967178  0.39895421
   0.24633959  0.00157973  0.59991919
   0.33173676  0.33546079  0.39881104
   0.33045734  0.08448753  0.40006227
   0.91700257  0.16532354  0.50009747
   0.75115037  0.49845496  0.60129163
   0.91576945  0.41578347  0.49961219
   0.91562230  0.66701578  0.49925023
   0.08155474  0.58494951  0.39617429
   0.00012988  0.75201222  0.60245336
   0.75189475  0.24843809  0.60103783
   0.41864014  0.66592468  0.49977503
   0.83382860  0.58123390  0.40166543
   0.66654695  0.41514742  0.49979226
   0.83418927  0.33472688  0.40222996
   0.66504460  0.66687645  0.49939436
   0.66569850  0.16891698  0.50040204
   0.75101718 -0.00018494  0.59702585
   0.83449792  0.83255553  0.40198063
   0.41536079  0.91801984  0.49974565
   0.08188284  0.08467450  0.40328122
   0.58480236  0.58234612  0.40239761
   0.41917020  0.41367635  0.50003801
   0.41705338  0.16588140  0.50021370
   0.16740795  0.91799631  0.49999951
   0.33340068  0.58401624  0.40217919
   0.24781006  0.25044499  0.59765067
   0.16999287  0.16257523  0.49997644
   0.91681397  0.91804018  0.49995626
   0.08264986  0.83388404  0.40271263
   0.00109038  0.49839337  0.59833529
   0.00076849  0.25032489  0.59741588
   0.08059045  0.33423121  0.40220957
  -0.00039296  0.00026131  0.59673569
   0.49969915  0.50015259  0.59687454
   0.24890898  0.75109623  0.59739268
Direct configuration=     7
   0.75145595  0.74890735  0.60296859
   0.49961908  0.25057849  0.60007037
   0.58439986  0.33566088  0.39969047
   0.49865328  0.00150740  0.60119379
   0.49893917  0.74939481  0.60095473
   0.58415565  0.08331531  0.39868041
   0.66613605  0.91785723  0.49989939
   0.83597721  0.08224822  0.39875232
   0.33109159  0.83271694  0.39878894
   0.24983956  0.50062794  0.60216262
   0.16751357  0.66796324  0.49937517
   0.16896203  0.41340388  0.50047257
   0.58555381  0.82995996  0.39876516
   0.24647914  0.00154157  0.60020275
   0.33177540  0.33531494  0.39862294
   0.33064964  0.08449127  0.39986572
   0.91713121  0.16478619  0.50009695
   0.75091554  0.49890613  0.60151252
   0.91606079  0.41616499  0.49973630
   0.91526942  0.66728754  0.49937031
   0.08159138  0.58490980  0.39584920
  -0.00006104  0.75193348  0.60267065
   0.75174464  0.24840514  0.60133915
   0.41839572  0.66552638  0.49975832
   0.83377796  0.58141826  0.40155851
   0.66602565  0.41556785  0.49990785
   0.83423797  0.33467357  0.40201891
   0.66553619  0.66712414  0.49958726
   0.66562007  0.16879339  0.50029760
   0.75086455 -0.00031417  0.59708871
   0.83422348  0.83260362  0.40191499
   0.41575654  0.91802304  0.49971092
   0.08193688  0.08470811  0.40312775
   0.58472387  0.58236739  0.40227944
   0.41900746  0.41389959  0.49999164
   0.41677544  0.16615195  0.50011817
   0.16739405  0.91756354  0.49997851
   0.33342847  0.58392615  0.40212391
   0.24792912  0.25054935  0.59772873
   0.17015026  0.16310116  0.49997428
   0.91685884  0.91790837  0.49993653
   0.08262294  0.83384643  0.40262221
   0.00094446  0.49868784  0.59835976
   0.00086064  0.25034062  0.59750325
   0.08084190  0.33420879  0.40216513
  -0.00043716  0.00023731  0.59684171
   0.49967755  0.50026082  0.59693085
   0.24899420  0.75094380  0.59743405
Direct configuration=     8
   0.75146137  0.74910459  0.60340260
   0.49956793  0.25051277  0.60018708
   0.58413797  0.33603804  0.39948909
   0.49855538  0.00174924  0.60139714
   0.49871668  0.74931554  0.60116197
   0.58424252  0.08323603  0.39842289
   0.66616783  0.91824071  0.49989224
   0.83611189  0.08187878  0.39843730
   0.33102054  0.83281056  0.39852035
   0.25004884  0.50042137  0.60241161
   0.16725951  0.66801882  0.49939244
   0.16924500  0.41305291  0.50036397
   0.58569702  0.82971216  0.39855920
   0.24641157  0.00162228  0.60040976
   0.33185465  0.33525126  0.39835042
   0.33040141  0.08458226  0.39964203
   0.91763325  0.16472306  0.50003389
   0.75087982  0.49885656  0.60180721
   0.91588165  0.41580106  0.49972351
   0.91549572  0.66753063  0.49939579
   0.08137898  0.58525778  0.39541361
  -0.00028938  0.75235561  0.60297000
   0.75147147  0.24844311  0.60165711
   0.41877535  0.66535092  0.49966204
   0.83338832  0.58165163  0.40162590
   0.66592272  0.41611456  0.49995478
   0.83426364  0.33497426  0.40203180
   0.66540358  0.66680840  0.49967723
   0.66525976  0.16845262  0.50023167
   0.75070041 -0.00029753  0.59701961
   0.83413970  0.83258071  0.40192337
   0.41567742  0.91796752  0.49969755
   0.08213121  0.08469416  0.40309354
   0.58492934  0.58228188  0.40240571
   0.41928401  0.41376443  0.49994107
   0.41694022  0.16619802  0.50007976
   0.16744122  0.91737935  0.49993211
   0.33347540  0.58384404  0.40211036
   0.24803489  0.25068717  0.59768482
   0.17014009  0.16320665  0.49997973
   0.91702839  0.91765649  0.49988267
   0.08244707  0.83388991  0.40265461
   0.00099000  0.49870445  0.59837330
   0.00096923  0.25037353  0.59748570
   0.08098467  0.33400878  0.40220901
  -0.00034825 -0.00004666  0.59690120
   0.49964517  0.50027383  0.59696868
   0.24902479  0.75096575  0.59743258
Direct configuration=     9
   0.75146424  0.74920872  0.60363174
   0.49954092  0.25047807  0.60024870
   0.58399970  0.33623716  0.39938277
   0.49850369  0.00187692  0.60150450
   0.49859922  0.74927369  0.60127139
   0.58428838  0.08319418  0.39828693
   0.66618461  0.91844317  0.49988846
   0.83618300  0.08168373  0.39827098
   0.33098303  0.83285999  0.39837855
   0.25015933  0.50031230  0.60254306
   0.16712538  0.66804816  0.49940156
   0.16939439  0.41286761  0.50030664
   0.58577263  0.82958134  0.39845046
   0.24637589  0.00166490  0.60051906
   0.33189650  0.33521763  0.39820654
   0.33027035  0.08463030  0.39952393
   0.91789831  0.16468973  0.50000059
   0.75086096  0.49883038  0.60196280
   0.91578707  0.41560893  0.49971676
   0.91561520  0.66765897  0.49940924
   0.08126685  0.58544151  0.39518363
  -0.00040993  0.75257847  0.60312805
   0.75132725  0.24846316  0.60182498
   0.41897578  0.66525829  0.49961121
   0.83318261  0.58177483  0.40166148
   0.66586837  0.41640320  0.49997955
   0.83427719  0.33513301  0.40203860
   0.66533357  0.66664170  0.49972472
   0.66506953  0.16827270  0.50019686
   0.75061375 -0.00028875  0.59698313
   0.83409547  0.83256861  0.40192780
   0.41563565  0.91793821  0.49969050
   0.08223381  0.08468679  0.40307548
   0.58503782  0.58223673  0.40247237
   0.41943002  0.41369308  0.49991437
   0.41702722  0.16622234  0.50005948
   0.16746612  0.91728210  0.49990761
   0.33350018  0.58380068  0.40210320
   0.24809073  0.25075993  0.59766163
   0.17013472  0.16326235  0.49998260
   0.91711790  0.91752351  0.49985424
   0.08235422  0.83391287  0.40267172
   0.00101404  0.49871322  0.59838046
   0.00102656  0.25039090  0.59747644
   0.08106005  0.33390319  0.40223218
  -0.00030130 -0.00019658  0.59693260
   0.49962808  0.50028070  0.59698865
   0.24904094  0.75097734  0.59743181
Direct configuration=    10
   0.75126041  0.74933690  0.60405522
   0.49959407  0.25052071  0.60028889
   0.58421207  0.33632549  0.39927142
   0.49830315  0.00191964  0.60159744
   0.49840804  0.74939067  0.60142007
   0.58431701  0.08313544  0.39804335
   0.66596686  0.91857211  0.49987505
   0.83630388  0.08173133  0.39805189
   0.33091173  0.83279523  0.39818749
   0.25011779  0.50040571  0.60272033
   0.16732217  0.66785682  0.49941938
   0.16938212  0.41298429  0.50020831
   0.58568762  0.82950040  0.39833999
   0.24624419  0.00180507  0.60059436
   0.33179475  0.33537555  0.39796160
   0.33025294  0.08455214  0.39935359
   0.91764817  0.16467636  0.49996061
   0.75103500  0.49858409  0.60223900
   0.91561958  0.41562784  0.49972154
   0.91580773  0.66727787  0.49942869
   0.08111704  0.58553140  0.39479300
  -0.00031267  0.75267663  0.60342928
   0.75134807  0.24837999  0.60197829
   0.41886303  0.66554663  0.49952029
   0.83317941  0.58180683  0.40185434
   0.66628152  0.41589269  0.50003565
   0.83424927  0.33514202  0.40214115
   0.66534087  0.66664202  0.49984615
   0.66527442  0.16839661  0.50012120
   0.75052692 -0.00007968  0.59688120
   0.83407256  0.83250524  0.40195771
   0.41546298  0.91795429  0.49968975
   0.08218700  0.08464267  0.40309008
   0.58506796  0.58226565  0.40262715
   0.41966563  0.41356606  0.49988196
   0.41720226  0.16598465  0.50000408
   0.16772014  0.91725739  0.49987941
   0.33334561  0.58394035  0.40213262
   0.24807897  0.25083232  0.59755573
   0.17039778  0.16281535  0.50000780
   0.91719795  0.91776823  0.49981300
   0.08237462  0.83389749  0.40273670
   0.00107767  0.49876137  0.59830963
   0.00093641  0.25038619  0.59743073
   0.08094146  0.33408391  0.40229092
  -0.00035491 -0.00013683  0.59689701
   0.49957562  0.50019496  0.59698706
   0.24899312  0.75097192  0.59736989
Direct configuration=    11
   0.75110007  0.74943773  0.60438834
   0.49963588  0.25055424  0.60032051
   0.58437911  0.33639496  0.39918384
   0.49814540  0.00195323  0.60167055
   0.49825765  0.74948268  0.60153703
   0.58433952  0.08308923  0.39785175
   0.66579557  0.91867354  0.49986450
   0.83639896  0.08176877  0.39787954
   0.33085565  0.83274429  0.39803720
   0.25008510  0.50047919  0.60285978
   0.16747697  0.66770631  0.49943340
   0.16937247  0.41307607  0.50013097
   0.58562075  0.82943673  0.39825309
   0.24614059  0.00191532  0.60065360
   0.33171472  0.33549978  0.39776893
   0.33023925  0.08449066  0.39921959
   0.91745142  0.16466585  0.49992916
   0.75117189  0.49839035  0.60245627
   0.91548783  0.41564272  0.49972529
   0.91595918  0.66697808  0.49944398
   0.08099919  0.58560211  0.39448572
  -0.00023617  0.75275384  0.60366624
   0.75136445  0.24831456  0.60209889
   0.41877434  0.66577344  0.49944878
   0.83317690  0.58183200  0.40200604
   0.66660651  0.41549112  0.50007978
   0.83422731  0.33514911  0.40222182
   0.66534661  0.66664227  0.49994167
   0.66543559  0.16849409  0.50006168
   0.75045862  0.00008478  0.59680102
   0.83405453  0.83245539  0.40198124
   0.41532716  0.91796693  0.49968917
   0.08215018  0.08460797  0.40310156
   0.58509168  0.58228839  0.40274890
   0.41985097  0.41346614  0.49985646
   0.41733995  0.16579768  0.49996050
   0.16791997  0.91723796  0.49985723
   0.33322403  0.58405022  0.40215576
   0.24806972  0.25088927  0.59747242
   0.17060471  0.16246373  0.50002762
   0.91726092  0.91796074  0.49978055
   0.08239066  0.83388540  0.40278782
   0.00112773  0.49879923  0.59825392
   0.00086549  0.25038248  0.59739477
   0.08084817  0.33422607  0.40233713
  -0.00039707 -0.00008983  0.59686901
   0.49953436  0.50012752  0.59698582
   0.24895550  0.75096765  0.59732118
Direct configuration=    12
   0.75108890  0.74943829  0.60467791
   0.49956025  0.25059162  0.60026671
   0.58445368  0.33625095  0.39912833
   0.49809189  0.00196254  0.60166800
   0.49834903  0.74935658  0.60161098
   0.58428181  0.08322220  0.39768271
   0.66605974  0.91822493  0.49985500
   0.83632672  0.08188253  0.39773418
   0.33082314  0.83268034  0.39791180
   0.24995905  0.50057914  0.60294495
   0.16754973  0.66761220  0.49946497
   0.16957969  0.41291495  0.50002196
   0.58546398  0.82956075  0.39824890
   0.24599084  0.00197706  0.60065895
   0.33173421  0.33557286  0.39763161
   0.33025784  0.08454130  0.39912483
   0.91752283  0.16454458  0.49994092
   0.75110316  0.49850299  0.60266818
   0.91578986  0.41549844  0.49984568
   0.91578552  0.66722418  0.49954605
   0.08095773  0.58562056  0.39418452
  -0.00034847  0.75268570  0.60384735
   0.75150341  0.24829576  0.60216237
   0.41891698  0.66561595  0.49947254
   0.83325487  0.58184598  0.40218691
   0.66651270  0.41532423  0.50020884
   0.83429401  0.33501021  0.40229355
   0.66538202  0.66688037  0.50017597
   0.66558546  0.16857242  0.49994194
   0.75046753  0.00001029  0.59668715
   0.83403764  0.83250638  0.40206705
   0.41546164  0.91792027  0.49967154
   0.08208620  0.08464534  0.40313103
   0.58499768  0.58238603  0.40289643
   0.41989685  0.41340231  0.49982007
   0.41730261  0.16583748  0.49983080
   0.16785352  0.91733488  0.49984936
   0.33308945  0.58406051  0.40218024
   0.24798720  0.25098331  0.59732062
   0.17060010  0.16239547  0.49999488
   0.91731958  0.91773854  0.49977953
   0.08239631  0.83381703  0.40285695
   0.00101310  0.49900086  0.59816653
   0.00079002  0.25037723  0.59731649
   0.08081159  0.33430796  0.40239503
  -0.00045413  0.00006374  0.59677935
   0.49958408  0.50020491  0.59691017
   0.24892849  0.75101785  0.59724019
Direct configuration=    13
   0.75108208  0.74943863  0.60485483
   0.49951404  0.25061446  0.60023384
   0.58449923  0.33616297  0.39909442
   0.49805920  0.00196823  0.60166644
   0.49840486  0.74927954  0.60165616
   0.58424654  0.08330343  0.39757943
   0.66622113  0.91795083  0.49984919
   0.83628258  0.08195203  0.39764536
   0.33080328  0.83264127  0.39783518
   0.24988203  0.50064020  0.60299699
   0.16759418  0.66755470  0.49948425
   0.16970629  0.41281651  0.49995535
   0.58536820  0.82963652  0.39824634
   0.24589934  0.00201478  0.60066222
   0.33174612  0.33561751  0.39754771
   0.33026920  0.08457224  0.39906693
   0.91756647  0.16447048  0.49994811
   0.75106116  0.49857181  0.60279765
   0.91597438  0.41541029  0.49991923
   0.91567941  0.66737455  0.49960841
   0.08093239  0.58563183  0.39400050
  -0.00041709  0.75264407  0.60395800
   0.75158830  0.24828427  0.60220116
   0.41900412  0.66551973  0.49948706
   0.83330251  0.58185453  0.40229741
   0.66645538  0.41522227  0.50028768
   0.83433476  0.33492534  0.40233737
   0.66540366  0.66702585  0.50031912
   0.66567702  0.16862028  0.49986877
   0.75047297 -0.00003523  0.59661758
   0.83402732  0.83253753  0.40211947
   0.41554380  0.91789175  0.49966077
   0.08204711  0.08466817  0.40314903
   0.58494025  0.58244568  0.40298657
   0.41992488  0.41336332  0.49979783
   0.41727980  0.16586179  0.49975156
   0.16781292  0.91739410  0.49984456
   0.33300723  0.58406681  0.40219520
   0.24793678  0.25104076  0.59722787
   0.17059729  0.16235376  0.49997488
   0.91735542  0.91760279  0.49977890
   0.08239975  0.83377526  0.40289919
   0.00094307  0.49912404  0.59811314
   0.00074391  0.25037402  0.59726866
   0.08078925  0.33435800  0.40243041
  -0.00048899  0.00015757  0.59672456
   0.49961445  0.50025219  0.59686395
   0.24891198  0.75104852  0.59719071
Direct configuration=    14
   0.75105485  0.74948283  0.60517124
   0.49949396  0.25066285  0.60007273
   0.58439363  0.33623641  0.39905206
   0.49804196  0.00198651  0.60157076
   0.49840976  0.74933485  0.60172171
   0.58420690  0.08337226  0.39742522
   0.66615498  0.91812220  0.49982827
   0.83628529  0.08187830  0.39751162
   0.33071222  0.83267724  0.39775769
   0.24982554  0.50071413  0.60303304
   0.16753533  0.66745074  0.49953055
   0.16982735  0.41289722  0.49980888
   0.58531217  0.82976361  0.39831268
   0.24597797  0.00193741  0.60062366
   0.33172564  0.33565855  0.39740995
   0.33019288  0.08467417  0.39899210
   0.91765870  0.16438966  0.49993372
   0.75104027  0.49868704  0.60303234
   0.91598444  0.41545454  0.50008249
   0.91595754  0.66729953  0.49975753
   0.08086895  0.58565385  0.39372175
  -0.00054854  0.75271000  0.60412771
   0.75151423  0.24833223  0.60224230
   0.41915943  0.66542355  0.49954292
   0.83325714  0.58186767  0.40253691
   0.66652540  0.41536871  0.50042972
   0.83435137  0.33498460  0.40246460
   0.66548447  0.66686233  0.50064847
   0.66572629  0.16827870  0.49970455
   0.75045150 -0.00012724  0.59647402
   0.83398606  0.83264654  0.40219879
   0.41569631  0.91783227  0.49962680
   0.08211776  0.08463720  0.40316372
   0.58496217  0.58242310  0.40321211
   0.41984208  0.41328935  0.49974216
   0.41758363  0.16568439  0.49954682
   0.16788865  0.91723415  0.49981612
   0.33297862  0.58394750  0.40222292
   0.24780622  0.25111462  0.59701787
   0.17067209  0.16238479  0.49990603
   0.91744679  0.91733028  0.49979271
   0.08230174  0.83377538  0.40297818
   0.00075811  0.49927703  0.59803144
   0.00068714  0.25053509  0.59722119
   0.08082917  0.33436152  0.40246965
  -0.00056622  0.00008723  0.59662387
   0.49963112  0.50025124  0.59680482
   0.24879695  0.75115389  0.59710358
Direct configuration=    15
   0.75103952  0.74950772  0.60534943
   0.49948265  0.25069011  0.59998199
   0.58433415  0.33627777  0.39902821
   0.49803226  0.00199681  0.60151688
   0.49841252  0.74936601  0.60175863
   0.58418458  0.08341103  0.39733837
   0.66611772  0.91821872  0.49981649
   0.83628682  0.08183677  0.39743630
   0.33066095  0.83269749  0.39771404
   0.24979373  0.50075576  0.60305334
   0.16750218  0.66739219  0.49955662
   0.16989552  0.41294267  0.49972639
   0.58528061  0.82983519  0.39835004
   0.24602225  0.00189383  0.60060195
   0.33171410  0.33568166  0.39733237
   0.33014990  0.08473158  0.39894996
   0.91771064  0.16434414  0.49992562
   0.75102850  0.49875194  0.60316451
   0.91599011  0.41547946  0.50017443
   0.91611417  0.66725728  0.49984151
   0.08083323  0.58566624  0.39356476
  -0.00062257  0.75274712  0.60422328
   0.75147251  0.24835925  0.60226547
   0.41924690  0.66536938  0.49957438
   0.83323159  0.58187508  0.40267179
   0.66656483  0.41545119  0.50050971
   0.83436072  0.33501797  0.40253626
   0.66552997  0.66677024  0.50083395
   0.66575403  0.16808633  0.49961207
   0.75043941 -0.00017906  0.59639318
   0.83396282  0.83270792  0.40224346
   0.41578220  0.91779877  0.49960767
   0.08215755  0.08461976  0.40317199
   0.58497451  0.58241039  0.40333913
   0.41979545  0.41324769  0.49971080
   0.41775475  0.16558447  0.49943152
   0.16793131  0.91714407  0.49980010
   0.33296251  0.58388031  0.40223853
   0.24773270  0.25115621  0.59689961
   0.17071422  0.16240227  0.49986726
   0.91749825  0.91717681  0.49980050
   0.08224654  0.83377545  0.40302267
   0.00065395  0.49936319  0.59798543
   0.00065517  0.25062580  0.59719446
   0.08085165  0.33436350  0.40249174
  -0.00060972  0.00004761  0.59656716
   0.49964051  0.50025070  0.59677151
   0.24873216  0.75121323  0.59705452
Direct configuration=    16
   0.75090335  0.74972326  0.60563184
   0.49947228  0.25069725  0.59972037
   0.58435501  0.33644779  0.39905227
   0.49800984  0.00209631  0.60137339
   0.49824283  0.74955843  0.60185017
   0.58421364  0.08337580  0.39717250
   0.66617871  0.91808328  0.49979261
   0.83636209  0.08182251  0.39738286
   0.33066075  0.83265449  0.39773722
   0.24979215  0.50074027  0.60301679
   0.16770358  0.66731573  0.49956163
   0.16991151  0.41297024  0.49957868
   0.58537154  0.82972819  0.39852402
   0.24605123  0.00193843  0.60050742
   0.33163109  0.33567133  0.39718065
   0.33007384  0.08473414  0.39887098
   0.91759294  0.16432280  0.49987496
   0.75101316  0.49868999  0.60343878
   0.91588045  0.41555953  0.50025388
   0.91614112  0.66716887  0.49994971
   0.08062792  0.58580247  0.39338316
  -0.00056606  0.75281263  0.60435874
   0.75139366  0.24831716  0.60221896
   0.41901652  0.66550241  0.49960035
   0.83305859  0.58201037  0.40294137
   0.66679359  0.41531138  0.50063357
   0.83427536  0.33513157  0.40269796
   0.66585045  0.66662620  0.50115427
   0.66589558  0.16797018  0.49943738
   0.75031943 -0.00007737  0.59631809
   0.83397320  0.83258809  0.40228566
   0.41577771  0.91770957  0.49954908
   0.08219560  0.08457476  0.40315940
   0.58502257  0.58242709  0.40357905
   0.41992830  0.41318662  0.49964295
   0.41777176  0.16557282  0.49921447
   0.16818942  0.91687445  0.49974993
   0.33292936  0.58392389  0.40227748
   0.24770009  0.25120842  0.59667108
   0.17087114  0.16235716  0.49978665
   0.91753922  0.91724439  0.49979724
   0.08221621  0.83371281  0.40305683
   0.00070046  0.49937639  0.59800172
   0.00067138  0.25063345  0.59722496
   0.08080430  0.33441318  0.40249790
  -0.00069259 -0.00001827  0.59648059
   0.49952532  0.50025895  0.59678978
   0.24865040  0.75125061  0.59702065
Direct configuration=    17
   0.75084250  0.74981959  0.60575804
   0.49946765  0.25070044  0.59960345
   0.58436433  0.33652377  0.39906302
   0.49799983  0.00214078  0.60130926