  48  48   0   0
  0.5349325E+02  0.1100258E-08  0.1100258E-08  0.2449179E-08  0.3500000E-15
  1.000000000000000E-004
  CAR 
 unknown system                          
      6.40218377     -9.85400430  301     -1.08953085      1.00000000
     -9.854  0.0000E+00  0.0000E+00
     -9.800  0.0000E+00  0.0000E+00
     -9.746  0.0000E+00  0.0000E+00
     -9.691  0.0000E+00  0.0000E+00
     -9.637  0.0000E+00  0.0000E+00
     -9.583  0.0000E+00  0.0000E+00
     -9.529  0.0000E+00  0.0000E+00
     -9.475  0.0000E+00  0.0000E+00
     -9.421  0.6830E-17  0.3701E-18
     -9.366  0.2875E-14  0.1561E-15
     -9.312  0.6313E-12  0.3436E-13
     -9.258  0.7864E-10  0.4296E-11
     -9.204  0.5578E-08  0.3065E-09
     -9.150  0.2263E-06  0.1257E-07
     -9.095  0.5279E-05  0.2986E-06
     -9.041  0.7116E-04  0.4154E-05
     -8.987  0.5569E-03  0.3433E-04
     -8.933  0.2542E-02  0.1721E-03
     -8.879  0.6810E-02  0.5411E-03
     -8.824  0.1094E-01  0.1134E-02
     -8.770  0.1153E-01  0.1759E-02
     -8.716  0.1040E-01  0.2322E-02
     -8.662  0.1030E-01  0.2881E-02
     -8.608  0.9470E-02  0.3394E-02
     -8.554  0.6610E-02  0.3752E-02
     -8.499  0.3304E-02  0.3931E-02
     -8.445  0.1372E-02  0.4005E-02
     -8.391  0.1436E-02  0.4083E-02
     -8.337  0.2845E-02  0.4237E-02
     -8.283  0.3893E-02  0.4448E-02
     -8.228  0.3952E-02  0.4663E-02
     -8.174  0.5015E-02  0.4934E-02
     -8.120  0.7942E-02  0.5365E-02
     -8.066  0.1101E-01  0.5961E-02
     -8.012  0.1410E-01  0.6725E-02
     -7.957  0.1706E-01  0.7650E-02
     -7.903  0.1690E-01  0.8565E-02
     -7.849  0.1402E-01  0.9325E-02
     -7.795  0.1361E-01  0.1006E-01
     -7.741  0.1629E-01  0.1095E-01
     -7.687  0.1778E-01  0.1191E-01
     -7.632  0.1735E-01  0.1285E-01
     -7.578  0.1651E-01  0.1374E-01
     -7.524  0.1595E-01  0.1461E-01
     -7.470  0.1663E-01  0.1551E-01
     -7.416  0.1950E-01  0.1657E-01
     -7.361  0.2417E-01  0.1788E-01
     -7.307  0.2747E-01  0.1936E-01
     -7.253  0.2739E-01  0.2085E-01
     -7.199  0.2668E-01  0.2229E-01
     -7.145  0.3019E-01  0.2393E-01
     -7.090  0.3757E-01  0.2596E-01
     -7.036  0.4410E-01  0.2835E-01
     -6.982  0.5078E-01  0.3111E-01
     -6.928  0.6074E-01  0.3440E-01
     -6.874  0.7053E-01  0.3822E-01
     -6.820  0.7464E-01  0.4226E-01
     -6.765  0.7412E-01  0.4628E-01
     -6.711  0.7571E-01  0.5038E-01
     -6.657  0.8288E-01  0.5487E-01
     -6.603  0.9277E-01  0.5990E-01
     -6.549  0.1025E+00  0.6545E-01
     -6.494  0.1138E+00  0.7162E-01
     -6.440  0.1285E+00  0.7858E-01
     -6.386  0.1422E+00  0.8629E-01
     -6.332  0.1502E+00  0.9443E-01
     -6.278  0.1504E+00  0.1026E+00
     -6.223  0.1421E+00  0.1103E+00
     -6.169  0.1329E+00  0.1175E+00
     -6.115  0.1331E+00  0.1247E+00
     -6.061  0.1413E+00  0.1323E+00
     -6.007  0.1488E+00  0.1404E+00
     -5.953  0.1520E+00  0.1486E+00
     -5.898  0.1497E+00  0.1568E+00
     -5.844  0.1431E+00  0.1645E+00
     -5.790  0.1376E+00  0.1720E+00
     -5.736  0.1361E+00  0.1793E+00
     -5.682  0.1395E+00  0.1869E+00
     -5.627  0.1452E+00  0.1948E+00
     -5.573  0.1462E+00  0.2027E+00
     -5.519  0.1423E+00  0.2104E+00
     -5.465  0.1388E+00  0.2179E+00
     -5.411  0.1394E+00  0.2255E+00
     -5.356  0.1447E+00  0.2333E+00
     -5.302  0.1512E+00  0.2415E+00
     -5.248  0.1562E+00  0.2500E+00
     -5.194  0.1600E+00  0.2587E+00
     -5.140  0.1632E+00  0.2675E+00
     -5.086  0.1679E+00  0.2766E+00
     -5.031  0.1740E+00  0.2860E+00
     -4.977  0.1789E+00  0.2957E+00
     -4.923  0.1798E+00  0.3055E+00
     -4.869  0.1780E+00  0.3151E+00
     -4.815  0.1761E+00  0.3246E+00
     -4.760  0.1739E+00  0.3341E+00
     -4.706  0.1716E+00  0.3434E+00
     -4.652  0.1712E+00  0.3526E+00
     -4.598  0.1726E+00  0.3620E+00
     -4.544  0.1748E+00  0.3715E+00
     -4.489  0.1767E+00  0.3810E+00
     -4.435  0.1775E+00  0.3907E+00
     -4.381  0.1774E+00  0.4003E+00
     -4.327  0.1773E+00  0.4099E+00
     -4.273  0.1767E+00  0.4195E+00
     -4.219  0.1738E+00  0.4289E+00
     -4.164  0.1702E+00  0.4381E+00
     -4.110  0.1713E+00  0.4474E+00
     -4.056  0.1779E+00  0.4570E+00
     -4.002  0.1835E+00  0.4670E+00
     -3.948  0.1850E+00  0.4770E+00
     -3.893  0.1833E+00  0.4869E+00
     -3.839  0.1808E+00  0.4967E+00
     -3.785  0.1818E+00  0.5066E+00
     -3.731  0.1877E+00  0.5167E+00
     -3.677  0.1930E+00  0.5272E+00
     -3.622  0.1926E+00  0.5376E+00
     -3.568  0.1879E+00  0.5478E+00
     -3.514  0.1830E+00  0.5577E+00
     -3.460  0.1822E+00  0.5676E+00
     -3.406  0.1871E+00  0.5777E+00
     -3.352  0.1902E+00  0.5880E+00
     -3.297  0.1851E+00  0.5981E+00
     -3.243  0.1798E+00  0.6078E+00
     -3.189  0.1815E+00  0.6177E+00
     -3.135  0.1836E+00  0.6276E+00
     -3.081  0.1807E+00  0.6374E+00
     -3.026  0.1756E+00  0.6469E+00
     -2.972  0.1736E+00  0.6563E+00
     -2.918  0.1765E+00  0.6659E+00
     -2.864  0.1837E+00  0.6758E+00
     -2.810  0.1937E+00  0.6863E+00
     -2.755  0.2023E+00  0.6973E+00
     -2.701  0.2061E+00  0.7085E+00
     -2.647  0.2046E+00  0.7196E+00
     -2.593  0.1973E+00  0.7302E+00
     -2.539  0.1850E+00  0.7403E+00
     -2.485  0.1743E+00  0.7497E+00
     -2.430  0.1717E+00  0.7590E+00
     -2.376  0.1766E+00  0.7686E+00
     -2.322  0.1841E+00  0.7786E+00
     -2.268  0.1905E+00  0.7889E+00
     -2.214  0.1928E+00  0.7993E+00
     -2.159  0.1899E+00  0.8096E+00
     -2.105  0.1872E+00  0.8198E+00
     -2.051  0.1896E+00  0.8300E+00
     -1.997  0.1938E+00  0.8405E+00
     -1.943  0.1955E+00  0.8511E+00
     -1.888  0.1980E+00  0.8619E+00
     -1.834  0.2028E+00  0.8729E+00
     -1.780  0.2056E+00  0.8840E+00
     -1.726  0.2067E+00  0.8952E+00
     -1.672  0.2092E+00  0.9065E+00
     -1.618  0.2094E+00  0.9179E+00
     -1.563  0.2032E+00  0.9289E+00
     -1.509  0.1945E+00  0.9394E+00
     -1.455  0.1916E+00  0.9498E+00
     -1.401  0.1947E+00  0.9604E+00
     -1.347  0.1941E+00  0.9709E+00
     -1.292  0.1829E+00  0.9808E+00
     -1.238  0.1640E+00  0.9897E+00
     -1.184  0.1428E+00  0.9974E+00
     -1.130  0.1206E+00  0.1004E+01
     -1.076  0.9754E-01  0.1009E+01
     -1.021  0.7529E-01  0.1013E+01
     -0.967  0.5490E-01  0.1016E+01
     -0.913  0.3790E-01  0.1018E+01
     -0.859  0.2631E-01  0.1020E+01
     -0.805  0.2058E-01  0.1021E+01
     -0.751  0.1917E-01  0.1022E+01
     -0.696  0.1931E-01  0.1023E+01
     -0.642  0.2014E-01  0.1024E+01
     -0.588  0.2371E-01  0.1025E+01
     -0.534  0.3013E-01  0.1027E+01
     -0.480  0.3612E-01  0.1029E+01
     -0.425  0.3968E-01  0.1031E+01
     -0.371  0.4039E-01  0.1033E+01
     -0.317  0.3856E-01  0.1035E+01
     -0.263  0.3805E-01  0.1037E+01
     -0.209  0.4072E-01  0.1040E+01
     -0.154  0.4071E-01  0.1042E+01
     -0.100  0.3436E-01  0.1044E+01
     -0.046  0.2609E-01  0.1045E+01
      0.008  0.2143E-01  0.1046E+01
      0.062  0.2251E-01  0.1047E+01
      0.116  0.2729E-01  0.1049E+01
      0.171  0.3252E-01  0.1051E+01
      0.225  0.3608E-01  0.1053E+01
      0.279  0.3706E-01  0.1055E+01
      0.333  0.3730E-01  0.1057E+01
      0.387  0.3993E-01  0.1059E+01
      0.442  0.4359E-01  0.1061E+01
      0.496  0.4341E-01  0.1064E+01
      0.550  0.3970E-01  0.1066E+01
      0.604  0.3865E-01  0.1068E+01
      0.658  0.4170E-01  0.1070E+01
      0.713  0.4300E-01  0.1072E+01
      0.767  0.3984E-01  0.1075E+01
      0.821  0.3457E-01  0.1076E+01
      0.875  0.2884E-01  0.1078E+01
      0.929  0.2480E-01  0.1079E+01
      0.983  0.2398E-01  0.1081E+01
      1.038  0.2410E-01  0.1082E+01
      1.092  0.2199E-01  0.1083E+01
      1.146  0.1726E-01  0.1084E+01
      1.200  0.1302E-01  0.1085E+01
      1.254  0.1212E-01  0.1085E+01
      1.309  0.1327E-01  0.1086E+01
      1.363  0.1398E-01  0.1087E+01
      1.417  0.1569E-01  0.1088E+01
      1.471  0.2170E-01  0.1089E+01
      1.525  0.3040E-01  0.1091E+01
      1.580  0.3479E-01  0.1093E+01
      1.634  0.3263E-01  0.1094E+01
      1.688  0.3047E-01  0.1096E+01
      1.742  0.3261E-01  0.1098E+01
      1.796  0.3568E-01  0.1100E+01
      1.850  0.3446E-01  0.1101E+01
      1.905  0.2683E-01  0.1103E+01
      1.959  0.1737E-01  0.1104E+01
      2.013  0.1413E-01  0.1105E+01
      2.067  0.1801E-01  0.1106E+01
      2.121  0.2459E-01  0.1107E+01
      2.176  0.3298E-01  0.1109E+01
      2.230  0.4153E-01  0.1111E+01
      2.284  0.4574E-01  0.1113E+01
      2.338  0.4584E-01  0.1116E+01
      2.392  0.4560E-01  0.1118E+01
      2.447  0.4553E-01  0.1121E+01
      2.501  0.4465E-01  0.1123E+01
      2.555  0.4362E-01  0.1126E+01
      2.609  0.4356E-01  0.1128E+01
      2.663  0.4645E-01  0.1131E+01
      2.717  0.4914E-01  0.1133E+01
      2.772  0.4292E-01  0.1136E+01
      2.826  0.2842E-01  0.1137E+01
      2.880  0.1614E-01  0.1138E+01
      2.934  0.1214E-01  0.1139E+01
      2.988  0.1210E-01  0.1139E+01
      3.043  0.1046E-01  0.1140E+01
      3.097  0.1023E-01  0.1140E+01
      3.151  0.1554E-01  0.1141E+01
      3.205  0.2269E-01  0.1142E+01
      3.259  0.2510E-01  0.1144E+01
      3.314  0.2130E-01  0.1145E+01
      3.368  0.1610E-01  0.1146E+01
      3.422  0.1543E-01  0.1147E+01
      3.476  0.1981E-01  0.1148E+01
      3.530  0.2423E-01  0.1149E+01
      3.584  0.2655E-01  0.1151E+01
      3.639  0.3077E-01  0.1152E+01
      3.693  0.3747E-01  0.1154E+01
      3.747  0.4056E-01  0.1156E+01
      3.801  0.3812E-01  0.1158E+01
      3.855  0.3254E-01  0.1160E+01
      3.910  0.2600E-01  0.1162E+01
      3.964  0.2302E-01  0.1163E+01
      4.018  0.2595E-01  0.1164E+01
      4.072  0.2868E-01  0.1166E+01
      4.126  0.2633E-01  0.1167E+01
      4.181  0.2355E-01  0.1169E+01
      4.235  0.2351E-01  0.1170E+01
      4.289  0.2190E-01  0.1171E+01
      4.343  0.1800E-01  0.1172E+01
      4.397  0.1735E-01  0.1173E+01
      4.451  0.2151E-01  0.1174E+01
      4.506  0.2857E-01  0.1176E+01
      4.560  0.3938E-01  0.1178E+01
      4.614  0.5194E-01  0.1181E+01
      4.668  0.5770E-01  0.1184E+01
      4.722  0.5292E-01  0.1187E+01
      4.777  0.4590E-01  0.1189E+01
      4.831  0.4632E-01  0.1192E+01
      4.885  0.5332E-01  0.1194E+01
      4.939  0.5942E-01  0.1198E+01
      4.993  0.6377E-01  0.1201E+01
      5.048  0.6878E-01  0.1205E+01
      5.102  0.6933E-01  0.1209E+01
      5.156  0.6285E-01  0.1212E+01
      5.210  0.5802E-01  0.1215E+01
      5.264  0.5650E-01  0.1218E+01
      5.318  0.4823E-01  0.1221E+01
      5.373  0.3195E-01  0.1223E+01
      5.427  0.1657E-01  0.1223E+01
      5.481  0.6840E-02  0.1224E+01
      5.535  0.2104E-02  0.1224E+01
      5.589  0.4343E-03  0.1224E+01
      5.644  0.5571E-04  0.1224E+01
      5.698  0.4255E-05  0.1224E+01
      5.752  0.1891E-06  0.1224E+01
      5.806  0.4828E-08  0.1224E+01
      5.860  0.7022E-10  0.1224E+01
      5.914  0.5784E-12  0.1224E+01
      5.969  0.2687E-14  0.1224E+01
      6.023  0.6830E-17  0.1224E+01
      6.077  0.0000E+00  0.1224E+01
      6.131  0.0000E+00  0.1224E+01
      6.185  0.0000E+00  0.1224E+01
      6.240  0.0000E+00  0.1224E+01
      6.294  0.0000E+00  0.1224E+01
      6.348  0.0000E+00  0.1224E+01
      6.402  0.0000E+00  0.1224E+01
