  48  48   0   0
  0.5349325E+02  0.1100258E-08  0.1100258E-08  0.2449179E-08  0.3500000E-15
  1.000000000000000E-004
  CAR 
 unknown system                          
      6.41954275     -9.90929534  301     -1.09709343      1.00000000
     -9.909  0.0000E+00  0.0000E+00
     -9.855  0.0000E+00  0.0000E+00
     -9.800  0.0000E+00  0.0000E+00
     -9.746  0.0000E+00  0.0000E+00
     -9.692  0.0000E+00  0.0000E+00
     -9.637  0.0000E+00  0.0000E+00
     -9.583  0.0000E+00  0.0000E+00
     -9.528  0.0000E+00  0.0000E+00
     -9.474  0.8839E-17  0.4811E-18
     -9.419  0.3511E-14  0.1916E-15
     -9.365  0.7672E-12  0.4195E-13
     -9.311  0.9457E-10  0.5189E-11
     -9.256  0.6605E-08  0.3647E-09
     -9.202  0.2629E-06  0.1467E-07
     -9.147  0.5996E-05  0.3410E-06
     -9.093  0.7888E-04  0.4634E-05
     -9.038  0.6019E-03  0.3740E-04
     -8.984  0.2679E-02  0.1832E-03
     -8.930  0.7000E-02  0.5642E-03
     -8.875  0.1097E-01  0.1161E-02
     -8.821  0.1130E-01  0.1776E-02
     -8.766  0.9984E-02  0.2320E-02
     -8.712  0.9641E-02  0.2845E-02
     -8.657  0.8749E-02  0.3321E-02
     -8.603  0.6562E-02  0.3678E-02
     -8.549  0.4102E-02  0.3901E-02
     -8.494  0.2668E-02  0.4046E-02
     -8.440  0.3035E-02  0.4212E-02
     -8.385  0.3750E-02  0.4416E-02
     -8.331  0.3160E-02  0.4588E-02
     -8.276  0.2627E-02  0.4731E-02
     -8.222  0.4506E-02  0.4976E-02
     -8.168  0.8181E-02  0.5421E-02
     -8.113  0.1075E-01  0.6006E-02
     -8.059  0.1093E-01  0.6601E-02
     -8.004  0.9402E-02  0.7113E-02
     -7.950  0.8654E-02  0.7584E-02
     -7.895  0.1051E-01  0.8155E-02
     -7.841  0.1202E-01  0.8810E-02
     -7.787  0.1116E-01  0.9417E-02
     -7.732  0.1031E-01  0.9978E-02
     -7.678  0.1105E-01  0.1058E-01
     -7.623  0.1385E-01  0.1133E-01
     -7.569  0.1826E-01  0.1233E-01
     -7.514  0.2159E-01  0.1350E-01
     -7.460  0.2341E-01  0.1478E-01
     -7.406  0.2683E-01  0.1624E-01
     -7.351  0.3187E-01  0.1797E-01
     -7.297  0.3467E-01  0.1986E-01
     -7.242  0.3544E-01  0.2179E-01
     -7.188  0.3724E-01  0.2381E-01
     -7.133  0.4132E-01  0.2606E-01
     -7.079  0.4811E-01  0.2868E-01
     -7.025  0.5518E-01  0.3169E-01
     -6.970  0.5850E-01  0.3487E-01
     -6.916  0.5934E-01  0.3810E-01
     -6.861  0.6254E-01  0.4150E-01
     -6.807  0.6678E-01  0.4514E-01
     -6.752  0.6830E-01  0.4886E-01
     -6.698  0.7245E-01  0.5280E-01
     -6.644  0.8157E-01  0.5724E-01
     -6.589  0.8771E-01  0.6201E-01
     -6.535  0.9060E-01  0.6694E-01
     -6.480  0.9855E-01  0.7231E-01
     -6.426  0.1136E+00  0.7849E-01
     -6.371  0.1317E+00  0.8566E-01
     -6.317  0.1496E+00  0.9381E-01
     -6.263  0.1639E+00  0.1027E+00
     -6.208  0.1715E+00  0.1121E+00
     -6.154  0.1710E+00  0.1214E+00
     -6.099  0.1649E+00  0.1303E+00
     -6.045  0.1591E+00  0.1390E+00
     -5.990  0.1558E+00  0.1475E+00
     -5.936  0.1518E+00  0.1558E+00
     -5.882  0.1467E+00  0.1637E+00
     -5.827  0.1418E+00  0.1715E+00
     -5.773  0.1366E+00  0.1789E+00
     -5.718  0.1325E+00  0.1861E+00
     -5.664  0.1309E+00  0.1932E+00
     -5.609  0.1313E+00  0.2004E+00
     -5.555  0.1320E+00  0.2076E+00
     -5.501  0.1302E+00  0.2147E+00
     -5.446  0.1268E+00  0.2215E+00
     -5.392  0.1281E+00  0.2285E+00
     -5.337  0.1380E+00  0.2360E+00
     -5.283  0.1541E+00  0.2444E+00
     -5.228  0.1701E+00  0.2537E+00
     -5.174  0.1807E+00  0.2635E+00
     -5.120  0.1823E+00  0.2734E+00
     -5.065  0.1741E+00  0.2829E+00
     -5.011  0.1622E+00  0.2917E+00
     -4.956  0.1564E+00  0.3003E+00
     -4.902  0.1604E+00  0.3090E+00
     -4.847  0.1684E+00  0.3182E+00
     -4.793  0.1728E+00  0.3276E+00
     -4.738  0.1728E+00  0.3370E+00
     -4.684  0.1724E+00  0.3463E+00
     -4.630  0.1734E+00  0.3558E+00
     -4.575  0.1744E+00  0.3653E+00
     -4.521  0.1744E+00  0.3748E+00
     -4.466  0.1740E+00  0.3842E+00
     -4.412  0.1731E+00  0.3937E+00
     -4.357  0.1702E+00  0.4029E+00
     -4.303  0.1666E+00  0.4120E+00
     -4.249  0.1659E+00  0.4210E+00
     -4.194  0.1687E+00  0.4302E+00
     -4.140  0.1711E+00  0.4395E+00
     -4.085  0.1712E+00  0.4488E+00
     -4.031  0.1711E+00  0.4582E+00
     -3.976  0.1716E+00  0.4675E+00
     -3.922  0.1735E+00  0.4769E+00
     -3.868  0.1776E+00  0.4866E+00
     -3.813  0.1827E+00  0.4965E+00
     -3.759  0.1869E+00  0.5067E+00
     -3.704  0.1883E+00  0.5170E+00
     -3.650  0.1893E+00  0.5273E+00
     -3.595  0.1947E+00  0.5379E+00
     -3.541  0.2028E+00  0.5489E+00
     -3.487  0.2072E+00  0.5602E+00
     -3.432  0.2052E+00  0.5714E+00
     -3.378  0.1991E+00  0.5822E+00
     -3.323  0.1929E+00  0.5927E+00
     -3.269  0.1884E+00  0.6029E+00
     -3.214  0.1837E+00  0.6129E+00
     -3.160  0.1787E+00  0.6227E+00
     -3.106  0.1767E+00  0.6323E+00
     -3.051  0.1784E+00  0.6420E+00
     -2.997  0.1821E+00  0.6519E+00
     -2.942  0.1850E+00  0.6620E+00
     -2.888  0.1862E+00  0.6721E+00
     -2.833  0.1857E+00  0.6822E+00
     -2.779  0.1851E+00  0.6923E+00
     -2.725  0.1863E+00  0.7024E+00
     -2.670  0.1898E+00  0.7128E+00
     -2.616  0.1934E+00  0.7233E+00
     -2.561  0.1939E+00  0.7338E+00
     -2.507  0.1917E+00  0.7443E+00
     -2.452  0.1878E+00  0.7545E+00
     -2.398  0.1817E+00  0.7644E+00
     -2.344  0.1773E+00  0.7740E+00
     -2.289  0.1793E+00  0.7838E+00
     -2.235  0.1849E+00  0.7939E+00
     -2.180  0.1890E+00  0.8042E+00
     -2.126  0.1913E+00  0.8146E+00
     -2.071  0.1928E+00  0.8251E+00
     -2.017  0.1934E+00  0.8356E+00
     -1.963  0.1952E+00  0.8462E+00
     -1.908  0.2000E+00  0.8571E+00
     -1.854  0.2041E+00  0.8682E+00
     -1.799  0.2046E+00  0.8793E+00
     -1.745  0.2062E+00  0.8906E+00
     -1.690  0.2139E+00  0.9022E+00
     -1.636  0.2235E+00  0.9144E+00
     -1.582  0.2268E+00  0.9267E+00
     -1.527  0.2205E+00  0.9387E+00
     -1.473  0.2060E+00  0.9499E+00
     -1.418  0.1889E+00  0.9602E+00
     -1.364  0.1769E+00  0.9698E+00
     -1.309  0.1716E+00  0.9792E+00
     -1.255  0.1652E+00  0.9882E+00
     -1.201  0.1491E+00  0.9963E+00
     -1.146  0.1244E+00  0.1003E+01
     -1.092  0.9968E-01  0.1008E+01
     -1.037  0.7855E-01  0.1013E+01
     -0.983  0.5852E-01  0.1016E+01
     -0.928  0.3962E-01  0.1018E+01
     -0.874  0.2549E-01  0.1019E+01
     -0.820  0.1754E-01  0.1020E+01
     -0.765  0.1395E-01  0.1021E+01
     -0.711  0.1402E-01  0.1022E+01
     -0.656  0.1885E-01  0.1023E+01
     -0.602  0.2677E-01  0.1024E+01
     -0.547  0.3363E-01  0.1026E+01
     -0.493  0.3993E-01  0.1028E+01
     -0.439  0.4592E-01  0.1031E+01
     -0.384  0.4578E-01  0.1033E+01
     -0.330  0.4016E-01  0.1036E+01
     -0.275  0.3861E-01  0.1038E+01
     -0.221  0.4154E-01  0.1040E+01
     -0.166  0.3886E-01  0.1042E+01
     -0.112  0.2913E-01  0.1044E+01
     -0.058  0.2152E-01  0.1045E+01
     -0.003  0.2059E-01  0.1046E+01
      0.051  0.2247E-01  0.1047E+01
      0.106  0.2374E-01  0.1048E+01
      0.160  0.2600E-01  0.1050E+01
      0.215  0.2991E-01  0.1052E+01
      0.269  0.3302E-01  0.1053E+01
      0.323  0.3579E-01  0.1055E+01
      0.378  0.3977E-01  0.1057E+01
      0.432  0.4306E-01  0.1060E+01
      0.487  0.4401E-01  0.1062E+01
      0.541  0.4403E-01  0.1065E+01
      0.596  0.4602E-01  0.1067E+01
      0.650  0.4993E-01  0.1070E+01
      0.704  0.5087E-01  0.1073E+01
      0.759  0.4615E-01  0.1075E+01
      0.813  0.3819E-01  0.1077E+01
      0.868  0.2853E-01  0.1079E+01
      0.922  0.1965E-01  0.1080E+01
      0.977  0.1597E-01  0.1081E+01
      1.031  0.1735E-01  0.1082E+01
      1.085  0.1971E-01  0.1083E+01
      1.140  0.1994E-01  0.1084E+01
      1.194  0.1727E-01  0.1085E+01
      1.249  0.1368E-01  0.1085E+01
      1.303  0.1244E-01  0.1086E+01
      1.358  0.1446E-01  0.1087E+01
      1.412  0.1835E-01  0.1088E+01
      1.466  0.2340E-01  0.1089E+01
      1.521  0.2821E-01  0.1091E+01
      1.575  0.3023E-01  0.1092E+01
      1.630  0.2952E-01  0.1094E+01
      1.684  0.2905E-01  0.1096E+01
      1.739  0.3290E-01  0.1097E+01
      1.793  0.3945E-01  0.1099E+01
      1.847  0.3880E-01  0.1102E+01
      1.902  0.2765E-01  0.1103E+01
      1.956  0.1593E-01  0.1104E+01
      2.011  0.1276E-01  0.1105E+01
      2.065  0.1695E-01  0.1106E+01
      2.120  0.2457E-01  0.1107E+01
      2.174  0.3446E-01  0.1109E+01
      2.228  0.4283E-01  0.1111E+01
      2.283  0.4671E-01  0.1114E+01
      2.337  0.4949E-01  0.1116E+01
      2.392  0.5218E-01  0.1119E+01
      2.446  0.4983E-01  0.1122E+01
      2.501  0.4329E-01  0.1124E+01
      2.555  0.3948E-01  0.1126E+01
      2.609  0.4067E-01  0.1129E+01
      2.664  0.4525E-01  0.1131E+01
      2.718  0.4707E-01  0.1134E+01
      2.773  0.3963E-01  0.1136E+01
      2.827  0.2649E-01  0.1137E+01
      2.882  0.1676E-01  0.1138E+01
      2.936  0.1349E-01  0.1139E+01
      2.990  0.1147E-01  0.1140E+01
      3.045  0.8207E-02  0.1140E+01
      3.099  0.7944E-02  0.1140E+01
      3.154  0.1284E-01  0.1141E+01
      3.208  0.2038E-01  0.1142E+01
      3.263  0.2610E-01  0.1144E+01
      3.317  0.2567E-01  0.1145E+01
      3.371  0.2048E-01  0.1146E+01
      3.426  0.1665E-01  0.1147E+01
      3.480  0.1638E-01  0.1148E+01
      3.535  0.1897E-01  0.1149E+01
      3.589  0.2504E-01  0.1150E+01
      3.644  0.3465E-01  0.1152E+01
      3.698  0.4258E-01  0.1155E+01
      3.752  0.4310E-01  0.1157E+01
      3.807  0.3772E-01  0.1159E+01
      3.861  0.3044E-01  0.1161E+01
      3.916  0.2444E-01  0.1162E+01
      3.970  0.2373E-01  0.1163E+01
      4.025  0.2810E-01  0.1165E+01
      4.079  0.2932E-01  0.1166E+01
      4.134  0.2499E-01  0.1168E+01
      4.188  0.2248E-01  0.1169E+01
      4.242  0.2262E-01  0.1170E+01
      4.297  0.2003E-01  0.1171E+01
      4.351  0.1642E-01  0.1172E+01
      4.406  0.1840E-01  0.1173E+01
      4.460  0.2527E-01  0.1175E+01
      4.515  0.3336E-01  0.1176E+01
      4.569  0.4519E-01  0.1179E+01
      4.623  0.5850E-01  0.1182E+01
      4.678  0.6132E-01  0.1185E+01
      4.732  0.5111E-01  0.1188E+01
      4.787  0.4170E-01  0.1190E+01
      4.841  0.4297E-01  0.1193E+01
      4.896  0.5007E-01  0.1195E+01
      4.950  0.5544E-01  0.1198E+01
      5.004  0.5850E-01  0.1202E+01
      5.059  0.6228E-01  0.1205E+01
      5.113  0.6530E-01  0.1209E+01
      5.168  0.6540E-01  0.1212E+01
      5.222  0.6367E-01  0.1216E+01
      5.277  0.5664E-01  0.1219E+01
      5.331  0.4146E-01  0.1221E+01
      5.385  0.2587E-01  0.1222E+01
      5.440  0.1615E-01  0.1223E+01
      5.494  0.9204E-02  0.1224E+01
      5.549  0.3659E-02  0.1224E+01
      5.603  0.8784E-03  0.1224E+01
      5.658  0.1217E-03  0.1224E+01
      5.712  0.9604E-05  0.1224E+01
      5.766  0.4292E-06  0.1224E+01
      5.821  0.1082E-07  0.1224E+01
      5.875  0.1537E-09  0.1224E+01
      5.930  0.1227E-11  0.1224E+01
      5.984  0.5488E-14  0.1224E+01
      6.039  0.1360E-16  0.1224E+01
      6.093  0.0000E+00  0.1224E+01
      6.147  0.0000E+00  0.1224E+01
      6.202  0.0000E+00  0.1224E+01
      6.256  0.0000E+00  0.1224E+01
      6.311  0.0000E+00  0.1224E+01
      6.365  0.0000E+00  0.1224E+01
      6.420  0.0000E+00  0.1224E+01
