       N       E                     dE             d eps       ncg     rms          rms(c)
DAV:   1     0.320061492612E+04    0.32006E+04   -0.18976E+05  3672   0.112E+03
DAV:   2     0.142251284194E+02   -0.31864E+04   -0.29268E+04  4392   0.263E+02
DAV:   3    -0.200135602299E+03   -0.21436E+03   -0.19961E+03  4140   0.651E+01
DAV:   4    -0.205779038075E+03   -0.56434E+01   -0.55844E+01  4320   0.107E+01
DAV:   5    -0.205948035127E+03   -0.16900E+00   -0.16851E+00  4464   0.188E+00    0.625E+01
RMM:   6    -0.198581624316E+03    0.73664E+01   -0.90428E+01  3680   0.150E+01    0.538E+01
RMM:   7    -0.208443444417E+03   -0.98618E+01   -0.58562E+01  3684   0.126E+01    0.432E+01
RMM:   8    -0.228255056487E+03   -0.19812E+02   -0.84369E+01  3679   0.138E+01    0.458E+01
RMM:   9    -0.209326800970E+03    0.18928E+02   -0.54167E+01  3681   0.114E+01    0.334E+01
RMM:  10    -0.194753587133E+03    0.14573E+02   -0.19502E+01  3684   0.722E+00    0.194E+01
RMM:  11    -0.190887440244E+03    0.38661E+01   -0.11174E+01  3679   0.533E+00    0.110E+01
RMM:  12    -0.189163747134E+03    0.17237E+01   -0.39799E+00  3679   0.307E+00    0.843E+00
RMM:  13    -0.188709131978E+03    0.45462E+00   -0.12881E+00  3683   0.177E+00    0.595E+00
RMM:  14    -0.188953774152E+03   -0.24464E+00   -0.78203E-01  3679   0.135E+00    0.736E+00
RMM:  15    -0.188866875759E+03    0.86898E-01   -0.46067E-01  3682   0.107E+00    0.580E+00
RMM:  16    -0.188569780499E+03    0.29710E+00   -0.21724E-01  3680   0.729E-01    0.300E+00
RMM:  17    -0.188494339937E+03    0.75441E-01   -0.11450E-01  3679   0.522E-01    0.210E+00
RMM:  18    -0.188456724637E+03    0.37615E-01   -0.60081E-02  3682   0.372E-01    0.116E+00
RMM:  19    -0.188439837499E+03    0.16887E-01   -0.16931E-02  3684   0.190E-01    0.615E-01
RMM:  20    -0.188439455233E+03    0.38227E-03   -0.55509E-03  3682   0.116E-01    0.540E-01
RMM:  21    -0.188437463257E+03    0.19920E-02   -0.20053E-03  3680   0.677E-02    0.400E-01
RMM:  22    -0.188436101696E+03    0.13616E-02   -0.14594E-03  3679   0.552E-02    0.298E-01
RMM:  23    -0.188435291320E+03    0.81038E-03   -0.92148E-04  3683   0.435E-02    0.165E-01
RMM:  24    -0.188435230132E+03    0.61188E-04   -0.52461E-04  3680   0.328E-02    0.741E-02
RMM:  25    -0.188435515096E+03   -0.28496E-03   -0.26850E-04  3681   0.229E-02    0.729E-02
RMM:  26    -0.188435890696E+03   -0.37560E-03   -0.96327E-05  3681   0.138E-02    0.463E-02
RMM:  27    -0.188436252792E+03   -0.36210E-03   -0.41065E-05  3672   0.921E-03    0.439E-02
RMM:  28    -0.188436867616E+03   -0.61482E-03   -0.48900E-05  3672   0.104E-02    0.243E-02
RMM:  29    -0.188437463175E+03   -0.59556E-03   -0.34645E-05  3670   0.819E-03    0.189E-02
RMM:  30    -0.188437946105E+03   -0.48293E-03   -0.25058E-05  3595   0.685E-03    0.159E-02
RMM:  31    -0.188438511680E+03   -0.56558E-03   -0.35271E-05  3509   0.784E-03    0.111E-02
RMM:  32    -0.188438649241E+03   -0.13756E-03   -0.96013E-06  2865   0.384E-03    0.695E-03
RMM:  33    -0.188438780032E+03   -0.13079E-03   -0.52152E-06  2677   0.292E-03    0.461E-03
RMM:  34    -0.188438826092E+03   -0.46060E-04   -0.11799E-06  2197   0.149E-03    0.322E-03
RMM:  35    -0.188438892939E+03   -0.66847E-04   -0.11169E-06  2199   0.143E-03    0.182E-03
RMM:  36    -0.188438923737E+03   -0.30798E-04   -0.58777E-07  2143   0.105E-03    0.178E-03
RMM:  37    -0.188438941300E+03   -0.17563E-04   -0.41528E-07  2105   0.960E-04    0.841E-04
RMM:  38    -0.188438950733E+03   -0.94323E-05   -0.25303E-07  1718   0.687E-04    0.106E-03
RMM:  39    -0.188438952330E+03   -0.15976E-05   -0.78025E-08  1095   0.438E-04    0.658E-04
RMM:  40    -0.188438953043E+03   -0.71283E-06   -0.31153E-08   937   0.411E-04
   1 F= -.18843895E+03 E0= -.18830749E+03  d E =-.188439E+03
       N       E                     dE             d eps       ncg     rms          rms(c)
DAV:   1    -0.189032257091E+03   -0.59330E+00   -0.20620E+02  3708   0.220E+01    0.242E+00
RMM:   2    -0.189253852946E+03   -0.22160E+00   -0.22183E+00  3683   0.320E+00    0.184E+00
RMM:   3    -0.189425870230E+03   -0.17202E+00   -0.22830E-01  3708   0.796E-01    0.369E+00
RMM:   4    -0.189253263128E+03    0.17261E+00   -0.10819E-01  3688   0.510E-01    0.170E+00
RMM:   5    -0.189237742482E+03    0.15521E-01   -0.46555E-02  3684   0.346E-01    0.102E+00
RMM:   6    -0.189234459459E+03    0.32830E-02   -0.22003E-02  3685   0.242E-01    0.687E-01
RMM:   7    -0.189230140958E+03    0.43185E-02   -0.94171E-03  3682   0.156E-01    0.350E-01
RMM:   8    -0.189228800092E+03    0.13409E-02   -0.22557E-03  3682   0.747E-02    0.178E-01
RMM:   9    -0.189228509927E+03    0.29017E-03   -0.91429E-04  3686   0.477E-02    0.115E-01
RMM:  10    -0.189228412726E+03    0.97201E-04   -0.38802E-04  3686   0.303E-02    0.889E-02
RMM:  11    -0.189228350638E+03    0.62088E-04   -0.10538E-04  3687   0.164E-02    0.421E-02
RMM:  12    -0.189228348524E+03    0.21143E-05   -0.31721E-05  3679   0.898E-03    0.335E-02
RMM:  13    -0.189228339064E+03    0.94600E-05   -0.13661E-05  3616   0.607E-03    0.119E-02
RMM:  14    -0.189228339520E+03   -0.45615E-06   -0.42338E-06  2799   0.333E-03
   2 F= -.18922834E+03 E0= -.18909746E+03  d E =-.789386E+00
       N       E                     dE             d eps       ncg     rms          rms(c)
DAV:   1    -0.188514223055E+03    0.71412E+00   -0.16209E+03  3672   0.626E+01    0.561E+00
RMM:   2    -0.190162495127E+03   -0.16483E+01   -0.17074E+01  3682   0.889E+00    0.356E+00
RMM:   3    -0.190539546337E+03   -0.37705E+00   -0.11558E+00  3709   0.186E+00    0.587E+00
RMM:   4    -0.190144643071E+03    0.39490E+00   -0.38735E-01  3688   0.101E+00    0.367E+00
RMM:   5    -0.190125801851E+03    0.18841E-01   -0.20158E-01  3685   0.698E-01    0.307E+00
RMM:   6    -0.190083466815E+03    0.42335E-01   -0.18192E-01  3685   0.668E-01    0.218E+00
RMM:   7    -0.190041618669E+03    0.41848E-01   -0.77238E-02  3683   0.442E-01    0.114E+00
RMM:   8    -0.190029639573E+03    0.11979E-01   -0.22308E-02  3685   0.237E-01    0.688E-01
RMM:   9    -0.190025186007E+03    0.44536E-02   -0.84620E-03  3684   0.145E-01    0.363E-01
RMM:  10    -0.190024136702E+03    0.10493E-02   -0.32519E-03  3683   0.871E-02    0.253E-01
RMM:  11    -0.190023702901E+03    0.43380E-03   -0.10846E-03  3685   0.516E-02    0.153E-01
RMM:  12    -0.190023572477E+03    0.13042E-03   -0.36886E-04  3685   0.305E-02    0.860E-02
RMM:  13    -0.190023518485E+03    0.53992E-04   -0.14411E-04  3680   0.197E-02    0.356E-02
RMM:  14    -0.190023522154E+03   -0.36695E-05   -0.30059E-05  3677   0.878E-03    0.301E-02
RMM:  15    -0.190023517361E+03    0.47935E-05   -0.12178E-05  3604   0.569E-03    0.132E-02
RMM:  16    -0.190023521357E+03   -0.39962E-05   -0.42465E-06  2803   0.336E-03    0.997E-03
RMM:  17    -0.190023524946E+03   -0.35895E-05   -0.18520E-06  2180   0.238E-03    0.564E-03
RMM:  18    -0.190023529028E+03   -0.40820E-05   -0.71760E-07  2050   0.152E-03    0.388E-03
RMM:  19    -0.190023532175E+03   -0.31461E-05   -0.23353E-07  1942   0.847E-04    0.179E-03
RMM:  20    -0.190023535181E+03   -0.30067E-05   -0.64674E-08  1061   0.437E-04    0.127E-03
RMM:  21    -0.190023538848E+03   -0.36670E-05   -0.84194E-08  1281   0.481E-04    0.146E-03
RMM:  22    -0.190023543865E+03   -0.50169E-05   -0.14681E-07  1658   0.552E-04    0.188E-03
RMM:  23    -0.190023548030E+03   -0.41651E-05   -0.16039E-07  1455   0.482E-04    0.172E-03
RMM:  24    -0.190023550932E+03   -0.29018E-05   -0.99268E-08  1045   0.443E-04    0.102E-03
RMM:  25    -0.190023552652E+03   -0.17203E-05   -0.96064E-08  1182   0.467E-04    0.646E-04
RMM:  26    -0.190023553566E+03   -0.91328E-06   -0.77770E-08  1028   0.392E-04
   3 F= -.19002355E+03 E0= -.18989429E+03  d E =-.158460E+01
       N       E                     dE             d eps       ncg     rms          rms(c)
DAV:   1    -0.190388998483E+03   -0.36545E+00   -0.37881E+02  3672   0.300E+01    0.224E+00
RMM:   2    -0.190815277168E+03   -0.42628E+00   -0.39029E+00  3685   0.430E+00    0.252E+00
RMM:   3    -0.190905466584E+03   -0.90189E-01   -0.29571E-01  3714   0.928E-01    0.371E+00
RMM:   4    -0.190760444536E+03    0.14502E+00   -0.57725E-02  3682   0.414E-01    0.161E+00
RMM:   5    -0.190749581650E+03    0.10863E-01   -0.32003E-02  3686   0.292E-01    0.125E+00
RMM:   6    -0.190745390487E+03    0.41912E-02   -0.48186E-02  3686   0.345E-01    0.960E-01
RMM:   7    -0.190739006189E+03    0.63843E-02   -0.19253E-02  3685   0.220E-01    0.662E-01
RMM:   8    -0.190734819927E+03    0.41863E-02   -0.36862E-03  3686   0.989E-02    0.272E-01
RMM:   9    -0.190734191799E+03    0.62813E-03   -0.14108E-03  3683   0.597E-02    0.166E-01
RMM:  10    -0.190733976500E+03    0.21530E-03   -0.51126E-04  3685   0.355E-02    0.120E-01
RMM:  11    -0.190733888271E+03    0.88229E-04   -0.18187E-04  3685   0.214E-02    0.847E-02
RMM:  12    -0.190733850390E+03    0.37881E-04   -0.12633E-04  3683   0.175E-02    0.623E-02
RMM:  13    -0.190733820780E+03    0.29610E-04   -0.75372E-05  3686   0.137E-02    0.260E-02
RMM:  14    -0.190733820064E+03    0.71593E-06   -0.16389E-05  3672   0.643E-03    0.154E-02
RMM:  15    -0.190733818934E+03    0.11291E-05   -0.29389E-06  2398   0.292E-03    0.682E-03
RMM:  16    -0.190733819139E+03   -0.20452E-06   -0.99651E-07  2018   0.178E-03
   4 F= -.19073382E+03 E0= -.19060681E+03  d E =-.710266E+00
       N       E                     dE             d eps       ncg     rms          rms(c)
DAV:   1    -0.188522581346E+03    0.22112E+01   -0.35637E+03  3672   0.947E+01    0.579E+00
RMM:   2    -0.191941307744E+03   -0.34187E+01   -0.34331E+01  3685   0.129E+01    0.503E+00
RMM:   3    -0.192562941525E+03   -0.62163E+00   -0.20573E+00  3708   0.246E+00    0.792E+00
RMM:   4    -0.191764238800E+03    0.79870E+00   -0.37162E-01  3684   0.103E+00    0.420E+00
RMM:   5    -0.191703294089E+03    0.60945E-01   -0.17775E-01  3686   0.673E-01    0.360E+00
RMM:   6    -0.191653726891E+03    0.49567E-01   -0.33134E-01  3681   0.898E-01    0.299E+00
RMM:   7    -0.191632831487E+03    0.20895E-01   -0.25466E-01  3686   0.797E-01    0.274E+00
RMM:   8    -0.191574231158E+03    0.58600E-01   -0.74256E-02  3684   0.442E-01    0.135E+00
RMM:   9    -0.191557213500E+03    0.17018E-01   -0.20666E-02  3683   0.226E-01    0.701E-01
RMM:  10    -0.191553535432E+03    0.36781E-02   -0.72329E-03  3686   0.135E-01    0.482E-01
RMM:  11    -0.191552138833E+03    0.13966E-02   -0.40779E-03  3682   0.100E-01    0.401E-01
RMM:  12    -0.191550699591E+03    0.14392E-02   -0.26246E-03  3685   0.799E-02    0.183E-01
RMM:  13    -0.191550593390E+03    0.10620E-03   -0.16037E-03  3682   0.628E-02    0.122E-01
RMM:  14    -0.191550442798E+03    0.15059E-03   -0.35245E-04  3681   0.301E-02    0.369E-02
RMM:  15    -0.191550436824E+03    0.59741E-05   -0.36810E-05  3686   0.994E-03    0.277E-02
RMM:  16    -0.191550431976E+03    0.48478E-05   -0.18214E-05  3672   0.696E-03    0.152E-02
RMM:  17    -0.191550437620E+03   -0.56446E-05   -0.96284E-06  3670   0.478E-03    0.929E-03
RMM:  18    -0.191550441968E+03   -0.43479E-05   -0.23474E-06  2236   0.255E-03    0.386E-03
RMM:  19    -0.191550446098E+03   -0.41298E-05   -0.58963E-07  2049   0.134E-03    0.307E-03
RMM:  20    -0.191550449917E+03   -0.38188E-05   -0.25014E-07  2036   0.838E-04    0.164E-03
RMM:  21    -0.191550454357E+03   -0.44398E-05   -0.12452E-07  1411   0.547E-04    0.105E-03
RMM:  22    -0.191550457475E+03   -0.31187E-05   -0.87097E-08  1303   0.498E-04    0.983E-04
RMM:  23    -0.191550462238E+03   -0.47622E-05   -0.16935E-07  1784   0.533E-04    0.123E-03
RMM:  24    -0.191550464686E+03   -0.24487E-05   -0.66208E-08   852   0.383E-04    0.114E-03
RMM:  25    -0.191550467859E+03   -0.31727E-05   -0.23375E-07  1612   0.538E-04    0.446E-04
RMM:  26    -0.191550468439E+03   -0.58023E-06   -0.33121E-08   655   0.338E-04
   5 F= -.19155047E+03 E0= -.19143018E+03  d E =-.152691E+01
       N       E                     dE             d eps       ncg     rms          rms(c)
DAV:   1    -0.191351376321E+03    0.19909E+00   -0.61248E+02  3672   0.385E+01    0.265E+00
RMM:   2    -0.192032642758E+03   -0.68127E+00   -0.65746E+00  3686   0.553E+00    0.275E+00
RMM:   3    -0.192207117672E+03   -0.17447E+00   -0.47201E-01  3707   0.116E+00    0.450E+00
RMM:   4    -0.191975680830E+03    0.23144E+00   -0.93847E-02  3684   0.518E-01    0.177E+00
RMM:   5    -0.191958686008E+03    0.16995E-01   -0.45441E-02  3685   0.345E-01    0.143E+00
RMM:   6    -0.191948787373E+03    0.98986E-02   -0.71165E-02  3682   0.421E-01    0.105E+00
RMM:   7    -0.191941853478E+03    0.69339E-02   -0.34543E-02  3681   0.294E-01    0.680E-01
RMM:   8    -0.191937222447E+03    0.46310E-02   -0.52325E-03  3687   0.117E-01    0.323E-01
RMM:   9    -0.191936370796E+03    0.85165E-03   -0.18820E-03  3685   0.690E-02    0.199E-01
RMM:  10    -0.191936019061E+03    0.35173E-03   -0.85622E-04  3684   0.464E-02    0.157E-01
RMM:  11    -0.191935835294E+03    0.18377E-03   -0.25532E-04  3684   0.251E-02    0.846E-02
RMM:  12    -0.191935783716E+03    0.51578E-04   -0.26900E-04  3682   0.252E-02    0.664E-02
RMM:  13    -0.191935750275E+03    0.33441E-04   -0.11728E-04  3683   0.169E-02    0.304E-02
RMM:  14    -0.191935750575E+03   -0.30059E-06   -0.25467E-05  3683   0.802E-03    0.211E-02
RMM:  15    -0.191935746707E+03    0.38687E-05   -0.57910E-06  2951   0.404E-03    0.840E-03
RMM:  16    -0.191935746866E+03   -0.15901E-06   -0.18154E-06  2042   0.232E-03
   6 F= -.19193575E+03 E0= -.19181880E+03  d E =-.385278E+00
       N       E                     dE             d eps       ncg     rms          rms(c)
DAV:   1    -0.191924106417E+03    0.11640E-01   -0.21037E+01  3720   0.709E+00    0.459E-01
RMM:   2    -0.191948509210E+03   -0.24403E-01   -0.23111E-01  3686   0.103E+00    0.563E-01
RMM:   3    -0.191952970984E+03   -0.44618E-02   -0.16454E-02  3708   0.218E-01    0.866E-01
RMM:   4    -0.191945498498E+03    0.74725E-02   -0.27909E-03  3684   0.918E-02    0.302E-01
RMM:   5    -0.191945223914E+03    0.27458E-03   -0.13026E-03  3685   0.590E-02    0.260E-01
RMM:   6    -0.191945015119E+03    0.20880E-03   -0.27412E-03  3682   0.829E-02    0.199E-01
RMM:   7    -0.191944712358E+03    0.30276E-03   -0.10937E-03  3681   0.522E-02    0.101E-01
RMM:   8    -0.191944654673E+03    0.57685E-04   -0.17000E-04  3687   0.205E-02    0.795E-02
RMM:   9    -0.191944590509E+03    0.64164E-04   -0.67765E-05  3686   0.135E-02    0.355E-02
RMM:  10    -0.191944581524E+03    0.89845E-05   -0.25628E-05  3675   0.786E-03    0.238E-02
RMM:  11    -0.191944575457E+03    0.60668E-05   -0.13490E-05  3675   0.566E-03    0.132E-02
RMM:  12    -0.191944574967E+03    0.48988E-06   -0.86566E-06  3671   0.447E-03
   7 F= -.19194457E+03 E0= -.19182829E+03  d E =-.394107E+00
       N       E                     dE             d eps       ncg     rms          rms(c)
DAV:   1    -0.191946471325E+03   -0.18959E-02   -0.35575E+01  3672   0.919E+00    0.627E-01
RMM:   2    -0.191991235998E+03   -0.44765E-01   -0.42067E-01  3686   0.136E+00    0.826E-01
RMM:   3    -0.191996252068E+03   -0.50161E-02   -0.29978E-02  3708   0.286E-01    0.102E+00
RMM:   4    -0.191985728294E+03    0.10524E-01   -0.56552E-03  3684   0.127E-01    0.394E-01
RMM:   5    -0.191985068897E+03    0.65940E-03   -0.24539E-03  3684   0.804E-02    0.334E-01
RMM:   6    -0.191985605924E+03   -0.53703E-03   -0.47607E-03  3682   0.108E-01    0.401E-01
RMM:   7    -0.191984234597E+03    0.13713E-02   -0.31058E-03  3684   0.872E-02    0.141E-01
RMM:   8    -0.191984172806E+03    0.61792E-04   -0.42706E-04  3686   0.327E-02    0.125E-01
RMM:   9    -0.191983993111E+03    0.17969E-03   -0.15247E-04  3683   0.198E-02    0.489E-02
RMM:  10    -0.191983967482E+03    0.25629E-04   -0.61855E-05  3683   0.121E-02    0.312E-02
RMM:  11    -0.191983956222E+03    0.11260E-04   -0.31276E-05  3680   0.840E-03    0.184E-02
RMM:  12    -0.191983953639E+03    0.25833E-05   -0.24136E-05  3680   0.723E-03    0.111E-02
RMM:  13    -0.191983953445E+03    0.19342E-06   -0.60817E-06  3083   0.384E-03
   8 F= -.19198395E+03 E0= -.19186892E+03  d E =-.393785E-01
       N       E                     dE             d eps       ncg     rms          rms(c)
DAV:   1    -0.191977971203E+03    0.59824E-02   -0.10282E+01  3684   0.494E+00    0.332E-01
RMM:   2    -0.191990943548E+03   -0.12972E-01   -0.12189E-01  3686   0.731E-01    0.448E-01
RMM:   3    -0.191992242004E+03   -0.12985E-02   -0.86736E-03  3707   0.154E-01    0.544E-01
RMM:   4    -0.191989239145E+03    0.30029E-02   -0.15765E-03  3684   0.671E-02    0.205E-01
RMM:   5    -0.191989085911E+03    0.15323E-03   -0.66913E-04  3683   0.421E-02    0.174E-01
RMM:   6    -0.191989269906E+03   -0.18399E-03   -0.13639E-03  3683   0.577E-02    0.215E-01
RMM:   7    -0.191988886305E+03    0.38360E-03   -0.89991E-04  3683   0.469E-02    0.738E-02
RMM:   8    -0.191988876395E+03    0.99099E-05   -0.11949E-04  3685   0.173E-02    0.668E-02
RMM:   9    -0.191988824871E+03    0.51525E-04   -0.42507E-05  3682   0.105E-02    0.260E-02
RMM:  10    -0.191988817736E+03    0.71344E-05   -0.18388E-05  3674   0.660E-03    0.163E-02
RMM:  11    -0.191988814828E+03    0.29077E-05   -0.93437E-06  3657   0.458E-03    0.951E-03
RMM:  12    -0.191988814398E+03    0.42990E-06   -0.68824E-06  3444   0.388E-03
   9 F= -.19198881E+03 E0= -.19187444E+03  d E =-.442394E-01
       N       E                     dE             d eps       ncg     rms          rms(c)
DAV:   1    -0.191987168167E+03    0.16467E-02   -0.10640E+01  3672   0.501E+00    0.329E-01
RMM:   2    -0.192000844053E+03   -0.13676E-01   -0.12829E-01  3686   0.744E-01    0.460E-01
RMM:   3    -0.192001851240E+03   -0.10072E-02   -0.90641E-03  3703   0.156E-01    0.527E-01
RMM:   4    -0.191999141593E+03    0.27096E-02   -0.17189E-03  3685   0.689E-02    0.226E-01
RMM:   5    -0.191998826916E+03    0.31468E-03   -0.62599E-04  3685   0.411E-02    0.162E-01
RMM:   6    -0.191999011443E+03   -0.18453E-03   -0.13523E-03  3682   0.568E-02    0.218E-01
RMM:   7    -0.191998672339E+03    0.33910E-03   -0.11053E-03  3685   0.513E-02    0.851E-02
RMM:   8    -0.191998648973E+03    0.23366E-04   -0.15940E-04  3685   0.200E-02    0.706E-02
RMM:   9    -0.191998588126E+03    0.60848E-04   -0.52640E-05  3683   0.116E-02    0.293E-02
RMM:  10    -0.191998578673E+03    0.94523E-05   -0.21077E-05  3672   0.697E-03    0.186E-02
RMM:  11    -0.191998574830E+03    0.38438E-05   -0.11775E-05  3670   0.510E-03    0.115E-02
RMM:  12    -0.191998573781E+03    0.10483E-05   -0.94849E-06  3661   0.453E-03    0.666E-03
RMM:  13    -0.191998573690E+03    0.91059E-07   -0.22066E-06  2113   0.240E-03
  10 F= -.19199857E+03 E0= -.19188465E+03  d E =-.975929E-02
       N       E                     dE             d eps       ncg     rms          rms(c)
DAV:   1    -0.191997918145E+03    0.65564E-03   -0.10799E+00  3744   0.160E+00    0.104E-01
RMM:   2    -0.191999309285E+03   -0.13911E-02   -0.13054E-02  3685   0.237E-01    0.154E-01
RMM:   3    -0.191999360618E+03   -0.51333E-04   -0.92496E-04  3703   0.499E-02    0.164E-01
RMM:   4    -0.191999109264E+03    0.25135E-03   -0.16967E-04  3685   0.217E-02    0.710E-02
RMM:   5    -0.191999086035E+03    0.23229E-04   -0.62901E-05  3686   0.130E-02    0.517E-02
RMM:   6    -0.191999113965E+03   -0.27930E-04   -0.13669E-04  3682   0.181E-02    0.703E-02
RMM:   7    -0.191999081040E+03    0.32925E-04   -0.11675E-04  3685   0.167E-02    0.265E-02
RMM:   8    -0.191999079020E+03    0.20197E-05   -0.15774E-05  3642   0.632E-03    0.221E-02
RMM:   9    -0.191999073036E+03    0.59844E-05   -0.50432E-06  2942   0.364E-03    0.932E-03
RMM:  10    -0.191999072186E+03    0.84994E-06   -0.21717E-06  2014   0.246E-03
  11 F= -.19199907E+03 E0= -.19188529E+03  d E =-.102578E-01
       N       E                     dE             d eps       ncg     rms          rms(c)
DAV:   1    -0.191998389955E+03    0.68308E-03   -0.36688E+00  3684   0.296E+00    0.199E-01
RMM:   2    -0.192002716689E+03   -0.43267E-02   -0.43273E-02  3684   0.437E-01    0.211E-01
RMM:   3    -0.192003641379E+03   -0.92469E-03   -0.30753E-03  3700   0.915E-02    0.356E-01
RMM:   4    -0.192002439267E+03    0.12021E-02   -0.63899E-04  3688   0.408E-02    0.137E-01
RMM:   5    -0.192002325440E+03    0.11383E-03   -0.27001E-04  3685   0.267E-02    0.947E-02
RMM:   6    -0.192002411882E+03   -0.86442E-04   -0.49028E-04  3681   0.342E-02    0.123E-01
RMM:   7    -0.192002294451E+03    0.11743E-03   -0.33446E-04  3686   0.285E-02    0.483E-02
RMM:   8    -0.192002286411E+03    0.80403E-05   -0.48974E-05  3685   0.112E-02    0.365E-02
RMM:   9    -0.192002270355E+03    0.16056E-04   -0.15957E-05  3672   0.644E-03    0.183E-02
RMM:  10    -0.192002266935E+03    0.34202E-05   -0.57211E-06  3027   0.373E-03    0.112E-02
RMM:  11    -0.192002265340E+03    0.15948E-05   -0.46936E-06  2847   0.341E-03    0.673E-03
RMM:  12    -0.192002264859E+03    0.48087E-06   -0.31954E-06  2183   0.297E-03
  12 F= -.19200226E+03 E0= -.19188867E+03  d E =-.319267E-02
       N       E                     dE             d eps       ncg     rms          rms(c)
DAV:   1    -0.192002117484E+03    0.14786E-03   -0.28348E-01  3720   0.822E-01    0.546E-02
RMM:   2    -0.192002452622E+03   -0.33514E-03   -0.33382E-03  3684   0.121E-01    0.623E-02
RMM:   3    -0.192002511589E+03   -0.58968E-04   -0.23653E-04  3700   0.254E-02    0.970E-02
RMM:   4    -0.192002422550E+03    0.89039E-04   -0.47606E-05  3687   0.112E-02    0.374E-02
RMM:   5    -0.192002417292E+03    0.52577E-05   -0.20461E-05  3675   0.737E-03    0.269E-02
RMM:   6    -0.192002426528E+03   -0.92356E-05   -0.39947E-05  3680   0.977E-03    0.350E-02
RMM:   7    -0.192002417341E+03    0.91871E-05   -0.26984E-05  3672   0.809E-03    0.136E-02
RMM:   8    -0.192002416637E+03    0.70374E-06   -0.37364E-06  2704   0.316E-03
  13 F= -.19200242E+03 E0= -.19188885E+03  d E =-.334445E-02
       N       E                     dE             d eps       ncg     rms          rms(c)
DAV:   1    -0.192002196196E+03    0.22115E-03   -0.10727E+00  3684   0.160E+00    0.926E-02
RMM:   2    -0.192003371148E+03   -0.11750E-02   -0.12293E-02  3681   0.234E-01    0.878E-02
RMM:   3    -0.192003473297E+03   -0.10215E-03   -0.76519E-04  3697   0.468E-02    0.130E-01
RMM:   4    -0.192003348511E+03    0.12479E-03   -0.11813E-04  3695   0.178E-02    0.730E-02
RMM:   5    -0.192003317471E+03    0.31039E-04   -0.56855E-05  3686   0.120E-02    0.552E-02
RMM:   6    -0.192003323562E+03   -0.60909E-05   -0.77767E-05  3683   0.137E-02    0.614E-02
RMM:   7    -0.192003301624E+03    0.21939E-04   -0.12126E-04  3684   0.171E-02    0.240E-02
RMM:   8    -0.192003301103E+03    0.52025E-06   -0.20040E-05  3672   0.711E-03    0.178E-02
RMM:   9    -0.192003297396E+03    0.37075E-05   -0.35904E-06  2662   0.316E-03    0.104E-02
RMM:  10    -0.192003296085E+03    0.13111E-05   -0.18394E-06  1958   0.235E-03    0.697E-03
RMM:  11    -0.192003295422E+03    0.66245E-06   -0.18192E-06  1938   0.232E-03
  14 F= -.19200330E+03 E0= -.19188983E+03  d E =-.878785E-03
       N       E                     dE             d eps       ncg     rms          rms(c)
DAV:   1    -0.192003284224E+03    0.11861E-04   -0.28776E-02  3744   0.262E-01    0.154E-02
RMM:   2    -0.192003317493E+03   -0.33269E-04   -0.33550E-04  3686   0.387E-02    0.189E-02
RMM:   3    -0.192003320838E+03   -0.33454E-05   -0.22370E-05  3695   0.790E-03    0.265E-02
RMM:   4    -0.192003314638E+03    0.61999E-05   -0.34501E-06  2571   0.314E-03    0.116E-02
RMM:   5    -0.192003314229E+03    0.40865E-06   -0.15127E-06  2048   0.224E-03
  15 F= -.19200331E+03 E0= -.19188987E+03  d E =-.897592E-03
       N       E                     dE             d eps       ncg     rms          rms(c)
DAV:   1    -0.192003204095E+03    0.11054E-03   -0.51351E-01  3684   0.111E+00    0.627E-02
RMM:   2    -0.192003770691E+03   -0.56660E-03   -0.56707E-03  3683   0.161E-01    0.757E-02
RMM:   3    -0.192003848772E+03   -0.78081E-04   -0.37705E-04  3701   0.327E-02    0.115E-01
RMM:   4    -0.192003726005E+03    0.12277E-03   -0.58886E-05  3686   0.128E-02    0.475E-02
RMM:   5    -0.192003719248E+03    0.67577E-05   -0.21481E-05  3679   0.767E-03    0.369E-02
RMM:   6    -0.192003723446E+03   -0.41985E-05   -0.60460E-05  3686   0.121E-02    0.388E-02
RMM:   7    -0.192003712616E+03    0.10830E-04   -0.52131E-05  3680   0.112E-02    0.118E-02
RMM:   8    -0.192003712901E+03   -0.28509E-06   -0.49759E-06  2869   0.367E-03
  16 F= -.19200371E+03 E0= -.19189028E+03  d E =-.398672E-03
       N       E                     dE             d eps       ncg     rms          rms(c)
DAV:   1    -0.192003570932E+03    0.14168E-03   -0.15342E-01  3684   0.607E-01    0.365E-02
RMM:   2    -0.192003736492E+03   -0.16556E-03   -0.17607E-03  3684   0.887E-02    0.316E-02
RMM:   3    -0.192003779984E+03   -0.43492E-04   -0.11542E-04  3701   0.180E-02    0.696E-02
RMM:   4    -0.192003731013E+03    0.48971E-04   -0.21284E-05  3681   0.748E-03    0.223E-02
RMM:   5    -0.192003730585E+03    0.42748E-06   -0.76315E-06  3130   0.458E-03
  17 F= -.19200373E+03 E0= -.19189033E+03  d E =-.416356E-03
       N       E                     dE             d eps       ncg     rms          rms(c)
DAV:   1    -0.192003323910E+03    0.40710E-03   -0.61850E-01  3672   0.122E+00    0.650E-02
RMM:   2    -0.192004018624E+03   -0.69471E-03   -0.68077E-03  3683   0.177E-01    0.903E-02
RMM:   3    -0.192004055114E+03   -0.36490E-04   -0.45720E-04  3714   0.363E-02    0.105E-01
RMM:   4    -0.192003959537E+03    0.95577E-04   -0.68861E-05  3680   0.137E-02    0.530E-02
RMM:   5    -0.192003942917E+03    0.16620E-04   -0.24624E-05  3674   0.830E-03    0.378E-02
RMM:   6    -0.192003956243E+03   -0.13326E-04   -0.89185E-05  3686   0.146E-02    0.504E-02
RMM:   7    -0.192003937861E+03    0.18382E-04   -0.61171E-05  3679   0.121E-02    0.171E-02
RMM:   8    -0.192003938343E+03   -0.48149E-06   -0.80934E-06  3143   0.460E-03
  18 F= -.19200394E+03 E0= -.19189051E+03  d E =-.207757E-03
