unknown system                          
           1
    11.002582    0.000000    0.000000
     5.501291    9.528515    0.000000
     0.000000    0.000000   24.491785
   Au   Pd
  24  24
Direct configuration=     1
   0.08333333  0.08333333  0.40830017
   0.41666667  0.66666667  0.50000000
   0.58333333  0.33333333  0.40830017
   0.58333333  0.83333333  0.40830017
   0.58333333  0.08333333  0.40830017
   0.16666667  0.91666667  0.50000000
   0.25000000  0.50000000  0.59169983
   0.33333333  0.58333333  0.40830017
   0.66666667  0.16666667  0.50000000
   0.75000000  0.00000000  0.59169983
   0.50000000  0.25000000  0.59169983
   0.66666667  0.41666667  0.50000000
   0.58333333  0.58333333  0.40830017
   0.83333333  0.58333333  0.40830017
   0.91666667  0.91666667  0.50000000
   0.08333333  0.83333333  0.40830017
   0.00000000  0.50000000  0.59169983
   0.91666667  0.66666667  0.50000000
   0.91666667  0.16666667  0.50000000
   0.66666667  0.66666667  0.50000000
   0.33333333  0.08333333  0.40830017
   0.75000000  0.50000000  0.59169983
   0.00000000  0.00000000  0.59169983
   0.91666667  0.41666667  0.50000000
   0.75000000  0.25000000  0.59169983
   0.50000000  0.50000000  0.59169983
   0.50000000  0.75000000  0.59169983
   0.41666667  0.91666667  0.50000000
   0.83333333  0.08333333  0.40830017
   0.83333333  0.83333333  0.40830017
   0.83333333  0.33333333  0.40830017
   0.25000000  0.75000000  0.59169983
   0.50000000  0.00000000  0.59169983
   0.41666667  0.16666667  0.50000000
   0.66666667  0.91666667  0.50000000
   0.33333333  0.83333333  0.40830017
   0.16666667  0.66666667  0.50000000
   0.25000000  0.25000000  0.59169983
   0.16666667  0.41666667  0.50000000
   0.33333333  0.33333333  0.40830017
   0.25000000  0.00000000  0.59169983
   0.16666667  0.16666667  0.50000000
   0.00000000  0.75000000  0.59169983
   0.08333333  0.58333333  0.40830017
   0.00000000  0.25000000  0.59169983
   0.08333333  0.33333333  0.40830017
   0.41666667  0.41666667  0.50000000
   0.75000000  0.75000000  0.59169983
Direct configuration=     2
   0.08296598  0.08431306  0.40611245
   0.41529641  0.66757052  0.50080577
   0.58343398  0.33287000  0.40603888
   0.58305707  0.83400964  0.40634813
   0.58369112  0.08304152  0.40644795
   0.16920991  0.91589346  0.50045773
   0.25003732  0.50068302  0.59322997
   0.33225404  0.58298437  0.40642023
   0.66574603  0.16677131  0.49998146
   0.74963247 -0.00095958  0.59391048
   0.49942803  0.25019957  0.59355740
   0.66616139  0.41584685  0.50043629
   0.58333334  0.58329975  0.40569841
   0.83487365  0.58261602  0.40585295
   0.91628016  0.91515698  0.49966004
   0.08286534  0.83278707  0.40609796
   0.00063838  0.49968409  0.59384571
   0.91762896  0.66770394  0.49996569
   0.91666885  0.16779700  0.49999092
   0.66517401  0.66952681  0.50079833
   0.33259379  0.08405526  0.40680604
   0.74930067  0.49997870  0.59423232
   0.00082593  0.00000493  0.59416951
   0.91954148  0.41413037  0.49966192
   0.74995150  0.25051223  0.59318086
   0.49976023  0.50038410  0.59290491
   0.49947587  0.75075012  0.59279636
   0.41646893  0.91780822  0.50064310
   0.83331455  0.08332992  0.40684342
   0.83347597  0.83347581  0.40710642
   0.83380477  0.33289800  0.40682691
   0.25040137  0.74966752  0.59282019
   0.49945564 -0.00037809  0.59230795
   0.41547251  0.16680304  0.50023128
   0.66553384  0.91687712  0.50030538
   0.33342691  0.83356168  0.40702459
   0.16689948  0.66554492  0.50019898
   0.25006344  0.24881256  0.59235363
   0.16812011  0.41558156  0.49952117
   0.33218957  0.33395647  0.40775000
   0.25050437  0.00051029  0.59256173
   0.16781006  0.16713754  0.50049106
   0.00027171  0.74985941  0.59296822
   0.08385884  0.58256378  0.40738110
   0.00086458  0.24937153  0.59292419
   0.08377893  0.33355462  0.40738256
   0.41520106  0.41660791  0.50003672
   0.74925746  0.75084508  0.59291275
Direct configuration=     3
   0.08186393  0.08725222  0.39954930
   0.41118565  0.67028206  0.50322307
   0.58373590  0.33147998  0.39925502
   0.58222827  0.83603855  0.40049202
   0.58476449  0.08216609  0.40089127
   0.17683966  0.91357384  0.50183091
   0.25014927  0.50273210  0.59782039
   0.32901615  0.58193749  0.40078042
   0.66298413  0.16708524  0.49992585
   0.74852989 -0.00383832  0.60054243
   0.49771211  0.25079827  0.59913013
   0.66464558  0.41338742  0.50174515
   0.58333336  0.58319899  0.39789314
   0.83949458  0.58046408  0.39851129
   0.91512064  0.91062793  0.49864014
   0.08146135  0.83114829  0.39949133
   0.00255353  0.49873638  0.60028336
   0.92051583  0.67081577  0.49986276
   0.91667541  0.17118799  0.49996367
   0.66069603  0.67810722  0.50319331
   0.33037516  0.08622102  0.40232365
   0.74720266  0.49991481  0.60182977
   0.00330371  0.00001971  0.60157855
   0.92816594  0.40652148  0.49864769
   0.74980599  0.25204891  0.59762393
   0.49904093  0.50153639  0.59652013
   0.49790349  0.75300049  0.59608595
   0.41587570  0.92123288  0.50257239
   0.83325818  0.08331966  0.40247318
   0.83390389  0.83390324  0.40352515
   0.83521907  0.33159202  0.40240712
   0.25160549  0.74867008  0.59618125
   0.49782254 -0.00151237  0.59413233
   0.41189004  0.16721218  0.50092511
   0.66213536  0.91750849  0.50122151
   0.33370765  0.83424671  0.40319784
   0.16759791  0.66217967  0.50079594
   0.25025378  0.24525025  0.59431501
   0.17248044  0.41232622  0.49808468
   0.32875829  0.33582589  0.40609949
   0.25201747  0.00204116  0.59514744
   0.17124024  0.16855016  0.50196422
   0.00108684  0.74943765  0.59677337
   0.08543536  0.58025513  0.40462390
   0.00345831  0.24748614  0.59659728
   0.08511571  0.33421846  0.40462974
   0.41080424  0.41643166  0.50014688
   0.74702984  0.75338030  0.59655153
Direct configuration=     4
   0.08182563  0.08617904  0.39779151
   0.41518162  0.66620365  0.50223759
   0.58333514  0.33212590  0.39715487
   0.58292494  0.83466353  0.39874497
   0.58412306  0.08279541  0.39919814
   0.17116775  0.91723962  0.50127939
   0.25006385  0.50208080  0.59958766
   0.33031724  0.58226084  0.39912129
   0.66272351  0.16567797  0.50010781
   0.74895111 -0.00284739  0.60259234
   0.49799447  0.25032880  0.60098949
   0.66301634  0.41741242  0.50139606
   0.58361247  0.58317239  0.39615711
   0.83846716  0.58096908  0.39670699
   0.91606334  0.91567602  0.49892990
   0.08175872  0.83211863  0.39762418
   0.00176939  0.49874065  0.60194878
   0.91950972  0.66526686  0.50001612
   0.91894208  0.16541690  0.50001680
   0.66349688  0.67318426  0.50264403
   0.33061392  0.08609394  0.40081612
   0.74815985  0.50022686  0.60391915
   0.00276813 -0.00014466  0.60347196
   0.92472143  0.41282029  0.49898572
   0.75029447  0.25057010  0.59909582
   0.49907962  0.50141024  0.59793176
   0.49747809  0.75301368  0.59811486
   0.41587213  0.92247110  0.50173413
   0.83397123  0.08317648  0.40146091
   0.83343038  0.83333882  0.40205019
   0.83407268  0.33270485  0.40109033
   0.25083358  0.74966841  0.59812928
   0.49793125 -0.00094640  0.59554716
   0.41416475  0.16666078  0.50058189
   0.66133823  0.92037283  0.50085199
   0.33322969  0.83388707  0.40229468
   0.16847284  0.66262147  0.50060098
   0.25028662  0.24613638  0.59566707
   0.17119490  0.41377474  0.49882469
   0.33017060  0.33455030  0.40508162
   0.25170677  0.00164506  0.59694945
   0.17199004  0.16619997  0.50144455
   0.00075240  0.75037445  0.59820084
   0.08449943  0.58068728  0.40343503
   0.00267772  0.24815975  0.59805856
   0.08517373  0.33401871  0.40309481
   0.41178240  0.41606404  0.50015127
   0.74808869  0.75177806  0.59817014
Direct configuration=     5
   0.08181845  0.08597782  0.39746193
   0.41593086  0.66543895  0.50205281
   0.58325999  0.33224701  0.39676110
   0.58305557  0.83440572  0.39841741
   0.58400279  0.08291341  0.39888068
   0.17010428  0.91792695  0.50117598
   0.25004783  0.50195868  0.59991902
   0.33056119  0.58232146  0.39881020
   0.66267464  0.16541411  0.50014192
   0.74903009 -0.00266160  0.60297669
   0.49804741  0.25024078  0.60133811
   0.66271086  0.41816710  0.50133061
   0.58366480  0.58316740  0.39583161
   0.83827452  0.58106376  0.39636869
   0.91624010  0.91662252  0.49898422
   0.08181448  0.83230057  0.39727409
   0.00162236  0.49874145  0.60226104
   0.91932108  0.66422646  0.50004488
   0.91936707  0.16433483  0.50002676
   0.66402203  0.67226122  0.50254104
   0.33065868  0.08607012  0.40053346
   0.74833932  0.50028537  0.60431090
   0.00266771 -0.00017547  0.60382698
   0.92407559  0.41400130  0.49904910
   0.75038606  0.25029283  0.59937180
   0.49908687  0.50138659  0.59819644
   0.49739833  0.75301615  0.59849528
   0.41587146  0.92270326  0.50157695
   0.83410492  0.08314963  0.40127111
   0.83334160  0.83323299  0.40177364
   0.83385773  0.33291350  0.40084343
   0.25068885  0.74985559  0.59849453
   0.49795164 -0.00084028  0.59581244
   0.41459125  0.16655739  0.50051754
   0.66118878  0.92090988  0.50078271
   0.33314008  0.83381964  0.40212533
   0.16863688  0.66270430  0.50056443
   0.25029278  0.24630253  0.59592058
   0.17095386  0.41404633  0.49896344
   0.33043541  0.33431113  0.40489077
   0.25164851  0.00157079  0.59728733
   0.17213062  0.16575932  0.50134712
   0.00068970  0.75055010  0.59846849
   0.08432395  0.58076831  0.40321211
   0.00253137  0.24828605  0.59833254
   0.08518461  0.33398125  0.40280702
   0.41196580  0.41599511  0.50015209
   0.74828722  0.75147764  0.59847362
Direct configuration=     6
   0.08186164  0.08552646  0.39707027
   0.41549230  0.66671961  0.50139251
   0.58336119  0.33249597  0.39631273
   0.58336436  0.83349027  0.39811757
   0.58383363  0.08317282  0.39842951
   0.16993966  0.91668253  0.50090011
   0.24981237  0.50157404  0.60036641
   0.33135500  0.58268807  0.39850160
   0.66285699  0.16690353  0.50027434
   0.74946699 -0.00217983  0.60345901
   0.49856481  0.24997963  0.60181836
   0.66498827  0.41696312  0.50098851
   0.58373873  0.58329055  0.39553685
   0.83690832  0.58159254  0.39594628
   0.91690060  0.91520868  0.49928160
   0.08210556  0.83248279  0.39694330
   0.00116959  0.49893880  0.60265620
   0.91821007  0.66582209  0.50020382
   0.91824665  0.16621698  0.50012583
   0.66486371  0.67074725  0.50210572
   0.33128061  0.08519421  0.40009274
   0.74888938  0.50004230  0.60478197
   0.00212478 -0.00012756  0.60432968
   0.92156989  0.41407435  0.49932359
   0.75048393  0.24982618  0.59939479
   0.49944844  0.50099704  0.59854597
   0.49745342  0.75267481  0.59890202
   0.41652345  0.92078315  0.50091939
   0.83389424  0.08337425  0.40121075
   0.83343739  0.83291074  0.40179851
   0.83337080  0.33339718  0.40106155
   0.25055893  0.75048367  0.59880051
   0.49854739 -0.00080209  0.59637953
   0.41530648  0.16704516  0.50025509
   0.66307759  0.91957608  0.50050029
   0.33294714  0.83343009  0.40228133
   0.16795877  0.66439339  0.50039880
   0.25012899  0.24729427  0.59632626
   0.17038292  0.41453268  0.49965119
   0.33141278  0.33388864  0.40465686
   0.25125520  0.00098127  0.59784588
   0.17042545  0.16629113  0.50084410
   0.00016481  0.75103001  0.59849440
   0.08389294  0.58158317  0.40296891
   0.00156758  0.24888317  0.59841004
   0.08460709  0.33374247  0.40248584
   0.41338316  0.41538547  0.50019884
   0.74886603  0.75079885  0.59871067
Direct configuration=     7
   0.08187322  0.08540543  0.39696524
   0.41537470  0.66706302  0.50121544
   0.58338833  0.33256273  0.39619249
   0.58344716  0.83324479  0.39803716
   0.58378827  0.08324239  0.39830852
   0.16989552  0.91634883  0.50082613
   0.24974923  0.50147089  0.60048639
   0.33156787  0.58278638  0.39841884
   0.66290589  0.16730293  0.50030985
   0.74958415 -0.00205065  0.60358835
   0.49870355  0.24990960  0.60194714
   0.66559897  0.41664026  0.50089678
   0.58375855  0.58332357  0.39545780
   0.83654196  0.58173433  0.39583301
   0.91707771  0.91482955  0.49936134
   0.08218361  0.83253166  0.39685459
   0.00104817  0.49899172  0.60276217
   0.91791215  0.66624997  0.50024644
   0.91794620  0.16672170  0.50015240
   0.66508942  0.67034126  0.50198899
   0.33144738  0.08495932  0.39997455
   0.74903688  0.49997712  0.60490829
   0.00197919 -0.00011471  0.60446448
   0.92089796  0.41409394  0.49939720
   0.75051018  0.24970105  0.59940096
   0.49954539  0.50089258  0.59863970
   0.49746819  0.75258328  0.59901109
   0.41669829  0.92026826  0.50074306
   0.83383774  0.08343449  0.40119457
   0.83346308  0.83282433  0.40180517
   0.83324022  0.33352688  0.40112004
   0.25052409  0.75065209  0.59888256
   0.49870715 -0.00079184  0.59653160
   0.41549828  0.16717596  0.50018472
   0.66358409  0.91921841  0.50042456
   0.33289541  0.83332562  0.40232316
   0.16777693  0.66484633  0.50035438
   0.25008507  0.24756022  0.59643504
   0.17022982  0.41466310  0.49983561
   0.33167488  0.33377534  0.40459414
   0.25114973  0.00082318  0.59799566
   0.16996819  0.16643374  0.50070921
   0.00002405  0.75115870  0.59850135
   0.08377736  0.58180168  0.40290370
   0.00130913  0.24904329  0.59843082
   0.08445222  0.33367844  0.40239972
   0.41376323  0.41522199  0.50021138
   0.74902124  0.75061683  0.59877424
Direct configuration=     8
   0.08175511  0.08541631  0.39683060
   0.41570034  0.66684250  0.50110636
   0.58354329  0.33260984  0.39598571
   0.58335754  0.83332708  0.39794085
   0.58408667  0.08297773  0.39819008
   0.16957213  0.91652436  0.50083878
   0.24967554  0.50174471  0.60058030
   0.33166981  0.58268302  0.39836463
   0.66362155  0.16718420  0.50034413
   0.74957562 -0.00202127  0.60375954
   0.49888065  0.24982325  0.60214432
   0.66536838  0.41679247  0.50079290
   0.58362199  0.58325754  0.39529215
   0.83648770  0.58169156  0.39566964
   0.91682959  0.91498174  0.49951649
   0.08203227  0.83259346  0.39671142
   0.00092072  0.49918092  0.60289474
   0.91800380  0.66642351  0.50030483
   0.91808823  0.16639812  0.50021809
   0.66500553  0.67027338  0.50187546
   0.33167460  0.08452351  0.39983484
   0.74879666  0.49988449  0.60513032
   0.00185320  0.00007579  0.60469008
   0.92083705  0.41434690  0.49951062
   0.75038339  0.24986267  0.59933038
   0.49968962  0.50085172  0.59847675
   0.49776459  0.75229856  0.59892339
   0.41707921  0.91984561  0.50058062
   0.83361612  0.08345834  0.40140194
   0.83353516  0.83295443  0.40196765
   0.83324761  0.33349890  0.40130833
   0.25068647  0.75054069  0.59881928
   0.49888376 -0.00097061  0.59652292
   0.41551638  0.16675639  0.50013877
   0.66407288  0.91880950  0.50034130
   0.33287439  0.83330681  0.40239021
   0.16795425  0.66470424  0.50027726
   0.25007234  0.24744531  0.59642696
   0.16949167  0.41512482  0.50014731
   0.33141466  0.33414685  0.40469344
   0.25103083  0.00087463  0.59793024
   0.16963819  0.16653947  0.50048373
   0.00001050  0.75105278  0.59843273
   0.08379644  0.58183389  0.40301503
   0.00117256  0.24898444  0.59834615
   0.08416628  0.33390673  0.40250247
   0.41400568  0.41593448  0.50029644
   0.74893905  0.75070423  0.59871984
Direct configuration=     9
   0.08165632  0.08542541  0.39671799
   0.41597271  0.66665804  0.50101512
   0.58367290  0.33264925  0.39581275
   0.58328258  0.83339590  0.39786029
   0.58433626  0.08275636  0.39809101
   0.16930164  0.91667117  0.50084936
   0.24961390  0.50197374  0.60065884
   0.33175508  0.58259656  0.39831928
   0.66422015  0.16708488  0.50037280
   0.74956848 -0.00199669  0.60390273
   0.49902878  0.24975103  0.60230924
   0.66517551  0.41691978  0.50070601
   0.58350777  0.58320232  0.39515359
   0.83644232  0.58165578  0.39553299
   0.91662206  0.91510903  0.49964626
   0.08190569  0.83264516  0.39659168
   0.00081411  0.49933918  0.60300563
   0.91808047  0.66656866  0.50035368
   0.91820702  0.16612748  0.50027303
   0.66493537  0.67021661  0.50178050
   0.33186464  0.08415899  0.39971797
   0.74859573  0.49980701  0.60531603
   0.00174782  0.00023513  0.60487878
   0.92078610  0.41455849  0.49960548
   0.75027734  0.24999785  0.59927135
   0.49981025  0.50081754  0.59834046
   0.49801250  0.75206042  0.59885004
   0.41739782  0.91949210  0.50044475
   0.83343075  0.08347830  0.40157539
   0.83359545  0.83306324  0.40210356
   0.83325378  0.33347550  0.40146583
   0.25082228  0.75044751  0.59876635
   0.49903149 -0.00112014  0.59651566
   0.41553152  0.16640546  0.50010034
   0.66448171  0.91846747  0.50027166
   0.33285682  0.83329108  0.40244629
   0.16810257  0.66458539  0.50021275
   0.25006170  0.24734920  0.59642020
   0.16887426  0.41551103  0.50040801
   0.33119701  0.33445759  0.40477651
   0.25093137  0.00091766  0.59787553
   0.16936216  0.16662791  0.50029513
  -0.00000083  0.75096418  0.59837534
   0.08381240  0.58186082  0.40310816
   0.00105833  0.24893522  0.59827533
   0.08392712  0.33409768  0.40258842
   0.41420847  0.41653042  0.50036760
   0.74887031  0.75077733  0.59867434
Direct configuration=    10
   0.08151140  0.08548571  0.39655592
   0.41579784  0.66700867  0.50091519
   0.58370412  0.33243989  0.39556344
   0.58341239  0.83327565  0.39768807
   0.58430112  0.08287307  0.39801126
   0.16942796  0.91656830  0.50090139
   0.24976176  0.50202330  0.60073584
   0.33160957  0.58260410  0.39824859
   0.66393693  0.16704973  0.50043591
   0.74952215 -0.00202024  0.60413286
   0.49890858  0.24979797  0.60245201
   0.66534400  0.41695841  0.50057594
   0.58344433  0.58323417  0.39489919
   0.83642954  0.58175929  0.39536616
   0.91674173  0.91509485  0.49988193
   0.08180364  0.83269549  0.39645703
   0.00062071  0.49939044  0.60319645
   0.91814201  0.66651757  0.50038406
   0.91843714  0.16606600  0.50035587
   0.66521103  0.67007324  0.50166739
   0.33176539  0.08430975  0.39957327
   0.74848794  0.49978050  0.60558052
   0.00171580  0.00022975  0.60520543
   0.92058318  0.41484870  0.49976566
   0.75012060  0.25016708  0.59920437
   0.49976386  0.50079766  0.59816289
   0.49822121  0.75192530  0.59865972
   0.41742613  0.91950284  0.50034871
   0.83337438  0.08349718  0.40180760
   0.83368004  0.83298474  0.40228444
   0.83334471  0.33333746  0.40170365
   0.25095232  0.75042459  0.59859304
   0.49906818 -0.00129973  0.59636874
   0.41564340  0.16631777  0.50005536
   0.66451124  0.91846237  0.50020229
   0.33270691  0.83323804  0.40250307
   0.16834212  0.66451324  0.50011694
   0.25013338  0.24712119  0.59630904
   0.16890234  0.41561056  0.50075857
   0.33097834  0.33454425  0.40511865
   0.25102016  0.00094628  0.59763060
   0.16952781  0.16650421  0.50002950
   0.00003947  0.75104236  0.59833329
   0.08377875  0.58184558  0.40329368
   0.00103636  0.24894913  0.59815899
   0.08391861  0.33417298  0.40279101
   0.41416699  0.41650548  0.50045095
   0.74872245  0.75082513  0.59856553
Direct configuration=    11
   0.08118246  0.08562257  0.39618805
   0.41540094  0.66780453  0.50068838
   0.58377499  0.33196471  0.39499756
   0.58370703  0.83300271  0.39729717
   0.58422138  0.08313797  0.39783024
   0.16971469  0.91633482  0.50101947
   0.25009737  0.50213578  0.60091060
   0.33127929  0.58262121  0.39808816
   0.66329408  0.16696996  0.50057916
   0.74941698 -0.00207369  0.60465521
   0.49863576  0.24990452  0.60277605
   0.66572643  0.41704611  0.50028070
   0.58330033  0.58330646  0.39432178
   0.83640052  0.58199424  0.39498747
   0.91701336  0.91506266  0.50041684
   0.08157202  0.83280972  0.39615141
   0.00018171  0.49950679  0.60362957
   0.91828169  0.66640160  0.50045302
   0.91895945  0.16592645  0.50054390
   0.66583672  0.66974783  0.50141065
   0.33154009  0.08465194  0.39924483
   0.74824328  0.49972034  0.60618085
   0.00164310  0.00021754  0.60594685
   0.92012259  0.41550744  0.50012924
   0.74976483  0.25055120  0.59905234
   0.49965856  0.50075253  0.59775985
   0.49869492  0.75161861  0.59822775
   0.41749040  0.91952722  0.50013073
   0.83324644  0.08354004  0.40233469
   0.83387203  0.83280655  0.40269500
   0.83355112  0.33302414  0.40224345
   0.25124747  0.75037258  0.59819967
   0.49915145 -0.00170735  0.59603526
   0.41589733  0.16611874  0.49995326
   0.66457829  0.91845078  0.50004486
   0.33236665  0.83311765  0.40263194
   0.16888585  0.66434948  0.49989946
   0.25029610  0.24660365  0.59605674
   0.16896608  0.41583649  0.50155426
   0.33048200  0.33474094  0.40589525
   0.25122168  0.00101124  0.59707467
   0.16990381  0.16622345  0.49942658
   0.00013094  0.75121980  0.59823783
   0.08370237  0.58181097  0.40371477
   0.00098648  0.24898072  0.59789493
   0.08389930  0.33434389  0.40325083
   0.41407283  0.41644887  0.50064015
   0.74838685  0.75093362  0.59831857
Direct configuration=    12
   0.08125037  0.08552363  0.39603193
   0.41601470  0.66741761  0.50049906
   0.58350485  0.33216260  0.39477443
   0.58353937  0.83317669  0.39707793
   0.58396624  0.08314646  0.39776370
   0.16941642  0.91658881  0.50097679
   0.24987256  0.50214191  0.60103857
   0.33137101  0.58245204  0.39799127
   0.66307387  0.16716083  0.50070119
   0.74923748 -0.00198204  0.60489964
   0.49855037  0.24974124  0.60290301
   0.66547865  0.41703352  0.50014558
   0.58331891  0.58308821  0.39401210
   0.83648939  0.58179417  0.39481903
   0.91723297  0.91512871  0.50066296
   0.08142261  0.83291221  0.39608011
   0.00024908  0.49949246  0.60390845
   0.91849753  0.66637640  0.50053469
   0.91903134  0.16588692  0.50067983
   0.66574585  0.66985123  0.50123396
   0.33159271  0.08460455  0.39903305
   0.74824708  0.49975733  0.60645405
   0.00166027  0.00026062  0.60630256
   0.92045695  0.41532701  0.50031850
   0.74970483  0.25044414  0.59898295
   0.49971873  0.50078038  0.59757774
   0.49870252  0.75159406  0.59800287
   0.41768872  0.91963825  0.49992239
   0.83336909  0.08338495  0.40261302
   0.83381487  0.83284943  0.40286552
   0.83332853  0.33337655  0.40241178
   0.25119840  0.75050703  0.59805767
   0.49920522 -0.00168959  0.59583105
   0.41591043  0.16616488  0.49994479
   0.66445300  0.91853762  0.49997683
   0.33227049  0.83327153  0.40258411
   0.16882864  0.66441209  0.49981406
   0.25021290  0.24660813  0.59593654
   0.16912280  0.41570846  0.50195205
   0.33056367  0.33466871  0.40630489
   0.25122578  0.00098525  0.59679708
   0.16997998  0.16635139  0.49918348
   0.00024156  0.75116879  0.59825920
   0.08361696  0.58178916  0.40391227
   0.00110344  0.24891859  0.59781174
   0.08377890  0.33447077  0.40351731
   0.41426529  0.41619756  0.50068662
   0.74847465  0.75081878  0.59821162
Direct configuration=    13
   0.08128637  0.08547116  0.39594915
   0.41634015  0.66721244  0.50039867
   0.58336161  0.33226753  0.39465612
   0.58345047  0.83326895  0.39696167
   0.58383095  0.08315097  0.39772841
   0.16925826  0.91672349  0.50095416
   0.24975335  0.50214516  0.60110643
   0.33141965  0.58236233  0.39793989
   0.66295710  0.16726204  0.50076590
   0.74914230 -0.00193344  0.60502925
   0.49850509  0.24965465  0.60297034
   0.66534726  0.41702684  0.50007393
   0.58332877  0.58297248  0.39384789
   0.83653652  0.58168808  0.39472971
   0.91734942  0.91516373  0.50079346
   0.08134338  0.83296656  0.39604231
   0.00028480  0.49948486  0.60405632
   0.91861199  0.66636304  0.50057800
   0.91906947  0.16586595  0.50075192
   0.66569767  0.66990607  0.50114028
   0.33162061  0.08457943  0.39892075
   0.74824910  0.49977694  0.60659892
   0.00166938  0.00028346  0.60649118
   0.92063425  0.41523134  0.50041886
   0.74967302  0.25038737  0.59894615
   0.49975065  0.50079515  0.59748117
   0.49870655  0.75158103  0.59788362
   0.41779388  0.91969713  0.49981192
   0.83343413  0.08330271  0.40276061
   0.83378456  0.83287217  0.40295594
   0.83321049  0.33356342  0.40250104
   0.25117239  0.75057832  0.59798238
   0.49923373 -0.00168018  0.59572276
   0.41591738  0.16618935  0.49994031
   0.66438656  0.91858368  0.49994076
   0.33221950  0.83335312  0.40255875
   0.16879830  0.66444529  0.49976878
   0.25016879  0.24661051  0.59587280
   0.16920590  0.41564057  0.50216298
   0.33060698  0.33463041  0.40652211
   0.25122796  0.00097146  0.59664989
   0.17002037  0.16641924  0.49905457
   0.00030022  0.75114174  0.59827053
   0.08357167  0.58177759  0.40401699
   0.00116545  0.24888564  0.59776763
   0.08371506  0.33453806  0.40365861
   0.41436734  0.41606429  0.50071127
   0.74852120  0.75075788  0.59815491
Direct configuration=    14
   0.08129078  0.08554808  0.39592366
   0.41637058  0.66701855  0.50024484
   0.58333616  0.33224141  0.39463994
   0.58335859  0.83321795  0.39682852
   0.58383018  0.08316583  0.39774079
   0.16942866  0.91669864  0.50081127
   0.24966372  0.50214196  0.60118731
   0.33136612  0.58244611  0.39789981
   0.66324975  0.16715887  0.50080867
   0.74918401 -0.00199532  0.60509398
   0.49842471  0.24964240  0.60300922
   0.66541261  0.41685935  0.50005213
   0.58331629  0.58301578  0.39368296
   0.83645459  0.58167191  0.39471973
   0.91712237  0.91531352  0.50087681
   0.08143049  0.83283876  0.39610561
   0.00037962  0.49945445  0.60425920
   0.91856979  0.66637979  0.50066114
   0.91876495  0.16608224  0.50079919
   0.66581781  0.66985707  0.50101169
   0.33155693  0.08456084  0.39879015
   0.74838030  0.49976260  0.60661869
   0.00170024  0.00031291  0.60660488
   0.92073204  0.41508714  0.50052142
   0.74976956  0.25021901  0.59895728
   0.49975297  0.50082355  0.59747112
   0.49852945  0.75169227  0.59779343
   0.41770436  0.91977471  0.49961621
   0.83334426  0.08337850  0.40288705
   0.83358124  0.83294513  0.40300384
   0.83305898  0.33370382  0.40244995
   0.25106079  0.75063951  0.59792433
   0.49924677 -0.00158628  0.59563626
   0.41588022  0.16621829  0.49997615
   0.66453395  0.91864927  0.49990893
   0.33233556  0.83337095  0.40244888
   0.16892043  0.66447798  0.49978031
   0.25005246  0.24671510  0.59590318
   0.16923764  0.41563466  0.50224822
   0.33074291  0.33454442  0.40662349
   0.25117762  0.00092896  0.59656424
   0.17007905  0.16642166  0.49904223
   0.00028862  0.75113342  0.59837970
   0.08358796  0.58174387  0.40405664
   0.00123792  0.24882235  0.59783602
   0.08370084  0.33449160  0.40373219
   0.41432591  0.41611490  0.50073223
   0.74870926  0.75066151  0.59813650
Direct configuration=    15
   0.08129459  0.08561448  0.39590166
   0.41639684  0.66685121  0.50011207
   0.58331419  0.33221887  0.39462598
   0.58327930  0.83317394  0.39671360
   0.58382951  0.08317865  0.39775147
   0.16957573  0.91667718  0.50068794
   0.24958636  0.50213921  0.60125711
   0.33131992  0.58251842  0.39786521
   0.66350233  0.16706982  0.50084558
   0.74922001 -0.00204873  0.60514984
   0.49835535  0.24963183  0.60304278
   0.66546902  0.41671480  0.50003332
   0.58330553  0.58305315  0.39354061
   0.83638387  0.58165795  0.39471112
   0.91692641  0.91544280  0.50094875
   0.08150568  0.83272846  0.39616026
   0.00046145  0.49942821  0.60443430
   0.91853337  0.66639425  0.50073290
   0.91850212  0.16626891  0.50084000
   0.66592151  0.66981477  0.50090071
   0.33150196  0.08454480  0.39867744
   0.74849353  0.49975022  0.60663575
   0.00172688  0.00033834  0.60670302
   0.92081644  0.41496268  0.50060994
   0.74985289  0.25007370  0.59896688
   0.49975497  0.50084806  0.59746245
   0.49837660  0.75178827  0.59771558
   0.41762709  0.91984167  0.49944730
   0.83326669  0.08344392  0.40299618
   0.83340576  0.83300811  0.40304518
   0.83292821  0.33382500  0.40240585
   0.25096447  0.75069231  0.59787422
   0.49925802 -0.00150523  0.59556160
   0.41584815  0.16624326  0.50000709
   0.66466116  0.91870587  0.49988146
   0.33243572  0.83338633  0.40235405
   0.16902584  0.66450619  0.49979025
   0.24995207  0.24680538  0.59592941
   0.16926502  0.41562956  0.50232179
   0.33086023  0.33447021  0.40671100
   0.25113418  0.00089229  0.59649031
   0.17012969  0.16642375  0.49903157
   0.00027860  0.75112624  0.59847392
   0.08360201  0.58171476  0.40409086
   0.00130047  0.24876772  0.59789505
   0.08368856  0.33445150  0.40379569
   0.41429016  0.41615858  0.50075033
   0.74887157  0.75057833  0.59812062
Direct configuration=    16
   0.08112841  0.08572072  0.39591917
   0.41651773  0.66675411  0.49996652
   0.58329204  0.33224664  0.39465060
   0.58324216  0.83317113  0.39656076
   0.58380636  0.08315887  0.39779111
   0.16952680  0.91674926  0.50050521
   0.24961661  0.50217835  0.60134825
   0.33131564  0.58254973  0.39780951
   0.66341576  0.16709649  0.50090233
   0.74929477 -0.00214593  0.60520709
   0.49833618  0.24969412  0.60305675
   0.66546552  0.41678457  0.50003984
   0.58323243  0.58308277  0.39334661
   0.83637118  0.58169606  0.39475109
   0.91704787  0.91536597  0.50102938
   0.08146598  0.83272971  0.39628856
   0.00053319  0.49938580  0.60470642
   0.91863621  0.66632748  0.50082307
   0.91863189  0.16622941  0.50088074
   0.66593089  0.66978669  0.50078824
   0.33144914  0.08462004  0.39852628
   0.74854114  0.49974805  0.60657484
   0.00179393  0.00028239  0.60675952
   0.92083630  0.41495097  0.50070894
   0.74988749  0.25002869  0.59904816
   0.49975928  0.50086944  0.59746610
   0.49829957  0.75186196  0.59756863
   0.41776452  0.91972771  0.49924357
   0.83327197  0.08349443  0.40307303
   0.83329560  0.83301435  0.40307228
   0.83288598  0.33381677  0.40232519
   0.25085243  0.75070331  0.59778819
   0.49923537 -0.00150580  0.59544388
   0.41595044  0.16623888  0.50004472
   0.66464207  0.91875075  0.49986034
   0.33251885  0.83335988  0.40215393
   0.16893138  0.66462860  0.49985656
   0.24985115  0.24685286  0.59601652
   0.16919523  0.41576989  0.50234753
   0.33090218  0.33442247  0.40674903
   0.25111478  0.00085962  0.59640553
   0.17009006  0.16636950  0.49907768
   0.00027469  0.75114600  0.59861844
   0.08356354  0.58165691  0.40413543
   0.00135018  0.24868904  0.59801723
   0.08369193  0.33444316  0.40383860
   0.41431542  0.41611795  0.50079986
   0.74892773  0.75052024  0.59810875
Direct configuration=    17
   0.08082372  0.08591550  0.39595129
   0.41673937  0.66657609  0.49969965
   0.58325142  0.33229755  0.39469574
   0.58317407  0.83316598  0.39628052