  48  48   0   0
  0.5349325E+02  0.1100258E-08  0.1100258E-08  0.2449179E-08  0.3500000E-15
  1.000000000000000E-004
  CAR 
 unknown system                          
      6.34727108     -9.92142952  301     -1.07829494      1.00000000
     -9.921  0.0000E+00  0.0000E+00
     -9.867  0.0000E+00  0.0000E+00
     -9.813  0.0000E+00  0.0000E+00
     -9.759  0.0000E+00  0.0000E+00
     -9.705  0.0000E+00  0.0000E+00
     -9.650  0.0000E+00  0.0000E+00
     -9.596  0.0000E+00  0.0000E+00
     -9.542  0.0000E+00  0.0000E+00
     -9.488  0.1228E-16  0.6661E-18
     -9.433  0.4609E-14  0.2506E-15
     -9.379  0.1021E-11  0.5563E-13
     -9.325  0.1275E-09  0.6967E-11
     -9.271  0.8981E-08  0.4940E-09
     -9.216  0.3582E-06  0.1992E-07
     -9.162  0.8111E-05  0.4598E-06
     -9.108  0.1045E-03  0.6129E-05
     -9.054  0.7695E-03  0.4786E-04
     -9.000  0.3246E-02  0.2239E-03
     -8.945  0.7896E-02  0.6521E-03
     -8.891  0.1134E-01  0.1267E-02
     -8.837  0.1078E-01  0.1852E-02
     -8.783  0.9843E-02  0.2385E-02
     -8.728  0.1094E-01  0.2979E-02
     -8.674  0.1016E-01  0.3530E-02
     -8.620  0.6031E-02  0.3857E-02
     -8.566  0.2143E-02  0.3973E-02
     -8.511  0.5015E-03  0.4000E-02
     -8.457  0.4935E-03  0.4027E-02
     -8.403  0.2017E-02  0.4136E-02
     -8.349  0.5483E-02  0.4434E-02
     -8.295  0.9119E-02  0.4928E-02
     -8.240  0.9599E-02  0.5449E-02
     -8.186  0.6903E-02  0.5823E-02
     -8.132  0.5001E-02  0.6094E-02
     -8.078  0.6969E-02  0.6472E-02
     -8.023  0.1042E-01  0.7037E-02
     -7.969  0.1016E-01  0.7588E-02
     -7.915  0.7039E-02  0.7970E-02
     -7.861  0.7680E-02  0.8387E-02
     -7.806  0.1437E-01  0.9166E-02
     -7.752  0.2038E-01  0.1027E-01
     -7.698  0.1937E-01  0.1132E-01
     -7.644  0.1580E-01  0.1218E-01
     -7.590  0.1674E-01  0.1309E-01
     -7.535  0.2048E-01  0.1420E-01
     -7.481  0.2174E-01  0.1538E-01
     -7.427  0.2051E-01  0.1649E-01
     -7.373  0.2007E-01  0.1758E-01
     -7.318  0.2371E-01  0.1886E-01
     -7.264  0.3194E-01  0.2059E-01
     -7.210  0.4004E-01  0.2276E-01
     -7.156  0.4525E-01  0.2522E-01
     -7.102  0.4954E-01  0.2791E-01
     -7.047  0.5319E-01  0.3079E-01
     -6.993  0.5523E-01  0.3379E-01
     -6.939  0.5663E-01  0.3686E-01
     -6.885  0.5741E-01  0.3997E-01
     -6.830  0.5921E-01  0.4318E-01
     -6.776  0.6558E-01  0.4674E-01
     -6.722  0.7604E-01  0.5086E-01
     -6.668  0.8713E-01  0.5558E-01
     -6.613  0.9315E-01  0.6064E-01
     -6.559  0.9282E-01  0.6567E-01
     -6.505  0.9434E-01  0.7079E-01
     -6.451  0.1044E+00  0.7644E-01
     -6.397  0.1219E+00  0.8306E-01
     -6.342  0.1385E+00  0.9057E-01
     -6.288  0.1432E+00  0.9833E-01
     -6.234  0.1371E+00  0.1058E+00
     -6.180  0.1329E+00  0.1130E+00
     -6.125  0.1359E+00  0.1203E+00
     -6.071  0.1403E+00  0.1280E+00
     -6.017  0.1412E+00  0.1356E+00
     -5.963  0.1405E+00  0.1432E+00
     -5.908  0.1422E+00  0.1509E+00
     -5.854  0.1482E+00  0.1590E+00
     -5.800  0.1543E+00  0.1673E+00
     -5.746  0.1519E+00  0.1756E+00
     -5.692  0.1413E+00  0.1832E+00
     -5.637  0.1342E+00  0.1905E+00
     -5.583  0.1376E+00  0.1980E+00
     -5.529  0.1455E+00  0.2059E+00
     -5.475  0.1482E+00  0.2139E+00
     -5.420  0.1451E+00  0.2218E+00
     -5.366  0.1434E+00  0.2296E+00
     -5.312  0.1464E+00  0.2375E+00
     -5.258  0.1519E+00  0.2457E+00
     -5.204  0.1598E+00  0.2544E+00
     -5.149  0.1687E+00  0.2635E+00
     -5.095  0.1738E+00  0.2730E+00
     -5.041  0.1736E+00  0.2824E+00
     -4.987  0.1697E+00  0.2916E+00
     -4.932  0.1651E+00  0.3005E+00
     -4.878  0.1649E+00  0.3095E+00
     -4.824  0.1715E+00  0.3188E+00
     -4.770  0.1806E+00  0.3286E+00
     -4.715  0.1852E+00  0.3386E+00
     -4.661  0.1822E+00  0.3485E+00
     -4.607  0.1750E+00  0.3580E+00
     -4.553  0.1684E+00  0.3671E+00
     -4.499  0.1659E+00  0.3761E+00
     -4.444  0.1673E+00  0.3852E+00
     -4.390  0.1703E+00  0.3944E+00
     -4.336  0.1728E+00  0.4038E+00
     -4.282  0.1765E+00  0.4134E+00
     -4.227  0.1824E+00  0.4233E+00
     -4.173  0.1885E+00  0.4335E+00
     -4.119  0.1935E+00  0.4440E+00
     -4.065  0.1947E+00  0.4545E+00
     -4.010  0.1907E+00  0.4649E+00
     -3.956  0.1860E+00  0.4750E+00
     -3.902  0.1824E+00  0.4848E+00
     -3.848  0.1794E+00  0.4946E+00
     -3.794  0.1817E+00  0.5044E+00
     -3.739  0.1904E+00  0.5148E+00
     -3.685  0.1965E+00  0.5254E+00
     -3.631  0.1978E+00  0.5361E+00
     -3.577  0.1997E+00  0.5470E+00
     -3.522  0.2048E+00  0.5581E+00
     -3.468  0.2118E+00  0.5696E+00
     -3.414  0.2156E+00  0.5813E+00
     -3.360  0.2126E+00  0.5928E+00
     -3.305  0.2031E+00  0.6038E+00
     -3.251  0.1910E+00  0.6142E+00
     -3.197  0.1847E+00  0.6242E+00
     -3.143  0.1888E+00  0.6344E+00
     -3.089  0.1976E+00  0.6451E+00
     -3.034  0.2019E+00  0.6561E+00
     -2.980  0.1993E+00  0.6669E+00
     -2.926  0.1947E+00  0.6774E+00
     -2.872  0.1934E+00  0.6879E+00
     -2.817  0.1927E+00  0.6984E+00
     -2.763  0.1900E+00  0.7087E+00
     -2.709  0.1879E+00  0.7189E+00
     -2.655  0.1860E+00  0.7290E+00
     -2.601  0.1820E+00  0.7388E+00
     -2.546  0.1783E+00  0.7485E+00
     -2.492  0.1766E+00  0.7581E+00
     -2.438  0.1744E+00  0.7675E+00
     -2.384  0.1703E+00  0.7768E+00
     -2.329  0.1673E+00  0.7858E+00
     -2.275  0.1693E+00  0.7950E+00
     -2.221  0.1764E+00  0.8046E+00
     -2.167  0.1832E+00  0.8145E+00
     -2.112  0.1851E+00  0.8245E+00
     -2.058  0.1847E+00  0.8346E+00
     -2.004  0.1877E+00  0.8447E+00
     -1.950  0.1933E+00  0.8552E+00
     -1.896  0.1968E+00  0.8659E+00
     -1.841  0.1980E+00  0.8766E+00
     -1.787  0.1980E+00  0.8874E+00
     -1.733  0.1963E+00  0.8980E+00
     -1.679  0.1937E+00  0.9085E+00
     -1.624  0.1907E+00  0.9189E+00
     -1.570  0.1873E+00  0.9290E+00
     -1.516  0.1840E+00  0.9390E+00
     -1.462  0.1806E+00  0.9488E+00
     -1.407  0.1781E+00  0.9585E+00
     -1.353  0.1773E+00  0.9681E+00
     -1.299  0.1735E+00  0.9775E+00
     -1.245  0.1631E+00  0.9863E+00
     -1.191  0.1491E+00  0.9944E+00
     -1.136  0.1326E+00  0.1002E+01
     -1.082  0.1113E+00  0.1008E+01
     -1.028  0.8642E-01  0.1012E+01
     -0.974  0.6242E-01  0.1016E+01
     -0.919  0.4250E-01  0.1018E+01
     -0.865  0.2899E-01  0.1020E+01
     -0.811  0.2187E-01  0.1021E+01
     -0.757  0.1960E-01  0.1022E+01
     -0.702  0.2309E-01  0.1023E+01
     -0.648  0.3225E-01  0.1025E+01
     -0.594  0.4288E-01  0.1027E+01
     -0.540  0.4817E-01  0.1030E+01
     -0.486  0.4367E-01  0.1032E+01
     -0.431  0.3241E-01  0.1034E+01
     -0.377  0.2237E-01  0.1035E+01
     -0.323  0.2017E-01  0.1036E+01
     -0.269  0.2770E-01  0.1038E+01
     -0.214  0.3902E-01  0.1040E+01
     -0.160  0.4358E-01  0.1042E+01
     -0.106  0.3831E-01  0.1044E+01
     -0.052  0.2923E-01  0.1046E+01
      0.002  0.2300E-01  0.1047E+01
      0.057  0.2246E-01  0.1048E+01
      0.111  0.2629E-01  0.1050E+01
      0.165  0.2943E-01  0.1051E+01
      0.219  0.2911E-01  0.1053E+01
      0.274  0.3019E-01  0.1055E+01
      0.328  0.3723E-01  0.1057E+01
      0.382  0.4431E-01  0.1059E+01
      0.436  0.4430E-01  0.1061E+01
      0.491  0.4210E-01  0.1064E+01
      0.545  0.4341E-01  0.1066E+01
      0.599  0.4574E-01  0.1068E+01
      0.653  0.4668E-01  0.1071E+01
      0.707  0.4515E-01  0.1073E+01
      0.762  0.3857E-01  0.1076E+01
      0.816  0.2805E-01  0.1077E+01
      0.870  0.2039E-01  0.1078E+01
      0.924  0.1973E-01  0.1079E+01
      0.979  0.2336E-01  0.1081E+01
      1.033  0.2708E-01  0.1082E+01
      1.087  0.2774E-01  0.1083E+01
      1.141  0.2391E-01  0.1085E+01
      1.196  0.1875E-01  0.1086E+01
      1.250  0.1500E-01  0.1087E+01
      1.304  0.1139E-01  0.1087E+01
      1.358  0.8293E-02  0.1088E+01
      1.412  0.8614E-02  0.1088E+01
      1.467  0.1582E-01  0.1089E+01
      1.521  0.2918E-01  0.1091E+01
      1.575  0.3875E-01  0.1093E+01
      1.629  0.3669E-01  0.1095E+01
      1.684  0.2980E-01  0.1096E+01
      1.738  0.2938E-01  0.1098E+01
      1.792  0.3610E-01  0.1100E+01
      1.846  0.4022E-01  0.1102E+01
      1.900  0.3461E-01  0.1104E+01
      1.955  0.2359E-01  0.1105E+01
      2.009  0.1676E-01  0.1106E+01
      2.063  0.2033E-01  0.1107E+01
      2.117  0.3252E-01  0.1109E+01
      2.172  0.4471E-01  0.1111E+01
      2.226  0.4969E-01  0.1114E+01
      2.280  0.4640E-01  0.1117E+01
      2.334  0.3869E-01  0.1119E+01
      2.389  0.3192E-01  0.1120E+01
      2.443  0.2928E-01  0.1122E+01
      2.497  0.3082E-01  0.1124E+01
      2.551  0.3570E-01  0.1126E+01
      2.605  0.4216E-01  0.1128E+01
      2.660  0.4732E-01  0.1130E+01
      2.714  0.4701E-01  0.1133E+01
      2.768  0.3863E-01  0.1135E+01
      2.822  0.2711E-01  0.1137E+01
      2.877  0.1858E-01  0.1138E+01
      2.931  0.1426E-01  0.1138E+01
      2.985  0.1298E-01  0.1139E+01
      3.039  0.1206E-01  0.1140E+01
      3.094  0.1149E-01  0.1140E+01
      3.148  0.1370E-01  0.1141E+01
      3.202  0.1834E-01  0.1142E+01
      3.256  0.2285E-01  0.1143E+01
      3.310  0.2406E-01  0.1145E+01
      3.365  0.2190E-01  0.1146E+01
      3.419  0.2236E-01  0.1147E+01
      3.473  0.2763E-01  0.1149E+01
      3.527  0.3272E-01  0.1150E+01
      3.582  0.3668E-01  0.1152E+01
      3.636  0.4134E-01  0.1155E+01
      3.690  0.4278E-01  0.1157E+01
      3.744  0.3644E-01  0.1159E+01
      3.799  0.2676E-01  0.1160E+01
      3.853  0.2154E-01  0.1161E+01
      3.907  0.2102E-01  0.1163E+01
      3.961  0.2164E-01  0.1164E+01
      4.015  0.2264E-01  0.1165E+01
      4.070  0.2431E-01  0.1166E+01
      4.124  0.2635E-01  0.1168E+01
      4.178  0.2673E-01  0.1169E+01
      4.232  0.2392E-01  0.1170E+01
      4.287  0.1983E-01  0.1172E+01
      4.341  0.1869E-01  0.1173E+01
      4.395  0.2204E-01  0.1174E+01
      4.449  0.2559E-01  0.1175E+01
      4.503  0.2892E-01  0.1177E+01
      4.558  0.3748E-01  0.1179E+01
      4.612  0.4915E-01  0.1181E+01
      4.666  0.5636E-01  0.1184E+01
      4.720  0.5796E-01  0.1188E+01
      4.775  0.5556E-01  0.1191E+01
      4.829  0.5142E-01  0.1193E+01
      4.883  0.5086E-01  0.1196E+01
      4.937  0.5609E-01  0.1199E+01
      4.992  0.6556E-01  0.1203E+01
      5.046  0.7561E-01  0.1207E+01
      5.100  0.7745E-01  0.1211E+01
      5.154  0.6743E-01  0.1215E+01
      5.208  0.5451E-01  0.1218E+01
      5.263  0.4453E-01  0.1220E+01
      5.317  0.3440E-01  0.1222E+01
      5.371  0.2224E-01  0.1223E+01
      5.425  0.1076E-01  0.1224E+01
      5.480  0.3530E-02  0.1224E+01
      5.534  0.7308E-03  0.1224E+01
      5.588  0.9135E-04  0.1224E+01
      5.642  0.6719E-05  0.1224E+01
      5.697  0.2865E-06  0.1224E+01
      5.751  0.7012E-08  0.1224E+01
      5.805  0.9792E-10  0.1224E+01
      5.859  0.7764E-12  0.1224E+01
      5.913  0.3483E-14  0.1224E+01
      5.968  0.9554E-17  0.1224E+01
      6.022  0.0000E+00  0.1224E+01
      6.076  0.0000E+00  0.1224E+01
      6.130  0.0000E+00  0.1224E+01
      6.185  0.0000E+00  0.1224E+01
      6.239  0.0000E+00  0.1224E+01
      6.293  0.0000E+00  0.1224E+01
      6.347  0.0000E+00  0.1224E+01
