<?xml version="1.0" encoding="ISO-8859-1"?>
<modeling>
 <generator>
  <i name="program" type="string">vasp </i>
  <i name="version" type="string">5.4.1  </i>
  <i name="subversion" type="string">24Jun15 (build Mar 14 2019 10:18:33) complex                          parallel </i>
  <i name="platform" type="string">INTEL-19.0.2+OPENMPI-3.1.3 </i>
  <i name="date" type="string">2022 06 20 </i>
  <i name="time" type="string">18:30:36 </i>
 </generator>
 <incar>
  <i type="int" name="ISTART">     0</i>
  <i type="string" name="PREC">normal</i>
  <i type="string" name="ALGO"> Fast</i>
  <i type="int" name="NELM">   500</i>
  <i type="int" name="IBRION">     2</i>
  <i type="int" name="NFREE">     2</i>
  <i name="EDIFF">      0.00000100</i>
  <i name="EDIFFG">     -0.02000000</i>
  <i type="int" name="NSW">   500</i>
  <i type="int" name="ISIF">     0</i>
  <i type="int" name="ISYM">     2</i>
  <i name="ENCUT">    400.00000000</i>
  <i name="POTIM">      0.35000000</i>
  <i type="string" name="LREAL"> Auto</i>
  <i type="logical" name="LPLANE"> T  </i>
  <i type="int" name="ISMEAR">     0</i>
  <i name="SIGMA">      0.10000000</i>
  <i type="int" name="NWRITE">     1</i>
  <i type="logical" name="LWAVE"> F  </i>
  <i type="logical" name="LCHARG"> F  </i>
  <i type="logical" name="LVTOT"> F  </i>
  <i type="logical" name="LORBIT"> F  </i>
  <i type="logical" name="LAECHG"> F  </i>
  <v type="int" name="KPOINT_BSE">    -1     0     0     0</v>
  <i type="int" name="NELM">   500</i>
  <i type="string" name="GGA"> PE          ! optPBE-vdW XC-functional</i>
  <i type="int" name="VOSKOWN">     1</i>
  <i type="logical" name="LDIPOL"> T  </i>
  <i type="logical" name="LMONO"> F  </i>
  <i type="int" name="IDIPOL">     3</i>
  <v name="DIPOL">      0.00000000      0.00000000      0.50000000</v>
 </incar>
 <kpoints>
  <generation param="Monkhorst-Pack">
   <v type="int" name="divisions">       2        2        1 </v>
   <v name="usershift">      0.00000000       0.00000000       0.00000000 </v>
   <v name="genvec1">      0.50000000      -0.00000000       0.00000000 </v>
   <v name="genvec2">      0.00000000       0.50000000       0.00000000 </v>
   <v name="genvec3">      0.00000000       0.00000000       1.00000000 </v>
   <v name="shift">      0.50000000       0.50000000       0.00000000 </v>
  </generation>
  <varray name="kpointlist" >
   <v>       0.25000000       0.25000000       0.00000000 </v>
   <v>       0.00000000       0.25000000       0.00000000 </v>
   <v>      -0.25000000       0.00000000       0.00000000 </v>
   <v>      -0.25000000       0.25000000       0.00000000 </v>
   <v>       0.50000000      -0.25000000       0.00000000 </v>
   <v>      -0.25000000       0.50000000       0.00000000 </v>
  </varray>
  <varray name="weights" >
   <v>       0.16666667 </v>
   <v>       0.16666667 </v>
   <v>       0.16666667 </v>
   <v>       0.16666667 </v>
   <v>       0.16666667 </v>
   <v>       0.16666667 </v>
  </varray>
 </kpoints>
 <parameters>
  <separator name="general" >
   <i type="string" name="SYSTEM">unknown system</i>
   <i type="logical" name="LCOMPAT"> F  </i>
  </separator>
  <separator name="electronic" >
   <i type="string" name="PREC">normal</i>
   <i name="ENMAX">    400.00000000</i>
   <i name="ENAUG">    416.23000000</i>
   <i name="EDIFF">      0.00000100</i>
   <i type="int" name="IALGO">    68</i>
   <i type="int" name="IWAVPR">    11</i>
   <i type="int" name="NBANDS">   306</i>
   <i name="NELECT">    504.00000000</i>
   <i type="int" name="TURBO">     0</i>
   <i type="int" name="IRESTART">     0</i>
   <i type="int" name="NREBOOT">     0</i>
   <i type="int" name="NMIN">     0</i>
   <i name="EREF">      0.00000000</i>
   <separator name="electronic smearing" >
    <i type="int" name="ISMEAR">     0</i>
    <i name="SIGMA">      0.10000000</i>
    <i name="KSPACING">      0.50000000</i>
    <i type="logical" name="KGAMMA"> T  </i>
   </separator>
   <separator name="electronic projectors" >
    <i type="logical" name="LREAL"> T  </i>
    <v name="ROPT">     -0.00050000     -0.00050000</v>
    <i type="int" name="LMAXPAW">  -100</i>
    <i type="int" name="LMAXMIX">     2</i>
    <i type="logical" name="NLSPLINE"> F  </i>
   </separator>
   <separator name="electronic startup" >
    <i type="int" name="ISTART">     0</i>
    <i type="int" name="ICHARG">     2</i>
    <i type="int" name="INIWAV">     1</i>
   </separator>
   <separator name="electronic spin" >
    <i type="int" name="ISPIN">     1</i>
    <i type="logical" name="LNONCOLLINEAR"> F  </i>
    <v name="MAGMOM">      1.00000000      1.00000000      1.00000000      1.00000000      1.00000000      1.00000000      1.00000000      1.00000000      1.00000000      1.00000000      1.00000000      1.00000000      1.00000000      1.00000000      1.00000000      1.00000000      1.00000000      1.00000000      1.00000000      1.00000000
      1.00000000      1.00000000      1.00000000      1.00000000      1.00000000      1.00000000      1.00000000      1.00000000      1.00000000      1.00000000      1.00000000      1.00000000      1.00000000      1.00000000      1.00000000      1.00000000      1.00000000      1.00000000      1.00000000      1.00000000
      1.00000000      1.00000000      1.00000000      1.00000000      1.00000000      1.00000000      1.00000000      1.00000000</v>
    <i name="NUPDOWN">     -1.00000000</i>
    <i type="logical" name="LSORBIT"> F  </i>
    <v name="SAXIS">      0.00000000      0.00000000      1.00000000</v>
    <i type="logical" name="LSPIRAL"> F  </i>
    <v name="QSPIRAL">      0.00000000      0.00000000      0.00000000</v>
    <i type="logical" name="LZEROZ"> F  </i>
   </separator>
   <separator name="electronic exchange-correlation" >
    <i type="logical" name="LASPH"> F  </i>
    <i type="logical" name="LMETAGGA"> F  </i>
   </separator>
   <separator name="electronic convergence" >
    <i type="int" name="NELM">   500</i>
    <i type="int" name="NELMDL">    -5</i>
    <i type="int" name="NELMIN">     2</i>
    <i name="ENINI">    400.00000000</i>
    <separator name="electronic convergence detail" >
     <i type="logical" name="LDIAG"> T  </i>
     <i type="logical" name="LSUBROT"> F  </i>
     <i name="WEIMIN">      0.00100000</i>
     <i name="EBREAK">      0.00000000</i>
     <i name="DEPER">      0.30000000</i>
     <i type="int" name="NRMM">     4</i>
     <i name="TIME">      0.40000000</i>
    </separator>
   </separator>
   <separator name="electronic mixer" >
    <i name="AMIX">      0.40000000</i>
    <i name="BMIX">      1.00000000</i>
    <i name="AMIN">      0.10000000</i>
    <i name="AMIX_MAG">      1.60000000</i>
    <i name="BMIX_MAG">      1.00000000</i>
    <separator name="electronic mixer details" >
     <i type="int" name="IMIX">     4</i>
     <i type="logical" name="MIXFIRST"> F  </i>
     <i type="int" name="MAXMIX">   -45</i>
     <i name="WC">    100.00000000</i>
     <i type="int" name="INIMIX">     1</i>
     <i type="int" name="MIXPRE">     1</i>
     <i type="int" name="MREMOVE">     5</i>
    </separator>
   </separator>
   <separator name="electronic dipolcorrection" >
    <i type="logical" name="LDIPOL"> T  </i>
    <i type="logical" name="LMONO"> F  </i>
    <i type="int" name="IDIPOL">     3</i>
    <i name="EPSILON">      1.00000000</i>
    <v name="DIPOL">      0.00000000      0.00000000      0.50000000</v>
    <i name="EFIELD">      0.00000000</i>
   </separator>
  </separator>
  <separator name="grids" >
   <i type="int" name="NGX">    54</i>
   <i type="int" name="NGY">    54</i>
   <i type="int" name="NGZ">   120</i>
   <i type="int" name="NGXF">   108</i>
   <i type="int" name="NGYF">   108</i>
   <i type="int" name="NGZF">   240</i>
   <i type="logical" name="ADDGRID"> F  </i>
  </separator>
  <separator name="ionic" >
   <i type="int" name="NSW">   500</i>
   <i type="int" name="IBRION">     2</i>
   <i type="int" name="ISIF">     0</i>
   <i name="PSTRESS">      0.00000000</i>
   <i name="EDIFFG">     -0.02000000</i>
   <i type="int" name="NFREE">     2</i>
   <i name="POTIM">      0.35000000</i>
   <i name="SMASS">     -3.00000000</i>
   <i name="SCALEE">      1.00000000</i>
  </separator>
  <separator name="ionic md" >
   <i name="TEBEG">      0.00010000</i>
   <i name="TEEND">      0.00010000</i>
   <i type="int" name="NBLOCK">     1</i>
   <i type="int" name="KBLOCK">   500</i>
   <i type="int" name="NPACO">   256</i>
   <i name="APACO">     16.00000000</i>
  </separator>
  <separator name="symmetry" >
   <i type="int" name="ISYM">     2</i>
   <i name="SYMPREC">      0.00001000</i>
  </separator>
  <separator name="dos" >
   <i type="logical" name="LORBIT"> F  </i>
   <v name="RWIGS">     -1.00000000     -1.00000000</v>
   <i type="int" name="NEDOS">   301</i>
   <i name="EMIN">     10.00000000</i>
   <i name="EMAX">    -10.00000000</i>
   <i name="EFERMI">      0.00000000</i>
  </separator>
  <separator name="writing" >
   <i type="int" name="NWRITE">     1</i>
   <i type="logical" name="LWAVE"> F  </i>
   <i type="logical" name="LCHARG"> F  </i>
   <i type="logical" name="LPARD"> F  </i>
   <i type="logical" name="LVTOT"> F  </i>
   <i type="logical" name="LVHAR"> F  </i>
   <i type="logical" name="LELF"> F  </i>
   <i type="logical" name="LOPTICS"> F  </i>
   <v name="STM">      0.00000000      0.00000000      0.00000000      0.00000000      0.00000000      0.00000000      0.00000000</v>
  </separator>
  <separator name="performance" >
   <i type="int" name="NPAR">     6</i>
   <i type="int" name="NSIM">     4</i>
   <i type="int" name="NBLK">    -1</i>
   <i type="logical" name="LPLANE"> T  </i>
   <i type="logical" name="LSCALAPACK"> T  </i>
   <i type="logical" name="LSCAAWARE"> F  </i>
   <i type="logical" name="LSCALU"> F  </i>
   <i type="logical" name="LASYNC"> F  </i>
   <i type="logical" name="LORBITALREAL"> F  </i>
  </separator>
  <separator name="miscellaneous" >
   <i type="int" name="IDIOT">     3</i>
   <i type="logical" name="LMUSIC"> F  </i>
   <v name="POMASS">    196.96600000    106.42000000</v>
   <v name="DARWINR">      0.00000000      0.00000000</v>
   <v name="DARWINV">      1.00000000      1.00000000</v>
   <i type="logical" name="LCORR"> T  </i>
  </separator>
  <i type="logical" name="GGA_COMPAT"> T  </i>
  <i type="logical" name="LBERRY"> F  </i>
  <i type="int" name="ICORELEVEL">     0</i>
  <i type="logical" name="LDAU"> F  </i>
  <i type="int" name="I_CONSTRAINED_M">     0</i>
  <separator name="electronic exchange-correlation" >
   <i type="string" name="GGA">PE</i>
   <i type="int" name="VOSKOWN">     1</i>
   <i type="logical" name="LHFCALC"> F  </i>
   <i type="string" name="PRECFOCK"></i>
   <i type="logical" name="LSYMGRAD"> F  </i>
   <i type="logical" name="LHFONE"> F  </i>
   <i type="logical" name="LRHFCALC"> F  </i>
   <i type="logical" name="LTHOMAS"> F  </i>
   <i type="logical" name="LMODELHF"> F  </i>
   <i name="ENCUT4O">     -1.00000000</i>
   <i type="int" name="EXXOEP">     0</i>
   <i type="int" name="FOURORBIT">     0</i>
   <i name="AEXX">      0.00000000</i>
   <i name="HFALPHA">      0.00000000</i>
   <i name="MCALPHA">      0.00000000</i>
   <i name="ALDAX">      1.00000000</i>
   <i name="AGGAX">      1.00000000</i>
   <i name="ALDAC">      1.00000000</i>
   <i name="AGGAC">      1.00000000</i>
   <i type="int" name="NKREDX">     1</i>
   <i type="int" name="NKREDY">     1</i>
   <i type="int" name="NKREDZ">     1</i>
   <i type="logical" name="SHIFTRED"> F  </i>
   <i type="logical" name="ODDONLY"> F  </i>
   <i type="logical" name="EVENONLY"> F  </i>
   <i type="int" name="LMAXFOCK">     0</i>
   <i type="int" name="NMAXFOCKAE">     0</i>
   <i type="logical" name="LFOCKAEDFT"> F  </i>
   <i name="HFSCREEN">      0.00000000</i>
   <i name="HFSCREENC">      0.00000000</i>
   <i type="int" name="NBANDSGWLOW">     0</i>
  </separator>
  <separator name="vdW DFT" >
   <i type="logical" name="LUSE_VDW"> F  </i>
   <i name="Zab_VDW">     -0.84910000</i>
   <i name="PARAM1">      0.12340000</i>
   <i name="PARAM2">      1.00000000</i>
   <i name="PARAM3">      0.00000000</i>
  </separator>
  <separator name="model GW" >
   <i type="int" name="MODEL_GW">     0</i>
   <i name="MODEL_EPS0">     32.09595293</i>
   <i name="MODEL_ALPHA">      1.00000000</i>
  </separator>
  <separator name="linear response parameters" >
   <i type="logical" name="LEPSILON"> F  </i>
   <i type="logical" name="LRPA"> F  </i>
   <i type="logical" name="LNABLA"> F  </i>
   <i type="logical" name="LVEL"> F  </i>
   <i type="int" name="KINTER">     0</i>
   <i name="CSHIFT">      0.10000000</i>
   <i name="OMEGAMAX">     -1.00000000</i>
   <i name="DEG_THRESHOLD">      0.00200000</i>
  </separator>
  <separator name="orbital magnetization" >
   <i type="logical" name="NUCIND"> F  </i>
   <v name="MAGPOS">      0.00000000      0.00000000      0.00000000</v>
   <i type="logical" name="LNICSALL"> T  </i>
   <i type="logical" name="ORBITALMAG"> F  </i>
   <i type="logical" name="LMAGBLOCH"> F  </i>
   <i type="logical" name="LCHIMAG"> F  </i>
   <i type="logical" name="LGAUGE"> T  </i>
   <i type="int" name="MAGATOM">     0</i>
   <v name="MAGDIPOL">      0.00000000      0.00000000      0.00000000</v>
   <v name="AVECCONST">      0.00000000      0.00000000      0.00000000</v>
  </separator>
  <separator name="response functions" >
   <i type="logical" name="LADDER"> F  </i>
   <i type="logical" name="LFXC"> F  </i>
   <i type="logical" name="LHARTREE"> T  </i>
   <i type="int" name="IBSE">     0</i>
   <v type="int" name="KPOINT">    -1     0     0     0</v>
   <i type="logical" name="LTCTE"> F  </i>
   <i type="logical" name="LTETE"> F  </i>
   <i type="logical" name="LTRIPLET"> F  </i>
   <i type="logical" name="LFXCEPS"> F  </i>
   <i type="logical" name="LFXHEG"> F  </i>
   <i type="int" name="NATURALO">     0</i>
   <i type="logical" name="L2ORDER"> F  </i>
   <i type="logical" name="LUSEW"> F  </i>
   <i name="ENCUTGW">     -2.00000000</i>
   <i name="ENCUTGWSOFT">     -2.00000000</i>
   <i name="ENCUTLF">     -1.00000000</i>
   <i type="int" name="LMAXMP2">    -1</i>
   <i name="SCISSOR">      0.00000000</i>
   <i type="int" name="NOMEGA">     0</i>
   <i type="int" name="NOMEGAR">     0</i>
   <i type="int" name="NBANDSGW">    -1</i>
   <i type="int" name="NBANDSO">    -1</i>
   <i type="int" name="NBANDSV">    -1</i>
   <i type="int" name="NELM">   500</i>
   <i type="int" name="NELMHF">     1</i>
   <i type="int" name="DIM">     3</i>
   <i type="int" name="ANTIRES">     0</i>
   <i name="OMEGAMAX">    -30.00000000</i>
   <i name="OMEGAMIN">    -30.00000000</i>
   <i name="OMEGATL">   -200.00000000</i>
   <i type="int" name="OMEGAGRID">     0</i>
   <i name="CSHIFT">     -0.10000000</i>
   <i type="logical" name="SELFENERGY"> F  </i>
   <i type="logical" name="LSPECTRAL"> F  </i>
   <i type="logical" name="LSPECTRALGW"> F  </i>
   <i type="logical" name="LSINGLES"> F  </i>
   <i type="logical" name="LFERMIGW"> F  </i>
   <i type="logical" name="ODDONLYGW"> F  </i>
   <i type="logical" name="EVENONLYGW"> F  </i>
   <i type="int" name="NKREDLFX">     1</i>
   <i type="int" name="NKREDLFY">     1</i>
   <i type="int" name="NKREDLFZ">     1</i>
   <i type="int" name="MAXMEM">  1800</i>
   <i type="int" name="TELESCOPE">     0</i>
   <i type="int" name="TAUPAR">     1</i>
   <i type="int" name="OMEGAPAR">    -1</i>
   <i name="LAMBDA">      1.00000000</i>
  </separator>
  <separator name="External order field" >
   <i name="OFIELD_KAPPA">      0.00000000</i>
   <v name="OFIELD_K">      0.00000000      0.00000000      0.00000000</v>
   <i name="OFIELD_Q6_NEAR">      0.00000000</i>
   <i name="OFIELD_Q6_FAR">      0.00000000</i>
   <i name="OFIELD_A">      0.00000000</i>
  </separator>
 </parameters>
 <atominfo>
  <atoms>      48 </atoms>
  <types>       2 </types>
  <array name="atoms" >
   <dimension dim="1">ion</dimension>
   <field type="string">element</field>
   <field type="int">atomtype</field>
   <set>
    <rc><c>Au</c><c>   1</c></rc>
    <rc><c>Au</c><c>   1</c></rc>
    <rc><c>Au</c><c>   1</c></rc>
    <rc><c>Au</c><c>   1</c></rc>
    <rc><c>Au</c><c>   1</c></rc>
    <rc><c>Au</c><c>   1</c></rc>
    <rc><c>Au</c><c>   1</c></rc>
    <rc><c>Au</c><c>   1</c></rc>
    <rc><c>Au</c><c>   1</c></rc>
    <rc><c>Au</c><c>   1</c></rc>
    <rc><c>Au</c><c>   1</c></rc>
    <rc><c>Au</c><c>   1</c></rc>
    <rc><c>Au</c><c>   1</c></rc>
    <rc><c>Au</c><c>   1</c></rc>
    <rc><c>Au</c><c>   1</c></rc>
    <rc><c>Au</c><c>   1</c></rc>
    <rc><c>Au</c><c>   1</c></rc>
    <rc><c>Au</c><c>   1</c></rc>
    <rc><c>Au</c><c>   1</c></rc>
    <rc><c>Au</c><c>   1</c></rc>
    <rc><c>Au</c><c>   1</c></rc>
    <rc><c>Au</c><c>   1</c></rc>
    <rc><c>Au</c><c>   1</c></rc>
    <rc><c>Au</c><c>   1</c></rc>
    <rc><c>Pd</c><c>   2</c></rc>
    <rc><c>Pd</c><c>   2</c></rc>
    <rc><c>Pd</c><c>   2</c></rc>
    <rc><c>Pd</c><c>   2</c></rc>
    <rc><c>Pd</c><c>   2</c></rc>
    <rc><c>Pd</c><c>   2</c></rc>
    <rc><c>Pd</c><c>   2</c></rc>
    <rc><c>Pd</c><c>   2</c></rc>
    <rc><c>Pd</c><c>   2</c></rc>
    <rc><c>Pd</c><c>   2</c></rc>
    <rc><c>Pd</c><c>   2</c></rc>
    <rc><c>Pd</c><c>   2</c></rc>
    <rc><c>Pd</c><c>   2</c></rc>
    <rc><c>Pd</c><c>   2</c></rc>
    <rc><c>Pd</c><c>   2</c></rc>
    <rc><c>Pd</c><c>   2</c></rc>
    <rc><c>Pd</c><c>   2</c></rc>
    <rc><c>Pd</c><c>   2</c></rc>
    <rc><c>Pd</c><c>   2</c></rc>
    <rc><c>Pd</c><c>   2</c></rc>
    <rc><c>Pd</c><c>   2</c></rc>
    <rc><c>Pd</c><c>   2</c></rc>
    <rc><c>Pd</c><c>   2</c></rc>
    <rc><c>Pd</c><c>   2</c></rc>
   </set>
  </array>
  <array name="atomtypes" >
   <dimension dim="1">type</dimension>
   <field type="int">atomspertype</field>
   <field type="string">element</field>
   <field>mass</field>
   <field>valence</field>
   <field type="string">pseudopotential</field>
   <set>
    <rc><c>  24</c><c>Au</c><c>    196.96600000</c><c>     11.00000000</c><c>  PAW_PBE Au 04Oct2007                  </c></rc>
    <rc><c>  24</c><c>Pd</c><c>    106.42000000</c><c>     10.00000000</c><c>  PAW_PBE Pd 04Jan2005                  </c></rc>
   </set>
  </array>
 </atominfo>
 <structure name="initialpos" >
  <crystal>
   <varray name="basis" >
    <v>      11.00258152       0.00000000       0.00000000 </v>
    <v>       5.50129076       9.52851510       0.00000000 </v>
    <v>       0.00000000       0.00000000      24.49178509 </v>
   </varray>
   <i name="volume">   2567.67623402 </i>
   <varray name="rec_basis" >
    <v>       0.09088776      -0.05247407       0.00000000 </v>
    <v>       0.00000000       0.10494815       0.00000000 </v>
    <v>       0.00000000       0.00000000       0.04083002 </v>
   </varray>
  </crystal>
  <varray name="positions" >
   <v>       0.08333333       0.08333333       0.40830017 </v>
   <v>       0.75000000       0.50000000       0.59169983 </v>
   <v>       0.66666667       0.66666667       0.50000000 </v>
   <v>       0.83333333       0.58333333       0.40830017 </v>
   <v>       0.66666667       0.41666667       0.50000000 </v>
   <v>       0.83333333       0.33333333       0.40830017 </v>
   <v>       0.75000000       0.00000000       0.59169983 </v>
   <v>       0.83333333       0.08333333       0.40830017 </v>
   <v>       0.58333333       0.83333333       0.40830017 </v>
   <v>       0.41666667       0.66666667       0.50000000 </v>
   <v>       0.58333333       0.58333333       0.40830017 </v>
   <v>       0.50000000       0.00000000       0.59169983 </v>
   <v>       0.16666667       0.91666667       0.50000000 </v>
   <v>       0.33333333       0.83333333       0.40830017 </v>
   <v>       0.25000000       0.50000000       0.59169983 </v>
   <v>       0.33333333       0.58333333       0.40830017 </v>
   <v>       0.75000000       0.75000000       0.59169983 </v>
   <v>       0.91666667       0.16666667       0.50000000 </v>
   <v>       0.16666667       0.16666667       0.50000000 </v>
   <v>       0.91666667       0.41666667       0.50000000 </v>
   <v>       0.00000000       0.75000000       0.59169983 </v>
   <v>       0.08333333       0.58333333       0.40830017 </v>
   <v>       0.91666667       0.66666667       0.50000000 </v>
   <v>       0.91666667       0.91666667       0.50000000 </v>
   <v>       0.25000000       0.25000000       0.59169983 </v>
   <v>       0.83333333       0.83333333       0.40830017 </v>
   <v>       0.00000000       0.00000000       0.59169983 </v>
   <v>       0.08333333       0.33333333       0.40830017 </v>
   <v>       0.75000000       0.25000000       0.59169983 </v>
   <v>       0.00000000       0.25000000       0.59169983 </v>
   <v>       0.66666667       0.16666667       0.50000000 </v>
   <v>       0.50000000       0.75000000       0.59169983 </v>
   <v>       0.41666667       0.91666667       0.50000000 </v>
   <v>       0.50000000       0.50000000       0.59169983 </v>
   <v>       0.16666667       0.41666667       0.50000000 </v>
   <v>       0.08333333       0.83333333       0.40830017 </v>
   <v>       0.50000000       0.25000000       0.59169983 </v>
   <v>       0.41666667       0.41666667       0.50000000 </v>
   <v>       0.58333333       0.33333333       0.40830017 </v>
   <v>       0.41666667       0.16666667       0.50000000 </v>
   <v>       0.58333333       0.08333333       0.40830017 </v>
   <v>       0.66666667       0.91666667       0.50000000 </v>
   <v>       0.33333333       0.08333333       0.40830017 </v>
   <v>       0.25000000       0.00000000       0.59169983 </v>
   <v>       0.16666667       0.66666667       0.50000000 </v>
   <v>       0.33333333       0.33333333       0.40830017 </v>
   <v>       0.00000000       0.50000000       0.59169983 </v>
   <v>       0.25000000       0.75000000       0.59169983 </v>
  </varray>
 </structure>
 <calculation>
  <scstep>
   <time name="dav">    9.35    9.36</time>
   <time name="total">    9.42    9.42</time>
   <dipole>
    <v name="dipole">      0.00000000       0.00000000       0.00000222 </v>
    <i name="Tr[quadrupol]"> -10252.10194554 </i>
    <i name="Echarged">      0.00000000 </i>
    <i name="Edipol_quadrupol">      0.00000000 </i>
    <i name="Eion">      0.00000000 </i>
   </dipole>
   <energy>
    <i name="alphaZ">    805.86936534 </i>
    <i name="ewald"> 200416.88182294 </i>
    <i name="hartreedc">-242832.87482746 </i>
    <i name="XCdc">   -327.56131873 </i>
    <i name="pawpsdc">  40340.05962942 </i>
    <i name="pawaedc"> -38292.62782345 </i>
    <i name="eentropy">     -0.12857721 </i>
    <i name="bandstr">   1431.32880630 </i>
    <i name="atom">  41659.78587232 </i>
    <i name="e_fr_energy">   3200.73294948 </i>
    <i name="e_wo_entrp">   3200.86152669 </i>
    <i name="e_0_energy">   3200.79723809 </i>
   </energy>
  </scstep>
  <scstep>
   <time name="dav">   11.18   11.22</time>
   <time name="total">   11.18   11.23</time>
   <dipole>
    <v name="dipole">      0.00000000       0.00000000       0.00000222 </v>
    <i name="Tr[quadrupol]"> -10252.10194554 </i>
    <i name="Echarged">      0.00000000 </i>
    <i name="Edipol_quadrupol">      0.00000000 </i>
    <i name="Eion">      0.00000000 </i>
   </dipole>
   <energy>
    <i name="e_fr_energy">     14.83275180 </i>
    <i name="e_wo_entrp">     14.96819185 </i>
    <i name="e_0_energy">     14.90047183 </i>
   </energy>
  </scstep>
  <scstep>
   <time name="dav">   10.87   10.94</time>
   <time name="total">   10.87   10.94</time>
   <dipole>
    <v name="dipole">      0.00000000       0.00000000       0.00000222 </v>
    <i name="Tr[quadrupol]"> -10252.10194554 </i>
    <i name="Echarged">      0.00000000 </i>
    <i name="Edipol_quadrupol">      0.00000000 </i>
    <i name="Eion">      0.00000000 </i>
   </dipole>
   <energy>
    <i name="e_fr_energy">   -200.78472843 </i>
    <i name="e_wo_entrp">   -200.58059092 </i>
    <i name="e_0_energy">   -200.68265967 </i>
   </energy>
  </scstep>
  <scstep>
   <time name="dav">   11.89   11.92</time>
   <time name="total">   11.89   11.93</time>
   <dipole>
    <v name="dipole">      0.00000000       0.00000000       0.00000222 </v>
    <i name="Tr[quadrupol]"> -10252.10194554 </i>
    <i name="Echarged">      0.00000000 </i>
    <i name="Edipol_quadrupol">      0.00000000 </i>
    <i name="Eion">      0.00000000 </i>
   </dipole>
   <energy>
    <i name="e_fr_energy">   -206.49051351 </i>
    <i name="e_wo_entrp">   -206.27691385 </i>
    <i name="e_0_energy">   -206.38371368 </i>
   </energy>
  </scstep>
  <scstep>
   <time name="dav">   11.32   11.33</time>
   <time name="total">   11.63   11.64</time>
   <dipole>
    <v name="dipole">      0.00000000       0.00000000       0.00000222 </v>
    <i name="Tr[quadrupol]"> -10252.10194554 </i>
    <i name="Echarged">      0.00000000 </i>
    <i name="Edipol_quadrupol">      0.00000000 </i>
    <i name="Eion">      0.00000000 </i>
   </dipole>
   <energy>
    <i name="e_fr_energy">   -206.66926418 </i>
    <i name="e_wo_entrp">   -206.45574419 </i>
    <i name="e_0_energy">   -206.56250419 </i>
   </energy>
  </scstep>
  <scstep>
   <time name="diag">    1.67    1.67</time>
   <time name="diis">    4.53    4.54</time>
   <time name="orth">    0.41    0.41</time>
   <time name="total">    6.98    6.99</time>
   <dipole>
    <v name="dipole">      0.00000000       0.00000000       1.00497951 </v>
    <i name="Tr[quadrupol]"> -10252.76577809 </i>
    <i name="Echarged">      0.00000000 </i>
    <i name="Edipol_quadrupol">      0.00000000 </i>
    <i name="Eion">      0.00000000 </i>
   </dipole>
   <energy>
    <i name="e_fr_energy">   -205.95626162 </i>
    <i name="e_wo_entrp">   -205.71323520 </i>
    <i name="e_0_energy">   -205.83474841 </i>
   </energy>
  </scstep>
  <scstep>
   <time name="diag">    1.66    1.66</time>
   <time name="diis">    4.53    4.53</time>
   <time name="orth">    0.41    0.41</time>
   <time name="total">    6.96    6.97</time>
   <dipole>
    <v name="dipole">      0.00000000       0.00000000      -1.01425745 </v>
    <i name="Tr[quadrupol]"> -10251.82721750 </i>
    <i name="Echarged">      0.00000000 </i>
    <i name="Edipol_quadrupol">      0.00000000 </i>
    <i name="Eion">      0.00000000 </i>
   </dipole>
   <energy>
    <i name="e_fr_energy">   -207.67991265 </i>
    <i name="e_wo_entrp">   -207.46251410 </i>
    <i name="e_0_energy">   -207.57121338 </i>
   </energy>
  </scstep>
  <scstep>
   <time name="diag">    1.65    1.71</time>
   <time name="diis">    4.52    4.52</time>
   <time name="orth">    0.41    0.41</time>
   <time name="total">    6.95    7.01</time>
   <dipole>
    <v name="dipole">      0.00000000       0.00000000       1.93445730 </v>
    <i name="Tr[quadrupol]"> -10253.16615354 </i>
    <i name="Echarged">      0.00000000 </i>
    <i name="Edipol_quadrupol">      0.00000000 </i>
    <i name="Eion">      0.00000000 </i>
   </dipole>
   <energy>
    <i name="e_fr_energy">   -225.82687444 </i>
    <i name="e_wo_entrp">   -225.50549120 </i>
    <i name="e_0_energy">   -225.66618282 </i>
   </energy>
  </scstep>
  <scstep>
   <time name="diag">    1.68    1.68</time>
   <time name="diis">    4.41    4.42</time>
   <time name="orth">    0.41    0.41</time>
   <time name="total">    6.86    6.88</time>
   <dipole>
    <v name="dipole">      0.00000000       0.00000000      -0.56481383 </v>
    <i name="Tr[quadrupol]"> -10254.70414435 </i>
    <i name="Echarged">      0.00000000 </i>
    <i name="Edipol_quadrupol">      0.00000000 </i>
    <i name="Eion">      0.00000000 </i>
   </dipole>
   <energy>
    <i name="e_fr_energy">   -218.65593727 </i>
    <i name="e_wo_entrp">   -218.45672309 </i>
    <i name="e_0_energy">   -218.55633018 </i>
   </energy>
  </scstep>
  <scstep>
   <time name="diag">    1.67    1.67</time>
   <time name="diis">    4.54    4.54</time>
   <time name="orth">    0.41    0.41</time>
   <time name="total">    6.97    6.98</time>
   <dipole>
    <v name="dipole">      0.00000000       0.00000000       0.37944234 </v>
    <i name="Tr[quadrupol]"> -10253.07568710 </i>
    <i name="Echarged">      0.00000000 </i>
    <i name="Edipol_quadrupol">      0.00000000 </i>
    <i name="Eion">      0.00000000 </i>
   </dipole>
   <energy>
    <i name="e_fr_energy">   -200.31175973 </i>
    <i name="e_wo_entrp">   -200.13850579 </i>
    <i name="e_0_energy">   -200.22513276 </i>
   </energy>
  </scstep>
  <scstep>
   <time name="diag">    1.65    1.65</time>
   <time name="diis">    4.53    4.53</time>
   <time name="orth">    0.40    0.40</time>
   <time name="total">    6.95    6.95</time>
   <dipole>
    <v name="dipole">      0.00000000       0.00000000       0.14842337 </v>
    <i name="Tr[quadrupol]"> -10253.87355068 </i>
    <i name="Echarged">      0.00000000 </i>
    <i name="Edipol_quadrupol">      0.00000000 </i>
    <i name="Eion">      0.00000000 </i>
   </dipole>
   <energy>
    <i name="e_fr_energy">   -192.51136231 </i>
    <i name="e_wo_entrp">   -192.32865269 </i>
    <i name="e_0_energy">   -192.42000750 </i>
   </energy>
  </scstep>
  <scstep>
   <time name="diag">    1.87    1.88</time>
   <time name="diis">    4.87    4.89</time>
   <time name="orth">    0.40    0.40</time>
   <time name="total">    7.51    7.54</time>
   <dipole>
    <v name="dipole">      0.00000000       0.00000000       0.14356165 </v>
    <i name="Tr[quadrupol]"> -10254.17303892 </i>
    <i name="Echarged">      0.00000000 </i>
    <i name="Edipol_quadrupol">      0.00000000 </i>
    <i name="Eion">      0.00000000 </i>
   </dipole>
   <energy>
    <i name="e_fr_energy">   -188.51791997 </i>
    <i name="e_wo_entrp">   -188.30995911 </i>
    <i name="e_0_energy">   -188.41393954 </i>
   </energy>
  </scstep>
  <scstep>
   <time name="diag">    1.67    1.67</time>
   <time name="diis">    4.55    4.55</time>
   <time name="orth">    0.40    0.40</time>
   <time name="total">    6.98    7.00</time>
   <dipole>
    <v name="dipole">      0.00000000       0.00000000       0.09501467 </v>
    <i name="Tr[quadrupol]"> -10254.62790161 </i>
    <i name="Echarged">      0.00000000 </i>
    <i name="Edipol_quadrupol">      0.00000000 </i>
    <i name="Eion">      0.00000000 </i>
   </dipole>
   <energy>
    <i name="e_fr_energy">   -188.57977370 </i>
    <i name="e_wo_entrp">   -188.38054871 </i>
    <i name="e_0_energy">   -188.48016121 </i>
   </energy>
  </scstep>
  <scstep>
   <time name="diag">    1.63    1.68</time>
   <time name="diis">    4.53    4.54</time>
   <time name="orth">    0.40    0.40</time>
   <time name="total">    6.94    6.99</time>
   <dipole>
    <v name="dipole">      0.00000000       0.00000000       0.05730114 </v>
    <i name="Tr[quadrupol]"> -10254.82213217 </i>
    <i name="Echarged">      0.00000000 </i>
    <i name="Edipol_quadrupol">      0.00000000 </i>
    <i name="Eion">      0.00000000 </i>
   </dipole>
   <energy>
    <i name="e_fr_energy">   -188.53955356 </i>
    <i name="e_wo_entrp">   -188.31318995 </i>
    <i name="e_0_energy">   -188.42637176 </i>
   </energy>
  </scstep>
  <scstep>
   <time name="diag">    1.65    1.65</time>
   <time name="diis">    4.56    4.56</time>
   <time name="orth">    0.40    0.40</time>
   <time name="total">    6.98    6.98</time>
   <dipole>
    <v name="dipole">      0.00000000       0.00000000       0.06406657 </v>
    <i name="Tr[quadrupol]"> -10254.95486437 </i>
    <i name="Echarged">      0.00000000 </i>
    <i name="Edipol_quadrupol">      0.00000000 </i>
    <i name="Eion">      0.00000000 </i>
   </dipole>
   <energy>
    <i name="e_fr_energy">   -188.30695437 </i>
    <i name="e_wo_entrp">   -188.06712987 </i>
    <i name="e_0_energy">   -188.18704212 </i>
   </energy>
  </scstep>
  <scstep>
   <time name="diag">    1.68    1.68</time>
   <time name="diis">    4.44    4.44</time>
   <time name="orth">    0.41    0.41</time>
   <time name="total">    6.89    6.90</time>
   <dipole>
    <v name="dipole">      0.00000000       0.00000000       0.07880727 </v>
    <i name="Tr[quadrupol]"> -10255.43573793 </i>
    <i name="Echarged">      0.00000000 </i>
    <i name="Edipol_quadrupol">      0.00000000 </i>
    <i name="Eion">      0.00000000 </i>
   </dipole>
   <energy>
    <i name="e_fr_energy">   -188.14308176 </i>
    <i name="e_wo_entrp">   -187.89993077 </i>
    <i name="e_0_energy">   -188.02150626 </i>
   </energy>
  </scstep>
  <scstep>
   <time name="diag">    1.67    1.67</time>
   <time name="diis">    4.55    4.55</time>
   <time name="orth">    0.41    0.41</time>
   <time name="total">    6.99    6.99</time>
   <dipole>
    <v name="dipole">      0.00000000       0.00000000       0.09412134 </v>
    <i name="Tr[quadrupol]"> -10255.73287361 </i>
    <i name="Echarged">      0.00000000 </i>
    <i name="Edipol_quadrupol">      0.00000000 </i>
    <i name="Eion">      0.00000000 </i>
   </dipole>
   <energy>
    <i name="e_fr_energy">   -187.97837348 </i>
    <i name="e_wo_entrp">   -187.74594184 </i>
    <i name="e_0_energy">   -187.86215766 </i>
   </energy>
  </scstep>
  <scstep>
   <time name="diag">    1.67    1.67</time>
   <time name="diis">    4.54    4.55</time>
   <time name="orth">    0.41    0.41</time>
   <time name="total">    6.99    6.99</time>
   <dipole>
    <v name="dipole">      0.00000000       0.00000000       0.07110496 </v>
    <i name="Tr[quadrupol]"> -10255.96909545 </i>
    <i name="Echarged">      0.00000000 </i>
    <i name="Edipol_quadrupol">      0.00000000 </i>
    <i name="Eion">      0.00000000 </i>
   </dipole>
   <energy>
    <i name="e_fr_energy">   -187.87304323 </i>
    <i name="e_wo_entrp">   -187.62560760 </i>
    <i name="e_0_energy">   -187.74932541 </i>
   </energy>
  </scstep>
  <scstep>
   <time name="diag">    1.66    1.66</time>
   <time name="diis">    4.41    4.49</time>
   <time name="orth">    0.40    0.40</time>
   <time name="total">    6.84    6.92</time>
   <dipole>
    <v name="dipole">      0.00000000       0.00000000       0.05717891 </v>
    <i name="Tr[quadrupol]"> -10256.09665528 </i>
    <i name="Echarged">      0.00000000 </i>
    <i name="Edipol_quadrupol">      0.00000000 </i>
    <i name="Eion">      0.00000000 </i>
   </dipole>
   <energy>
    <i name="e_fr_energy">   -187.85712714 </i>
    <i name="e_wo_entrp">   -187.60791206 </i>
    <i name="e_0_energy">   -187.73251960 </i>
   </energy>
  </scstep>
  <scstep>
   <time name="diag">    1.67    1.67</time>
   <time name="diis">    4.55    4.57</time>
   <time name="orth">    0.49    0.49</time>
   <time name="total">    7.21    7.23</time>
   <dipole>
    <v name="dipole">      0.00000000       0.00000000       0.03985673 </v>
    <i name="Tr[quadrupol]"> -10256.19010089 </i>
    <i name="Echarged">      0.00000000 </i>
    <i name="Edipol_quadrupol">      0.00000000 </i>
    <i name="Eion">      0.00000000 </i>
   </dipole>
   <energy>
    <i name="e_fr_energy">   -187.84458148 </i>
    <i name="e_wo_entrp">   -187.58972133 </i>
    <i name="e_0_energy">   -187.71715141 </i>
   </energy>
  </scstep>
  <scstep>
   <time name="diag">    1.96    1.97</time>
   <time name="diis">    4.51    4.51</time>
   <time name="orth">    0.40    0.40</time>
   <time name="total">    7.25    7.27</time>
   <dipole>
    <v name="dipole">      0.00000000       0.00000000       0.03635275 </v>
    <i name="Tr[quadrupol]"> -10256.26085383 </i>
    <i name="Echarged">      0.00000000 </i>
    <i name="Edipol_quadrupol">      0.00000000 </i>
    <i name="Eion">      0.00000000 </i>
   </dipole>
   <energy>
    <i name="e_fr_energy">   -187.84169562 </i>
    <i name="e_wo_entrp">   -187.58658223 </i>
    <i name="e_0_energy">   -187.71413893 </i>
   </energy>
  </scstep>
  <scstep>
   <time name="diag">    1.66    1.66</time>
   <time name="diis">    4.54    4.54</time>
   <time name="orth">    0.41    0.41</time>
   <time name="total">    6.97    6.97</time>
   <dipole>
    <v name="dipole">      0.00000000       0.00000000       0.03439574 </v>
    <i name="Tr[quadrupol]"> -10256.40521435 </i>
    <i name="Echarged">      0.00000000 </i>
    <i name="Edipol_quadrupol">      0.00000000 </i>
    <i name="Eion">      0.00000000 </i>
   </dipole>
   <energy>
    <i name="e_fr_energy">   -187.83907554 </i>
    <i name="e_wo_entrp">   -187.58521280 </i>
    <i name="e_0_energy">   -187.71214417 </i>
   </energy>
  </scstep>
  <scstep>
   <time name="diag">    1.65    1.65</time>
   <time name="diis">    4.55    4.55</time>
   <time name="orth">    0.41    0.41</time>
   <time name="total">    6.96    6.96</time>
   <dipole>
    <v name="dipole">      0.00000000       0.00000000       0.03329076 </v>
    <i name="Tr[quadrupol]"> -10256.56075809 </i>
    <i name="Echarged">      0.00000000 </i>
    <i name="Edipol_quadrupol">      0.00000000 </i>
    <i name="Eion">      0.00000000 </i>
   </dipole>
   <energy>
    <i name="e_fr_energy">   -187.83804381 </i>
    <i name="e_wo_entrp">   -187.58478068 </i>
    <i name="e_0_energy">   -187.71141225 </i>
   </energy>
  </scstep>
  <scstep>
   <time name="diag">    1.67    1.67</time>
   <time name="diis">    4.53    4.53</time>
   <time name="orth">    0.41    0.41</time>
   <time name="total">    6.97    6.98</time>
   <dipole>
    <v name="dipole">      0.00000000       0.00000000       0.03145795 </v>
    <i name="Tr[quadrupol]"> -10256.67214818 </i>
    <i name="Echarged">      0.00000000 </i>
    <i name="Edipol_quadrupol">      0.00000000 </i>
    <i name="Eion">      0.00000000 </i>
   </dipole>
   <energy>
    <i name="e_fr_energy">   -187.83752243 </i>
    <i name="e_wo_entrp">   -187.58295385 </i>
    <i name="e_0_energy">   -187.71023814 </i>
   </energy>
  </scstep>
  <scstep>
   <time name="diag">    1.67    1.67</time>
   <time name="diis">    4.36    4.43</time>
   <time name="orth">    0.41    0.41</time>
   <time name="total">    6.79    6.87</time>
   <dipole>
    <v name="dipole">      0.00000000       0.00000000       0.02841416 </v>
    <i name="Tr[quadrupol]"> -10256.73689744 </i>
    <i name="Echarged">      0.00000000 </i>
    <i name="Edipol_quadrupol">      0.00000000 </i>
    <i name="Eion">      0.00000000 </i>
   </dipole>
   <energy>
    <i name="e_fr_energy">   -187.83743836 </i>
    <i name="e_wo_entrp">   -187.58207558 </i>
    <i name="e_0_energy">   -187.70975697 </i>
   </energy>
  </scstep>
  <scstep>
   <time name="diag">    1.66    1.66</time>
   <time name="diis">    4.55    4.56</time>
   <time name="orth">    0.40    0.40</time>
   <time name="total">    6.98    6.99</time>
   <dipole>
    <v name="dipole">      0.00000000       0.00000000       0.02491175 </v>
    <i name="Tr[quadrupol]"> -10256.80860486 </i>
    <i name="Echarged">      0.00000000 </i>
    <i name="Edipol_quadrupol">      0.00000000 </i>
    <i name="Eion">      0.00000000 </i>
   </dipole>
   <energy>
    <i name="e_fr_energy">   -187.83764522 </i>
    <i name="e_wo_entrp">   -187.58245412 </i>
    <i name="e_0_energy">   -187.71004967 </i>
   </energy>
  </scstep>
  <scstep>
   <time name="diag">    1.65    1.65</time>
   <time name="diis">    4.53    4.54</time>
   <time name="orth">    0.40    0.40</time>
   <time name="total">    6.95    6.95</time>
   <dipole>
    <v name="dipole">      0.00000000       0.00000000       0.02201129 </v>
    <i name="Tr[quadrupol]"> -10256.89951030 </i>
    <i name="Echarged">      0.00000000 </i>
    <i name="Edipol_quadrupol">      0.00000000 </i>
    <i name="Eion">      0.00000000 </i>
   </dipole>
   <energy>
    <i name="e_fr_energy">   -187.83803446 </i>
    <i name="e_wo_entrp">   -187.58232891 </i>
    <i name="e_0_energy">   -187.71018169 </i>
   </energy>
  </scstep>
  <scstep>
   <time name="diag">    1.67    1.67</time>
   <time name="diis">    4.51    4.51</time>
   <time name="orth">    0.40    0.40</time>
   <time name="total">    6.95    6.96</time>
   <dipole>
    <v name="dipole">      0.00000000       0.00000000       0.02000088 </v>
    <i name="Tr[quadrupol]"> -10256.97216147 </i>
    <i name="Echarged">      0.00000000 </i>
    <i name="Edipol_quadrupol">      0.00000000 </i>
    <i name="Eion">      0.00000000 </i>
   </dipole>
   <energy>
    <i name="e_fr_energy">   -187.83842222 </i>
    <i name="e_wo_entrp">   -187.58281067 </i>
    <i name="e_0_energy">   -187.71061645 </i>
   </energy>
  </scstep>
  <scstep>
   <time name="diag">    1.67    1.67</time>
   <time name="diis">    5.04    5.07</time>
   <time name="orth">    0.40    0.40</time>
   <time name="total">    7.47    7.51</time>
   <dipole>
    <v name="dipole">      0.00000000       0.00000000       0.01752982 </v>
    <i name="Tr[quadrupol]"> -10257.05754809 </i>
    <i name="Echarged">      0.00000000 </i>
    <i name="Edipol_quadrupol">      0.00000000 </i>
    <i name="Eion">      0.00000000 </i>
   </dipole>
   <energy>
    <i name="e_fr_energy">   -187.83911564 </i>
    <i name="e_wo_entrp">   -187.58400744 </i>
    <i name="e_0_energy">   -187.71156154 </i>
   </energy>
  </scstep>
  <scstep>
   <time name="diag">    1.66    1.66</time>
   <time name="diis">    4.21    4.21</time>
   <time name="orth">    0.40    0.40</time>
   <time name="total">    6.63    6.64</time>
   <dipole>
    <v name="dipole">      0.00000000       0.00000000       0.01593060 </v>
    <i name="Tr[quadrupol]"> -10257.09236731 </i>
    <i name="Echarged">      0.00000000 </i>
    <i name="Edipol_quadrupol">      0.00000000 </i>
    <i name="Eion">      0.00000000 </i>
   </dipole>
   <energy>
    <i name="e_fr_energy">   -187.83941743 </i>
    <i name="e_wo_entrp">   -187.58412440 </i>
    <i name="e_0_energy">   -187.71177091 </i>
   </energy>
  </scstep>
  <scstep>
   <time name="diag">    1.66    1.66</time>
   <time name="diis">    4.38    4.46</time>
   <time name="orth">    0.40    0.40</time>
   <time name="total">    6.81    6.89</time>
   <dipole>
    <v name="dipole">      0.00000000       0.00000000       0.01232832 </v>
    <i name="Tr[quadrupol]"> -10257.17054469 </i>
    <i name="Echarged">      0.00000000 </i>
    <i name="Edipol_quadrupol">      0.00000000 </i>
    <i name="Eion">      0.00000000 </i>
   </dipole>
   <energy>
    <i name="e_fr_energy">   -187.84019153 </i>
    <i name="e_wo_entrp">   -187.58486242 </i>
    <i name="e_0_energy">   -187.71252698 </i>
   </energy>
  </scstep>
  <scstep>
   <time name="diag">    1.67    1.67</time>
   <time name="diis">    4.11    4.11</time>
   <time name="orth">    0.40    0.40</time>
   <time name="total">    6.55    6.56</time>
   <dipole>
    <v name="dipole">      0.00000000       0.00000000       0.01004041 </v>
    <i name="Tr[quadrupol]"> -10257.21575007 </i>
    <i name="Echarged">      0.00000000 </i>
    <i name="Edipol_quadrupol">      0.00000000 </i>
    <i name="Eion">      0.00000000 </i>
   </dipole>
   <energy>
    <i name="e_fr_energy">   -187.84054196 </i>
    <i name="e_wo_entrp">   -187.58515832 </i>
    <i name="e_0_energy">   -187.71285014 </i>
   </energy>
  </scstep>
  <scstep>
   <time name="diag">    1.67    1.67</time>
   <time name="diis">    3.62    3.62</time>
   <time name="orth">    0.40    0.40</time>
   <time name="total">    6.05    6.06</time>
   <dipole>
    <v name="dipole">      0.00000000       0.00000000       0.00868859 </v>
    <i name="Tr[quadrupol]"> -10257.24575324 </i>
    <i name="Echarged">      0.00000000 </i>
    <i name="Edipol_quadrupol">      0.00000000 </i>
    <i name="Eion">      0.00000000 </i>
   </dipole>
   <energy>
    <i name="e_fr_energy">   -187.84075003 </i>
    <i name="e_wo_entrp">   -187.58545892 </i>
    <i name="e_0_energy">   -187.71310448 </i>
   </energy>
  </scstep>
  <scstep>
   <time name="diag">    1.65    1.65</time>
   <time name="diis">    3.15    3.15</time>
   <time name="orth">    0.41    0.41</time>
   <time name="total">    5.57    5.58</time>
   <dipole>
    <v name="dipole">      0.00000000       0.00000000       0.00803093 </v>
    <i name="Tr[quadrupol]"> -10257.25612364 </i>
    <i name="Echarged">      0.00000000 </i>
    <i name="Edipol_quadrupol">      0.00000000 </i>
    <i name="Eion">      0.00000000 </i>
   </dipole>
   <energy>
    <i name="e_fr_energy">   -187.84082481 </i>
    <i name="e_wo_entrp">   -187.58552875 </i>
    <i name="e_0_energy">   -187.71317678 </i>
   </energy>
  </scstep>
  <scstep>
   <time name="diag">    1.65    1.66</time>
   <time name="diis">    2.95    2.96</time>
   <time name="orth">    0.40    0.40</time>
   <time name="total">    5.38    5.39</time>
   <dipole>
    <v name="dipole">      0.00000000       0.00000000       0.00710333 </v>
    <i name="Tr[quadrupol]"> -10257.26945627 </i>
    <i name="Echarged">      0.00000000 </i>
    <i name="Edipol_quadrupol">      0.00000000 </i>
    <i name="Eion">      0.00000000 </i>
   </dipole>
   <energy>
    <i name="e_fr_energy">   -187.84092039 </i>
    <i name="e_wo_entrp">   -187.58562253 </i>
    <i name="e_0_energy">   -187.71327146 </i>
   </energy>
  </scstep>
  <scstep>
   <time name="diag">    1.66    1.66</time>
   <time name="diis">    2.75    2.75</time>
   <time name="orth">    0.39    0.39</time>
   <time name="total">    5.18    5.19</time>
   <dipole>
    <v name="dipole">      0.00000000       0.00000000       0.00663754 </v>
    <i name="Tr[quadrupol]"> -10257.27482298 </i>
    <i name="Echarged">      0.00000000 </i>
    <i name="Edipol_quadrupol">      0.00000000 </i>
    <i name="Eion">      0.00000000 </i>
   </dipole>
   <energy>
    <i name="e_fr_energy">   -187.84095559 </i>
    <i name="e_wo_entrp">   -187.58564162 </i>
    <i name="e_0_energy">   -187.71329861 </i>
   </energy>
  </scstep>
  <scstep>
   <time name="diag">    1.65    1.65</time>
   <time name="diis">    2.74    2.74</time>
   <time name="orth">    0.39    0.39</time>
   <time name="total">    5.15    5.15</time>
   <dipole>
    <v name="dipole">      0.00000000       0.00000000       0.00600980 </v>
    <i name="Tr[quadrupol]"> -10257.28153151 </i>
    <i name="Echarged">      0.00000000 </i>
    <i name="Edipol_quadrupol">      0.00000000 </i>
    <i name="Eion">      0.00000000 </i>
   </dipole>
   <energy>
    <i name="e_fr_energy">   -187.84099499 </i>
    <i name="e_wo_entrp">   -187.58568194 </i>
    <i name="e_0_energy">   -187.71333847 </i>
   </energy>
  </scstep>
  <scstep>
   <time name="diag">    1.64    1.64</time>
   <time name="diis">    2.64    2.69</time>
   <time name="orth">    0.38    0.40</time>
   <time name="total">    5.03    5.11</time>
   <dipole>
    <v name="dipole">      0.00000000       0.00000000       0.00558905 </v>
    <i name="Tr[quadrupol]"> -10257.28596566 </i>
    <i name="Echarged">      0.00000000 </i>
    <i name="Edipol_quadrupol">      0.00000000 </i>
    <i name="Eion">      0.00000000 </i>
   </dipole>
   <energy>
    <i name="e_fr_energy">   -187.84101463 </i>
    <i name="e_wo_entrp">   -187.58570809 </i>
    <i name="e_0_energy">   -187.71336136 </i>
   </energy>
  </scstep>
  <scstep>
   <time name="diag">    1.64    1.64</time>
   <time name="diis">    3.17    3.19</time>
   <time name="orth">    0.48    0.48</time>
   <time name="total">    5.78    5.80</time>
   <dipole>
    <v name="dipole">      0.00000000       0.00000000       0.00506813 </v>
    <i name="Tr[quadrupol]"> -10257.29173782 </i>
    <i name="Echarged">      0.00000000 </i>
    <i name="Edipol_quadrupol">      0.00000000 </i>
    <i name="Eion">      0.00000000 </i>
   </dipole>
   <energy>
    <i name="e_fr_energy">   -187.84102855 </i>
    <i name="e_wo_entrp">   -187.58573128 </i>
    <i name="e_0_energy">   -187.71337991 </i>
   </energy>
  </scstep>
  <scstep>
   <time name="diag">    1.67    1.67</time>
   <time name="diis">    2.22    2.22</time>
   <time name="orth">    0.39    0.39</time>
   <time name="total">    4.67    4.67</time>
   <dipole>
    <v name="dipole">      0.00000000       0.00000000       0.00481635 </v>
    <i name="Tr[quadrupol]"> -10257.29474085 </i>
    <i name="Echarged">      0.00000000 </i>
    <i name="Edipol_quadrupol">      0.00000000 </i>
    <i name="Eion">      0.00000000 </i>
   </dipole>
   <energy>
    <i name="e_fr_energy">   -187.84103118 </i>
    <i name="e_wo_entrp">   -187.58573477 </i>
    <i name="e_0_energy">   -187.71338298 </i>
   </energy>
  </scstep>
  <scstep>
   <time name="diag">    1.65    1.65</time>
   <time name="diis">    2.03    2.03</time>
   <time name="orth">    0.39    0.39</time>
   <time name="total">    4.44    4.45</time>
   <dipole>
    <v name="dipole">      0.00000000       0.00000000       0.00465166 </v>
    <i name="Tr[quadrupol]"> -10257.29679786 </i>
    <i name="Echarged">      0.00000000 </i>
    <i name="Edipol_quadrupol">      0.00000000 </i>
    <i name="Eion">      0.00000000 </i>
   </dipole>
   <energy>
    <i name="e_fr_energy">   -187.84103234 </i>
    <i name="e_wo_entrp">   -187.58573332 </i>
    <i name="e_0_energy">   -187.71338283 </i>
   </energy>
  </scstep>
  <scstep>
   <time name="diag">    1.64    1.64</time>
   <time name="diis">    2.16    2.16</time>
   <time name="orth">    0.39    0.39</time>
   <time name="total">    4.56    4.57</time>
   <dipole>
    <v name="dipole">      0.00000000       0.00000000       0.00444782 </v>
    <i name="Tr[quadrupol]"> -10257.29958806 </i>
    <i name="Echarged">      0.00000000 </i>
    <i name="Edipol_quadrupol">      0.00000000 </i>
    <i name="Eion">      0.00000000 </i>
   </dipole>
   <energy>
    <i name="e_fr_energy">   -187.84103384 </i>
    <i name="e_wo_entrp">   -187.58573655 </i>
    <i name="e_0_energy">   -187.71338519 </i>
   </energy>
  </scstep>
  <scstep>
   <time name="diag">    1.64    1.64</time>
   <time name="diis">    2.03    2.03</time>
   <time name="orth">    0.39    0.39</time>
   <time name="total">    4.12    4.12</time>
   <dipole>
    <v name="dipole">      0.00000000       0.00000000       0.00432787 </v>
    <i name="Tr[quadrupol]"> -10257.30132272 </i>
    <i name="Echarged">      0.00000000 </i>
    <i name="Edipol_quadrupol">      0.00000000 </i>
    <i name="Eion">      0.00000000 </i>
   </dipole>
   <energy>
    <i name="alphaZ">    805.87141865 </i>
    <i name="ewald"> 200416.88182294 </i>
    <i name="hartreedc">-242595.55275408 </i>
    <i name="XCdc">   -343.24029166 </i>
    <i name="pawpsdc">  49445.01855720 </i>
    <i name="pawaedc"> -47523.26705718 </i>
    <i name="eentropy">     -0.25529550 </i>
    <i name="bandstr">  -2053.08330726 </i>
    <i name="atom">  41659.78587232 </i>
    <i name="e_fr_energy">   -187.84103456 </i>
    <i name="e_wo_entrp">   -187.58573906 </i>
    <i name="e_0_energy">   -187.71338681 </i>
   </energy>
  </scstep>
  <structure>
   <crystal>
    <varray name="basis" >
     <v>      11.00258152       0.00000000       0.00000000 </v>
     <v>       5.50129076       9.52851510       0.00000000 </v>
     <v>       0.00000000       0.00000000      24.49178509 </v>
    </varray>
    <i name="volume">   2567.67623402 </i>
    <varray name="rec_basis" >
     <v>       0.09088776      -0.05247407       0.00000000 </v>
     <v>       0.00000000       0.10494815       0.00000000 </v>
     <v>       0.00000000       0.00000000       0.04083002 </v>
    </varray>
   </crystal>
   <varray name="positions" >
    <v>       0.08333333       0.08333333       0.40830017 </v>
    <v>       0.75000000       0.50000000       0.59169983 </v>
    <v>       0.66666667       0.66666667       0.50000000 </v>
    <v>       0.83333333       0.58333333       0.40830017 </v>
    <v>       0.66666667       0.41666667       0.50000000 </v>
    <v>       0.83333333       0.33333333       0.40830017 </v>
    <v>       0.75000000       0.00000000       0.59169983 </v>
    <v>       0.83333333       0.08333333       0.40830017 </v>
    <v>       0.58333333       0.83333333       0.40830017 </v>
    <v>       0.41666667       0.66666667       0.50000000 </v>
    <v>       0.58333333       0.58333333       0.40830017 </v>
    <v>       0.50000000       0.00000000       0.59169983 </v>
    <v>       0.16666667       0.91666667       0.50000000 </v>
    <v>       0.33333333       0.83333333       0.40830017 </v>
    <v>       0.25000000       0.50000000       0.59169983 </v>
    <v>       0.33333333       0.58333333       0.40830017 </v>
    <v>       0.75000000       0.75000000       0.59169983 </v>
    <v>       0.91666667       0.16666667       0.50000000 </v>
    <v>       0.16666667       0.16666667       0.50000000 </v>
    <v>       0.91666667       0.41666667       0.50000000 </v>
    <v>       0.00000000       0.75000000       0.59169983 </v>
    <v>       0.08333333       0.58333333       0.40830017 </v>
    <v>       0.91666667       0.66666667       0.50000000 </v>
    <v>       0.91666667       0.91666667       0.50000000 </v>
    <v>       0.25000000       0.25000000       0.59169983 </v>
    <v>       0.83333333       0.83333333       0.40830017 </v>
    <v>       0.00000000       0.00000000       0.59169983 </v>
    <v>       0.08333333       0.33333333       0.40830017 </v>
    <v>       0.75000000       0.25000000       0.59169983 </v>
    <v>       0.00000000       0.25000000       0.59169983 </v>
    <v>       0.66666667       0.16666667       0.50000000 </v>
    <v>       0.50000000       0.75000000       0.59169983 </v>
    <v>       0.41666667       0.91666667       0.50000000 </v>
    <v>       0.50000000       0.50000000       0.59169983 </v>
    <v>       0.16666667       0.41666667       0.50000000 </v>
    <v>       0.08333333       0.83333333       0.40830017 </v>
    <v>       0.50000000       0.25000000       0.59169983 </v>
    <v>       0.41666667       0.41666667       0.50000000 </v>
    <v>       0.58333333       0.33333333       0.40830017 </v>
    <v>       0.41666667       0.16666667       0.50000000 </v>
    <v>       0.58333333       0.08333333       0.40830017 </v>
    <v>       0.66666667       0.91666667       0.50000000 </v>
    <v>       0.33333333       0.08333333       0.40830017 </v>
    <v>       0.25000000       0.00000000       0.59169983 </v>
    <v>       0.16666667       0.66666667       0.50000000 </v>
    <v>       0.33333333       0.33333333       0.40830017 </v>
    <v>       0.00000000       0.50000000       0.59169983 </v>
    <v>       0.25000000       0.75000000       0.59169983 </v>
   </varray>
  </structure>
  <varray name="forces" >
   <v>       0.26902908      -0.00305345      -1.88572347 </v>
   <v>      -0.11973305      -0.22408140       1.80772900 </v>
   <v>      -0.19507162       0.68225993       0.35719181 </v>
   <v>       0.29111278       0.01695754      -1.88843485 </v>
   <v>      -0.90021339      -0.50175795       0.36482911 </v>
   <v>      -0.01670404      -0.03180283      -1.91597398 </v>
   <v>       0.09643967       0.52199497       1.38912489 </v>
   <v>      -0.52348340      -0.11015189      -1.59829485 </v>
   <v>       0.25464506       0.64257656      -1.37057318 </v>
   <v>      -0.34018193       0.01317851       0.86159084 </v>
   <v>      -0.16630895      -0.20706902      -1.91685005 </v>
   <v>      -0.33310694       0.22032869       1.11918840 </v>
   <v>       0.02114383      -0.35349616       0.60493000 </v>
   <v>       0.00392815       0.29701609      -1.66783530 </v>
   <v>       0.09520111      -0.21669655       1.07952968 </v>
   <v>      -0.27038540      -0.32009398      -1.40158860 </v>
   <v>      -0.16735815      -0.03531163       1.64466754 </v>
   <v>      -0.28338644      -0.02625470       0.85354165 </v>
   <v>       0.78140554       0.11558682       0.28979595 </v>
   <v>       0.74995369      -0.28958656       0.36036124 </v>
   <v>       0.38267663      -0.10660722       1.63331363 </v>
   <v>       0.17341960      -0.10327754      -1.34121023 </v>
   <v>       0.33001306      -0.00994078      -0.05162883 </v>
   <v>      -0.09945110      -0.08271063      -0.24925632 </v>
   <v>      -0.03501964      -0.01987172       0.58425305 </v>
   <v>      -0.01170403       0.17952864      -0.89265566 </v>
   <v>       0.21094511       0.12973508       0.98713434 </v>
   <v>       0.30629404      -0.05807624      -0.87857141 </v>
   <v>      -0.12705281      -0.05174206       0.82686591 </v>
   <v>       0.12453406      -0.12561147       0.96977381 </v>
   <v>      -0.57323281       0.23521027      -0.02242128 </v>
   <v>      -0.30524260       0.08866304       0.86527378 </v>
   <v>       0.20193190       0.33109311       0.21615558 </v>
   <v>      -0.11991159      -0.08189611       0.78603909 </v>
   <v>       0.33869206      -0.28014614      -0.03394361 </v>
   <v>      -0.14397047      -0.07647887      -0.92555659 </v>
   <v>       0.00280152       0.11756469       0.48945637 </v>
   <v>      -0.24039180      -0.45078915       0.02956941 </v>
   <v>      -0.27664567      -0.15171975      -0.73165467 </v>
   <v>       0.18257366       0.10514983      -0.17773771 </v>
   <v>      -0.12610726       0.18010315      -0.37003845 </v>
   <v>      -0.15388048       0.49601303      -0.35655808 </v>
   <v>       0.29704980       0.23519248      -0.61975661 </v>
   <v>      -0.06148204      -0.05172910       0.80566871 </v>
   <v>       0.14172072      -0.20631656       0.05538458 </v>
   <v>       0.05465834      -0.23970763      -0.37776545 </v>
   <v>       0.08392584      -0.30085179       0.90364320 </v>
   <v>       0.19593035       0.10867645       0.78901763 </v>
  </varray>
  <energy>
   <i name="e_fr_energy">   -187.84103456 </i>
   <i name="e_wo_entrp">   -187.71338681 </i>
   <i name="e_0_energy">     -0.25529550 </i>
  </energy>
  <time name="totalsc">  302.28  303.22</time>
 </calculation>
 <calculation>
  <scstep>
   <time name="dav">    9.56    9.57</time>
   <time name="total">    9.93    9.94</time>
   <dipole>
    <v name="dipole">      0.00000000       0.00000000       0.00425475 </v>
    <i name="Tr[quadrupol]"> -10253.79506991 </i>
    <i name="Echarged">      0.00000000 </i>
    <i name="Edipol_quadrupol">      0.00000000 </i>
    <i name="Eion">      0.00000000 </i>
   </dipole>
   <energy>
    <i name="alphaZ">    805.87141354 </i>
    <i name="ewald"> 197653.36223750 </i>
    <i name="hartreedc">-239849.42954877 </i>
    <i name="XCdc">   -345.54571272 </i>
    <i name="pawpsdc">  49445.01679193 </i>
    <i name="pawaedc"> -47523.26532126 </i>
    <i name="eentropy">     -0.25410369 </i>
    <i name="bandstr">  -2034.59774842 </i>
    <i name="atom">  41659.78587232 </i>
    <i name="e_fr_energy">   -189.05611957 </i>
    <i name="e_wo_entrp">   -188.80201588 </i>
    <i name="e_0_energy">   -188.92906772 </i>
   </energy>
  </scstep>
  <scstep>
   <time name="diag">    1.66    1.66</time>
   <time name="diis">    4.45    4.53</time>
   <time name="orth">    0.39    0.39</time>
   <time name="total">    6.87    6.95</time>
   <dipole>
    <v name="dipole">      0.00000000       0.00000000      -0.00876195 </v>
    <i name="Tr[quadrupol]"> -10253.54582067 </i>
    <i name="Echarged">      0.00000000 </i>
    <i name="Edipol_quadrupol">      0.00000000 </i>
    <i name="Eion">      0.00000000 </i>
   </dipole>
   <energy>
    <i name="e_fr_energy">   -189.49586797 </i>
    <i name="e_wo_entrp">   -189.24073455 </i>
    <i name="e_0_energy">   -189.36830126 </i>
   </energy>
  </scstep>
  <scstep>
   <time name="diag">    1.64    1.64</time>
   <time name="diis">    4.63    4.63</time>
   <time name="orth">    0.39    0.39</time>
   <time name="total">    7.02    7.02</time>
   <dipole>
    <v name="dipole">      0.00000000       0.00000000       0.02516510 </v>
    <i name="Tr[quadrupol]"> -10254.03499790 </i>
    <i name="Echarged">      0.00000000 </i>
    <i name="Edipol_quadrupol">      0.00000000 </i>
    <i name="Eion">      0.00000000 </i>
   </dipole>
   <energy>
    <i name="e_fr_energy">   -189.58663801 </i>
    <i name="e_wo_entrp">   -189.33584457 </i>
    <i name="e_0_energy">   -189.46124129 </i>
   </energy>
  </scstep>
  <scstep>
   <time name="diag">    1.64    1.64</time>
   <time name="diis">    4.56    4.57</time>
   <time name="orth">    0.39    0.39</time>
   <time name="total">    6.96    6.96</time>
   <dipole>
    <v name="dipole">      0.00000000       0.00000000       0.00046332 </v>
    <i name="Tr[quadrupol]"> -10253.90566843 </i>
    <i name="Echarged">      0.00000000 </i>
    <i name="Edipol_quadrupol">      0.00000000 </i>
    <i name="Eion">      0.00000000 </i>
   </dipole>
   <energy>
    <i name="e_fr_energy">   -189.48119468 </i>
    <i name="e_wo_entrp">   -189.22344989 </i>
    <i name="e_0_energy">   -189.35232229 </i>
   </energy>
  </scstep>
  <scstep>
   <time name="diag">    1.64    1.64</time>
   <time name="diis">    4.83    4.85</time>
   <time name="orth">    0.48    0.48</time>
   <time name="total">    7.44    7.46</time>
   <dipole>
    <v name="dipole">      0.00000000       0.00000000      -0.01328763 </v>
    <i name="Tr[quadrupol]"> -10253.88616921 </i>
    <i name="Echarged">      0.00000000 </i>
    <i name="Edipol_quadrupol">      0.00000000 </i>
    <i name="Eion">      0.00000000 </i>
   </dipole>
   <energy>
    <i name="e_fr_energy">   -189.50056383 </i>
    <i name="e_wo_entrp">   -189.25370304 </i>
    <i name="e_0_energy">   -189.37713344 </i>
   </energy>
  </scstep>
  <scstep>
   <time name="diag">    1.77    1.77</time>
   <time name="diis">    4.56    4.56</time>
   <time name="orth">    0.39    0.39</time>
   <time name="total">    7.11    7.11</time>
   <dipole>
    <v name="dipole">      0.00000000       0.00000000      -0.00262572 </v>
    <i name="Tr[quadrupol]"> -10253.89319486 </i>
    <i name="Echarged">      0.00000000 </i>
    <i name="Edipol_quadrupol">      0.00000000 </i>
    <i name="Eion">      0.00000000 </i>
   </dipole>
   <energy>
    <i name="e_fr_energy">   -189.46607736 </i>
    <i name="e_wo_entrp">   -189.20910074 </i>
    <i name="e_0_energy">   -189.33758905 </i>
   </energy>
  </scstep>
  <scstep>
   <time name="diag">    1.63    1.63</time>
   <time name="diis">    4.42    4.43</time>
   <time name="orth">    0.39    0.40</time>
   <time name="total">    6.81    6.84</time>
   <dipole>
    <v name="dipole">      0.00000000       0.00000000      -0.00571211 </v>
    <i name="Tr[quadrupol]"> -10253.84943417 </i>
    <i name="Echarged">      0.00000000 </i>
    <i name="Edipol_quadrupol">      0.00000000 </i>
    <i name="Eion">      0.00000000 </i>
   </dipole>
   <energy>
    <i name="e_fr_energy">   -189.46460717 </i>
    <i name="e_wo_entrp">   -189.20851904 </i>
    <i name="e_0_energy">   -189.33656310 </i>
   </energy>
  </scstep>
  <scstep>
   <time name="diag">    1.62    1.66</time>
   <time name="diis">    4.54    4.54</time>
   <time name="orth">    0.39    0.39</time>
   <time name="total">    6.91    6.96</time>
   <dipole>
    <v name="dipole">      0.00000000       0.00000000       0.00478841 </v>
    <i name="Tr[quadrupol]"> -10253.84303708 </i>
    <i name="Echarged">      0.00000000 </i>
    <i name="Edipol_quadrupol">      0.00000000 </i>
    <i name="Eion">      0.00000000 </i>
   </dipole>
   <energy>
    <i name="e_fr_energy">   -189.46274307 </i>
    <i name="e_wo_entrp">   -189.20875741 </i>
    <i name="e_0_energy">   -189.33575024 </i>
   </energy>
  </scstep>
  <scstep>
   <time name="diag">    1.64    1.64</time>
   <time name="diis">    4.50    4.51</time>
   <time name="orth">    0.39    0.39</time>
   <time name="total">    6.89    6.91</time>
   <dipole>
    <v name="dipole">      0.00000000       0.00000000      -0.00833570 </v>
    <i name="Tr[quadrupol]"> -10253.83940359 </i>
    <i name="Echarged">      0.00000000 </i>
    <i name="Edipol_quadrupol">      0.00000000 </i>
    <i name="Eion">      0.00000000 </i>
   </dipole>
   <energy>
    <i name="e_fr_energy">   -189.46281348 </i>
    <i name="e_wo_entrp">   -189.20386620 </i>
    <i name="e_0_energy">   -189.33333984 </i>
   </energy>
  </scstep>
  <scstep>
   <time name="diag">    1.66    1.66</time>
   <time name="diis">    4.56    4.56</time>
   <time name="orth">    0.39    0.39</time>
   <time name="total">    6.97    6.98</time>
   <dipole>
    <v name="dipole">      0.00000000       0.00000000      -0.00105561 </v>
    <i name="Tr[quadrupol]"> -10253.83224470 </i>
    <i name="Echarged">      0.00000000 </i>
    <i name="Edipol_quadrupol">      0.00000000 </i>
    <i name="Eion">      0.00000000 </i>
   </dipole>
   <energy>
    <i name="e_fr_energy">   -189.46213373 </i>
    <i name="e_wo_entrp">   -189.20680749 </i>
    <i name="e_0_energy">   -189.33447061 </i>
   </energy>
  </scstep>
  <scstep>
   <time name="diag">    1.63    1.64</time>
   <time name="diis">    4.59    4.59</time>
   <time name="orth">    0.39    0.39</time>
   <time name="total">    6.97    6.98</time>
   <dipole>
    <v name="dipole">      0.00000000       0.00000000      -0.00212071 </v>
    <i name="Tr[quadrupol]"> -10253.83532075 </i>
    <i name="Echarged">      0.00000000 </i>
    <i name="Edipol_quadrupol">      0.00000000 </i>
    <i name="Eion">      0.00000000 </i>
   </dipole>
   <energy>
    <i name="e_fr_energy">   -189.46203787 </i>
    <i name="e_wo_entrp">   -189.20574830 </i>
    <i name="e_0_energy">   -189.33389309 </i>
   </energy>
  </scstep>
  <scstep>
   <time name="diag">    1.64    1.64</time>
   <time name="diis">    4.52    4.53</time>
   <time name="orth">    0.39    0.39</time>
   <time name="total">    6.91    6.93</time>
   <dipole>
    <v name="dipole">      0.00000000       0.00000000      -0.00181924 </v>
    <i name="Tr[quadrupol]"> -10253.83930161 </i>
    <i name="Echarged">      0.00000000 </i>
    <i name="Edipol_quadrupol">      0.00000000 </i>
    <i name="Eion">      0.00000000 </i>
   </dipole>
   <energy>
    <i name="e_fr_energy">   -189.46202583 </i>
    <i name="e_wo_entrp">   -189.20578297 </i>
    <i name="e_0_energy">   -189.33390440 </i>
   </energy>
  </scstep>
  <scstep>
   <time name="diag">    1.64    1.64</time>
   <time name="diis">    4.46    4.54</time>
   <time name="orth">    0.39    0.39</time>
   <time name="total">    6.86    6.94</time>
   <dipole>
    <v name="dipole">      0.00000000       0.00000000      -0.00140717 </v>
    <i name="Tr[quadrupol]"> -10253.84380585 </i>
    <i name="Echarged">      0.00000000 </i>
    <i name="Edipol_quadrupol">      0.00000000 </i>
    <i name="Eion">      0.00000000 </i>
   </dipole>
   <energy>
    <i name="e_fr_energy">   -189.46201818 </i>
    <i name="e_wo_entrp">   -189.20598701 </i>
    <i name="e_0_energy">   -189.33400259 </i>
   </energy>
  </scstep>
  <scstep>
   <time name="diag">    1.65    1.66</time>
   <time name="diis">    5.13    5.16</time>
   <time name="orth">    0.39    0.39</time>
   <time name="total">    7.54    7.58</time>
   <dipole>
    <v name="dipole">      0.00000000       0.00000000      -0.00149639 </v>
    <i name="Tr[quadrupol]"> -10253.84733821 </i>
    <i name="Echarged">      0.00000000 </i>
    <i name="Edipol_quadrupol">      0.00000000 </i>
    <i name="Eion">      0.00000000 </i>
   </dipole>
   <energy>
    <i name="e_fr_energy">   -189.46201518 </i>
    <i name="e_wo_entrp">   -189.20596487 </i>
    <i name="e_0_energy">   -189.33399002 </i>
   </energy>
  </scstep>
  <scstep>
   <time name="diag">    1.63    1.63</time>
   <time name="diis">    3.08    3.09</time>
   <time name="orth">    0.39    0.39</time>
   <time name="total">    5.16    5.18</time>
   <dipole>
    <v name="dipole">      0.00000000       0.00000000      -0.00162832 </v>
    <i name="Tr[quadrupol]"> -10253.84891814 </i>
    <i name="Echarged">      0.00000000 </i>
    <i name="Edipol_quadrupol">      0.00000000 </i>
    <i name="Eion">      0.00000000 </i>
   </dipole>
   <energy>
    <i name="alphaZ">    805.86857969 </i>
    <i name="ewald"> 197653.36223750 </i>
    <i name="hartreedc">-239852.10148688 </i>
    <i name="XCdc">   -345.47965422 </i>
    <i name="pawpsdc">  48965.54676538 </i>
    <i name="pawaedc"> -47040.66834296 </i>
    <i name="eentropy">     -0.25604151 </i>
    <i name="bandstr">  -2035.51994463 </i>
    <i name="atom">  41659.78587232 </i>
    <i name="e_fr_energy">   -189.46201532 </i>
    <i name="e_wo_entrp">   -189.20597381 </i>
    <i name="e_0_energy">   -189.33399456 </i>
   </energy>
  </scstep>
  <structure>
   <crystal>
    <varray name="basis" >
     <v>      11.00258152       0.00000000       0.00000000 </v>
     <v>       5.50129076       9.52851510       0.00000000 </v>
     <v>       0.00000000       0.00000000      24.49178509 </v>
    </varray>
    <i name="volume">   2567.67623402 </i>
    <varray name="rec_basis" >
     <v>       0.09088776      -0.05247407       0.00000000 </v>
     <v>       0.00000000       0.10494815       0.00000000 </v>
     <v>       0.00000000       0.00000000       0.04083002 </v>
    </varray>
   </crystal>
   <varray name="positions" >
    <v>       0.08416447       0.08332251       0.40570009 </v>
    <v>       0.75002959       0.49920584       0.59419237 </v>
    <v>       0.66485895       0.66908465       0.50049250 </v>
    <v>       0.83419679       0.58339343       0.40569635 </v>
    <v>       0.66479281       0.41488839       0.50050304 </v>
    <v>       0.83333842       0.33322062       0.40565838 </v>
    <v>       0.74937100       0.00184999       0.59361519 </v>
    <v>       0.83192182       0.08294295       0.40609640 </v>
    <v>       0.58297623       0.83561068       0.40641039 </v>
    <v>       0.41559920       0.66671337       0.50118798 </v>
    <v>       0.58318982       0.58259946       0.40565717 </v>
    <v>       0.49858717       0.00078086       0.59324299 </v>
    <v>       0.16735797       0.91541385       0.50083409 </v>
    <v>       0.33281906       0.83438598       0.40600052 </v>
    <v>       0.25067619       0.49923201       0.59318831 </v>
    <v>       0.33307067       0.58219889       0.40636763 </v>
    <v>       0.74954891       0.74987485       0.59396754 </v>
    <v>       0.91584340       0.16657362       0.50117688 </v>
    <v>       0.16886018       0.16707632       0.50039958 </v>
    <v>       0.91948163       0.41564035       0.50049687 </v>
    <v>       0.00136345       0.74962218       0.59395188 </v>
    <v>       0.08404862       0.58296731       0.40645088 </v>
    <v>       0.91769718       0.66663144       0.49992881 </v>
    <v>       0.91650799       0.91637353       0.49965632 </v>
    <v>       0.24992773       0.24992957       0.59250541 </v>
    <v>       0.83297928       0.83396960       0.40706935 </v>
    <v>       0.00041755       0.00045979       0.59306092 </v>
    <v>       0.08437634       0.33312751       0.40708877 </v>
    <v>       0.74970173       0.24981662       0.59283993 </v>
    <v>       0.00060482       0.24955482       0.59303698 </v>
    <v>       0.66449046       0.16750027       0.49996909 </v>
    <v>       0.49890601       0.75031423       0.59289289 </v>
    <v>       0.41669974       0.91784009       0.50029804 </v>
    <v>       0.49977708       0.49970975       0.59278364 </v>
    <v>       0.16820263       0.41567381       0.49995320 </v>
    <v>       0.08302697       0.83306229       0.40702399 </v>
    <v>       0.49980027       0.25041666       0.59237470 </v>
    <v>       0.41672766       0.41506903       0.50004077 </v>
    <v>       0.58275309       0.33279563       0.40729135 </v>
    <v>       0.41704070       0.16703933       0.49975493 </v>
    <v>       0.58262713       0.08397163       0.40778995 </v>
    <v>       0.66531541       0.91842458       0.49950837 </v>
    <v>       0.33382829       0.08416688       0.40744563 </v>
    <v>       0.24990296      -0.00018333       0.59281071 </v>
    <v>       0.16746725       0.66593546       0.50007637 </v>
    <v>       0.33392587       0.33248379       0.40777930 </v>
    <v>       0.00079071       0.49893376       0.59294580 </v>
    <v>       0.25040878       0.75038516       0.59278775 </v>
   </varray>
  </structure>
  <varray name="forces" >
   <v>       0.08278931       0.03944476      -1.14312738 </v>
   <v>      -0.08466257      -0.15597665       1.20545931 </v>
   <v>      -0.07903096       0.14854237       0.04999029 </v>
   <v>       0.09001771       0.01998517      -1.22025927 </v>
   <v>      -0.24435113      -0.10105506       0.05002641 </v>
   <v>       0.01015405      -0.06249804      -1.15408782 </v>
   <v>       0.06221004       0.22790950       0.97507599 </v>
   <v>      -0.21638258      -0.00199658      -1.09903387 </v>
   <v>       0.10458266       0.28045805      -1.01939574 </v>
   <v>      -0.11444041      -0.06083296       0.16303253 </v>
   <v>      -0.08773760      -0.04351314      -1.17935739 </v>
   <v>      -0.14956795       0.14103384       0.86001926 </v>
   <v>       0.04231728      -0.03019842       0.11050554 </v>
   <v>       0.01074728       0.08602987      -1.07399238 </v>
   <v>       0.06450186      -0.12511312       0.84436980 </v>
   <v>      -0.06536227      -0.14663763      -0.97340669 </v>
   <v>      -0.02386526       0.03022476       1.15611408 </v>
   <v>      -0.06865735      -0.02837581       0.17908758 </v>
   <v>       0.28136892      -0.09175577       0.03472449 </v>
   <v>       0.13744037      -0.02857843       0.06610379 </v>
   <v>       0.19113229      -0.01044629       1.17966090 </v>
   <v>       0.09193499      -0.06867667      -1.00431183 </v>
   <v>       0.10642085       0.00212856       0.01737374 </v>
   <v>      -0.10820491      -0.00240561      -0.05795887 </v>
   <v>      -0.00836952      -0.00552289       0.54402145 </v>
   <v>      -0.01037451       0.06218006      -0.69170833 </v>
   <v>       0.09370434       0.04232828       0.81087921 </v>
   <v>       0.16095910      -0.04732232      -0.66475089 </v>
   <v>      -0.09107658      -0.00944890       0.76732241 </v>
   <v>       0.10033684      -0.09716469       0.80634730 </v>
   <v>      -0.32191196      -0.00636422      -0.03332126 </v>
   <v>      -0.17427278       0.04719332       0.75930131 </v>
   <v>       0.08052011       0.17849272       0.02635920 </v>
   <v>      -0.08892017      -0.06843392       0.71725189 </v>
   <v>       0.31846623      -0.05995437      -0.03923230 </v>
   <v>      -0.04040504      -0.00719875      -0.65909037 </v>
   <v>      -0.02418840       0.07622308       0.44608787 </v>
   <v>      -0.24395820      -0.17813875      -0.01262537 </v>
   <v>      -0.14718139      -0.08181843      -0.60289576 </v>
   <v>       0.14677073       0.01720842      -0.02965219 </v>
   <v>      -0.07670957       0.16202040      -0.39055272 </v>
   <v>      -0.04165952       0.27657443      -0.03377808 </v>
   <v>       0.17047992       0.18039024      -0.50677646 </v>
   <v>      -0.06621187      -0.00955126       0.68556777 </v>
   <v>       0.05179323      -0.23016740       0.02294553 </v>
   <v>       0.02587746      -0.17384380      -0.37597439 </v>
   <v>       0.06761650      -0.13627608       0.70665854 </v>
   <v>       0.08536039       0.05089814       0.78100317 </v>
  </varray>
  <energy>
   <i name="e_fr_energy">   -189.46201532 </i>
   <i name="e_wo_entrp">   -189.33399456 </i>
   <i name="e_0_energy">     -0.25604151 </i>
  </energy>
  <time name="totalsc">  109.41  109.81</time>
 </calculation>
 <calculation>
  <scstep>
   <time name="dav">    9.52    9.53</time>
   <time name="total">    9.88    9.89</time>
   <dipole>
    <v name="dipole">      0.00000000       0.00000000      -0.00159813 </v>
    <i name="Tr[quadrupol]"> -10248.09362674 </i>
    <i name="Echarged">      0.00000000 </i>
    <i name="Edipol_quadrupol">      0.00000000 </i>
    <i name="Eion">      0.00000000 </i>
   </dipole>
   <energy>
    <i name="alphaZ">    805.86857419 </i>
    <i name="ewald"> 192733.85495400 </i>
    <i name="hartreedc">-234959.30662769 </i>
    <i name="XCdc">   -349.07327456 </i>
    <i name="pawpsdc">  48965.36911071 </i>
    <i name="pawaedc"> -47040.49068174 </i>
    <i name="eentropy">     -0.25397210 </i>
    <i name="bandstr">  -2005.32327747 </i>
    <i name="atom">  41659.78587232 </i>
    <i name="e_fr_energy">   -189.56932235 </i>
    <i name="e_wo_entrp">   -189.31535025 </i>
    <i name="e_0_energy">   -189.44233630 </i>
   </energy>
  </scstep>
  <scstep>
   <time name="diag">    1.65    1.65</time>
   <time name="diis">    4.45    4.47</time>
   <time name="orth">    0.39    0.39</time>
   <time name="total">    6.85    6.87</time>
   <dipole>
    <v name="dipole">      0.00000000       0.00000000      -0.01977029 </v>
    <i name="Tr[quadrupol]"> -10247.59904748 </i>
    <i name="Echarged">      0.00000000 </i>
    <i name="Edipol_quadrupol">      0.00000000 </i>
    <i name="Eion">      0.00000000 </i>
   </dipole>
   <energy>
    <i name="e_fr_energy">   -190.99980565 </i>
    <i name="e_wo_entrp">   -190.74770551 </i>
    <i name="e_0_energy">   -190.87375558 </i>
   </energy>
  </scstep>
  <scstep>
   <time name="diag">    1.65    1.65</time>
   <time name="diis">    4.49    4.55</time>
   <time name="orth">    0.39    0.39</time>
   <time name="total">    6.88    6.96</time>
   <dipole>
    <v name="dipole">      0.00000000       0.00000000      -0.01087482 </v>
    <i name="Tr[quadrupol]"> -10248.39634698 </i>
    <i name="Echarged">      0.00000000 </i>
    <i name="Edipol_quadrupol">      0.00000000 </i>
    <i name="Eion">      0.00000000 </i>
   </dipole>
   <energy>
    <i name="e_fr_energy">   -191.21698870 </i>
    <i name="e_wo_entrp">   -190.96199449 </i>
    <i name="e_0_energy">   -191.08949159 </i>
   </energy>
  </scstep>
  <scstep>
   <time name="diag">    1.67    1.68</time>
   <time name="diis">    4.60    4.60</time>
   <time name="orth">    0.39    0.39</time>
   <time name="total">    7.02    7.04</time>
   <dipole>
    <v name="dipole">      0.00000000       0.00000000       0.04015888 </v>
    <i name="Tr[quadrupol]"> -10248.18971652 </i>
    <i name="Echarged">      0.00000000 </i>
    <i name="Edipol_quadrupol">      0.00000000 </i>
    <i name="Eion">      0.00000000 </i>
   </dipole>
   <energy>
    <i name="e_fr_energy">   -190.96629013 </i>
    <i name="e_wo_entrp">   -190.73456027 </i>
    <i name="e_0_energy">   -190.85042520 </i>
   </energy>
  </scstep>
  <scstep>
   <time name="diag">    1.64    1.64</time>
   <time name="diis">    4.51    4.51</time>
   <time name="orth">    0.39    0.39</time>
   <time name="total">    6.90    6.91</time>
   <dipole>
    <v name="dipole">      0.00000000       0.00000000      -0.16025371 </v>
    <i name="Tr[quadrupol]"> -10248.25767118 </i>
    <i name="Echarged">      0.00000000 </i>
    <i name="Edipol_quadrupol">      0.00000000 </i>
    <i name="Eion">      0.00000000 </i>
   </dipole>
   <energy>
    <i name="e_fr_energy">   -191.28782333 </i>
    <i name="e_wo_entrp">   -191.01687809 </i>
    <i name="e_0_energy">   -191.15235071 </i>
   </energy>
  </scstep>
  <scstep>
   <time name="diag">    1.64    1.64</time>
   <time name="diis">    4.54    4.54</time>
   <time name="orth">    0.39    0.39</time>
   <time name="total">    6.94    6.94</time>
   <dipole>
    <v name="dipole">      0.00000000       0.00000000       0.00668256 </v>
    <i name="Tr[quadrupol]"> -10248.26632938 </i>
    <i name="Echarged">      0.00000000 </i>
    <i name="Edipol_quadrupol">      0.00000000 </i>
    <i name="Eion">      0.00000000 </i>
   </dipole>
   <energy>
    <i name="e_fr_energy">   -190.94395882 </i>
    <i name="e_wo_entrp">   -190.69878641 </i>
    <i name="e_0_energy">   -190.82137261 </i>
   </energy>
  </scstep>
  <scstep>
   <time name="diag">    1.64    1.64</time>
   <time name="diis">    4.97    5.01</time>
   <time name="orth">    0.39    0.40</time>
   <time name="total">    7.37    7.41</time>
   <dipole>
    <v name="dipole">      0.00000000       0.00000000      -0.02229673 </v>
    <i name="Tr[quadrupol]"> -10248.20270927 </i>
    <i name="Echarged">      0.00000000 </i>
    <i name="Edipol_quadrupol">      0.00000000 </i>
    <i name="Eion">      0.00000000 </i>
[...]
       <r>    2.2109    0.0000 </r>
       <r>    2.3258    0.0000 </r>
       <r>    2.4897    0.0000 </r>
       <r>    2.5308    0.0000 </r>
       <r>    2.7257    0.0000 </r>
       <r>    2.9914    0.0000 </r>
       <r>    3.1640    0.0000 </r>
       <r>    3.2510    0.0000 </r>
       <r>    3.4974    0.0000 </r>
       <r>    3.5926    0.0000 </r>
       <r>    3.6804    0.0000 </r>
       <r>    3.9163    0.0000 </r>
       <r>    4.0994    0.0000 </r>
       <r>    4.1571    0.0000 </r>
       <r>    4.3732    0.0000 </r>
       <r>    4.5223    0.0000 </r>
       <r>    4.5811    0.0000 </r>
       <r>    4.6355    0.0000 </r>
       <r>    4.6688    0.0000 </r>
       <r>    4.7857    0.0000 </r>
       <r>    4.8650    0.0000 </r>
       <r>    4.9075    0.0000 </r>
       <r>    4.9640    0.0000 </r>
       <r>    5.0050    0.0000 </r>
       <r>    5.0506    0.0000 </r>
       <r>    5.0875    0.0000 </r>
       <r>    5.1345    0.0000 </r>
       <r>    5.2273    0.0000 </r>
      </set>
     </set>
    </set>
   </array>
  </eigenvalues>
  <separator name="orbital magnetization" >
   <v name="MAGDIPOLOUT">      0.00000000      0.00000000      0.00000000</v>
  </separator>
  <dos>
   <i name="efermi">     -1.07829494 </i>
   <total>
    <array>
     <dimension dim="1">gridpoints</dimension>
     <dimension dim="2">spin</dimension>
     <field>energy</field>
     <field>total</field>
     <field>integrated</field>
     <set>
      <set comment="spin 1">
       <r>    -9.9214     0.0000     0.0000 </r>
       <r>    -9.8672     0.0000     0.0000 </r>
       <r>    -9.8130     0.0000     0.0000 </r>
       <r>    -9.7587     0.0000     0.0000 </r>
       <r>    -9.7045     0.0000     0.0000 </r>
       <r>    -9.6503     0.0000     0.0000 </r>
       <r>    -9.5961     0.0000     0.0000 </r>
       <r>    -9.5418     0.0000     0.0000 </r>
       <r>    -9.4876     0.0000     0.0000 </r>
       <r>    -9.4334     0.0000     0.0000 </r>
       <r>    -9.3791     0.0000     0.0000 </r>
       <r>    -9.3249     0.0000     0.0000 </r>
       <r>    -9.2707     0.0000     0.0000 </r>
       <r>    -9.2165     0.0002     0.0000 </r>
       <r>    -9.1622     0.0041     0.0002 </r>
       <r>    -9.1080     0.0523     0.0031 </r>
       <r>    -9.0538     0.3848     0.0239 </r>
       <r>    -8.9995     1.6231     0.1120 </r>
       <r>    -8.9453     3.9482     0.3261 </r>
       <r>    -8.8911     5.6690     0.6335 </r>
       <r>    -8.8368     5.3898     0.9258 </r>
       <r>    -8.7826     4.9213     1.1926 </r>
       <r>    -8.7284     5.4711     1.4893 </r>
       <r>    -8.6742     5.0806     1.7648 </r>
       <r>    -8.6199     3.0154     1.9284 </r>
       <r>    -8.5657     1.0714     1.9865 </r>
       <r>    -8.5115     0.2507     2.0001 </r>
       <r>    -8.4572     0.2468     2.0135 </r>
       <r>    -8.4030     1.0083     2.0681 </r>
       <r>    -8.3488     2.7415     2.2168 </r>
       <r>    -8.2946     4.5596     2.4641 </r>
       <r>    -8.2403     4.7995     2.7243 </r>
       <r>    -8.1861     3.4513     2.9115 </r>
       <r>    -8.1319     2.5006     3.0471 </r>
       <r>    -8.0776     3.4844     3.2361 </r>
       <r>    -8.0234     5.2102     3.5186 </r>
       <r>    -7.9692     5.0813     3.7942 </r>
       <r>    -7.9150     3.5196     3.9850 </r>
       <r>    -7.8607     3.8402     4.1933 </r>
       <r>    -7.8065     7.1841     4.5829 </r>
       <r>    -7.7523    10.1907     5.1355 </r>
       <r>    -7.6980     9.6835     5.6606 </r>
       <r>    -7.6438     7.9020     6.0891 </r>
       <r>    -7.5896     8.3705     6.5431 </r>
       <r>    -7.5354    10.2382     7.0983 </r>
       <r>    -7.4811    10.8685     7.6877 </r>
       <r>    -7.4269    10.2556     8.2438 </r>
       <r>    -7.3727    10.0344     8.7880 </r>
       <r>    -7.3184    11.8547     9.4308 </r>
       <r>    -7.2642    15.9685    10.2968 </r>
       <r>    -7.2100    20.0188    11.3824 </r>
       <r>    -7.1558    22.6271    12.6094 </r>
       <r>    -7.1015    24.7700    13.9527 </r>
       <r>    -7.0473    26.5950    15.3949 </r>
       <r>    -6.9931    27.6163    16.8925 </r>
       <r>    -6.9388    28.3154    18.4280 </r>
       <r>    -6.8846    28.7032    19.9846 </r>
       <r>    -6.8304    29.6041    21.5900 </r>
       <r>    -6.7761    32.7885    23.3681 </r>
       <r>    -6.7219    38.0195    25.4298 </r>
       <r>    -6.6677    43.5645    27.7923 </r>
       <r>    -6.6135    46.5763    30.3181 </r>
       <r>    -6.5592    46.4093    32.8348 </r>
       <r>    -6.5050    47.1723    35.3929 </r>
       <r>    -6.4508    52.1755    38.2223 </r>
       <r>    -6.3965    60.9501    41.5276 </r>
       <r>    -6.3423    69.2549    45.2832 </r>
       <r>    -6.2881    71.6084    49.1665 </r>
       <r>    -6.2339    68.5634    52.8846 </r>
       <r>    -6.1796    66.4322    56.4871 </r>
       <r>    -6.1254    67.9686    60.1730 </r>
       <r>    -6.0712    70.1598    63.9777 </r>
       <r>    -6.0169    70.5949    67.8060 </r>
       <r>    -5.9627    70.2429    71.6152 </r>
       <r>    -5.9085    71.1006    75.4709 </r>
       <r>    -5.8543    74.1031    79.4894 </r>
       <r>    -5.8000    77.1555    83.6735 </r>
       <r>    -5.7458    75.9678    87.7932 </r>
       <r>    -5.6916    70.6522    91.6246 </r>
       <r>    -5.6373    67.0900    95.2628 </r>
       <r>    -5.5831    68.8105    98.9943 </r>
       <r>    -5.5289    72.7388   102.9389 </r>
       <r>    -5.4747    74.0951   106.9570 </r>
       <r>    -5.4204    72.5424   110.8909 </r>
       <r>    -5.3662    71.7022   114.7792 </r>
       <r>    -5.3120    73.2218   118.7500 </r>
       <r>    -5.2577    75.9446   122.8684 </r>
       <r>    -5.2035    79.8853   127.2005 </r>
       <r>    -5.1493    84.3557   131.7750 </r>
       <r>    -5.0950    86.8875   136.4868 </r>
       <r>    -5.0408    86.7886   141.1933 </r>
       <r>    -4.9866    84.8383   145.7940 </r>
       <r>    -4.9324    82.5341   150.2697 </r>
       <r>    -4.8781    82.4476   154.7408 </r>
       <r>    -4.8239    85.7271   159.3897 </r>
       <r>    -4.7697    90.3061   164.2869 </r>
       <r>    -4.7154    92.5798   169.3074 </r>
       <r>    -4.6612    91.1248   174.2490 </r>
       <r>    -4.6070    87.4920   178.9936 </r>
       <r>    -4.5528    84.1931   183.5593 </r>
       <r>    -4.4985    82.9450   188.0573 </r>
       <r>    -4.4443    83.6683   192.5946 </r>
       <r>    -4.3901    85.1294   197.2110 </r>
       <r>    -4.3358    86.3999   201.8964 </r>
       <r>    -4.2816    88.2722   206.6833 </r>
       <r>    -4.2274    91.1935   211.6287 </r>
       <r>    -4.1732    94.2448   216.7395 </r>
       <r>    -4.1189    96.7506   221.9862 </r>
       <r>    -4.0647    97.3278   227.2641 </r>
       <r>    -4.0105    95.3669   232.4358 </r>
       <r>    -3.9562    92.9769   237.4778 </r>
       <r>    -3.9020    91.2224   242.4247 </r>
       <r>    -3.8478    89.7048   247.2893 </r>
       <r>    -3.7936    90.8681   252.2170 </r>
       <r>    -3.7393    95.1837   257.3787 </r>
       <r>    -3.6851    98.2469   262.7066 </r>
       <r>    -3.6309    98.9223   268.0710 </r>
       <r>    -3.5766    99.8434   273.4854 </r>
       <r>    -3.5224   102.4107   279.0391 </r>
       <r>    -3.4682   105.8962   284.7817 </r>
       <r>    -3.4139   107.7803   290.6265 </r>
       <r>    -3.3597   106.3018   296.3912 </r>
       <r>    -3.3055   101.5501   301.8981 </r>
       <r>    -3.2513    95.5180   307.0780 </r>
       <r>    -3.1970    92.3529   312.0862 </r>
       <r>    -3.1428    94.3969   317.2052 </r>
       <r>    -3.0886    98.7877   322.5624 </r>
       <r>    -3.0343   100.9510   328.0369 </r>
       <r>    -2.9801    99.6254   333.4394 </r>
       <r>    -2.9259    97.3674   338.7196 </r>
       <r>    -2.8717    96.6878   343.9629 </r>
       <r>    -2.8174    96.3590   349.1883 </r>
       <r>    -2.7632    94.9814   354.3391 </r>
       <r>    -2.7090    93.9352   359.4331 </r>
       <r>    -2.6547    93.0036   364.4766 </r>
       <r>    -2.6005    90.9932   369.4110 </r>
       <r>    -2.5463    89.1342   374.2447 </r>
       <r>    -2.4921    88.3127   379.0338 </r>
       <r>    -2.4378    87.2121   383.7632 </r>
       <r>    -2.3836    85.1375   388.3802 </r>
       <r>    -2.3294    83.6359   392.9156 </r>
       <r>    -2.2751    84.6487   397.5061 </r>
       <r>    -2.2209    88.2058   402.2894 </r>
       <r>    -2.1667    91.6011   407.2568 </r>
       <r>    -2.1125    92.5349   412.2749 </r>
       <r>    -2.0582    92.3719   417.2841 </r>
       <r>    -2.0040    93.8425   422.3731 </r>
       <r>    -1.9498    96.6329   427.6134 </r>
       <r>    -1.8955    98.3882   432.9489 </r>
       <r>    -1.8413    98.9940   438.3173 </r>
       <r>    -1.7871    98.9899   443.6854 </r>
       <r>    -1.7329    98.1732   449.0092 </r>
       <r>    -1.6786    96.8732   454.2625 </r>
       <r>    -1.6244    95.3600   459.4338 </r>
       <r>    -1.5702    93.6462   464.5122 </r>
       <r>    -1.5159    91.9858   469.5005 </r>
       <r>    -1.4617    90.3021   474.3975 </r>
       <r>    -1.4075    89.0475   479.2264 </r>
       <r>    -1.3532    88.6630   484.0345 </r>
       <r>    -1.2990    86.7270   488.7376 </r>
       <r>    -1.2448    81.5257   493.1587 </r>
       <r>    -1.1906    74.5342   497.2006 </r>
       <r>    -1.1363    66.2859   500.7952 </r>
       <r>    -1.0821    55.6497   503.8131 </r>
       <r>    -1.0279    43.2091   506.1563 </r>
       <r>    -0.9736    31.2103   507.8488 </r>
       <r>    -0.9194    21.2482   509.0010 </r>
       <r>    -0.8652    14.4974   509.7872 </r>
       <r>    -0.8110    10.9361   510.3803 </r>
       <r>    -0.7567     9.8017   510.9118 </r>
       <r>    -0.7025    11.5473   511.5380 </r>
       <r>    -0.6483    16.1253   512.4125 </r>
       <r>    -0.5940    21.4421   513.5752 </r>
       <r>    -0.5398    24.0827   514.8812 </r>
       <r>    -0.4856    21.8338   516.0652 </r>
       <r>    -0.4314    16.2048   516.9440 </r>
       <r>    -0.3771    11.1845   517.5505 </r>
       <r>    -0.3229    10.0871   518.0976 </r>
       <r>    -0.2687    13.8495   518.8486 </r>
       <r>    -0.2144    19.5087   519.9065 </r>
       <r>    -0.1602    21.7921   521.0883 </r>
       <r>    -0.1060    19.1547   522.1270 </r>
       <r>    -0.0518    14.6149   522.9196 </r>
       <r>     0.0025    11.5011   523.5433 </r>
       <r>     0.0567    11.2283   524.1522 </r>
       <r>     0.1109    13.1462   524.8651 </r>
       <r>     0.1652    14.7153   525.6631 </r>
       <r>     0.2194    14.5561   526.4524 </r>
       <r>     0.2736    15.0938   527.2710 </r>
       <r>     0.3279    18.6156   528.2805 </r>
       <r>     0.3821    22.1542   529.4819 </r>
       <r>     0.4363    22.1507   530.6831 </r>
       <r>     0.4905    21.0485   531.8245 </r>
       <r>     0.5448    21.7049   533.0016 </r>
       <r>     0.5990    22.8702   534.2418 </r>
       <r>     0.6532    23.3417   535.5076 </r>
       <r>     0.7075    22.5748   536.7318 </r>
       <r>     0.7617    19.2833   537.7775 </r>
       <r>     0.8159    14.0237   538.5380 </r>
       <r>     0.8701    10.1955   539.0909 </r>
       <r>     0.9244     9.8634   539.6258 </r>
       <r>     0.9786    11.6813   540.2592 </r>
       <r>     1.0328    13.5423   540.9936 </r>
       <r>     1.0871    13.8689   541.7457 </r>
       <r>     1.1413    11.9574   542.3942 </r>
       <r>     1.1955     9.3757   542.9026 </r>
       <r>     1.2497     7.5020   543.3094 </r>
       <r>     1.3040     5.6969   543.6184 </r>
       <r>     1.3582     4.1463   543.8432 </r>
       <r>     1.4124     4.3072   544.0768 </r>
       <r>     1.4667     7.9118   544.5058 </r>
       <r>     1.5209    14.5920   545.2971 </r>
       <r>     1.5751    19.3761   546.3479 </r>
       <r>     1.6293    18.3434   547.3426 </r>
       <r>     1.6836    14.8989   548.1506 </r>
       <r>     1.7378    14.6915   548.9473 </r>
       <r>     1.7920    18.0477   549.9260 </r>
       <r>     1.8463    20.1111   551.0166 </r>
       <r>     1.9005    17.3050   551.9550 </r>
       <r>     1.9547    11.7941   552.5946 </r>
       <r>     2.0090     8.3783   553.0490 </r>
       <r>     2.0632    10.1631   553.6001 </r>
       <r>     2.1174    16.2595   554.4818 </r>
       <r>     2.1716    22.3543   555.6941 </r>
       <r>     2.2259    24.8444   557.0414 </r>
       <r>     2.2801    23.1983   558.2994 </r>
       <r>     2.3343    19.3449   559.3484 </r>
       <r>     2.3886    15.9609   560.2140 </r>
       <r>     2.4428    14.6397   561.0079 </r>
       <r>     2.4970    15.4089   561.8435 </r>
       <r>     2.5512    17.8506   562.8115 </r>
       <r>     2.6055    21.0809   563.9547 </r>
       <r>     2.6597    23.6617   565.2379 </r>
       <r>     2.7139    23.5070   566.5126 </r>
       <r>     2.7682    19.3175   567.5602 </r>
       <r>     2.8224    13.5562   568.2953 </r>
       <r>     2.8766     9.2879   568.7990 </r>
       <r>     2.9308     7.1286   569.1856 </r>
       <r>     2.9851     6.4910   569.5376 </r>
       <r>     3.0393     6.0305   569.8646 </r>
       <r>     3.0935     5.7436   570.1761 </r>
       <r>     3.1478     6.8477   570.5474 </r>
       <r>     3.2020     9.1688   571.0446 </r>
       <r>     3.2562    11.4248   571.6642 </r>
       <r>     3.3104    12.0292   572.3165 </r>
       <r>     3.3647    10.9505   572.9104 </r>
       <r>     3.4189    11.1791   573.5166 </r>
       <r>     3.4731    13.8132   574.2657 </r>
       <r>     3.5274    16.3607   575.1529 </r>
       <r>     3.5816    18.3401   576.1475 </r>
       <r>     3.6358    20.6683   577.2683 </r>
       <r>     3.6900    21.3901   578.4282 </r>
       <r>     3.7443    18.2216   579.4164 </r>
       <r>     3.7985    13.3785   580.1419 </r>
       <r>     3.8527    10.7700   580.7259 </r>
       <r>     3.9070    10.5086   581.2958 </r>
       <r>     3.9612    10.8179   581.8824 </r>
       <r>     4.0154    11.3186   582.4962 </r>
       <r>     4.0697    12.1557   583.1554 </r>
       <r>     4.1239    13.1765   583.8700 </r>
       <r>     4.1781    13.3673   584.5949 </r>
       <r>     4.2323    11.9586   585.2434 </r>
       <r>     4.2866     9.9135   585.7810 </r>
       <r>     4.3408     9.3452   586.2878 </r>
       <r>     4.3950    11.0184   586.8853 </r>
       <r>     4.4493    12.7950   587.5791 </r>
       <r>     4.5035    14.4578   588.3632 </r>
       <r>     4.5577    18.7392   589.3794 </r>
       <r>     4.6119    24.5767   590.7122 </r>
       <r>     4.6662    28.1818   592.2404 </r>
       <r>     4.7204    28.9787   593.8119 </r>
       <r>     4.7746    27.7778   595.3183 </r>
       <r>     4.8289    25.7092   596.7125 </r>
       <r>     4.8831    25.4324   598.0916 </r>
       <r>     4.9373    28.0457   599.6125 </r>
       <r>     4.9915    32.7777   601.3900 </r>
       <r>     5.0458    37.8060   603.4402 </r>
       <r>     5.1000    38.7255   605.5403 </r>
       <r>     5.1542    33.7153   607.3686 </r>
       <r>     5.2085    27.2565   608.8467 </r>
       <r>     5.2627    22.2669   610.0542 </r>
       <r>     5.3169    17.2016   610.9870 </r>
       <r>     5.3711    11.1202   611.5901 </r>
       <r>     5.4254     5.3796   611.8818 </r>
       <r>     5.4796     1.7649   611.9775 </r>
       <r>     5.5338     0.3654   611.9973 </r>
       <r>     5.5881     0.0457   611.9998 </r>
       <r>     5.6423     0.0034   612.0000 </r>
       <r>     5.6965     0.0001   612.0000 </r>
       <r>     5.7508     0.0000   612.0000 </r>
       <r>     5.8050     0.0000   612.0000 </r>
       <r>     5.8592     0.0000   612.0000 </r>
       <r>     5.9134     0.0000   612.0000 </r>
       <r>     5.9677     0.0000   612.0000 </r>
       <r>     6.0219     0.0000   612.0000 </r>
       <r>     6.0761     0.0000   612.0000 </r>
       <r>     6.1304     0.0000   612.0000 </r>
       <r>     6.1846     0.0000   612.0000 </r>
       <r>     6.2388     0.0000   612.0000 </r>
       <r>     6.2930     0.0000   612.0000 </r>
       <r>     6.3473     0.0000   612.0000 </r>
      </set>
     </set>
    </array>
   </total>
  </dos>
 </calculation>
 <structure name="finalpos" >
  <crystal>
   <varray name="basis" >
    <v>      11.00258152       0.00000000       0.00000000 </v>
    <v>       5.50129076       9.52851510       0.00000000 </v>
    <v>       0.00000000       0.00000000      24.49178509 </v>
   </varray>
   <i name="volume">   2567.67623402 </i>
   <varray name="rec_basis" >
    <v>       0.09088776      -0.05247407       0.00000000 </v>
    <v>       0.00000000       0.10494815       0.00000000 </v>
    <v>       0.00000000       0.00000000       0.04083002 </v>
   </varray>
  </crystal>
  <varray name="positions" >
   <v>       0.08485572       0.08443929       0.39201054 </v>
   <v>       0.74941910       0.49758351       0.60434102 </v>
   <v>       0.66537324       0.66902563       0.50030724 </v>
   <v>       0.83512365       0.58466896       0.39328867 </v>
   <v>       0.66448256       0.41500762       0.49927280 </v>
   <v>       0.83431095       0.33320585       0.39140179 </v>
   <v>       0.74874590       0.00352008       0.60542693 </v>
   <v>       0.83115127       0.08284838       0.39669796 </v>
   <v>       0.58372652       0.83828194       0.39873062 </v>
   <v>       0.41607949       0.66545703       0.49882405 </v>
   <v>       0.58370736       0.58337298       0.39115764 </v>
   <v>       0.49512806       0.00154461       0.60348703 </v>
   <v>       0.16854950       0.91486018       0.49889305 </v>
   <v>       0.33313943       0.83583875       0.39294757 </v>
   <v>       0.25035083       0.49856604       0.60152376 </v>
   <v>       0.33434732       0.58121777       0.39757042 </v>
   <v>       0.74857374       0.74947363       0.60754383 </v>
   <v>       0.91535718       0.16630268       0.49912119 </v>
   <v>       0.16985548       0.16621438       0.49871044 </v>
   <v>       0.91846601       0.41659523       0.49919572 </v>
   <v>       0.00238090       0.74999737       0.60801724 </v>
   <v>       0.08492301       0.58320648       0.39980268 </v>
   <v>       0.91785587       0.66634773       0.50282454 </v>
   <v>       0.91577653       0.91587040       0.50245187 </v>
   <v>       0.24759094       0.24989223       0.59705155 </v>
   <v>       0.83330534       0.83456541       0.40637482 </v>
   <v>       0.00042796       0.00109836       0.59820215 </v>
   <v>       0.08527517       0.33403923       0.40171389 </v>
   <v>       0.74887601       0.25006748       0.59725593 </v>
   <v>       0.00087181       0.24875844       0.59651615 </v>
   <v>       0.66467067       0.16574970       0.50156227 </v>
   <v>       0.49755720       0.74983261       0.59669824 </v>
   <v>       0.41794247       0.91755446       0.49938374 </v>
   <v>       0.49888135       0.49939518       0.59690408 </v>
   <v>       0.16960837       0.41594468       0.50077479 </v>
   <v>       0.08324963       0.83413950       0.40327236 </v>
   <v>       0.49861564       0.25101060       0.59779373 </v>
   <v>       0.41525507       0.41399142       0.50090224 </v>
   <v>       0.58376591       0.33295228       0.40350495 </v>
   <v>       0.41869282       0.16469222       0.50319185 </v>
   <v>       0.58221618       0.08541990       0.40819269 </v>
   <v>       0.66409160       0.91840845       0.50441843 </v>
   <v>       0.33428133       0.08645188       0.40333709 </v>
   <v>       0.24808029      -0.00052831       0.59586625 </v>
   <v>       0.16850725       0.66309296       0.50132806 </v>
   <v>       0.33597535       0.33075194       0.40655448 </v>
   <v>      -0.00011299       0.49850943       0.59884096 </v>
   <v>       0.25069500       0.75076341       0.59681068 </v>
  </varray>
 </structure>
</modeling>
