unknown system                          
           1
    11.002582    0.000000    0.000000
     5.501291    9.528515    0.000000
     0.000000    0.000000   24.491785
   Au   Pd
  24  24
Direct configuration=     1
   0.08333333  0.08333333  0.40830017
   0.75000000  0.50000000  0.59169983
   0.66666667  0.66666667  0.50000000
   0.83333333  0.58333333  0.40830017
   0.66666667  0.41666667  0.50000000
   0.83333333  0.33333333  0.40830017
   0.75000000  0.00000000  0.59169983
   0.83333333  0.08333333  0.40830017
   0.58333333  0.83333333  0.40830017
   0.41666667  0.66666667  0.50000000
   0.58333333  0.58333333  0.40830017
   0.50000000  0.00000000  0.59169983
   0.16666667  0.91666667  0.50000000
   0.33333333  0.83333333  0.40830017
   0.25000000  0.50000000  0.59169983
   0.33333333  0.58333333  0.40830017
   0.75000000  0.75000000  0.59169983
   0.91666667  0.16666667  0.50000000
   0.16666667  0.16666667  0.50000000
   0.91666667  0.41666667  0.50000000
   0.00000000  0.75000000  0.59169983
   0.08333333  0.58333333  0.40830017
   0.91666667  0.66666667  0.50000000
   0.91666667  0.91666667  0.50000000
   0.25000000  0.25000000  0.59169983
   0.83333333  0.83333333  0.40830017
   0.00000000  0.00000000  0.59169983
   0.08333333  0.33333333  0.40830017
   0.75000000  0.25000000  0.59169983
   0.00000000  0.25000000  0.59169983
   0.66666667  0.16666667  0.50000000
   0.50000000  0.75000000  0.59169983
   0.41666667  0.91666667  0.50000000
   0.50000000  0.50000000  0.59169983
   0.16666667  0.41666667  0.50000000
   0.08333333  0.83333333  0.40830017
   0.50000000  0.25000000  0.59169983
   0.41666667  0.41666667  0.50000000
   0.58333333  0.33333333  0.40830017
   0.41666667  0.16666667  0.50000000
   0.58333333  0.08333333  0.40830017
   0.66666667  0.91666667  0.50000000
   0.33333333  0.08333333  0.40830017
   0.25000000  0.00000000  0.59169983
   0.16666667  0.66666667  0.50000000
   0.33333333  0.33333333  0.40830017
   0.00000000  0.50000000  0.59169983
   0.25000000  0.75000000  0.59169983
Direct configuration=     2
   0.08416447  0.08332251  0.40570009
   0.75002959  0.49920584  0.59419237
   0.66485895  0.66908465  0.50049250
   0.83419679  0.58339343  0.40569635
   0.66479281  0.41488839  0.50050304
   0.83333842  0.33322062  0.40565838
   0.74937100  0.00184999  0.59361519
   0.83192182  0.08294295  0.40609640
   0.58297623  0.83561068  0.40641039
   0.41559920  0.66671337  0.50118798
   0.58318982  0.58259946  0.40565717
   0.49858717  0.00078086  0.59324299
   0.16735797  0.91541385  0.50083409
   0.33281906  0.83438598  0.40600052
   0.25067619  0.49923201  0.59318831
   0.33307067  0.58219889  0.40636763
   0.74954891  0.74987485  0.59396754
   0.91584340  0.16657362  0.50117688
   0.16886018  0.16707632  0.50039958
   0.91948163  0.41564035  0.50049687
   0.00136345  0.74962218  0.59395188
   0.08404862  0.58296731  0.40645088
   0.91769718  0.66663144  0.49992881
   0.91650799  0.91637353  0.49965632
   0.24992773  0.24992957  0.59250541
   0.83297928  0.83396960  0.40706935
   0.00041755  0.00045979  0.59306092
   0.08437634  0.33312751  0.40708877
   0.74970173  0.24981662  0.59283993
   0.00060482  0.24955482  0.59303698
   0.66449046  0.16750027  0.49996909
   0.49890601  0.75031423  0.59289289
   0.41669974  0.91784009  0.50029804
   0.49977708  0.49970975  0.59278364
   0.16820263  0.41567381  0.49995320
   0.08302697  0.83306229  0.40702399
   0.49980027  0.25041666  0.59237470
   0.41672766  0.41506903  0.50004077
   0.58275309  0.33279563  0.40729135
   0.41704070  0.16703933  0.49975493
   0.58262713  0.08397163  0.40778995
   0.66531541  0.91842458  0.49950837
   0.33382829  0.08416688  0.40744563
   0.24990296 -0.00018333  0.59281071
   0.16746725  0.66593546  0.50007637
   0.33392587  0.33248379  0.40777930
   0.00079071  0.49893376  0.59294580
   0.25040878  0.75038516  0.59278775
Direct configuration=     3
   0.08566391  0.08330299  0.40100929
   0.75008297  0.49777309  0.59868916
   0.66159764  0.67344694  0.50138103
   0.83575454  0.58350186  0.40099880
   0.66141218  0.41168022  0.50141056
   0.83334760  0.33301728  0.40089233
   0.74823623  0.00518757  0.59707068
   0.82937530  0.08223865  0.40212059
   0.58233199  0.83971923  0.40300104
   0.41367340  0.66679763  0.50333122
   0.58293091  0.58127549  0.40088894
   0.49603830  0.00218962  0.59602701
   0.16860516  0.91315364  0.50233888
   0.33189127  0.83628507  0.40185172
   0.25189611  0.49784648  0.59587368
   0.33259679  0.58015225  0.40288113
   0.74873509  0.74964907  0.59805870
   0.91435815  0.16640575  0.50330010
   0.17281751  0.16781536  0.50112045
   0.92456011  0.41378877  0.50139329
   0.00382325  0.74894054  0.59801481
   0.08533906  0.58230697  0.40311457
   0.91955633  0.66656788  0.49980038
   0.91622173  0.91584469  0.49903629
   0.24979734  0.24980252  0.59395876
   0.83234053  0.83511748  0.40484884
   0.00117085  0.00128930  0.59551645
   0.08625804  0.33275617  0.40490330
   0.74916362  0.24948579  0.59489679
   0.00169597  0.24875168  0.59544932
   0.66056437  0.16900418  0.49991331
   0.49693236  0.75088113  0.59504529
   0.41675940  0.91995706  0.50083573
   0.49937492  0.49918612  0.59473894
   0.17097367  0.41388259  0.49986876
   0.08247427  0.83257329  0.40472164
   0.49943993  0.25116835  0.59359224
   0.41683769  0.41218674  0.50011433
   0.58170627  0.33182555  0.40547133
   0.41771550  0.16771164  0.49931280
   0.58135306  0.08512319  0.40686947
   0.66287761  0.92159602  0.49862142
   0.33472123  0.08567067  0.40590397
   0.24972789 -0.00051408  0.59481483
   0.16891157  0.66461630  0.50021414
   0.33499485  0.33095113  0.40683959
   0.00221724  0.49701015  0.59519364
   0.25114627  0.75108002  0.59475046
Direct configuration=     4
   0.08625513  0.08329529  0.39915976
   0.75010402  0.49720817  0.60046219
   0.66031174  0.67516694  0.50173137
   0.83636875  0.58354461  0.39914661
   0.66007924  0.41041527  0.50176839
   0.83335122  0.33293710  0.39901313
   0.74778880  0.00650353  0.59843315
   0.82837124  0.08196095  0.40055297
   0.58207798  0.84133919  0.40165677
   0.41291407  0.66683086  0.50417627
   0.58282883  0.58075346  0.39900888
   0.49503330  0.00274507  0.59712472
   0.16909691  0.91226246  0.50293220
   0.33152546  0.83703386  0.40021590
   0.25237711  0.49730018  0.59693249
   0.33240995  0.57934528  0.40150644
   0.74841421  0.74956005  0.59967181
   0.91377254  0.16633956  0.50413726
   0.17437783  0.16810676  0.50140469
   0.92656250  0.41305871  0.50174673
   0.00479312  0.74867178  0.59961677
   0.08584786  0.58204660  0.40179910
   0.92028937  0.66654281  0.49974975
   0.91610885  0.91563618  0.49879181
   0.24974594  0.24975242  0.59453180
   0.83208868  0.83557008  0.40397332
   0.00146787  0.00161637  0.59648463
   0.08699997  0.33260976  0.40404159
   0.74895145  0.24935535  0.59570779
   0.00212619  0.24843501  0.59640048
   0.65901635  0.16959715  0.49989132
   0.49615417  0.75110465  0.59589396
   0.41678293  0.92079175  0.50104774
   0.49921635  0.49897966  0.59550989
   0.17206626  0.41317633  0.49983547
   0.08225634  0.83238048  0.40381384
   0.49929786  0.25146474  0.59407231
   0.41688108  0.41105029  0.50014333
   0.58129352  0.33144306  0.40475372
   0.41798157  0.16797673  0.49913848
   0.58085071  0.08557724  0.40650653
   0.66191641  0.92284649  0.49827170
   0.33507331  0.08626360  0.40529611
   0.24965887 -0.00064449  0.59560504
   0.16948105  0.66409617  0.50026846
   0.33541634  0.33034682  0.40646908
   0.00277970  0.49625169  0.59607994
   0.25143705  0.75135400  0.59552433
Direct configuration=     5
   0.08487850  0.08400283  0.39815557
   0.75007034  0.49706468  0.60171441
   0.66248993  0.67207550  0.50128040
   0.83528805  0.58378863  0.39792950
   0.66190715  0.41355658  0.50113827
   0.83401940  0.33212117  0.39798731
   0.74852324  0.00478821  0.59954016
   0.82925570  0.08283291  0.39925780
   0.58226650  0.83940270  0.40026181
   0.41522867  0.66528184  0.50280556
   0.58240424  0.58197704  0.39796742
   0.49579753  0.00274497  0.59842141
   0.16777642  0.91516100  0.50186643
   0.33246632  0.83567490  0.39913731
   0.25224241  0.49752904  0.59816288
   0.33332284  0.58012199  0.40040066
   0.74900281  0.75016874  0.60105427
   0.91500207  0.16618876  0.50306659
   0.17323837  0.16548635  0.50081625
   0.92235750  0.41487007  0.50124828
   0.00381759  0.74938473  0.60107983
   0.08541548  0.58202219  0.40046295
   0.91911655  0.66644386  0.49992734
   0.91519782  0.91652061  0.49911113
   0.24984172  0.24992882  0.59572037
   0.83244745  0.83476669  0.40304637
   0.00134987  0.00105579  0.59790052
   0.08657530  0.33249991  0.40323462
   0.74860849  0.24997221  0.59733682
   0.00247611  0.24823825  0.59772586
   0.66120347  0.16654871  0.49982833
   0.49672753  0.75094555  0.59732214
   0.41623409  0.92064505  0.50064853
   0.49922305  0.49867562  0.59700358
   0.17251441  0.41531603  0.49976358
   0.08262275  0.83301584  0.40314526
   0.49895769  0.25140368  0.59493303
   0.41432180  0.41305193  0.50001228
   0.58170284  0.33170025  0.40381585
   0.41885009  0.16698436  0.49963250
   0.58062437  0.08645456  0.40548129
   0.66298504  0.92226375  0.49901088
   0.33438890  0.08666577  0.40451799
   0.24910163 -0.00027618  0.59675084
   0.16951374  0.66266918  0.50017284
   0.33525395  0.33025809  0.40559095
   0.00253368  0.49699898  0.59712972
   0.25085661  0.75100789  0.59748230
Direct configuration=     6
   0.08394831  0.08448091  0.39747704
   0.75004759  0.49696772  0.60256053
   0.66396172  0.66998662  0.50097569
   0.83455783  0.58395352  0.39710709
   0.66314227  0.41567916  0.50071250
   0.83447089  0.33156984  0.39729416
   0.74901950  0.00362917  0.60028816
   0.82985333  0.08342208  0.39838266
   0.58239388  0.83809421  0.39931924
   0.41679265  0.66423517  0.50187937
   0.58211735  0.58280381  0.39726371
   0.49631391  0.00274490  0.59929759
   0.16688417  0.91711954  0.50114629
   0.33310205  0.83475665  0.39840851
   0.25215140  0.49768368  0.59899426
   0.33393968  0.58064681  0.39965349
   0.74940052  0.75058003  0.60198839
   0.91583286  0.16608687  0.50234314
   0.17246844  0.16371574  0.50041865
   0.91951618  0.41609401  0.50091148
   0.00315843  0.74986647  0.60206841
   0.08512332  0.58200569  0.39956011
   0.91832408  0.66637700  0.50004733
   0.91458224  0.91711822  0.49932689
   0.24990643  0.25004801  0.59652349
   0.83268988  0.83422385  0.40242003
   0.00127013  0.00067700  0.59885723
   0.08628835  0.33242568  0.40268935
   0.74837675  0.25038902  0.59843756
   0.00271254  0.24810529  0.59862142
   0.66268130  0.16448889  0.49978577
   0.49711495  0.75083804  0.59828716
   0.41586324  0.92054592  0.50037879
   0.49922758  0.49847018  0.59801287
   0.17281723  0.41676183  0.49971500
   0.08287033  0.83344515  0.40269350
   0.49872784  0.25136243  0.59551462
   0.41259250  0.41440443  0.49992373
   0.58197941  0.33187404  0.40318214
   0.41943695  0.16631382  0.49996630
   0.58047143  0.08704736  0.40478853
   0.66370712  0.92186999  0.49951035
   0.33392645  0.08693753  0.40399222
   0.24872511 -0.00002732  0.59752505
   0.16953583  0.66170497  0.50010824
   0.33514421  0.33019813  0.40499759
   0.00236744  0.49750393  0.59783906
   0.25046441  0.75077402  0.59880531
Direct configuration=     7
   0.08402815  0.08408182  0.39671212
   0.75012231  0.49736298  0.60335999
   0.66470203  0.66987707  0.50086778
   0.83419666  0.58363565  0.39632033
   0.66422498  0.41474852  0.50048980
   0.83408265  0.33222852  0.39666500
   0.74945257  0.00310033  0.60105074
   0.83046300  0.08331043  0.39760114
   0.58253923  0.83769664  0.39865848
   0.41575225  0.66550802  0.50152684
   0.58286854  0.58274975  0.39646136
   0.49671995  0.00221674  0.60008732
   0.16747597  0.91528873  0.50080230
   0.33282062  0.83498616  0.39777682
   0.25159276  0.49835854  0.59988812
   0.33389488  0.58108778  0.39895205
   0.74954558  0.75030519  0.60277961
   0.91486617  0.16708130  0.50199618
   0.17034657  0.16605872  0.50023795
   0.91920271  0.41603681  0.50072123
   0.00269912  0.75001920  0.60294526
   0.08482608  0.58226517  0.39877066
   0.91758055  0.66662005  0.50018682
   0.91550849  0.91647088  0.49956442
   0.24941011  0.25013003  0.59689801
   0.83284593  0.83409249  0.40211782
   0.00095389  0.00068814  0.59940289
   0.08557935  0.33286028  0.40252532
   0.74855727  0.25032571  0.59888643
   0.00263771  0.24829058  0.59903885
   0.66400199  0.16576384  0.49985234
   0.49753736  0.75052609  0.59870620
   0.41741565  0.91836223  0.50022273
   0.49932031  0.49875874  0.59857802
   0.17089182  0.41627508  0.49976566
   0.08302383  0.83366786  0.40256365
   0.49909603  0.25116509  0.59593535
   0.41433906  0.41463292  0.49988814
   0.58239937  0.33245999  0.40294283
   0.41893009  0.16583992  0.50042533
   0.58096383  0.08635723  0.40420962
   0.66408495  0.91966954  0.49995753
   0.33367789  0.08644693  0.40351586
   0.24865375 -0.00024560  0.59806396
   0.16878151  0.66345923  0.50018423
   0.33491336  0.33057506  0.40445408
   0.00176333  0.49806382  0.59818699
   0.25070977  0.75073981  0.59925588
Direct configuration=     8
   0.08405475  0.08394887  0.39645731
   0.75014721  0.49749464  0.60362630
   0.66494864  0.66984058  0.50083184
   0.83407635  0.58352976  0.39605825
   0.66458564  0.41443851  0.50041562
   0.83395332  0.33244794  0.39645541
   0.74959683  0.00292417  0.60130477
   0.83066609  0.08327324  0.39734080
   0.58258764  0.83756421  0.39843838
   0.41540567  0.66593203  0.50140941
   0.58311877  0.58273174  0.39619408
   0.49685521  0.00204080  0.60035039
   0.16767311  0.91467887  0.50068772
   0.33272687  0.83506262  0.39756640
   0.25140667  0.49858334  0.60018588
   0.33387995  0.58123467  0.39871839
   0.74959390  0.75021363  0.60304317
   0.91454416  0.16741255  0.50188061
   0.16963975  0.16683920  0.50017776
   0.91909829  0.41601775  0.50065786
   0.00254612  0.75007008  0.60323735
   0.08472706  0.58235160  0.39850768
   0.91733286  0.66670102  0.50023328
   0.91581703  0.91625525  0.49964354
   0.24924478  0.25015735  0.59702277
   0.83289792  0.83404873  0.40201715
   0.00084855  0.00069185  0.59958466
   0.08534317  0.33300505  0.40247068
   0.74861741  0.25030462  0.59903595
   0.00261278  0.24835229  0.59917790
   0.66444193  0.16618855  0.49987451
   0.49767807  0.75042218  0.59884579
   0.41793278  0.91763482  0.50017075
   0.49935121  0.49885487  0.59876628
   0.17025044  0.41611293  0.49978253
   0.08307497  0.83374205  0.40252040
   0.49921868  0.25109936  0.59607550
   0.41492086  0.41470903  0.49987629
   0.58253926  0.33265518  0.40286311
   0.41876126  0.16568206  0.50057823
   0.58112786  0.08612734  0.40401677
   0.66421082  0.91893654  0.50010649
   0.33359509  0.08628350  0.40335717
   0.24862998 -0.00031831  0.59824347
   0.16853024  0.66404360  0.50020954
   0.33483645  0.33070062  0.40427303
   0.00156210  0.49825033  0.59830289
   0.25079151  0.75072841  0.59940597
Direct configuration=     9
   0.08433587  0.08386263  0.39598718
   0.75015299  0.49768773  0.60400669
   0.66470791  0.66954621  0.50091953
   0.83443361  0.58353872  0.39556821
   0.66382789  0.41479018  0.50058133
   0.83388313  0.33262785  0.39597707
   0.74946442  0.00330370  0.60164166
   0.83061280  0.08292486  0.39698734
   0.58266658  0.83801596  0.39817594
   0.41555886  0.66587704  0.50160544
   0.58321587  0.58268307  0.39567076
   0.49664390  0.00183179  0.60068384
   0.16788452  0.91481305  0.50092470
   0.33254376  0.83546395  0.39715052
   0.25127869  0.49867277  0.60040787
   0.33363196  0.58119512  0.39841176
   0.74947560  0.74978578  0.60355746
   0.91497877  0.16670518  0.50200289
   0.16979061  0.16658809  0.50025767
   0.91918598  0.41626529  0.50073616
   0.00266670  0.74993168  0.60372477
   0.08464148  0.58258951  0.39828395
   0.91787052  0.66661296  0.50023741
   0.91572704  0.91620057  0.49978172
   0.24900522  0.25014359  0.59701191
   0.83289286  0.83421946  0.40216572
   0.00087578  0.00098942  0.59950203
   0.08506463  0.33325718  0.40241590
   0.74890869  0.25013613  0.59897956
   0.00233315  0.24847403  0.59913056
   0.66437468  0.16640826  0.49989820
   0.49778159  0.75015652  0.59873057
   0.41770330  0.91760625  0.50022481
   0.49947379  0.49921523  0.59864864
   0.16983508  0.41617170  0.49985545
   0.08293953  0.83359143  0.40249157
   0.49933283  0.25111670  0.59611920
   0.41544901  0.41456327  0.49994130
   0.58257255  0.33275773  0.40287108
   0.41877968  0.16550559  0.50072036
   0.58149456  0.08559864  0.40417058
   0.66414713  0.91899679  0.50022637
   0.33363156  0.08606850  0.40333905
   0.24872882 -0.00051394  0.59806793
   0.16822351  0.66399370  0.50036156
   0.33494055  0.33078387  0.40429887
   0.00124200  0.49838537  0.59831466
   0.25109003  0.75086092  0.59923225
Direct configuration=    10
   0.08459662  0.08378263  0.39555111
   0.75015836  0.49786683  0.60435951
   0.66448462  0.66927316  0.50100087
   0.83476498  0.58354702  0.39511367
   0.66312504  0.41511636  0.50073504
   0.83381804  0.33279472  0.39553339
   0.74934161  0.00365574  0.60195415
   0.83056338  0.08260173  0.39665949
   0.58273981  0.83843498  0.39793252
   0.41570095  0.66582603  0.50178726
   0.58330593  0.58263792  0.39518535
   0.49644789  0.00163792  0.60099313
   0.16808061  0.91493752  0.50114451
   0.33237391  0.83583620  0.39676477
   0.25115998  0.49875571  0.60061378
   0.33340193  0.58115844  0.39812735
   0.74936586  0.74938893  0.60403448
   0.91538190  0.16604905  0.50211632
   0.16993054  0.16635517  0.50033179
   0.91926731  0.41649488  0.50080879
   0.00277856  0.74980330  0.60417688
   0.08456211  0.58281017  0.39807643
   0.91836922  0.66653129  0.50024125
   0.91564356  0.91614986  0.49990989
   0.24878301  0.25013082  0.59700184
   0.83288816  0.83437783  0.40230352
   0.00090104  0.00126542  0.59942539
   0.08480626  0.33349105  0.40236509
   0.74917887  0.24997985  0.59892726
   0.00207378  0.24858694  0.59908665
   0.66431231  0.16661206  0.49992017
   0.49787761  0.74991011  0.59862369
   0.41749044  0.91757976  0.50027496
   0.49958750  0.49954948  0.59853952
   0.16944981  0.41622622  0.49992308
   0.08281391  0.83345172  0.40246483
   0.49943871  0.25113278  0.59615973
   0.41593889  0.41442807  0.50000160
   0.58260342  0.33285285  0.40287848
   0.41879678  0.16534189  0.50085218
   0.58183470  0.08510825  0.40431324
   0.66408805  0.91905268  0.50033756
   0.33366538  0.08586908  0.40332223
   0.24882050 -0.00069540  0.59790511
   0.16793901  0.66394741  0.50050258
   0.33503711  0.33086109  0.40432284
   0.00094510  0.49851064  0.59832557
   0.25136692  0.75098383  0.59907111
Direct configuration=    11
   0.08430077  0.08404551  0.39505204
   0.75023998  0.49763793  0.60480086
   0.66476333  0.66917225  0.50098395
   0.83476885  0.58394863  0.39457181
   0.66369646  0.41487383  0.50084304
   0.83397297  0.33246953  0.39497163
   0.74916945  0.00360933  0.60229726
   0.83061681  0.08266952  0.39633791
   0.58294663  0.83830776  0.39773358
   0.41525938  0.66587212  0.50170203
   0.58301196  0.58308139  0.39459897
   0.49639659  0.00151918  0.60132657
   0.16819640  0.91482231  0.50119038
   0.33253887  0.83565042  0.39633114
   0.25133862  0.49855538  0.60072269
   0.33340633  0.58131231  0.39791502
   0.74925269  0.74954033  0.60461861
   0.91534884  0.16621965  0.50204145
   0.17017871  0.16606506  0.50028998
   0.91877838  0.41644749  0.50082792
   0.00266797  0.74997658  0.60477273
   0.08467211  0.58279125  0.39792183
   0.91814136  0.66667306  0.50026836
   0.91534832  0.91623295  0.50013192
   0.24866422  0.25017773  0.59694269
   0.83294357  0.83432342  0.40260398
   0.00099049  0.00118926  0.59933098
   0.08493435  0.33343242  0.40238796
   0.74928780  0.25019601  0.59878803
   0.00177023  0.24882289  0.59895232
   0.66421231  0.16626307  0.49991968
   0.49796878  0.74987210  0.59849745
   0.41746264  0.91777258  0.50025939
   0.49970526  0.49954650  0.59844222
   0.17009257  0.41609300  0.49997020
   0.08283404  0.83345436  0.40257730
   0.49928985  0.25129665  0.59614896
   0.41516450  0.41443608  0.50007772
   0.58272065  0.33270697  0.40295525
   0.41886268  0.16535787  0.50098073
   0.58180617  0.08524287  0.40470580
   0.66402403  0.91909749  0.50060266
   0.33362029  0.08615877  0.40344887
   0.24891557 -0.00064583  0.59769935
   0.16838101  0.66347953  0.50066891
   0.33520745  0.33064957  0.40459170
   0.00080369  0.49856891  0.59835073
   0.25132607  0.75101402  0.59884541
Direct configuration=    12
   0.08406332  0.08425648  0.39465150
   0.75030549  0.49745422  0.60515508
   0.66498702  0.66909126  0.50097037
   0.83477196  0.58427096  0.39413693
   0.66415505  0.41467918  0.50092971
   0.83409732  0.33220854  0.39452078
   0.74903128  0.00357208  0.60257263
   0.83065970  0.08272392  0.39607983
   0.58311262  0.83820565  0.39757391
   0.41490498  0.66590911  0.50163362
   0.58277603  0.58343731  0.39412836
   0.49635542  0.00142387  0.60159419
   0.16828933  0.91472985  0.50122720
   0.33267125  0.83550132  0.39598311
   0.25148200  0.49839460  0.60081010
   0.33340986  0.58143580  0.39774462
   0.74916186  0.74966184  0.60508741
   0.91532230  0.16635656  0.50198136
   0.17037788  0.16583223  0.50025642
   0.91838598  0.41640946  0.50084328
   0.00257922  0.75011565  0.60525095
   0.08476040  0.58277606  0.39779774
   0.91795849  0.66678685  0.50029012
   0.91511136  0.91629964  0.50031011
   0.24856888  0.25021538  0.59689523
   0.83298803  0.83427975  0.40284511
   0.00106228  0.00112813  0.59925521
   0.08503715  0.33338537  0.40240632
   0.74937523  0.25036950  0.59867629
   0.00152661  0.24901226  0.59884451
   0.66413205  0.16598298  0.49991929
   0.49804194  0.74984159  0.59839614
   0.41744033  0.91792734  0.50024689
   0.49979977  0.49954410  0.59836413
   0.17060843  0.41598609  0.50000802
   0.08285019  0.83345648  0.40266757
   0.49917038  0.25142817  0.59614031
   0.41454300  0.41444250  0.50013882
   0.58281473  0.33258989  0.40301687
   0.41891556  0.16537069  0.50108389
   0.58178327  0.08535092  0.40502085
   0.66397265  0.91913346  0.50081542
   0.33358410  0.08639127  0.40355050
   0.24899188 -0.00060604  0.59753421
   0.16873575  0.66310401  0.50080241
   0.33534416  0.33047981  0.40480747
   0.00069019  0.49861568  0.59837093
   0.25129329  0.75103824  0.59866427
Direct configuration=    13
   0.08413218  0.08416292  0.39417893
   0.75025044  0.49748984  0.60566637
   0.66495792  0.66931031  0.50088166
   0.83469712  0.58417821  0.39358615
   0.66412435  0.41463117  0.50078322
   0.83383175  0.33262023  0.39387461
   0.74887342  0.00359589  0.60291820
   0.83085193  0.08273240  0.39584971
   0.58307943  0.83812037  0.39749190
   0.41543250  0.66539530  0.50118230
   0.58293248  0.58339576  0.39354055
   0.49632280  0.00161792  0.60192547
   0.16780653  0.91474920  0.50087721
   0.33253463  0.83575841  0.39553660
   0.25140725  0.49843912  0.60094348
   0.33372608  0.58139092  0.39762422
   0.74917784  0.74982304  0.60568857
   0.91529862  0.16638060  0.50160604
   0.17006161  0.16614955  0.50004114
   0.91854316  0.41628147  0.50069118
   0.00252120  0.75022211  0.60590174
   0.08503262  0.58253400  0.39777148
   0.91780336  0.66645287  0.50043882
   0.91526374  0.91632501  0.50059639
   0.24853846  0.25021813  0.59684052
   0.83304789  0.83439238  0.40323382
   0.00095000  0.00092998  0.59918566
   0.08497807  0.33346819  0.40255240
   0.74922785  0.25037145  0.59853422
   0.00159714  0.24904103  0.59868081
   0.66419194  0.16584072  0.50001299
   0.49823731  0.74984733  0.59822974
   0.41800653  0.91766754  0.50010685
   0.49978234  0.49935212  0.59827651
   0.17047520  0.41592555  0.50003943
   0.08297119  0.83369315  0.40297379
   0.49919344  0.25134767  0.59614428
   0.41441451  0.41441125  0.50018082
   0.58293537  0.33278020  0.40323345
   0.41904674  0.16514579  0.50135337
   0.58172035  0.08552766  0.40549213
   0.66375632  0.91892234  0.50127580
   0.33360036  0.08643181  0.40370949
   0.24893690 -0.00033732  0.59740045
   0.16859769  0.66300787  0.50092985
   0.33543254  0.33048301  0.40514903
   0.00067166  0.49886456  0.59834602
   0.25102723  0.75091102  0.59852261
Direct configuration=    14
   0.08419112  0.08408285  0.39377447
   0.75020332  0.49752032  0.60610397
   0.66493301  0.66949778  0.50080574
   0.83463306  0.58409884  0.39311476
   0.66409807  0.41459008  0.50065783
   0.83360446  0.33297258  0.39332158
   0.74873832  0.00361626  0.60321396
   0.83101646  0.08273965  0.39565275
   0.58305103  0.83804737  0.39742171
   0.41588397  0.66495555  0.50079605
   0.58306638  0.58336020  0.39303747
   0.49629489  0.00178399  0.60220901
   0.16739333  0.91476575  0.50057766
   0.33241769  0.83597844  0.39515445
   0.25134327  0.49847722  0.60105764
   0.33399673  0.58135251  0.39752118
   0.74919152  0.74996100  0.60620307
   0.91527835  0.16640118  0.50128483
   0.16979092  0.16642112  0.49985688
   0.91867768  0.41617193  0.50056100
   0.00247155  0.75031322  0.60645872
   0.08526561  0.58232683  0.39774901
   0.91767059  0.66616702  0.50056609
   0.91539415  0.91634672  0.50084141
   0.24851241  0.25022049  0.59679370
   0.83309912  0.83448877  0.40356649
   0.00085390  0.00076040  0.59912614
   0.08492750  0.33353908  0.40267743
   0.74910172  0.25037312  0.59841263
   0.00165751  0.24906565  0.59854070
   0.66424319  0.16571898  0.50009318
   0.49840452  0.74985224  0.59808733
   0.41849111  0.91744518  0.49998699
   0.49976742  0.49918781  0.59820152
   0.17036117  0.41587374  0.50006631
   0.08307475  0.83389570  0.40323588
   0.49921319  0.25127877  0.59614767
   0.41430455  0.41438451  0.50021678
   0.58303863  0.33294307  0.40341882
   0.41915901  0.16495330  0.50158401
   0.58166651  0.08567893  0.40589548
   0.66357117  0.91874165  0.50166983
   0.33361427  0.08646651  0.40384557
   0.24888985 -0.00010734  0.59728597
   0.16847953  0.66292559  0.50103892
   0.33550819  0.33048574  0.40544136
   0.00065580  0.49907756  0.59832469
   0.25079952  0.75080214  0.59840136
Direct configuration=    15
   0.08429368  0.08436654  0.39338350
   0.75019152  0.49767461  0.60636410
   0.66520645  0.66891453  0.50071491
   0.83479143  0.58397972  0.39275337
   0.66410573  0.41473611  0.50040433
   0.83353295  0.33334375  0.39274675
   0.74883326  0.00368629  0.60351903
   0.83096808  0.08290651  0.39561171
   0.58306536  0.83818771  0.39749265
   0.41606253  0.66520244  0.50027938
   0.58329696  0.58324938  0.39252722
   0.49606132  0.00198551  0.60245524
   0.16824971  0.91456848  0.50019766
   0.33242824  0.83619942  0.39474756
   0.25108195  0.49864579  0.60117829
   0.33408964  0.58132690  0.39752522
   0.74932695  0.74978041  0.60669117
   0.91502509  0.16655061  0.50074665
   0.16981046  0.16599375  0.49966629
   0.91838002  0.41644996  0.50036053
   0.00241096  0.75016077  0.60698324
   0.08523762  0.58247755  0.39794138
   0.91764163  0.66613942  0.50079811
   0.91518725  0.91591039  0.50119364
   0.24848516  0.25029594  0.59677115
   0.83313060  0.83452948  0.40405340
   0.00067842  0.00091146  0.59901590
   0.08460512  0.33368891  0.40270663
   0.74906621  0.25017095  0.59823874
   0.00176082  0.24891837  0.59830149
   0.66468000  0.16566397  0.50029844
   0.49825446  0.74991264  0.59784174
   0.41787830  0.91730699  0.49986649
   0.49959063  0.49926960  0.59805188
   0.16965025  0.41608100  0.50015791
   0.08325509  0.83374074  0.40348491
   0.49925605  0.25114885  0.59626324
   0.41485675  0.41428930  0.50030428
   0.58326684  0.33312882  0.40361916
   0.41895233  0.16469566  0.50197580
   0.58188759  0.08541744  0.40630971
   0.66405735  0.91841105  0.50220370
   0.33374737  0.08621827  0.40392758
   0.24872390 -0.00025254  0.59702415
   0.16796161  0.66307912  0.50111546
   0.33553510  0.33074809  0.40570813
   0.00047050  0.49939571  0.59830366
   0.25097075  0.75079366  0.59817453
Direct configuration=    16
   0.08432043  0.08444053  0.39328152
   0.75018845  0.49771486  0.60643196
   0.66527777  0.66876239  0.50069122
   0.83483273  0.58394865  0.39265910
   0.66410773  0.41477420  0.50033820
   0.83351429  0.33344056  0.39259681
   0.74885803  0.00370456  0.60359861
   0.83095547  0.08295003  0.39560100
   0.58306909  0.83822431  0.39751116
   0.41610910  0.66526684  0.50014462
   0.58335710  0.58322047  0.39239413
   0.49600040  0.00203807  0.60251947
   0.16847309  0.91451702  0.50009854
   0.33243099  0.83625707  0.39464143
   0.25101379  0.49868976  0.60120976
   0.33411387  0.58132022  0.39752627
   0.74936228  0.74973330  0.60681848
   0.91495903  0.16658958  0.50060627
   0.16981556  0.16588228  0.49961658
   0.91830238  0.41652248  0.50030823
   0.00239516  0.75012100  0.60712005
   0.08523032  0.58251686  0.39799156
   0.91763407  0.66613222  0.50085863
   0.91513329  0.91579658  0.50128552
   0.24847806  0.25031563  0.59676527
   0.83313881  0.83454010  0.40418040
   0.00063264  0.00095086  0.59898715
   0.08452103  0.33372799  0.40271425
   0.74905695  0.25011822  0.59819338
   0.00178777  0.24887995  0.59823910
   0.66479394  0.16564962  0.50035198
   0.49821532  0.74992839  0.59777768
   0.41771845  0.91727095  0.49983506
   0.49954451  0.49929094  0.59801285
   0.16946481  0.41613506  0.50018180
   0.08330213  0.83370032  0.40354987
   0.49926723  0.25111496  0.59629338
   0.41500079  0.41426446  0.50032710
   0.58332636  0.33317728  0.40367142
   0.41889842  0.16462846  0.50207800
   0.58194526  0.08534923  0.40641776
   0.66418417  0.91832482  0.50234296
   0.33378209  0.08615351  0.40394897
   0.24868062 -0.00029042  0.59695585
   0.16782652  0.66311917  0.50113542
   0.33554212  0.33081652  0.40577772
   0.00042216  0.49947869  0.59829817
   0.25101541  0.75079145  0.59811536
Direct configuration=    17
   0.08419475  0.08476784  0.39303838
   0.75017606  0.49760274  0.60634329
   0.66540978  0.66858245  0.50065018
   0.83494212  0.58433305  0.39255183