  48  48   0   0
  0.5349325E+02  0.1100258E-08  0.1100258E-08  0.2449179E-08  0.3500000E-15
  1.000000000000000E-004
  CAR 
 unknown system                          
      6.38694325     -9.68515011  301     -1.08299278      1.00000000
     -9.685  0.0000E+00  0.0000E+00
     -9.632  0.0000E+00  0.0000E+00
     -9.578  0.0000E+00  0.0000E+00
     -9.524  0.0000E+00  0.0000E+00
     -9.471  0.0000E+00  0.0000E+00
     -9.417  0.0000E+00  0.0000E+00
     -9.364  0.0000E+00  0.0000E+00
     -9.310  0.0000E+00  0.0000E+00
     -9.257  0.7599E-17  0.4071E-18
     -9.203  0.2848E-14  0.1530E-15
     -9.149  0.6324E-12  0.3403E-13
     -9.096  0.8002E-10  0.4321E-11
     -9.042  0.5781E-08  0.3140E-09
     -8.989  0.2389E-06  0.1311E-07
     -8.935  0.5658E-05  0.3162E-06
     -8.882  0.7699E-04  0.4441E-05
     -8.828  0.6033E-03  0.3676E-04
     -8.774  0.2729E-02  0.1830E-03
     -8.721  0.7148E-02  0.5659E-03
     -8.667  0.1095E-01  0.1152E-02
     -8.614  0.1041E-01  0.1710E-02
     -8.560  0.8433E-02  0.2162E-02
     -8.507  0.9599E-02  0.2676E-02
     -8.453  0.1110E-01  0.3271E-02
     -8.399  0.8494E-02  0.3726E-02
     -8.346  0.3890E-02  0.3934E-02
     -8.292  0.1098E-02  0.3993E-02
     -8.239  0.5201E-03  0.4021E-02
     -8.185  0.1492E-02  0.4101E-02
     -8.132  0.3874E-02  0.4309E-02
     -8.078  0.6974E-02  0.4682E-02
     -8.024  0.9868E-02  0.5211E-02
     -7.971  0.1273E-01  0.5893E-02
     -7.917  0.1626E-01  0.6764E-02
     -7.864  0.1955E-01  0.7811E-02
     -7.810  0.2006E-01  0.8886E-02
     -7.756  0.1791E-01  0.9845E-02
     -7.703  0.1566E-01  0.1068E-01
     -7.649  0.1356E-01  0.1141E-01
     -7.596  0.1231E-01  0.1207E-01
     -7.542  0.1520E-01  0.1288E-01
     -7.489  0.2067E-01  0.1399E-01
     -7.435  0.2156E-01  0.1515E-01
     -7.381  0.1719E-01  0.1607E-01
     -7.328  0.1503E-01  0.1687E-01
     -7.274  0.1902E-01  0.1789E-01
     -7.221  0.2497E-01  0.1923E-01
     -7.167  0.2858E-01  0.2076E-01
     -7.114  0.3241E-01  0.2250E-01
     -7.060  0.3805E-01  0.2454E-01
     -7.006  0.4277E-01  0.2683E-01
     -6.953  0.4873E-01  0.2944E-01
     -6.899  0.5916E-01  0.3261E-01
     -6.846  0.7016E-01  0.3637E-01
     -6.792  0.7780E-01  0.4053E-01
     -6.739  0.8431E-01  0.4505E-01
     -6.685  0.9107E-01  0.4993E-01
     -6.631  0.9607E-01  0.5508E-01
     -6.578  0.9723E-01  0.6029E-01
     -6.524  0.9524E-01  0.6539E-01
     -6.471  0.9497E-01  0.7048E-01
     -6.417  0.1001E+00  0.7584E-01
     -6.364  0.1101E+00  0.8174E-01
     -6.310  0.1233E+00  0.8834E-01
     -6.256  0.1377E+00  0.9572E-01
     -6.203  0.1487E+00  0.1037E+00
     -6.149  0.1545E+00  0.1120E+00
     -6.096  0.1558E+00  0.1203E+00
     -6.042  0.1545E+00  0.1286E+00
     -5.989  0.1533E+00  0.1368E+00
     -5.935  0.1542E+00  0.1451E+00
     -5.881  0.1558E+00  0.1534E+00
     -5.828  0.1548E+00  0.1617E+00
     -5.774  0.1524E+00  0.1699E+00
     -5.721  0.1521E+00  0.1780E+00
     -5.667  0.1509E+00  0.1861E+00
     -5.614  0.1450E+00  0.1939E+00
     -5.560  0.1385E+00  0.2013E+00
     -5.506  0.1383E+00  0.2087E+00
     -5.453  0.1453E+00  0.2165E+00
     -5.399  0.1530E+00  0.2247E+00
     -5.346  0.1548E+00  0.2330E+00
     -5.292  0.1515E+00  0.2411E+00
     -5.239  0.1488E+00  0.2491E+00
     -5.185  0.1519E+00  0.2572E+00
     -5.131  0.1615E+00  0.2658E+00
     -5.078  0.1722E+00  0.2751E+00
     -5.024  0.1784E+00  0.2846E+00
     -4.971  0.1767E+00  0.2941E+00
     -4.917  0.1681E+00  0.3031E+00
     -4.864  0.1612E+00  0.3117E+00
     -4.810  0.1617E+00  0.3204E+00
     -4.756  0.1655E+00  0.3293E+00
     -4.703  0.1678E+00  0.3383E+00
     -4.649  0.1708E+00  0.3474E+00
     -4.596  0.1783E+00  0.3570E+00
     -4.542  0.1859E+00  0.3669E+00
     -4.489  0.1883E+00  0.3770E+00
     -4.435  0.1871E+00  0.3870E+00
     -4.381  0.1851E+00  0.3970E+00
     -4.328  0.1823E+00  0.4067E+00
     -4.274  0.1795E+00  0.4163E+00
     -4.221  0.1783E+00  0.4259E+00
     -4.167  0.1790E+00  0.4355E+00
     -4.113  0.1823E+00  0.4453E+00
     -4.060  0.1863E+00  0.4552E+00
     -4.006  0.1874E+00  0.4653E+00
     -3.953  0.1867E+00  0.4753E+00
     -3.899  0.1865E+00  0.4853E+00
     -3.846  0.1874E+00  0.4953E+00
     -3.792  0.1896E+00  0.5055E+00
     -3.738  0.1916E+00  0.5157E+00
     -3.685  0.1935E+00  0.5261E+00
     -3.631  0.1982E+00  0.5367E+00
     -3.578  0.2053E+00  0.5477E+00
     -3.524  0.2095E+00  0.5589E+00
     -3.471  0.2108E+00  0.5702E+00
     -3.417  0.2125E+00  0.5816E+00
     -3.363  0.2131E+00  0.5930E+00
     -3.310  0.2089E+00  0.6042E+00
     -3.256  0.1989E+00  0.6149E+00
     -3.203  0.1864E+00  0.6249E+00
     -3.149  0.1754E+00  0.6343E+00
     -3.096  0.1683E+00  0.6433E+00
     -3.042  0.1654E+00  0.6521E+00
     -2.988  0.1649E+00  0.6610E+00
     -2.935  0.1667E+00  0.6699E+00
     -2.881  0.1728E+00  0.6792E+00
     -2.828  0.1818E+00  0.6889E+00
     -2.774  0.1878E+00  0.6990E+00
     -2.721  0.1905E+00  0.7092E+00
     -2.667  0.1929E+00  0.7195E+00
     -2.613  0.1937E+00  0.7299E+00
     -2.560  0.1916E+00  0.7401E+00
     -2.506  0.1860E+00  0.7501E+00
     -2.453  0.1776E+00  0.7596E+00
     -2.399  0.1691E+00  0.7687E+00
     -2.346  0.1647E+00  0.7775E+00
     -2.292  0.1676E+00  0.7865E+00
     -2.238  0.1757E+00  0.7959E+00
     -2.185  0.1847E+00  0.8058E+00
     -2.131  0.1918E+00  0.8161E+00
     -2.078  0.1960E+00  0.8266E+00
     -2.024  0.1986E+00  0.8372E+00
     -1.971  0.2020E+00  0.8480E+00
     -1.917  0.2058E+00  0.8591E+00
     -1.863  0.2061E+00  0.8701E+00
     -1.810  0.2019E+00  0.8809E+00
     -1.756  0.1958E+00  0.8914E+00
     -1.703  0.1893E+00  0.9016E+00
     -1.649  0.1845E+00  0.9114E+00
     -1.596  0.1846E+00  0.9213E+00
     -1.542  0.1886E+00  0.9314E+00
     -1.488  0.1923E+00  0.9417E+00
     -1.435  0.1930E+00  0.9521E+00
     -1.381  0.1884E+00  0.9622E+00
     -1.328  0.1797E+00  0.9718E+00
     -1.274  0.1725E+00  0.9810E+00
     -1.221  0.1655E+00  0.9899E+00
     -1.167  0.1511E+00  0.9980E+00
     -1.113  0.1270E+00  0.1005E+01
     -1.060  0.9910E-01  0.1010E+01
     -1.006  0.7334E-01  0.1014E+01
     -0.953  0.5054E-01  0.1017E+01
     -0.899  0.3295E-01  0.1019E+01
     -0.845  0.2415E-01  0.1020E+01
     -0.792  0.2179E-01  0.1021E+01
     -0.738  0.2117E-01  0.1022E+01
     -0.685  0.2051E-01  0.1023E+01
     -0.631  0.2167E-01  0.1024E+01
     -0.578  0.2802E-01  0.1026E+01
     -0.524  0.3743E-01  0.1028E+01
     -0.470  0.4139E-01  0.1030E+01
     -0.417  0.3765E-01  0.1032E+01
     -0.363  0.3312E-01  0.1034E+01
     -0.310  0.3264E-01  0.1036E+01
     -0.256  0.3694E-01  0.1038E+01
     -0.203  0.4277E-01  0.1040E+01
     -0.149  0.4237E-01  0.1042E+01
     -0.095  0.3400E-01  0.1044E+01
     -0.042  0.2528E-01  0.1045E+01
      0.012  0.2227E-01  0.1047E+01
      0.065  0.2548E-01  0.1048E+01
      0.119  0.3304E-01  0.1050E+01
      0.172  0.3840E-01  0.1052E+01
      0.226  0.3643E-01  0.1054E+01
      0.280  0.3178E-01  0.1055E+01
      0.333  0.2938E-01  0.1057E+01
      0.387  0.3009E-01  0.1059E+01
      0.440  0.3496E-01  0.1060E+01
      0.494  0.4162E-01  0.1063E+01
      0.547  0.4563E-01  0.1065E+01
      0.601  0.4672E-01  0.1068E+01
      0.655  0.4682E-01  0.1070E+01
      0.708  0.4602E-01  0.1073E+01
      0.762  0.4195E-01  0.1075E+01
      0.815  0.3256E-01  0.1077E+01
      0.869  0.2167E-01  0.1078E+01
      0.922  0.1750E-01  0.1079E+01
      0.976  0.2105E-01  0.1080E+01
      1.030  0.2491E-01  0.1081E+01
      1.083  0.2570E-01  0.1083E+01
      1.137  0.2482E-01  0.1084E+01
      1.190  0.2161E-01  0.1085E+01
      1.244  0.1613E-01  0.1086E+01
      1.297  0.1067E-01  0.1086E+01
      1.351  0.8036E-02  0.1087E+01
      1.405  0.1026E-01  0.1087E+01
      1.458  0.1755E-01  0.1088E+01
      1.512  0.2819E-01  0.1090E+01
      1.565  0.3664E-01  0.1092E+01
      1.619  0.3750E-01  0.1094E+01
      1.672  0.3383E-01  0.1096E+01
      1.726  0.3254E-01  0.1097E+01
      1.780  0.3452E-01  0.1099E+01
      1.833  0.3561E-01  0.1101E+01
      1.887  0.3185E-01  0.1103E+01
      1.940  0.2441E-01  0.1104E+01
      1.994  0.1820E-01  0.1105E+01
      2.047  0.1566E-01  0.1106E+01
      2.101  0.1751E-01  0.1107E+01
      2.155  0.2306E-01  0.1108E+01
      2.208  0.2958E-01  0.1110E+01
      2.262  0.3633E-01  0.1112E+01
      2.315  0.4431E-01  0.1114E+01
      2.369  0.5082E-01  0.1117E+01
      2.422  0.5125E-01  0.1120E+01
      2.476  0.4584E-01  0.1122E+01
      2.530  0.4039E-01  0.1124E+01
      2.583  0.4022E-01  0.1126E+01
      2.637  0.4310E-01  0.1129E+01
      2.690  0.4416E-01  0.1131E+01
      2.744  0.4249E-01  0.1133E+01
      2.798  0.3695E-01  0.1135E+01
      2.851  0.2718E-01  0.1137E+01
      2.905  0.1745E-01  0.1138E+01
      2.958  0.1279E-01  0.1138E+01
      3.012  0.1347E-01  0.1139E+01
      3.065  0.1608E-01  0.1140E+01
      3.119  0.2035E-01  0.1141E+01
      3.173  0.2627E-01  0.1142E+01
      3.226  0.2822E-01  0.1144E+01
      3.280  0.2257E-01  0.1145E+01
      3.333  0.1476E-01  0.1146E+01
      3.387  0.1212E-01  0.1147E+01
      3.440  0.1467E-01  0.1147E+01
      3.494  0.1933E-01  0.1148E+01
      3.548  0.2645E-01  0.1150E+01
      3.601  0.3435E-01  0.1152E+01
      3.655  0.3795E-01  0.1154E+01
      3.708  0.3763E-01  0.1156E+01
      3.762  0.3662E-01  0.1158E+01
      3.815  0.3306E-01  0.1159E+01
      3.869  0.2677E-01  0.1161E+01
      3.923  0.2284E-01  0.1162E+01
      3.976  0.2388E-01  0.1163E+01
      4.030  0.2703E-01  0.1165E+01
      4.083  0.2799E-01  0.1166E+01
      4.137  0.2612E-01  0.1168E+01
      4.190  0.2469E-01  0.1169E+01
      4.244  0.2365E-01  0.1170E+01
      4.298  0.1985E-01  0.1171E+01
      4.351  0.1649E-01  0.1172E+01
      4.405  0.1985E-01  0.1173E+01
      4.458  0.2787E-01  0.1175E+01
      4.512  0.3476E-01  0.1177E+01
      4.565  0.4162E-01  0.1179E+01
      4.619  0.5048E-01  0.1182E+01
      4.673  0.5517E-01  0.1185E+01
      4.726  0.5134E-01  0.1187E+01
      4.780  0.4693E-01  0.1190E+01
      4.833  0.4951E-01  0.1192E+01
      4.887  0.5530E-01  0.1195E+01
      4.940  0.5954E-01  0.1199E+01
      4.994  0.6354E-01  0.1202E+01
      5.048  0.6841E-01  0.1206E+01
      5.101  0.6984E-01  0.1209E+01
      5.155  0.6532E-01  0.1213E+01
      5.208  0.5971E-01  0.1216E+01
      5.262  0.5441E-01  0.1219E+01
      5.315  0.4395E-01  0.1221E+01
      5.369  0.2796E-01  0.1223E+01
      5.423  0.1355E-01  0.1224E+01
      5.476  0.5056E-02  0.1224E+01
      5.530  0.1416E-02  0.1224E+01
      5.583  0.2741E-03  0.1224E+01
      5.637  0.3372E-04  0.1224E+01
      5.690  0.2499E-05  0.1224E+01
      5.744  0.1085E-06  0.1224E+01
      5.798  0.2720E-08  0.1224E+01
      5.851  0.3911E-10  0.1224E+01
      5.905  0.3211E-12  0.1224E+01
      5.958  0.1502E-14  0.1224E+01
      6.012  0.4145E-17  0.1224E+01
      6.066  0.0000E+00  0.1224E+01
      6.119  0.0000E+00  0.1224E+01
      6.173  0.0000E+00  0.1224E+01
      6.226  0.0000E+00  0.1224E+01
      6.280  0.0000E+00  0.1224E+01
      6.333  0.0000E+00  0.1224E+01
      6.387  0.0000E+00  0.1224E+01
