 vasp.5.4.1 24Jun15 (build Mar 14 2019 10:18:33) complex                        
  
 executed on INTEL-19.0.2+OPENMPI date 2022.07.11  15:55:38
 running on   36 total cores
 distrk:  each k-point on   36 cores,    1 groups
 distr:  one band on NCORES_PER_BAND=   6 cores,    6 groups


--------------------------------------------------------------------------------------------------------


 INCAR:
 POTCAR:    PAW_PBE Au 04Oct2007                  
 POTCAR:    PAW_PBE Pd 04Jan2005                  
 POTCAR:    PAW_PBE Au 04Oct2007                  
  local pseudopotential read in
  partial core-charges read in
  partial kinetic energy density read in
  atomic valenz-charges read in
  non local Contribution for L=           2  read in
    real space projection operators read in
  non local Contribution for L=           2  read in
    real space projection operators read in
  non local Contribution for L=           0  read in
    real space projection operators read in
  non local Contribution for L=           0  read in
    real space projection operators read in
  non local Contribution for L=           1  read in
    real space projection operators read in
  non local Contribution for L=           1  read in
    real space projection operators read in
    PAW grid and wavefunctions read in
 
   number of l-projection  operators is LMAX  =           6
   number of lm-projection operators is LMMAX =          18
 
 POTCAR:    PAW_PBE Pd 04Jan2005                  
  local pseudopotential read in
  partial core-charges read in
  partial kinetic energy density read in
  atomic valenz-charges read in
  non local Contribution for L=           2  read in
    real space projection operators read in
  non local Contribution for L=           2  read in
    real space projection operators read in
  non local Contribution for L=           0  read in
    real space projection operators read in
  non local Contribution for L=           0  read in
    real space projection operators read in
  non local Contribution for L=           1  read in
    real space projection operators read in
  non local Contribution for L=           1  read in
    real space projection operators read in
    PAW grid and wavefunctions read in
 
   number of l-projection  operators is LMAX  =           6
   number of lm-projection operators is LMMAX =          18
 
 Optimization of the real space projectors (new method)

 maximal supplied QI-value         = 15.12
 optimisation between [QCUT,QGAM] = [ 10.13, 20.41] = [ 28.73,116.64] Ry 
 Optimized for a Real-space Cutoff    1.51 Angstroem

   l    n(q)    QCUT    max X(q) W(low)/X(q) W(high)/X(q)  e(spline) 
   2      8    10.129    60.898    0.46E-03    0.46E-03    0.14E-06
   2      8    10.129    58.894    0.47E-03    0.47E-03    0.14E-06
   0      9    10.129   109.617    0.16E-03    0.11E-03    0.54E-07
   0      9    10.129    75.026    0.15E-03    0.11E-03    0.52E-07
   1      9    10.129    16.344    0.96E-04    0.15E-03    0.14E-06
   1      9    10.129    10.160    0.81E-04    0.12E-03    0.11E-06
 Optimization of the real space projectors (new method)

 maximal supplied QI-value         = 14.36
 optimisation between [QCUT,QGAM] = [ 10.20, 20.39] = [ 29.12,116.47] Ry 
 Optimized for a Real-space Cutoff    1.51 Angstroem

   l    n(q)    QCUT    max X(q) W(low)/X(q) W(high)/X(q)  e(spline) 
   2      8    10.197    59.108    0.26E-03    0.14E-03    0.96E-07
   2      8    10.197    58.101    0.27E-03    0.14E-03    0.98E-07
   0      9    10.197   102.235    0.54E-04    0.60E-05    0.72E-07
   0      9    10.197    58.388    0.52E-04    0.60E-05    0.68E-07
   1      9    10.197    22.191    0.18E-03    0.25E-03    0.79E-07
   1      9    10.197    15.590    0.15E-03    0.21E-03    0.69E-07
  PAW_PBE Au 04Oct2007                  :
 energy of atom  1       EATOM= -926.0867
 kinetic energy error for atom=    0.0062 (will be added to EATOM!!)
  PAW_PBE Pd 04Jan2005                  :
 energy of atom  2       EATOM= -809.7530
 kinetic energy error for atom=    0.0091 (will be added to EATOM!!)
 
 
 POSCAR: Au Pd                                   
  positions in cartesian coordinates
  No initial velocities read in
 exchange correlation table for  LEXCH =        8
   RHO(1)=    0.500       N(1)  =     2000
   RHO(2)=  100.500       N(2)  =     4000

 VTST: version 3.2, (02/03/18)

 CHAIN: initializing optimizer
 
 OPT: Using VASP Conjugate-Gradient optimizer
 CHAIN: Read ICHAIN            0
 
 POSCAR: Au Pd                                   
  positions in cartesian coordinates
  No initial velocities read in
 


--------------------------------------------------------------------------------------------------------


 ion  position               nearest neighbor table
   1  0.083  0.083  0.408-  41 2.75  15 2.75  18 2.75  21 2.75   4 2.75  23 2.75   6 2.75  42 2.75
                            19 2.75
   2  0.667  0.667  0.500-   8 2.75  31 2.75  33 2.75  28 2.75  14 2.75  24 2.75  34 2.75  37 2.75
                            38 2.75  47 2.75  30 2.75  48 2.75
   3  0.750  0.250  0.592-  28 2.75  19 2.75   5 2.75   7 2.75  29 2.75  31 2.75  25 2.75   9 2.75
                            26 2.75
   4  0.833  0.333  0.408-  24 2.75   6 2.75   8 2.75   1 2.75  30 2.75  11 2.75  18 2.75  19 2.75
                            28 2.75
   5  0.750  0.000  0.592-  26 2.75  22 2.75   3 2.75   9 2.75  40 2.75  48 2.75  29 2.75  39 2.75
                            14 2.75
   6  0.833  0.083  0.408-  19 2.75  11 2.75   4 2.75  21 2.75  32 2.75  13 2.75   1 2.75  22 2.75
                            26 2.75
   7  0.500  0.500  0.592-  37 2.75  28 2.75  17 2.75   3 2.75  33 2.75   9 2.75  31 2.75  44 2.75
                            10 2.75
   8  0.583  0.583  0.408-   2 2.75   4 2.75  11 2.75  15 2.75  47 2.75  46 2.75  30 2.75  28 2.75
                            37 2.75
   9  0.500  0.250  0.592-  10 2.75  26 2.75   5 2.75   7 2.75  39 2.75  44 2.75  16 2.75   3 2.75
                            12 2.75
  10  0.417  0.417  0.500-  27 2.75   9 2.75  44 2.75  12 2.75  37 2.75  26 2.75  45 2.75  36 2.75
                            28 2.75  46 2.75  11 2.75   7 2.75
  11  0.583  0.333  0.408-  28 2.75   8 2.75  13 2.75   6 2.75  46 2.75   4 2.75  27 2.75  26 2.75
                            10 2.75
  12  0.417  0.167  0.500-  23 2.75  39 2.75  16 2.75  14 2.75  34 2.75  36 2.75  10 2.75  26 2.75
                            41 2.75  27 2.75  13 2.75   9 2.75
  13  0.583  0.083  0.408-  26 2.75  11 2.75  27 2.75  32 2.75  47 2.75   6 2.75  23 2.75  14 2.75
                            12 2.75
  14  0.667  0.917  0.500-  47 2.75  48 2.75  39 2.75  38 2.75   2 2.75  12 2.75  26 2.75  22 2.75
                            34 2.75  13 2.75  32 2.75   5 2.75
  15  0.333  0.833  0.408-  34 2.75   8 2.75  23 2.75   1 2.75  46 2.75  21 2.75  47 2.75  37 2.75
                            42 2.75
  16  0.250  0.250  0.592-  36 2.75  12 2.75  20 2.75  39 2.75  43 2.75  44 2.75   9 2.75  25 2.75
                            41 2.75
  17  0.250  0.750  0.592-  42 2.75  37 2.75   7 2.75  29 2.75  43 2.75  44 2.75  40 2.75  33 2.75
                            45 2.75
  18  0.083  0.333  0.408-  36 2.75  23 2.75  30 2.75  35 2.75   1 2.75  27 2.75   4 2.75  41 2.75
                            24 2.75
  19  0.917  0.167  0.500-   6 2.75  29 2.75   3 2.75  24 2.75  28 2.75  22 2.75  42 2.75  41 2.75
                            26 2.75   4 2.75  25 2.75   1 2.75
  20  0.000  0.500  0.592-  38 2.75  36 2.75  16 2.75  25 2.75  40 2.75  48 2.75  44 2.75  31 2.75
                            24 2.75
  21  0.083  0.833  0.408-  42 2.75   6 2.75  35 2.75   1 2.75  46 2.75  32 2.75  15 2.75  45 2.75
                            22 2.75
  22  0.917  0.917  0.500-  32 2.75  40 2.75   5 2.75  19 2.75  38 2.75  26 2.75  45 2.75  42 2.75
                            14 2.75   6 2.75  29 2.75  21 2.75
  23  0.333  0.083  0.408-  12 2.75  15 2.75  18 2.75  27 2.75  47 2.75   1 2.75  13 2.75  34 2.75
                            41 2.75
  24  0.917  0.417  0.500-   4 2.75  25 2.75  31 2.75   2 2.75  19 2.75  38 2.75  41 2.75  28 2.75
                            36 2.75  30 2.75  20 2.75  18 2.75
  25  0.000  0.250  0.592-  24 2.75  41 2.75  29 2.75  31 2.75  20 2.75  43 2.75   3 2.75  16 2.75
                            19 2.75
  26  0.667  0.167  0.500-  13 2.75   5 2.75   9 2.75  10 2.75  14 2.75  22 2.75  28 2.75  12 2.75
                            19 2.75  11 2.75   6 2.75   3 2.75
  27  0.333  0.333  0.408-  10 2.75  13 2.75  23 2.75  35 2.75  46 2.75  18 2.75  11 2.75  12 2.75
                            36 2.75
  28  0.667  0.417  0.500-  11 2.75   3 2.75   7 2.75   2 2.75  19 2.75  26 2.75  37 2.75  10 2.75
                            24 2.75   8 2.75  31 2.75   4 2.75
  29  0.000  0.000  0.592-  19 2.75  42 2.75   3 2.75  25 2.75  40 2.75  17 2.75   5 2.75  43 2.75
                            22 2.75
  30  0.833  0.583  0.408-  38 2.75  18 2.75  32 2.75   4 2.75  47 2.75   8 2.75  35 2.75  24 2.75
                             2 2.75
  31  0.750  0.500  0.592-   2 2.75  24 2.75   3 2.75  25 2.75  33 2.75  48 2.75   7 2.75  20 2.75
                            28 2.75
  32  0.833  0.833  0.408-  22 2.75  13 2.75   6 2.75  30 2.75  35 2.75  21 2.75  47 2.75  38 2.75
                            14 2.75
  33  0.500  0.750  0.592-  34 2.75   2 2.75  31 2.75   7 2.75  39 2.75  43 2.75  17 2.75  48 2.75
                            37 2.75
  34  0.417  0.917  0.500-  15 2.75  33 2.75  43 2.75  12 2.75  37 2.75  41 2.75   2 2.75  42 2.75
                            14 2.75  23 2.75  39 2.75  47 2.75
  35  0.083  0.583  0.408-  45 2.75  21 2.75  27 2.75  32 2.75  18 2.75  30 2.75  46 2.75  36 2.75
                            38 2.75
  36  0.167  0.417  0.500-  18 2.75  16 2.75  20 2.75  12 2.75  38 2.75  41 2.75  45 2.75  24 2.75
                            10 2.75  35 2.75  44 2.75  27 2.75
  37  0.417  0.667  0.500-  46 2.75   7 2.75  17 2.75  28 2.75  34 2.75  42 2.75  10 2.75  45 2.75
                             2 2.75  15 2.75   8 2.75  33 2.75
  38  0.917  0.667  0.500-  30 2.75  20 2.75  48 2.75  24 2.75  14 2.75  36 2.75  22 2.75  45 2.75
                             2 2.75  32 2.75  35 2.75  40 2.75
  39  0.500  0.000  0.592-  12 2.75  14 2.75   9 2.75  16 2.75  33 2.75  48 2.75  43 2.75   5 2.75
                            34 2.75
  40  0.000  0.750  0.592-  22 2.75  45 2.75   5 2.75  29 2.75  44 2.75  20 2.75  17 2.75  48 2.75
                            38 2.75
  41  0.167  0.167  0.500-   1 2.75  43 2.75  25 2.75  34 2.75  36 2.75  42 2.75  24 2.75  12 2.75
                            19 2.75  18 2.75  16 2.75  23 2.75
  42  0.167  0.917  0.500-  21 2.75  17 2.75  29 2.75  19 2.75  37 2.75  41 2.75  45 2.75  34 2.75
                            22 2.75   1 2.75  43 2.75  15 2.75
  43  0.250  0.000  0.592-  41 2.75  34 2.75  25 2.75  33 2.75  16 2.75  17 2.75  39 2.75  29 2.75
                            42 2.75
  44  0.250  0.500  0.592-  45 2.75  10 2.75  16 2.75  17 2.75  40 2.75   9 2.75   7 2.75  20 2.75
                            36 2.75
  45  0.167  0.667  0.500-  35 2.75  44 2.75  40 2.75  36 2.75  22 2.75  42 2.75  10 2.75  38 2.75
                            37 2.75  21 2.75  17 2.75  46 2.75
  46  0.333  0.583  0.408-  37 2.75  15 2.75  21 2.75  27 2.75  11 2.75  35 2.75   8 2.75  10 2.75
                            45 2.75
  47  0.583  0.833  0.408-  14 2.75  13 2.75   8 2.75  23 2.75  30 2.75  15 2.75  32 2.75   2 2.75
                            34 2.75
  48  0.750  0.750  0.592-  14 2.75  38 2.75  20 2.75  31 2.75   5 2.75  39 2.75  33 2.75  40 2.75
                             2 2.75
 
  LATTYP: Found a hexagonal cell.
 ALAT       =    11.0025815153
 C/A-ratio  =     2.2260035120
  
  Lattice vectors:
  
 A1 = (   5.5012907576,  -9.5285150994,   0.0000000000)
 A2 = ( -11.0025815153,   0.0000000000,   0.0000000000)
 A3 = (   0.0000000000,   0.0000000000, -24.4917850943)


Analysis of symmetry for initial positions (statically):
=====================================================================
 Subroutine PRICEL returns:
 Original cell was already a primitive cell.
 

 Routine SETGRP: Setting up the symmetry group for a 
 hexagonal supercell.


 Subroutine GETGRP returns: Found  1 space group operations
 (whereof  1 operations were pure point group operations)
 out of a pool of 24 trial point group operations.


The static configuration has the point symmetry C_1 .


Analysis of symmetry for dynamics (positions and initial velocities):
=====================================================================
 Subroutine PRICEL returns:
 Original cell was already a primitive cell.
 

 Routine SETGRP: Setting up the symmetry group for a 
 hexagonal supercell.


 Subroutine GETGRP returns: Found  1 space group operations
 (whereof  1 operations were pure point group operations)
 out of a pool of 24 trial point group operations.


The dynamic configuration has the point symmetry C_1 .
 
 
 KPOINTS: Automatic mesh                          

Automatic generation of k-mesh.
Space group operators:
 irot       det(A)        alpha          n_x          n_y          n_z        tau_x        tau_y        tau_z
    1     1.000000     0.000000     1.000000     0.000000     0.000000     0.000000     0.000000     0.000000
 
 Subroutine IBZKPT returns following result:
 ===========================================
 
 Found      6 irreducible k-points:
 
 Following reciprocal coordinates:
            Coordinates               Weight
  0.250000  0.250000  0.000000     16.000000
  0.000000  0.250000  0.000000     16.000000
 -0.250000  0.000000  0.000000     16.000000
 -0.250000  0.250000  0.000000     16.000000
  0.500000 -0.250000  0.000000     16.000000
 -0.250000  0.500000  0.000000     16.000000
 
 Following cartesian coordinates:
            Coordinates               Weight
  0.022722  0.013119  0.000000     16.000000
  0.000000  0.026237  0.000000     16.000000
 -0.022722  0.013119  0.000000     16.000000
 -0.022722  0.039356  0.000000     16.000000
  0.045444 -0.052474  0.000000     16.000000
 -0.022722  0.065593  0.000000     16.000000
 


--------------------------------------------------------------------------------------------------------




 Dimension of arrays:
   k-points           NKPTS =      6   k-points in BZ     NKDIM =      6   number of bands    NBANDS=    306
   number of dos      NEDOS =    301   number of ions     NIONS =     48
   non local maximal  LDIM  =      6   non local SUM 2l+1 LMDIM =     18
   total plane-waves  NPLWV = 349920
   max r-space proj   IRMAX =   2009   max aug-charges    IRDMAX=   8532
   dimension x,y,z NGX =    54 NGY =   54 NGZ =  120
   dimension x,y,z NGXF=   108 NGYF=  108 NGZF=  240
   support grid    NGXF=   108 NGYF=  108 NGZF=  240
   ions per type =              24  24
 NGX,Y,Z   is equivalent  to a cutoff of   8.16,  8.16,  8.15 a.u.
 NGXF,Y,Z  is equivalent  to a cutoff of  16.32, 16.32, 16.29 a.u.


 I would recommend the setting:
   dimension x,y,z NGX =    54 NGY =   54 NGZ =  120
 SYSTEM =  unknown system                          
 POSCAR =  Au Pd                                   

 Startparameter for this run:
   NWRITE =      1    write-flag & timer
   PREC   = normal    normal or accurate (medium, high low for compatibility)
   ISTART =      0    job   : 0-new  1-cont  2-samecut
   ICHARG =      2    charge: 1-file 2-atom 10-const
   ISPIN  =      1    spin polarized calculation?
   LNONCOLLINEAR =      F non collinear calculations
   LSORBIT =      F    spin-orbit coupling
   INIWAV =      1    electr: 0-lowe 1-rand  2-diag
   LASPH  =      F    aspherical Exc in radial PAW
   METAGGA=      F    non-selfconsistent MetaGGA calc.

 Electronic Relaxation 1
   ENCUT  =  400.0 eV  29.40 Ry    5.42 a.u.  17.94 17.94 39.94*2*pi/ulx,y,z
   ENINI  =  400.0     initial cutoff
   ENAUG  =  416.2 eV  augmentation charge cutoff
   NELM   =    500;   NELMIN=  2; NELMDL= -5     # of ELM steps 
   EDIFF  = 0.1E-05   stopping-criterion for ELM
   LREAL  =      T    real-space projection
   NLSPLINE    = F    spline interpolate recip. space projectors
   LCOMPAT=      F    compatible to vasp.4.4
   GGA_COMPAT  = T    GGA compatible to vasp.4.4-vasp.4.6
   LMAXPAW     = -100 max onsite density
   LMAXMIX     =    2 max onsite mixed and CHGCAR
   VOSKOWN=      1    Vosko Wilk Nusair interpolation
   ROPT   =   -0.00050  -0.00050
 Ionic relaxation
   EDIFFG = -.2E-01   stopping-criterion for IOM
   NSW    =    500    number of steps for IOM
   NBLOCK =      1;   KBLOCK =    500    inner block; outer block 
   IBRION =      2    ionic relax: 0-MD 1-quasi-New 2-CG
   NFREE  =      2    steps in history (QN), initial steepest desc. (CG)
   ISIF   =      0    stress and relaxation
   IWAVPR =     11    prediction:  0-non 1-charg 2-wave 3-comb
   ISYM   =      2    0-nonsym 1-usesym 2-fastsym
   LCORR  =      T    Harris-Foulkes like correction to forces

   POTIM  = 0.3500    time-step for ionic-motion
   TEIN   =    0.0    initial temperature
   TEBEG  =    0.0;   TEEND  =   0.0 temperature during run
   SMASS  =  -3.00    Nose mass-parameter (am)
   estimated Nose-frequenzy (Omega)   =  0.10E-29 period in steps =****** mass=  -0.277E-26a.u.
   SCALEE = 1.0000    scale energy and forces
   NPACO  =    256;   APACO  = 16.0  distance and # of slots for P.C.
   PSTRESS=    0.0 pullay stress

  Mass of Ions in am
   POMASS = 196.97106.42
  Ionic Valenz
   ZVAL   =  11.00 10.00
  Atomic Wigner-Seitz radii
   RWIGS  =  -1.00 -1.00
  virtual crystal weights 
   VCA    =   1.00  1.00
   NELECT =     504.0000    total number of electrons
   NUPDOWN=      -1.0000    fix difference up-down

 DOS related values:
   EMIN   =  10.00;   EMAX   =-10.00  energy-range for DOS
   EFERMI =   0.00
   ISMEAR =     0;   SIGMA  =   0.10  broadening in eV -4-tet -1-fermi 0-gaus

 Electronic relaxation 2 (details)
   IALGO  =     68    algorithm
   LDIAG  =      T    sub-space diagonalisation (order eigenvalues)
   LSUBROT=      F    optimize rotation matrix (better conditioning)
   TURBO    =      0    0=normal 1=particle mesh
   IRESTART =      0    0=no restart 2=restart with 2 vectors
   NREBOOT  =      0    no. of reboots
   NMIN     =      0    reboot dimension
   EREF     =   0.00    reference energy to select bands
   IMIX   =      4    mixing-type and parameters
     AMIX     =   0.40;   BMIX     =  1.00
     AMIX_MAG =   1.60;   BMIX_MAG =  1.00
     AMIN     =   0.10
     WC   =   100.;   INIMIX=   1;  MIXPRE=   1;  MAXMIX= -45

 Intra band minimization:
   WEIMIN = 0.0010     energy-eigenvalue tresh-hold
   EBREAK =  0.82E-09  absolut break condition
   DEPER  =   0.30     relativ break condition  

   TIME   =   0.40     timestep for ELM

  volume/ion in A,a.u.               =      53.49       360.99
  Fermi-wavevector in a.u.,A,eV,Ry     =   0.951418  1.797920 12.315955  0.905197
  Thomas-Fermi vector in A             =   2.079887
 
 Write flags
   LWAVE  =      F    write WAVECAR
   LCHARG =      F    write CHGCAR
   LVTOT  =      F    write LOCPOT, total local potential
   LVHAR  =      F    write LOCPOT, Hartree potential only
   LELF   =      F    write electronic localiz. function (ELF)
   LORBIT =      0    0 simple, 1 ext, 2 COOP (PROOUT)


 Dipole corrections
   LMONO  =      F    monopole corrections only (constant potential shift)
   LDIPOL =      T    correct potential (dipole corrections)
   IDIPOL =      3    1-x, 2-y, 3-z, 4-all directions 
   EPSILON=  1.0000000 bulk dielectric constant

 Exchange correlation treatment:
   GGA     =    PE    GGA type
   LEXCH   =     8    internal setting for exchange type
   VOSKOWN=      1    Vosko Wilk Nusair interpolation
   LHFCALC =     F    Hartree Fock is set to
   LHFONE  =     F    Hartree Fock one center treatment
   AEXX    =    0.0000 exact exchange contribution

 Linear response parameters
   LEPSILON=     F    determine dielectric tensor
   LRPA    =     F    only Hartree local field effects (RPA)
   LNABLA  =     F    use nabla operator in PAW spheres
   LVEL    =     F    velocity operator in full k-point grid
   LINTERFAST=   F  fast interpolation
   KINTER  =     0    interpolate to denser k-point grid
   CSHIFT  =0.1000    complex shift for real part using Kramers Kronig
   OMEGAMAX=  -1.0    maximum frequency
   DEG_THRESHOLD= 0.2000000E-02 threshold for treating states as degnerate
   RTIME   =    0.100 relaxation time in fs

 Orbital magnetization related:
   ORBITALMAG=     F  switch on orbital magnetization
   LCHIMAG   =     F  perturbation theory with respect to B field
   DQ        =  0.001000  dq finite difference perturbation B field



--------------------------------------------------------------------------------------------------------


 conjugate gradient relaxation of ions
 charge density and potential will be updated during run
 non-spin polarized calculation
 RMM-DIIS sequential band-by-band and
  variant of blocked Davidson during initial phase
 perform sub-space diagonalisation
    before iterative eigenvector-optimisation
 modified Broyden-mixing scheme, WC =      100.0
 initial mixing is a Kerker type mixing with AMIX =  0.4000 and BMIX =      1.0000
 Hartree-type preconditioning will be used
 using additional bands           54
 real space projection scheme for non local part
 use partial core corrections
 calculate Harris-corrections to forces 
   (improved forces if not selfconsistent)
 use gradient corrections 
 use of overlap-Matrix (Vanderbilt PP)
 Gauss-broadening in eV      SIGMA  =   0.10


--------------------------------------------------------------------------------------------------------


  energy-cutoff  :      400.00
  volume of cell :     2567.68
      direct lattice vectors                 reciprocal lattice vectors
    11.002581515  0.000000000  0.000000000     0.090887761 -0.052474073  0.000000000
     5.501290758  9.528515099  0.000000000     0.000000000  0.104948147  0.000000000
     0.000000000  0.000000000 24.491785094     0.000000000  0.000000000  0.040830017

  length of vectors
    11.002581515 11.002581515 24.491785094     0.104948147  0.104948147  0.040830017


 
 k-points in units of 2pi/SCALE and weight: Automatic mesh                          
   0.02272194  0.01311852  0.00000000       0.167
   0.00000000  0.02623704  0.00000000       0.167
  -0.02272194  0.01311852  0.00000000       0.167
  -0.02272194  0.03935555  0.00000000       0.167
   0.04544388 -0.05247407  0.00000000       0.167
  -0.02272194  0.06559259  0.00000000       0.167
 
 k-points in reciprocal lattice and weights: Automatic mesh                          
   0.25000000  0.25000000  0.00000000       0.167
   0.00000000  0.25000000  0.00000000       0.167
  -0.25000000  0.00000000  0.00000000       0.167
  -0.25000000  0.25000000  0.00000000       0.167
   0.50000000 -0.25000000  0.00000000       0.167
  -0.25000000  0.50000000  0.00000000       0.167
 
 position of ions in fractional coordinates (direct lattice) 
   0.08333333  0.08333333  0.40830017
   0.66666667  0.66666667  0.50000000
   0.75000000  0.25000000  0.59169983
   0.83333333  0.33333333  0.40830017
   0.75000000  0.00000000  0.59169983
   0.83333333  0.08333333  0.40830017
   0.50000000  0.50000000  0.59169983
   0.58333333  0.58333333  0.40830017
   0.50000000  0.25000000  0.59169983
   0.41666667  0.41666667  0.50000000
   0.58333333  0.33333333  0.40830017
   0.41666667  0.16666667  0.50000000
   0.58333333  0.08333333  0.40830017
   0.66666667  0.91666667  0.50000000
   0.33333333  0.83333333  0.40830017
   0.25000000  0.25000000  0.59169983
   0.25000000  0.75000000  0.59169983
   0.08333333  0.33333333  0.40830017
   0.91666667  0.16666667  0.50000000
   0.00000000  0.50000000  0.59169983
   0.08333333  0.83333333  0.40830017
   0.91666667  0.91666667  0.50000000
   0.33333333  0.08333333  0.40830017
   0.91666667  0.41666667  0.50000000
   0.00000000  0.25000000  0.59169983
   0.66666667  0.16666667  0.50000000
   0.33333333  0.33333333  0.40830017
   0.66666667  0.41666667  0.50000000
   0.00000000  0.00000000  0.59169983
   0.83333333  0.58333333  0.40830017
   0.75000000  0.50000000  0.59169983
   0.83333333  0.83333333  0.40830017
   0.50000000  0.75000000  0.59169983
   0.41666667  0.91666667  0.50000000
   0.08333333  0.58333333  0.40830017
   0.16666667  0.41666667  0.50000000
   0.41666667  0.66666667  0.50000000
   0.91666667  0.66666667  0.50000000
   0.50000000  0.00000000  0.59169983
   0.00000000  0.75000000  0.59169983
   0.16666667  0.16666667  0.50000000
   0.16666667  0.91666667  0.50000000
   0.25000000  0.00000000  0.59169983
   0.25000000  0.50000000  0.59169983
   0.16666667  0.66666667  0.50000000
   0.33333333  0.58333333  0.40830017
   0.58333333  0.83333333  0.40830017
   0.75000000  0.75000000  0.59169983
 
 position of ions in cartesian coordinates  (Angst):
   1.37532269  0.79404292 10.00000000
  11.00258152  6.35234340 12.24589255
   9.62725883  2.38212877 14.49178509
  11.00258152  3.17617170 10.00000000
   8.25193614  0.00000000 14.49178509
   9.62725883  0.79404292 10.00000000
   8.25193614  4.76425755 14.49178509
   9.62725883  5.55830047 10.00000000
   6.87661345  2.38212877 14.49178509
   6.87661345  3.97021462 12.24589255
   8.25193614  3.17617170 10.00000000
   5.50129076  1.58808585 12.24589255
   6.87661345  0.79404292 10.00000000
  12.37790420  8.73447217 12.24589255
   8.25193614  7.94042925 10.00000000
   4.12596807  2.38212877 14.49178509
   6.87661345  7.14638632 14.49178509
   2.75064538  3.17617170 10.00000000
  11.00258152  1.58808585 12.24589255
   2.75064538  4.76425755 14.49178509
   5.50129076  7.94042925 10.00000000
  15.12854958  8.73447217 12.24589255
   4.12596807  0.79404292 10.00000000
  12.37790420  3.97021462 12.24589255
   1.37532269  2.38212877 14.49178509
   8.25193614  1.58808585 12.24589255
   5.50129076  3.17617170 10.00000000
   9.62725883  3.97021462 12.24589255
   0.00000000  0.00000000 14.49178509
  12.37790420  5.55830047 10.00000000
  11.00258152  4.76425755 14.49178509
  13.75322689  7.94042925 10.00000000
   9.62725883  7.14638632 14.49178509
   9.62725883  8.73447217 12.24589255
   4.12596807  5.55830047 10.00000000
   4.12596807  3.97021462 12.24589255
   8.25193614  6.35234340 12.24589255
  13.75322689  6.35234340 12.24589255
   5.50129076  0.00000000 14.49178509
   4.12596807  7.14638632 14.49178509
   2.75064538  1.58808585 12.24589255
   6.87661345  8.73447217 12.24589255
   2.75064538  0.00000000 14.49178509
   5.50129076  4.76425755 14.49178509
   5.50129076  6.35234340 12.24589255
   6.87661345  5.55830047 10.00000000
  11.00258152  7.94042925 10.00000000
  12.37790420  7.14638632 14.49178509
 


--------------------------------------------------------------------------------------------------------


 k-point  1 :   0.2500 0.2500 0.0000  plane waves:   46635
 k-point  2 :   0.0000 0.2500 0.0000  plane waves:   46635
 k-point  3 :  -0.2500 0.0000 0.0000  plane waves:   46635
 k-point  4 :  -0.2500 0.2500 0.0000  plane waves:   46644
 k-point  5 :   0.5000-0.2500 0.0000  plane waves:   46644
 k-point  6 :  -0.2500 0.5000 0.0000  plane waves:   46644

 maximum and minimum number of plane-waves per node :      7818     7732

 maximum number of plane-waves:     46644
 maximum index in each direction: 
   IXMAX=   18   IYMAX=   18   IZMAX=   39
   IXMIN=  -18   IYMIN=  -18   IZMIN=  -39

 WARNING: aliasing errors must be expected set NGX to  74 to avoid them
 WARNING: aliasing errors must be expected set NGY to  74 to avoid them
 WARNING: aliasing errors must be expected set NGZ to 158 to avoid them
 aliasing errors are usually negligible using standard VASP settings
 and one can safely disregard these warnings

 real space projection operators:
  total allocation   :      12803.06 KBytes
  max/ min on nodes  :       2145.66       2127.94


 parallel 3D FFT for wavefunctions:
    minimum data exchange during FFTs selected (reduces bandwidth)
 parallel 3D FFT for charge:
    minimum data exchange during FFTs selected (reduces bandwidth)


 total amount of memory used by VASP on root node    84353. kBytes
========================================================================

   base      :      30000. kBytes
   nonlr-proj:       4285. kBytes
   fftplans  :       4447. kBytes
   grid      :       6721. kBytes
   one-center:        124. kBytes
   wavefun   :      38776. kBytes
 
     INWAV:  cpu time    0.0000: real time    0.0000
 Broyden mixing: mesh for mixing (old mesh)
   NGX = 35   NGY = 35   NGZ = 79
  (NGX  =108   NGY  =108   NGZ  =240)
  gives a total of  96775 points

 initial charge density was supplied:
 charge density of overlapping atoms calculated
 number of electron     504.0000000 magnetization 
 keeping initial charge density in first step


--------------------------------------------------------------------------------------------------------


 Maximum index for non-local projection operator          355
 Maximum index for augmentation-charges          437 (set IRDMAX)


--------------------------------------------------------------------------------------------------------


 First call to EWALD:  gamma=   0.129
 Maximum number of real-space cells 4x 4x 2
 Maximum number of reciprocal cells 2x 2x 5

 FEWALD executed in parallel
    FEWALD:  cpu time    0.0026: real time    0.0026


----------------------------------------- Iteration    1(   1)  ---------------------------------------


    POTLOK:  cpu time    0.0469: real time    0.0473
    SETDIJ:  cpu time    0.0056: real time    0.0057
     EDDAV:  cpu time    7.2962: real time    7.3340
       DOS:  cpu time    0.0013: real time    0.0013
    --------------------------------------------
      LOOP:  cpu time    7.3528: real time    7.3950

 eigenvalue-minimisations  :  3672
 total energy-change (2. order) : 0.3201428E+04  (-0.1898481E+05)
 number of electron     504.0000000 magnetization 
 augmentation part      504.0000000 magnetization 

 DIPCOR: dipole corrections for dipol
 direction  3 min pos     1,
 dipolmoment           0.000000      0.000000      0.000002 electrons x Angstroem
 Tr[quadrupol]    -10268.074727

 energy correction for charged system         0.000000 eV
 dipol+quadrupol energy correction           -0.000000 eV
 added-field ion interaction          0.000001 eV  (added to PSCEN)


 Free energy of the ion-electron system (eV)
  ---------------------------------------------------
  alpha Z        PSCENC =       805.86936534
  Ewald energy   TEWEN  =    199932.91293057
  -Hartree energ DENC   =   -242346.17810887
  -exchange      EXHF   =         0.00000000
  -V(xc)+E(xc)   XCENC  =      -327.69779589
  PAW double counting   =     40340.05962942   -38292.62782345
  entropy T*S    EENTRO =        -0.14154851
  eigenvalues    EBANDS =      1429.44521145
  atomic energy  EATOM  =     41659.78587232
  Solvation  Ediel_sol  =         0.00000000
  ---------------------------------------------------
  free energy    TOTEN  =      3201.42773240 eV

  energy without entropy =     3201.56928090  energy(sigma->0) =     3201.49850665


--------------------------------------------------------------------------------------------------------




----------------------------------------- Iteration    1(   2)  ---------------------------------------


     EDDAV:  cpu time    8.7350: real time    8.7781
       DOS:  cpu time    0.0014: real time    0.0014
    --------------------------------------------
      LOOP:  cpu time    8.7371: real time    8.7817

 eigenvalue-minimisations  :  4392
 total energy-change (2. order) :-0.3187271E+04  (-0.2938634E+04)
 number of electron     504.0000000 magnetization 
 augmentation part      504.0000000 magnetization 

 DIPCOR: dipole corrections for dipol
 direction  3 min pos     1,
 dipolmoment           0.000000      0.000000      0.000002 electrons x Angstroem
 Tr[quadrupol]    -10268.074727

 energy correction for charged system         0.000000 eV
 dipol+quadrupol energy correction           -0.000000 eV
 added-field ion interaction          0.000001 eV  (added to PSCEN)


 Free energy of the ion-electron system (eV)
  ---------------------------------------------------
  alpha Z        PSCENC =       805.86936534
  Ewald energy   TEWEN  =    199932.91293057
  -Hartree energ DENC   =   -242346.17810887
  -exchange      EXHF   =         0.00000000
  -V(xc)+E(xc)   XCENC  =      -327.69779589
  PAW double counting   =     40340.05962942   -38292.62782345
  entropy T*S    EENTRO =        -0.13412022
  eigenvalues    EBANDS =     -1757.83341451
  atomic energy  EATOM  =     41659.78587232
  Solvation  Ediel_sol  =         0.00000000
  ---------------------------------------------------
  free energy    TOTEN  =        14.15653472 eV

  energy without entropy =       14.29065494  energy(sigma->0) =       14.22359483


--------------------------------------------------------------------------------------------------------




----------------------------------------- Iteration    1(   3)  ---------------------------------------


     EDDAV:  cpu time    8.2468: real time    8.2887
       DOS:  cpu time    0.0015: real time    0.0015
    --------------------------------------------
      LOOP:  cpu time    8.2490: real time    8.2936

 eigenvalue-minimisations  :  4116
 total energy-change (2. order) :-0.2154192E+03  (-0.2000316E+03)
 number of electron     504.0000000 magnetization 
 augmentation part      504.0000000 magnetization 

 DIPCOR: dipole corrections for dipol
 direction  3 min pos     1,
 dipolmoment           0.000000      0.000000      0.000002 electrons x Angstroem
 Tr[quadrupol]    -10268.074727

 energy correction for charged system         0.000000 eV
 dipol+quadrupol energy correction           -0.000000 eV
 added-field ion interaction          0.000001 eV  (added to PSCEN)


 Free energy of the ion-electron system (eV)
  ---------------------------------------------------
  alpha Z        PSCENC =       805.86936534
  Ewald energy   TEWEN  =    199932.91293057
  -Hartree energ DENC   =   -242346.17810887
  -exchange      EXHF   =         0.00000000
  -V(xc)+E(xc)   XCENC  =      -327.69779589
  PAW double counting   =     40340.05962942   -38292.62782345
  entropy T*S    EENTRO =        -0.18822915
  eigenvalues    EBANDS =     -1973.19851486
  atomic energy  EATOM  =     41659.78587232
  Solvation  Ediel_sol  =         0.00000000
  ---------------------------------------------------
  free energy    TOTEN  =      -201.26267456 eV

  energy without entropy =     -201.07444541  energy(sigma->0) =     -201.16855998


--------------------------------------------------------------------------------------------------------




----------------------------------------- Iteration    1(   4)  ---------------------------------------


     EDDAV:  cpu time    8.3957: real time    8.4858
       DOS:  cpu time    0.0015: real time    0.0015
    --------------------------------------------
      LOOP:  cpu time    8.3978: real time    8.4899

 eigenvalue-minimisations  :  4188
 total energy-change (2. order) :-0.5708997E+01  (-0.5653795E+01)
 number of electron     504.0000000 magnetization 
 augmentation part      504.0000000 magnetization 

 DIPCOR: dipole corrections for dipol
 direction  3 min pos     1,
 dipolmoment           0.000000      0.000000      0.000002 electrons x Angstroem
 Tr[quadrupol]    -10268.074727

 energy correction for charged system         0.000000 eV
 dipol+quadrupol energy correction           -0.000000 eV
 added-field ion interaction          0.000001 eV  (added to PSCEN)


 Free energy of the ion-electron system (eV)
  ---------------------------------------------------
  alpha Z        PSCENC =       805.86936534
  Ewald energy   TEWEN  =    199932.91293057
  -Hartree energ DENC   =   -242346.17810887
  -exchange      EXHF   =         0.00000000
  -V(xc)+E(xc)   XCENC  =      -327.69779589
  PAW double counting   =     40340.05962942   -38292.62782345
  entropy T*S    EENTRO =        -0.19181446
  eigenvalues    EBANDS =     -1978.90392652
  atomic energy  EATOM  =     41659.78587232
  Solvation  Ediel_sol  =         0.00000000
  ---------------------------------------------------
  free energy    TOTEN  =      -206.97167153 eV

  energy without entropy =     -206.77985707  energy(sigma->0) =     -206.87576430


--------------------------------------------------------------------------------------------------------




----------------------------------------- Iteration    1(   5)  ---------------------------------------


     EDDAV:  cpu time    8.7732: real time    8.8550
       DOS:  cpu time    0.0015: real time    0.0015
    CHARGE:  cpu time    0.2248: real time    0.2290
    MIXING:  cpu time    0.0021: real time    0.0022
    --------------------------------------------
      LOOP:  cpu time    9.0021: real time    9.0916

 eigenvalue-minimisations  :  4452
 total energy-change (2. order) :-0.1936839E+00  (-0.1929791E+00)
 number of electron     503.9998404 magnetization 
 augmentation part      191.2505605 magnetization 

 DIPCOR: dipole corrections for dipol
 direction  3 min pos     1,
 dipolmoment           0.000000      0.000000      0.000002 electrons x Angstroem
 Tr[quadrupol]    -10268.074727

 energy correction for charged system         0.000000 eV
 dipol+quadrupol energy correction           -0.000000 eV
 added-field ion interaction          0.000001 eV  (added to PSCEN)


 Broyden mixing:
  rms(total) = 0.62187E+01    rms(broyden)= 0.62186E+01
  rms(prec ) = 0.63550E+01
  weight for this iteration     100.00

 Free energy of the ion-electron system (eV)
  ---------------------------------------------------
  alpha Z        PSCENC =       805.86936534
  Ewald energy   TEWEN  =    199932.91293057
  -Hartree energ DENC   =   -242346.17810887
  -exchange      EXHF   =         0.00000000
  -V(xc)+E(xc)   XCENC  =      -327.69779589
  PAW double counting   =     40340.05962942   -38292.62782345
  entropy T*S    EENTRO =        -0.19251661
  eigenvalues    EBANDS =     -1979.09690829
  atomic energy  EATOM  =     41659.78587232
  Solvation  Ediel_sol  =         0.00000000
  ---------------------------------------------------
  free energy    TOTEN  =      -207.16535545 eV

  energy without entropy =     -206.97283884  energy(sigma->0) =     -207.06909714


--------------------------------------------------------------------------------------------------------




----------------------------------------- Iteration    1(   6)  ---------------------------------------


    POTLOK:  cpu time    0.0410: real time    0.0422
    SETDIJ:  cpu time    0.0051: real time    0.0052
    EDDIAG:  cpu time    1.3010: real time    1.3068
  RMM-DIIS:  cpu time    3.5324: real time    3.5485
    ORTHCH:  cpu time    0.3677: real time    0.3693
       DOS:  cpu time    0.0015: real time    0.0015
    CHARGE:  cpu time    0.2337: real time    0.2347
    MIXING:  cpu time    0.0019: real time    0.0019
    --------------------------------------------
      LOOP:  cpu time    5.4848: real time    5.5124

 eigenvalue-minimisations  :  3676
 total energy-change (2. order) : 0.2434320E+01  (-0.9827123E+01)
 number of electron     503.9998428 magnetization 
 augmentation part      191.0882603 magnetization 

 DIPCOR: dipole corrections for dipol
 direction  3 min pos     1,
 dipolmoment           0.000000      0.000000      1.014129 electrons x Angstroem
 Tr[quadrupol]    -10270.165908

 energy correction for charged system         0.000000 eV
 dipol+quadrupol energy correction           -0.036240 eV
 added-field ion interaction          0.481545 eV  (added to PSCEN)


 Broyden mixing:
  rms(total) = 0.56157E+01    rms(broyden)= 0.56156E+01
  rms(prec ) = 0.59630E+01
  weight for this iteration     100.00

 eigenvalues of (default mixing * dielectric matrix)
  average eigenvalue GAMMA=   0.6818
  0.6818

 Free energy of the ion-electron system (eV)
  ---------------------------------------------------
  alpha Z        PSCENC =       806.31466878
  Ewald energy   TEWEN  =    199932.91293057
  -Hartree energ DENC   =   -242118.71497976
  -exchange      EXHF   =         0.00000000
  -V(xc)+E(xc)   XCENC  =      -340.41367651
  PAW double counting   =     43905.92108847   -41917.94362437
  entropy T*S    EENTRO =        -0.25097247
  eigenvalues    EBANDS =     -2132.34234259
  atomic energy  EATOM  =     41659.78587232
  Solvation  Ediel_sol  =         0.00000000
  ---------------------------------------------------
  free energy    TOTEN  =      -204.73103557 eV

  energy without entropy =     -204.48006310  energy(sigma->0) =     -204.60554934


--------------------------------------------------------------------------------------------------------




----------------------------------------- Iteration    1(   7)  ---------------------------------------


    POTLOK:  cpu time    0.0406: real time    0.0411
    SETDIJ:  cpu time    0.0052: real time    0.0057
    EDDIAG:  cpu time    1.3071: real time    1.3139
  RMM-DIIS:  cpu time    3.4540: real time    3.4698
    ORTHCH:  cpu time    0.3629: real time    0.3646
       DOS:  cpu time    0.0015: real time    0.0015
    CHARGE:  cpu time    0.2287: real time    0.2298
    MIXING:  cpu time    0.0020: real time    0.0020
    --------------------------------------------
      LOOP:  cpu time    5.4025: real time    5.4309

 eigenvalue-minimisations  :  3680
 total energy-change (2. order) :-0.1058079E+02  (-0.6160262E+01)
 number of electron     503.9998372 magnetization 
 augmentation part      194.5785626 magnetization 

 DIPCOR: dipole corrections for dipol
 direction  3 min pos     1,
 dipolmoment           0.000000      0.000000     -1.325988 electrons x Angstroem
 Tr[quadrupol]    -10268.665138

 energy correction for charged system         0.000000 eV
 dipol+quadrupol energy correction           -0.061956 eV
 added-field ion interaction         -0.629626 eV  (added to PSCEN)


 Broyden mixing:
  rms(total) = 0.50163E+01    rms(broyden)= 0.50160E+01
  rms(prec ) = 0.59479E+01
  weight for this iteration     100.00

 eigenvalues of (default mixing * dielectric matrix)
  average eigenvalue GAMMA=   0.7952
  1.2721  0.3184

 Free energy of the ion-electron system (eV)
  ---------------------------------------------------
  alpha Z        PSCENC =       805.17778227
  Ewald energy   TEWEN  =    199932.91293057
  -Hartree energ DENC   =   -241969.66102394
  -exchange      EXHF   =         0.00000000
  -V(xc)+E(xc)   XCENC  =      -342.65639037
  PAW double counting   =     45164.91209811   -43201.02121944
  entropy T*S    EENTRO =        -0.25963053
  eigenvalues    EBANDS =     -2264.50224837
  atomic energy  EATOM  =     41659.78587232
  Solvation  Ediel_sol  =         0.00000000
  ---------------------------------------------------
  free energy    TOTEN  =      -215.31182937 eV

  energy without entropy =     -215.05219885  energy(sigma->0) =     -215.18201411


--------------------------------------------------------------------------------------------------------




----------------------------------------- Iteration    1(   8)  ---------------------------------------


    POTLOK:  cpu time    0.0409: real time    0.0416
    SETDIJ:  cpu time    0.0059: real time    0.0060
    EDDIAG:  cpu time    1.3037: real time    1.3113
  RMM-DIIS:  cpu time    3.4753: real time    3.4914
    ORTHCH:  cpu time    0.3623: real time    0.3639
       DOS:  cpu time    0.0015: real time    0.0015
    CHARGE:  cpu time    0.2284: real time    0.2294
    MIXING:  cpu time    0.0020: real time    0.0020
    --------------------------------------------
      LOOP:  cpu time    5.4207: real time    5.4511

 eigenvalue-minimisations  :  3675
 total energy-change (2. order) :-0.6172871E+01  (-0.9134168E+01)
 number of electron     503.9998356 magnetization 
 augmentation part      196.5315462 magnetization 

 DIPCOR: dipole corrections for dipol
 direction  3 min pos     1,
 dipolmoment           0.000000      0.000000      1.602450 electrons x Angstroem
 Tr[quadrupol]    -10269.410387

 energy correction for charged system         0.000000 eV
 dipol+quadrupol energy correction           -0.090484 eV
 added-field ion interaction          0.760900 eV  (added to PSCEN)


 Broyden mixing:
  rms(total) = 0.43532E+01    rms(broyden)= 0.43529E+01
  rms(prec ) = 0.51173E+01
  weight for this iteration     100.00

 eigenvalues of (default mixing * dielectric matrix)
  average eigenvalue GAMMA=   0.8643
  1.9435  0.4182  0.2311

 Free energy of the ion-electron system (eV)
  ---------------------------------------------------
  alpha Z        PSCENC =       806.53978026
  Ewald energy   TEWEN  =    199932.91293057
  -Hartree energ DENC   =   -241918.95452933
  -exchange      EXHF   =         0.00000000
  -V(xc)+E(xc)   XCENC  =      -344.77322920
  PAW double counting   =     46591.65595133   -44652.25830105
  entropy T*S    EENTRO =        -0.25908848
  eigenvalues    EBANDS =     -2296.13408665
  atomic energy  EATOM  =     41659.78587232
  Solvation  Ediel_sol  =         0.00000000
  ---------------------------------------------------
  free energy    TOTEN  =      -221.48470022 eV

  energy without entropy =     -221.22561174  energy(sigma->0) =     -221.35515598


--------------------------------------------------------------------------------------------------------




----------------------------------------- Iteration    1(   9)  ---------------------------------------


    POTLOK:  cpu time    0.0413: real time    0.0416
    SETDIJ:  cpu time    0.0052: real time    0.0052
    EDDIAG:  cpu time    1.2968: real time    1.3028
  RMM-DIIS:  cpu time    3.4596: real time    3.4756
    ORTHCH:  cpu time    0.3619: real time    0.3635
       DOS:  cpu time    0.0015: real time    0.0015
    CHARGE:  cpu time    0.2275: real time    0.2285
    MIXING:  cpu time    0.0021: real time    0.0021
    --------------------------------------------
      LOOP:  cpu time    5.3965: real time    5.4237

 eigenvalue-minimisations  :  3679
 total energy-change (2. order) : 0.8286460E+01  (-0.5230854E+01)
 number of electron     503.9998334 magnetization 
 augmentation part      198.7592922 magnetization 

 DIPCOR: dipole corrections for dipol
 direction  3 min pos     1,
 dipolmoment           0.000000      0.000000     -0.334458 electrons x Angstroem
 Tr[quadrupol]    -10270.377302

 energy correction for charged system         0.000000 eV
 dipol+quadrupol energy correction           -0.003942 eV
 added-field ion interaction         -0.158813 eV  (added to PSCEN)


 Broyden mixing:
  rms(total) = 0.36593E+01    rms(broyden)= 0.36590E+01
  rms(prec ) = 0.40341E+01
  weight for this iteration     100.00

 eigenvalues of (default mixing * dielectric matrix)
  average eigenvalue GAMMA=   0.7906
  2.1844  0.3405  0.3405  0.2969

 Free energy of the ion-electron system (eV)
  ---------------------------------------------------
  alpha Z        PSCENC =       805.70661004
  Ewald energy   TEWEN  =    199932.91293057
  -Hartree energ DENC   =   -241904.12813143
  -exchange      EXHF   =         0.00000000
  -V(xc)+E(xc)   XCENC  =      -346.65677024
  PAW double counting   =     48222.89164745   -46308.71988404
  entropy T*S    EENTRO =        -0.23775658
  eigenvalues    EBANDS =     -2274.75275813
  atomic energy  EATOM  =     41659.78587232
  Solvation  Ediel_sol  =         0.00000000
  ---------------------------------------------------
  free energy    TOTEN  =      -213.19824004 eV

  energy without entropy =     -212.96048346  energy(sigma->0) =     -213.07936175


--------------------------------------------------------------------------------------------------------




----------------------------------------- Iteration    1(  10)  ---------------------------------------


    POTLOK:  cpu time    0.0417: real time    0.0419
    SETDIJ:  cpu time    0.0051: real time    0.0051
    EDDIAG:  cpu time    1.2927: real time    1.2991
  RMM-DIIS:  cpu time    3.4766: real time    3.4961
    ORTHCH:  cpu time    0.3623: real time    0.3640
       DOS:  cpu time    0.0015: real time    0.0015
    CHARGE:  cpu time    0.2300: real time    0.2312
    MIXING:  cpu time    0.0021: real time    0.0021
    --------------------------------------------
      LOOP:  cpu time    5.4128: real time    5.4455

 eigenvalue-minimisations  :  3681
 total energy-change (2. order) : 0.1361369E+02  (-0.2079776E+01)
 number of electron     503.9998337 magnetization 
 augmentation part      199.2223025 magnetization 

 DIPCOR: dipole corrections for dipol
 direction  3 min pos     1,
 dipolmoment           0.000000      0.000000      0.514906 electrons x Angstroem
 Tr[quadrupol]    -10269.226132

 energy correction for charged system         0.000000 eV
 dipol+quadrupol energy correction           -0.009342 eV
 added-field ion interaction          0.244496 eV  (added to PSCEN)


 Broyden mixing:
  rms(total) = 0.22212E+01    rms(broyden)= 0.22210E+01
  rms(prec ) = 0.25826E+01
  weight for this iteration     100.00

 eigenvalues of (default mixing * dielectric matrix)
  average eigenvalue GAMMA=   0.7549
  2.2859  0.4533  0.4533  0.3576  0.2241

 Free energy of the ion-electron system (eV)
  ---------------------------------------------------
  alpha Z        PSCENC =       806.10451755
  Ewald energy   TEWEN  =    199932.91293057
  -Hartree energ DENC   =   -241874.50684393
  -exchange      EXHF   =         0.00000000
  -V(xc)+E(xc)   XCENC  =      -346.53586715
  PAW double counting   =     48897.26522431   -46990.20000375
  entropy T*S    EENTRO =        -0.14357999
  eigenvalues    EBANDS =     -2284.26680240
  atomic energy  EATOM  =     41659.78587232
  Solvation  Ediel_sol  =         0.00000000
  ---------------------------------------------------
  free energy    TOTEN  =      -199.58455247 eV

  energy without entropy =     -199.44097248  energy(sigma->0) =     -199.51276247


--------------------------------------------------------------------------------------------------------




----------------------------------------- Iteration    1(  11)  ---------------------------------------


    POTLOK:  cpu time    0.0407: real time    0.0410
    SETDIJ:  cpu time    0.0050: real time    0.0050
    EDDIAG:  cpu time    1.2922: real time    1.2980
  RMM-DIIS:  cpu time    3.4010: real time    3.5056
    ORTHCH:  cpu time    0.3618: real time    0.3635
       DOS:  cpu time    0.0015: real time    0.0015
    CHARGE:  cpu time    0.2262: real time    0.2273
    MIXING:  cpu time    0.0023: real time    0.0023
    --------------------------------------------
      LOOP:  cpu time    5.3314: real time    5.4465

 eigenvalue-minimisations  :  3680
 total energy-change (2. order) : 0.5788817E+01  (-0.1360934E+01)
 number of electron     503.9998341 magnetization 
 augmentation part      198.8506136 magnetization 

 DIPCOR: dipole corrections for dipol
 direction  3 min pos     1,
 dipolmoment           0.000000      0.000000      0.185641 electrons x Angstroem
 Tr[quadrupol]    -10270.523370

 energy correction for charged system         0.000000 eV
 dipol+quadrupol energy correction           -0.001214 eV
 added-field ion interaction          0.088149 eV  (added to PSCEN)


 Broyden mixing:
  rms(total) = 0.14634E+01    rms(broyden)= 0.14632E+01
  rms(prec ) = 0.16706E+01
  weight for this iteration     100.00

 eigenvalues of (default mixing * dielectric matrix)
  average eigenvalue GAMMA=   0.7100
  2.2242  0.5780  0.5780  0.3492  0.2332  0.2976

 Free energy of the ion-electron system (eV)
  ---------------------------------------------------
  alpha Z        PSCENC =       805.95629868
  Ewald energy   TEWEN  =    199932.91293057
  -Hartree energ DENC   =   -241941.81870598
  -exchange      EXHF   =         0.00000000
  -V(xc)+E(xc)   XCENC  =      -346.11538150
  PAW double counting   =     49147.73599164   -47240.16110701
  entropy T*S    EENTRO =        -0.18069511
  eigenvalues    EBANDS =     -2211.91093905
  atomic energy  EATOM  =     41659.78587232
  Solvation  Ediel_sol  =         0.00000000
  ---------------------------------------------------
  free energy    TOTEN  =      -193.79573543 eV

  energy without entropy =     -193.61504032  energy(sigma->0) =     -193.70538788


--------------------------------------------------------------------------------------------------------




----------------------------------------- Iteration    1(  12)  ---------------------------------------


    POTLOK:  cpu time    0.0415: real time    0.0418
    SETDIJ:  cpu time    0.0051: real time    0.0051
    EDDIAG:  cpu time    1.2994: real time    1.3070
  RMM-DIIS:  cpu time    3.4678: real time    3.4838
    ORTHCH:  cpu time    0.3616: real time    0.3632
       DOS:  cpu time    0.0015: real time    0.0015
    CHARGE:  cpu time    0.2265: real time    0.2276
    MIXING:  cpu time    0.0025: real time    0.0025
    --------------------------------------------
      LOOP:  cpu time    5.4067: real time    5.4347

 eigenvalue-minimisations  :  3681
 total energy-change (2. order) : 0.3593973E+01  (-0.5524955E+00)
 number of electron     503.9998354 magnetization 
 augmentation part      197.8961633 magnetization 

 DIPCOR: dipole corrections for dipol
 direction  3 min pos     1,
 dipolmoment           0.000000      0.000000      0.218704 electrons x Angstroem
 Tr[quadrupol]    -10270.497683

 energy correction for charged system         0.000000 eV
 dipol+quadrupol energy correction           -0.001685 eV
 added-field ion interaction          0.103848 eV  (added to PSCEN)


 Broyden mixing:
  rms(total) = 0.10128E+01    rms(broyden)= 0.10127E+01
  rms(prec ) = 0.11326E+01
  weight for this iteration     100.00

 eigenvalues of (default mixing * dielectric matrix)
  average eigenvalue GAMMA=   0.6687
  2.2552  0.5485  0.5485  0.4704  0.3187  0.3187  0.2205

 Free energy of the ion-electron system (eV)
  ---------------------------------------------------
  alpha Z        PSCENC =       805.97152719
  Ewald energy   TEWEN  =    199932.91293057
  -Hartree energ DENC   =   -241978.13971142
  -exchange      EXHF   =         0.00000000
  -V(xc)+E(xc)   XCENC  =      -345.07132069
  PAW double counting   =     49179.84161914   -47267.49330582
  entropy T*S    EENTRO =        -0.22220314
  eigenvalues    EBANDS =     -2177.78717083
  atomic energy  EATOM  =     41659.78587232
  Solvation  Ediel_sol  =         0.00000000
  ---------------------------------------------------
  free energy    TOTEN  =      -190.20176266 eV

  energy without entropy =     -189.97955952  energy(sigma->0) =     -190.09066109


--------------------------------------------------------------------------------------------------------




----------------------------------------- Iteration    1(  13)  ---------------------------------------


    POTLOK:  cpu time    0.0407: real time    0.0412
    SETDIJ:  cpu time    0.0050: real time    0.0050
    EDDIAG:  cpu time    1.3084: real time    1.3143
  RMM-DIIS:  cpu time    3.4117: real time    3.4299
    ORTHCH:  cpu time    0.3570: real time    0.3586
       DOS:  cpu time    0.0015: real time    0.0016
    CHARGE:  cpu time    0.2269: real time    0.2279
    MIXING:  cpu time    0.0027: real time    0.0027
    --------------------------------------------
      LOOP:  cpu time    5.3546: real time    5.3834

 eigenvalue-minimisations  :  3680
 total energy-change (2. order) : 0.5061138E+00  (-0.1909753E+00)
 number of electron     503.9998356 magnetization 
 augmentation part      197.6915728 magnetization 

 DIPCOR: dipole corrections for dipol
 direction  3 min pos     1,
 dipolmoment           0.000000      0.000000      0.145752 electrons x Angstroem
 Tr[quadrupol]    -10270.987473

 energy correction for charged system         0.000000 eV
 dipol+quadrupol energy correction           -0.000749 eV
 added-field ion interaction          0.069208 eV  (added to PSCEN)


 Broyden mixing:
  rms(total) = 0.67691E+00    rms(broyden)= 0.67672E+00
  rms(prec ) = 0.74355E+00
  weight for this iteration     100.00

 eigenvalues of (default mixing * dielectric matrix)
  average eigenvalue GAMMA=   0.6872
  2.2377  0.7473  0.7473  0.6525  0.3167  0.3167  0.2230  0.2568

 Free energy of the ion-electron system (eV)
  ---------------------------------------------------
  alpha Z        PSCENC =       805.93782405
  Ewald energy   TEWEN  =    199932.91293057
  -Hartree energ DENC   =   -242000.98968048
  -exchange      EXHF   =         0.00000000
  -V(xc)+E(xc)   XCENC  =      -344.88813019
  PAW double counting   =     49231.56278317   -47318.22115690
  entropy T*S    EENTRO =        -0.20940865
  eigenvalues    EBANDS =     -2155.58668272
  atomic energy  EATOM  =     41659.78587232
  Solvation  Ediel_sol  =         0.00000000
  ---------------------------------------------------
  free energy    TOTEN  =      -189.69564882 eV

  energy without entropy =     -189.48624018  energy(sigma->0) =     -189.59094450


--------------------------------------------------------------------------------------------------------




----------------------------------------- Iteration    1(  14)  ---------------------------------------


    POTLOK:  cpu time    0.0410: real time    0.0412
    SETDIJ:  cpu time    0.0053: real time    0.0053
    EDDIAG:  cpu time    1.2983: real time    1.3048
  RMM-DIIS:  cpu time    3.5150: real time    3.5312
    ORTHCH:  cpu time    0.3565: real time    0.3580
       DOS:  cpu time    0.0015: real time    0.0015
    CHARGE:  cpu time    0.2294: real time    0.2304
    MIXING:  cpu time    0.0028: real time    0.0028
    --------------------------------------------
      LOOP:  cpu time    5.4505: real time    5.4791

 eigenvalue-minimisations  :  3679
 total energy-change (2. order) : 0.1880177E+00  (-0.7054515E-01)
 number of electron     503.9998358 magnetization 
 augmentation part      197.4858539 magnetization 

 DIPCOR: dipole corrections for dipol
 direction  3 min pos     1,
 dipolmoment           0.000000      0.000000      0.111690 electrons x Angstroem
 Tr[quadrupol]    -10271.216578

 energy correction for charged system         0.000000 eV
 dipol+quadrupol energy correction           -0.000440 eV
 added-field ion interaction          0.053034 eV  (added to PSCEN)


 Broyden mixing:
  rms(total) = 0.60264E+00    rms(broyden)= 0.60257E+00
  rms(prec ) = 0.65604E+00
  weight for this iteration     100.00

 eigenvalues of (default mixing * dielectric matrix)
  average eigenvalue GAMMA=   0.7044
  2.2206  0.9609  0.9609  0.6740  0.3806  0.3806  0.2177  0.2723  0.2723

 Free energy of the ion-electron system (eV)
  ---------------------------------------------------
  alpha Z        PSCENC =       805.92195903
  Ewald energy   TEWEN  =    199932.91293057
  -Hartree energ DENC   =   -242019.26847627
  -exchange      EXHF   =         0.00000000
  -V(xc)+E(xc)   XCENC  =      -344.54318888
  PAW double counting   =     49248.70338636   -47333.19432918
  entropy T*S    EENTRO =        -0.23811771
  eigenvalues    EBANDS =     -2139.58766731
  atomic energy  EATOM  =     41659.78587232
  Solvation  Ediel_sol  =         0.00000000
  ---------------------------------------------------
  free energy    TOTEN  =      -189.50763107 eV

  energy without entropy =     -189.26951336  energy(sigma->0) =     -189.38857222


--------------------------------------------------------------------------------------------------------




----------------------------------------- Iteration    1(  15)  ---------------------------------------


    POTLOK:  cpu time    0.0412: real time    0.0414
    SETDIJ:  cpu time    0.0056: real time    0.0056
    EDDIAG:  cpu time    1.2979: real time    1.3048
  RMM-DIIS:  cpu time    3.4738: real time    3.4908
    ORTHCH:  cpu time    0.3553: real time    0.3571
       DOS:  cpu time    0.0015: real time    0.0015
    CHARGE:  cpu time    0.2259: real time    0.2269
    MIXING:  cpu time    0.0029: real time    0.0029
    --------------------------------------------
      LOOP:  cpu time    5.4047: real time    5.4345

 eigenvalue-minimisations  :  3679
 total energy-change (2. order) :-0.2614193E-01  (-0.4296848E-01)
 number of electron     503.9998357 magnetization 
 augmentation part      197.3721047 magnetization 

 DIPCOR: dipole corrections for dipol
 direction  3 min pos     1,
 dipolmoment           0.000000      0.000000      0.078583 electrons x Angstroem
 Tr[quadrupol]    -10271.550336

 energy correction for charged system         0.000000 eV
 dipol+quadrupol energy correction           -0.000218 eV
 added-field ion interaction          0.037314 eV  (added to PSCEN)


 Broyden mixing:
  rms(total) = 0.58252E+00    rms(broyden)= 0.58243E+00
  rms(prec ) = 0.65391E+00
  weight for this iteration     100.00

 eigenvalues of (default mixing * dielectric matrix)
  average eigenvalue GAMMA=   0.7064
  2.1577  1.1563  1.1563  0.6794  0.4476  0.4476  0.2815  0.2815  0.2217  0.2339

 Free energy of the ion-electron system (eV)
  ---------------------------------------------------
  alpha Z        PSCENC =       805.90646089
  Ewald energy   TEWEN  =    199932.91293057
  -Hartree energ DENC   =   -242036.46197885
  -exchange      EXHF   =         0.00000000
  -V(xc)+E(xc)   XCENC  =      -344.32306514
  PAW double counting   =     49260.01577790   -47342.81762527
  entropy T*S    EENTRO =        -0.23083532
  eigenvalues    EBANDS =     -2124.32131010
  atomic energy  EATOM  =     41659.78587232
  Solvation  Ediel_sol  =         0.00000000
  ---------------------------------------------------
  free energy    TOTEN  =      -189.53377300 eV

  energy without entropy =     -189.30293768  energy(sigma->0) =     -189.41835534


--------------------------------------------------------------------------------------------------------




----------------------------------------- Iteration    1(  16)  ---------------------------------------


    POTLOK:  cpu time    0.0402: real time    0.0404
    SETDIJ:  cpu time    0.0052: real time    0.0052
    EDDIAG:  cpu time    1.2897: real time    1.2956
  RMM-DIIS:  cpu time    3.4589: real time    3.4835
    ORTHCH:  cpu time    0.3492: real time    0.3559
       DOS:  cpu time    0.0016: real time    0.0016
    CHARGE:  cpu time    0.2224: real time    0.2244
    MIXING:  cpu time    0.0029: real time    0.0029
    --------------------------------------------
      LOOP:  cpu time    5.3706: real time    5.4129

 eigenvalue-minimisations  :  3680
 total energy-change (2. order) : 0.1536968E+00  (-0.3550466E-01)
 number of electron     503.9998360 magnetization 
 augmentation part      197.2928689 magnetization 

 DIPCOR: dipole corrections for dipol
 direction  3 min pos     1,
 dipolmoment           0.000000      0.000000      0.087073 electrons x Angstroem
 Tr[quadrupol]    -10271.752291

 energy correction for charged system         0.000000 eV
 dipol+quadrupol energy correction           -0.000267 eV
 added-field ion interaction          0.041345 eV  (added to PSCEN)


 Broyden mixing:
  rms(total) = 0.45977E+00    rms(broyden)= 0.45966E+00
  rms(prec ) = 0.53290E+00
  weight for this iteration     100.00

 eigenvalues of (default mixing * dielectric matrix)
  average eigenvalue GAMMA=   0.7042
  2.1404  1.3609  1.3609  0.5268  0.5268  0.5254  0.3206  0.3206  0.2494  0.2223
  0.1921

 Free energy of the ion-electron system (eV)
  ---------------------------------------------------
  alpha Z        PSCENC =       805.91044250
  Ewald energy   TEWEN  =    199932.91293057
  -Hartree energ DENC   =   -242050.00137743
  -exchange      EXHF   =         0.00000000
  -V(xc)+E(xc)   XCENC  =      -344.08121208
  PAW double counting   =     49257.93105690   -47339.02502121
  entropy T*S    EENTRO =        -0.22240086
  eigenvalues    EBANDS =     -2112.59036688
  atomic energy  EATOM  =     41659.78587232
  Solvation  Ediel_sol  =         0.00000000
  ---------------------------------------------------
  free energy    TOTEN  =      -189.38007616 eV

  energy without entropy =     -189.15767530  energy(sigma->0) =     -189.26887573


--------------------------------------------------------------------------------------------------------




----------------------------------------- Iteration    1(  17)  ---------------------------------------


    POTLOK:  cpu time    0.0403: real time    0.0405
    SETDIJ:  cpu time    0.0050: real time    0.0050
    EDDIAG:  cpu time    1.2944: real time    1.2996
  RMM-DIIS:  cpu time    3.4451: real time    3.4764
    ORTHCH:  cpu time    0.3548: real time    0.3564
       DOS:  cpu time    0.0015: real time    0.0015
    CHARGE:  cpu time    0.2253: real time    0.2263
    MIXING:  cpu time    0.0031: real time    0.0031
    --------------------------------------------
      LOOP:  cpu time    5.3702: real time    5.4112

 eigenvalue-minimisations  :  3680
 total energy-change (2. order) : 0.1546676E+00  (-0.2087467E-01)
 number of electron     503.9998360 magnetization 
 augmentation part      197.2655394 magnetization 

 DIPCOR: dipole corrections for dipol
 direction  3 min pos     1,
 dipolmoment           0.000000      0.000000      0.075011 electrons x Angstroem
 Tr[quadrupol]    -10272.073164

 energy correction for charged system         0.000000 eV
 dipol+quadrupol energy correction           -0.000198 eV
 added-field ion interaction          0.035618 eV  (added to PSCEN)


 Broyden mixing:
  rms(total) = 0.26889E+00    rms(broyden)= 0.26883E+00
  rms(prec ) = 0.30462E+00
  weight for this iteration     100.00

 eigenvalues of (default mixing * dielectric matrix)
  average eigenvalue GAMMA=   0.7229
  2.1682  1.5672  1.5672  0.6234  0.6234  0.3947  0.3947  0.3903  0.2689  0.2689
  0.2194  0.1889

 Free energy of the ion-electron system (eV)
  ---------------------------------------------------
  alpha Z        PSCENC =       805.90478388
  Ewald energy   TEWEN  =    199932.91293057
  -Hartree energ DENC   =   -242065.42193872
  -exchange      EXHF   =         0.00000000
  -V(xc)+E(xc)   XCENC  =      -343.92798013
  PAW double counting   =     49274.87138872   -47354.77119022
  entropy T*S    EENTRO =        -0.25052811
  eigenvalues    EBANDS =     -2098.32874684
  atomic energy  EATOM  =     41659.78587232
  Solvation  Ediel_sol  =         0.00000000
  ---------------------------------------------------
  free energy    TOTEN  =      -189.22540853 eV

  energy without entropy =     -188.97488042  energy(sigma->0) =     -189.10014447


--------------------------------------------------------------------------------------------------------




----------------------------------------- Iteration    1(  18)  ---------------------------------------


    POTLOK:  cpu time    0.0404: real time    0.0406
    SETDIJ:  cpu time    0.0052: real time    0.0053
    EDDIAG:  cpu time    1.2904: real time    1.2963
  RMM-DIIS:  cpu time    3.4926: real time    3.5091
    ORTHCH:  cpu time    0.3507: real time    0.3701
       DOS:  cpu time    0.0015: real time    0.0016
    CHARGE:  cpu time    0.2258: real time    0.2475
    MIXING:  cpu time    0.0032: real time    0.0033
    --------------------------------------------
      LOOP:  cpu time    5.4106: real time    5.5528

 eigenvalue-minimisations  :  3679
 total energy-change (2. order) : 0.5531663E-01  (-0.9881276E-02)
 number of electron     503.9998360 magnetization 
 augmentation part      197.1980057 magnetization 

 DIPCOR: dipole corrections for dipol
 direction  3 min pos     1,
 dipolmoment           0.000000      0.000000      0.085556 electrons x Angstroem
 Tr[quadrupol]    -10272.328902

 energy correction for charged system         0.000000 eV
 dipol+quadrupol energy correction           -0.000258 eV
 added-field ion interaction          0.040625 eV  (added to PSCEN)


 Broyden mixing:
  rms(total) = 0.19097E+00    rms(broyden)= 0.19092E+00
  rms(prec ) = 0.22325E+00
  weight for this iteration     100.00

 eigenvalues of (default mixing * dielectric matrix)
  average eigenvalue GAMMA=   0.7054
  2.1827  1.6347  1.6347  0.6609  0.6609  0.4011  0.4011  0.3925  0.2788  0.2788
  0.2305  0.2305  0.1837

 Free energy of the ion-electron system (eV)
  ---------------------------------------------------
  alpha Z        PSCENC =       805.90973155
  Ewald energy   TEWEN  =    199932.91293057
  -Hartree energ DENC   =   -242078.66042894
  -exchange      EXHF   =         0.00000000
  -V(xc)+E(xc)   XCENC  =      -343.77553254
  PAW double counting   =     49297.72214735   -47376.55787707
  entropy T*S    EENTRO =        -0.24994796
  eigenvalues    EBANDS =     -2086.25698718
  atomic energy  EATOM  =     41659.78587232
  Solvation  Ediel_sol  =         0.00000000
  ---------------------------------------------------
  free energy    TOTEN  =      -189.17009189 eV

  energy without entropy =     -188.92014394  energy(sigma->0) =     -189.04511792


--------------------------------------------------------------------------------------------------------




----------------------------------------- Iteration    1(  19)  ---------------------------------------


    POTLOK:  cpu time    0.0404: real time    0.0460
    SETDIJ:  cpu time    0.0051: real time    0.0052
    EDDIAG:  cpu time    1.2858: real time    1.3207
  RMM-DIIS:  cpu time    3.4799: real time    3.4960
    ORTHCH:  cpu time    0.3547: real time    0.3563
       DOS:  cpu time    0.0016: real time    0.0016
    CHARGE:  cpu time    0.2241: real time    0.2252
    MIXING:  cpu time    0.0034: real time    0.0034
    --------------------------------------------
      LOOP:  cpu time    5.3957: real time    5.4573

 eigenvalue-minimisations  :  3680
 total energy-change (2. order) : 0.3738975E-01  (-0.3379467E-02)
 number of electron     503.9998361 magnetization 
 augmentation part      197.1488053 magnetization 

 DIPCOR: dipole corrections for dipol
 direction  3 min pos     1,
 dipolmoment           0.000000      0.000000      0.074915 electrons x Angstroem
 Tr[quadrupol]    -10272.458938

 energy correction for charged system         0.000000 eV
 dipol+quadrupol energy correction           -0.000198 eV
 added-field ion interaction          0.035572 eV  (added to PSCEN)


 Broyden mixing:
  rms(total) = 0.87258E-01    rms(broyden)= 0.87215E-01
  rms(prec ) = 0.99001E-01
  weight for this iteration     100.00

 eigenvalues of (default mixing * dielectric matrix)
  average eigenvalue GAMMA=   0.7027
  2.2273  1.6640  1.6640  0.7063  0.7063  0.4647  0.4647  0.4208  0.3157  0.3157
  0.2526  0.2211  0.2333  0.1810

 Free energy of the ion-electron system (eV)
  ---------------------------------------------------
  alpha Z        PSCENC =       805.90473887
  Ewald energy   TEWEN  =    199932.91293057
  -Hartree energ DENC   =   -242085.04538582
  -exchange      EXHF   =         0.00000000
  -V(xc)+E(xc)   XCENC  =      -343.70278127
  PAW double counting   =     49306.94819846   -47385.32369209
  entropy T*S    EENTRO =        -0.25236717
  eigenvalues    EBANDS =     -2080.36021602
  atomic energy  EATOM  =     41659.78587232
  Solvation  Ediel_sol  =         0.00000000
  ---------------------------------------------------
  free energy    TOTEN  =      -189.13270215 eV

  energy without entropy =     -188.88033498  energy(sigma->0) =     -189.00651856


--------------------------------------------------------------------------------------------------------




----------------------------------------- Iteration    1(  20)  ---------------------------------------


    POTLOK:  cpu time    0.0419: real time    0.0429
    SETDIJ:  cpu time    0.0051: real time    0.0051
    EDDIAG:  cpu time    1.2895: real time    1.2955
  RMM-DIIS:  cpu time    3.4568: real time    3.4731
    ORTHCH:  cpu time    0.3588: real time    0.3604
       DOS:  cpu time    0.0016: real time    0.0016
    CHARGE:  cpu time    0.2317: real time    0.2328
    MIXING:  cpu time    0.0036: real time    0.0036
    --------------------------------------------
      LOOP:  cpu time    5.3897: real time    5.4173

 eigenvalue-minimisations  :  3681
 total energy-change (2. order) : 0.6578153E-02  (-0.9058653E-03)
 number of electron     503.9998361 magnetization 
 augmentation part      197.1172232 magnetization 

 DIPCOR: dipole corrections for dipol
 direction  3 min pos     1,
 dipolmoment           0.000000      0.000000      0.062121 electrons x Angstroem
 Tr[quadrupol]    -10272.570819

 energy correction for charged system         0.000000 eV
 dipol+quadrupol energy correction           -0.000136 eV
 added-field ion interaction          0.029497 eV  (added to PSCEN)


 Broyden mixing:
  rms(total) = 0.63578E-01    rms(broyden)= 0.63566E-01
  rms(prec ) = 0.68641E-01
  weight for this iteration     100.00

 eigenvalues of (default mixing * dielectric matrix)
  average eigenvalue GAMMA=   0.7033
  2.2875  1.6669  1.6669  0.8036  0.8036  0.4942  0.4942  0.4991  0.3372  0.3372
  0.2679  0.2679  0.2216  0.2216  0.1807

 Free energy of the ion-electron system (eV)
  ---------------------------------------------------
  alpha Z        PSCENC =       805.89872574
  Ewald energy   TEWEN  =    199932.91293057
  -Hartree energ DENC   =   -242090.14730043
  -exchange      EXHF   =         0.00000000
  -V(xc)+E(xc)   XCENC  =      -343.66278506
  PAW double counting   =     49312.73476302   -47390.88783671
  entropy T*S    EENTRO =        -0.25634382
  eigenvalues    EBANDS =     -2075.50414963
  atomic energy  EATOM  =     41659.78587232
  Solvation  Ediel_sol  =         0.00000000
  ---------------------------------------------------
  free energy    TOTEN  =      -189.12612400 eV

  energy without entropy =     -188.86978017  energy(sigma->0) =     -188.99795208


--------------------------------------------------------------------------------------------------------




----------------------------------------- Iteration    1(  21)  ---------------------------------------


    POTLOK:  cpu time    0.0415: real time    0.0418
    SETDIJ:  cpu time    0.0055: real time    0.0056
    EDDIAG:  cpu time    1.2920: real time    1.2981
  RMM-DIIS:  cpu time    3.4626: real time    3.4829
    ORTHCH:  cpu time    0.3536: real time    0.3552
       DOS:  cpu time    0.0015: real time    0.0015
    CHARGE:  cpu time    0.2259: real time    0.2269
    MIXING:  cpu time    0.0038: real time    0.0038
    --------------------------------------------
      LOOP:  cpu time    5.3871: real time    5.4189

 eigenvalue-minimisations  :  3682
 total energy-change (2. order) : 0.2021157E-02  (-0.3813570E-03)
 number of electron     503.9998361 magnetization 
 augmentation part      197.0994358 magnetization 

 DIPCOR: dipole corrections for dipol
 direction  3 min pos     1,
 dipolmoment           0.000000      0.000000      0.053536 electrons x Angstroem
 Tr[quadrupol]    -10272.669579

 energy correction for charged system         0.000000 eV
 dipol+quadrupol energy correction           -0.000101 eV
 added-field ion interaction          0.025421 eV  (added to PSCEN)


 Broyden mixing:
  rms(total) = 0.45542E-01    rms(broyden)= 0.45536E-01
  rms(prec ) = 0.49910E-01
  weight for this iteration     100.00

 eigenvalues of (default mixing * dielectric matrix)
  average eigenvalue GAMMA=   0.7342
  2.3684  1.7631  1.7631  0.9152  0.9152  0.6295  0.6295  0.5474  0.3817  0.3817
  0.2888  0.2888  0.2548  0.2191  0.2191  0.1810

 Free energy of the ion-electron system (eV)
  ---------------------------------------------------
  alpha Z        PSCENC =       805.89468418
  Ewald energy   TEWEN  =    199932.91293057
  -Hartree energ DENC   =   -242094.24923505
  -exchange      EXHF   =         0.00000000
  -V(xc)+E(xc)   XCENC  =      -343.64367042
  PAW double counting   =     49317.03276645   -47395.12381080
  entropy T*S    EENTRO =        -0.25517079
  eigenvalues    EBANDS =     -2071.47846930
  atomic energy  EATOM  =     41659.78587232
  Solvation  Ediel_sol  =         0.00000000
  ---------------------------------------------------
  free energy    TOTEN  =      -189.12410284 eV

  energy without entropy =     -188.86893205  energy(sigma->0) =     -188.99651745


--------------------------------------------------------------------------------------------------------




----------------------------------------- Iteration    1(  22)  ---------------------------------------


    POTLOK:  cpu time    0.0420: real time    0.0428
    SETDIJ:  cpu time    0.0052: real time    0.0052
    EDDIAG:  cpu time    1.2908: real time    1.2968
  RMM-DIIS:  cpu time    3.4455: real time    3.4657
    ORTHCH:  cpu time    0.3562: real time    0.3579
       DOS:  cpu time    0.0015: real time    0.0015
    CHARGE:  cpu time    0.2282: real time    0.2293
    MIXING:  cpu time    0.0040: real time    0.0040
    --------------------------------------------
      LOOP:  cpu time    5.3742: real time    5.4078

 eigenvalue-minimisations  :  3680
 total energy-change (2. order) : 0.9000376E-03  (-0.2577832E-03)
 number of electron     503.9998362 magnetization 
 augmentation part      197.0807440 magnetization 

 DIPCOR: dipole corrections for dipol
 direction  3 min pos     1,
 dipolmoment           0.000000      0.000000      0.051634 electrons x Angstroem
 Tr[quadrupol]    -10272.825237

 energy correction for charged system         0.000000 eV
 dipol+quadrupol energy correction           -0.000094 eV
 added-field ion interaction          0.024518 eV  (added to PSCEN)


 Broyden mixing:
  rms(total) = 0.39425E-01    rms(broyden)= 0.39421E-01
  rms(prec ) = 0.44726E-01
  weight for this iteration     100.00

 eigenvalues of (default mixing * dielectric matrix)
  average eigenvalue GAMMA=   0.7626
  2.4880  2.0213  2.0213  1.1950  0.7557  0.7557  0.5909  0.5909  0.4017  0.4017
  0.3041  0.3041  0.2571  0.2571  0.2194  0.2194  0.1807

 Free energy of the ion-electron system (eV)
  ---------------------------------------------------
  alpha Z        PSCENC =       805.89378810
  Ewald energy   TEWEN  =    199932.91293057
  -Hartree energ DENC   =   -242100.70784307
  -exchange      EXHF   =         0.00000000
  -V(xc)+E(xc)   XCENC  =      -343.61108000
  PAW double counting   =     49321.96754686   -47399.97395929
  entropy T*S    EENTRO =        -0.25401630
  eigenvalues    EBANDS =     -2065.13644198
  atomic energy  EATOM  =     41659.78587232
  Solvation  Ediel_sol  =         0.00000000
  ---------------------------------------------------
  free energy    TOTEN  =      -189.12320280 eV

  energy without entropy =     -188.86918650  energy(sigma->0) =     -188.99619465


--------------------------------------------------------------------------------------------------------




----------------------------------------- Iteration    1(  23)  ---------------------------------------


    POTLOK:  cpu time    0.0410: real time    0.0412
    SETDIJ:  cpu time    0.0055: real time    0.0055
    EDDIAG:  cpu time    1.2910: real time    1.2977
  RMM-DIIS:  cpu time    3.4458: real time    3.4616
    ORTHCH:  cpu time    0.3547: real time    0.3563
       DOS:  cpu time    0.0015: real time    0.0016
    CHARGE:  cpu time    0.2235: real time    0.2251
    MIXING:  cpu time    0.0041: real time    0.0041
    --------------------------------------------
      LOOP:  cpu time    5.3677: real time    5.3961

 eigenvalue-minimisations  :  3679
 total energy-change (2. order) : 0.1272697E-02  (-0.2076201E-03)
 number of electron     503.9998362 magnetization 
 augmentation part      197.0664677 magnetization 

 DIPCOR: dipole corrections for dipol
 direction  3 min pos     1,
 dipolmoment           0.000000      0.000000      0.050864 electrons x Angstroem
 Tr[quadrupol]    -10272.974439

 energy correction for charged system         0.000000 eV
 dipol+quadrupol energy correction           -0.000091 eV
[...]
    275       1.7454      0.00000
    276       1.8474      0.00000
    277       2.0934      0.00000
    278       2.2590      0.00000
    279       2.3371      0.00000
    280       2.3597      0.00000
    281       2.4686      0.00000
    282       2.6287      0.00000
    283       2.7364      0.00000
    284       3.0323      0.00000
    285       3.1328      0.00000
    286       3.1998      0.00000
    287       3.5346      0.00000
    288       3.5984      0.00000
    289       3.7515      0.00000
    290       3.9585      0.00000
    291       4.1055      0.00000
    292       4.1789      0.00000
    293       4.4811      0.00000
    294       4.4911      0.00000
    295       4.5760      0.00000
    296       4.6375      0.00000
    297       4.6810      0.00000
    298       4.8381      0.00000
    299       4.8580      0.00000
    300       4.9256      0.00000
    301       4.9510      0.00000
    302       5.0562      0.00000
    303       5.0756      0.00000
    304       5.0818      0.00000
    305       5.1723      0.00000
    306       5.2297      0.00000


--------------------------------------------------------------------------------------------------------


 soft charge-density along one line, spin component           1
         0         1         2         3         4         5         6         7         8         9
 total charge-density along one line
 
 pseudopotential strength for first ion, spin component:           1
 -8.082  -0.001  -0.002  -0.001  -0.001  -8.228  -0.001  -0.002
 -0.001  -8.004  -0.000   0.001  -0.003  -0.001  -8.151  -0.000
 -0.002  -0.000  -7.998   0.000   0.002  -0.002  -0.000  -8.146
 -0.001   0.001   0.000  -8.006  -0.000  -0.001   0.001   0.000
 -0.001  -0.003   0.002  -0.000  -8.084  -0.001  -0.003   0.002
 -8.228  -0.001  -0.002  -0.001  -0.001  -8.358  -0.001  -0.002
 -0.001  -8.151  -0.000   0.001  -0.003  -0.001  -8.283  -0.000
 -0.002  -0.000  -8.146   0.000   0.002  -0.002  -0.000  -8.277
 -0.001   0.001   0.000  -8.153  -0.000  -0.001   0.001   0.000
 -0.001  -0.003   0.002  -0.000  -8.230  -0.001  -0.003   0.002
 -0.001  -0.001  -0.027   0.001   0.001  -0.001  -0.001  -0.027
 -0.001  -0.001  -0.039   0.001   0.001  -0.001  -0.001  -0.039
 -0.001  -0.004  -0.000  -0.000  -0.000  -0.001  -0.004  -0.000
 -0.000   0.000  -0.007  -0.001   0.000  -0.000   0.000  -0.006
  0.000  -0.000   0.000  -0.004  -0.001   0.000  -0.000   0.000
 -0.001  -0.004  -0.000  -0.000  -0.000  -0.001  -0.004  -0.000
 -0.000   0.000  -0.007  -0.001   0.000  -0.000   0.000  -0.007
  0.000  -0.000   0.000  -0.004  -0.001   0.000  -0.000   0.000
 total augmentation occupancy for first ion, spin component:           1
  4.646  -0.016  -0.009   0.052  -0.014  -2.787   0.000  -0.007  -0.070  -0.006   0.056  -0.016  -0.010   0.002  -0.019  -0.000
 -0.016   3.962   0.037  -0.061   0.033   0.000  -1.703  -0.040   0.058  -0.067   0.016   0.009  -0.131  -0.009  -0.005   0.003
 -0.009   0.037   4.539  -0.048  -0.005  -0.007  -0.040  -2.406   0.047   0.014   1.174  -0.212  -0.002  -0.223   0.003   0.000
  0.052  -0.061  -0.048   4.032  -0.016  -0.069   0.058   0.047  -1.773   0.017  -0.004  -0.022  -0.005   0.010  -0.124  -0.000
 -0.014   0.033  -0.005  -0.016   4.618  -0.006  -0.068   0.014   0.017  -2.788  -0.041   0.011  -0.026  -0.001  -0.007   0.001
 -2.787   0.000  -0.007  -0.069  -0.006   2.817   0.011   0.021   0.082   0.022  -0.054   0.016   0.008   0.000   0.018  -0.000
  0.000  -1.703  -0.040   0.058  -0.068   0.011   1.417   0.042  -0.055   0.093  -0.014  -0.007   0.121   0.008   0.005  -0.005
 -0.007  -0.040  -2.406   0.047   0.014   0.021   0.042   2.220  -0.045  -0.023  -1.085   0.227   0.001   0.227  -0.001  -0.000
 -0.070   0.058   0.047  -1.773   0.017   0.082  -0.055  -0.045   1.486  -0.018   0.004   0.018   0.005  -0.008   0.115   0.000
 -0.006  -0.067   0.014   0.017  -2.788   0.022   0.093  -0.023  -0.018   2.841   0.040  -0.012   0.023  -0.000   0.005  -0.001
  0.056   0.016   1.174  -0.004  -0.041  -0.054  -0.014  -1.085   0.004   0.040   2.465  -0.558   0.001   0.102  -0.000  -0.000
 -0.016   0.009  -0.212  -0.022   0.011   0.016  -0.007   0.227   0.018  -0.012  -0.558   0.169  -0.000  -0.046   0.000   0.000
 -0.010  -0.131  -0.002  -0.005  -0.026   0.008   0.121   0.001   0.005   0.023   0.001  -0.000   0.193  -0.002  -0.002  -0.006
  0.002  -0.009  -0.223   0.010  -0.001   0.000   0.008   0.227  -0.008  -0.000   0.102  -0.046  -0.002   0.088   0.003   0.000
 -0.019  -0.005   0.003  -0.124  -0.007   0.018   0.005  -0.001   0.115   0.005  -0.000   0.000  -0.002   0.003   0.196   0.000
 -0.000   0.003   0.000  -0.000   0.001  -0.000  -0.005  -0.000   0.000  -0.001  -0.000   0.000  -0.006   0.000   0.000   0.000
 -0.000   0.001  -0.001  -0.002   0.000   0.000  -0.001  -0.005   0.001  -0.000  -0.007   0.002   0.000  -0.003   0.000   0.000
  0.001  -0.000  -0.000   0.003  -0.000  -0.001   0.000   0.000  -0.005   0.000   0.000  -0.000   0.000   0.000  -0.006  -0.000


------------------------ aborting loop because EDIFF is reached ----------------------------------------


    CHARGE:  cpu time    0.2255: real time    0.2502
    FORLOC:  cpu time    0.0159: real time    0.0163
    FORNL :  cpu time    1.3019: real time    1.3124
    FORCOR:  cpu time    0.0562: real time    0.0565
    FORHAR:  cpu time    0.0244: real time    0.0245
    MIXING:  cpu time    0.0032: real time    0.0032
    OFIELD:  cpu time    0.0000: real time    0.0000

 VOLUME and BASIS-vectors are now :
 -----------------------------------------------------------------------------
  energy-cutoff  :      400.00
  volume of cell :     2567.68
      direct lattice vectors                 reciprocal lattice vectors
    11.002581515  0.000000000  0.000000000     0.090887761 -0.052474073  0.000000000
     5.501290758  9.528515099  0.000000000     0.000000000  0.104948147  0.000000000
     0.000000000  0.000000000 24.491785094     0.000000000  0.000000000  0.040830017

  length of vectors
    11.002581515 11.002581515 24.491785094     0.104948147  0.104948147  0.040830017


 FORCES acting on ions
    electron-ion (+dipol)            ewald-force                    non-local-force                 convergence-correction
 -----------------------------------------------------------------------------------------------
   -.123E+01 0.401E+01 0.225E+04   0.124E+01 -.400E+01 -.225E+04   -.343E-02 -.131E-01 -.650E-01   0.142E-02 0.117E-02 0.393E-02
   0.612E+01 0.556E+01 0.109E+01   -.651E+01 -.549E+01 -.607E+00   0.388E+00 -.809E-01 -.486E+00   0.327E-02 0.207E-02 -.130E-02
   -.257E+02 0.182E+01 -.224E+04   0.265E+02 -.168E+01 0.224E+04   -.806E+00 -.135E+00 0.293E+00   -.103E-02 -.262E-03 -.180E-02
   0.228E+01 -.138E+02 0.229E+04   -.224E+01 0.142E+02 -.229E+04   -.391E-01 -.370E+00 0.155E+00   0.172E-02 -.382E-03 0.776E-03
   -.570E+01 0.119E+02 -.230E+04   0.554E+01 -.124E+02 0.230E+04   0.159E+00 0.553E+00 -.102E-01   -.914E-03 -.411E-03 -.138E-02
   0.152E+02 0.698E+01 0.225E+04   -.155E+02 -.729E+01 -.225E+04   0.294E+00 0.321E+00 0.585E-01   -.463E-03 -.236E-03 0.121E-02
   -.159E+02 -.167E+02 -.228E+04   0.163E+02 0.172E+02 0.228E+04   -.439E+00 -.448E+00 0.342E+00   -.170E-02 -.881E-03 -.134E-02
   0.777E+01 -.197E+01 0.224E+04   -.758E+01 0.222E+01 -.224E+04   -.184E+00 -.257E+00 -.514E-01   0.286E-02 0.109E-02 -.536E-04
   0.346E+01 0.673E+01 -.232E+04   -.383E+01 -.681E+01 0.232E+04   0.372E+00 0.721E-01 0.900E-01   -.134E-02 0.108E-02 -.240E-02
   -.117E+02 0.102E+02 -.907E+02   0.115E+02 -.965E+01 0.901E+02   0.140E+00 -.585E+00 0.610E+00   -.281E-02 -.385E-02 0.412E-04
   0.221E+02 -.917E+01 0.218E+04   -.226E+02 0.957E+01 -.218E+04   0.491E+00 -.404E+00 -.455E+00   0.573E-03 -.270E-02 0.105E-02
   -.517E+01 -.806E+00 -.398E+02   0.471E+01 0.801E+00 0.397E+02   0.461E+00 -.121E-02 0.663E-01   -.303E-02 0.145E-02 -.231E-02
   0.611E-01 -.433E+01 0.225E+04   -.482E-01 0.391E+01 -.225E+04   -.625E-02 0.423E+00 0.256E+00   -.118E-02 -.105E-02 0.519E-03
   -.720E+01 -.167E+02 -.274E+02   0.703E+01 0.165E+02 0.274E+02   0.166E+00 0.209E+00 0.130E-01   -.233E-03 -.717E-03 -.219E-02
   0.352E+01 0.182E+02 0.223E+04   -.326E+01 -.186E+02 -.223E+04   -.257E+00 0.362E+00 -.611E+00   0.221E-02 0.382E-02 0.182E-02
   0.233E+02 0.180E+02 -.227E+04   -.238E+02 -.182E+02 0.227E+04   0.418E+00 0.242E+00 0.243E+00   0.244E-03 0.218E-02 -.517E-02
   -.808E+01 -.238E+02 -.225E+04   0.770E+01 0.242E+02 0.225E+04   0.368E+00 -.378E+00 0.592E+00   0.639E-03 -.143E-02 -.712E-04
   -.227E+02 -.243E+02 0.223E+04   0.235E+02 0.250E+02 -.223E+04   -.719E+00 -.706E+00 -.400E+00   0.770E-03 -.519E-04 0.438E-02
   0.749E+01 -.405E+01 0.322E+02   -.732E+01 0.397E+01 -.311E+02   -.156E+00 0.898E-01 -.115E+01   0.140E-02 0.442E-03 -.110E-02
   0.164E+02 0.277E+01 -.230E+04   -.162E+02 -.207E+01 0.230E+04   -.162E+00 -.697E+00 0.421E+00   0.222E-02 -.113E-02 -.504E-02
   0.110E+02 0.297E+02 0.225E+04   -.112E+02 -.307E+02 -.225E+04   0.205E+00 0.103E+01 -.297E+00   -.227E-02 0.218E-02 -.307E-03
   -.123E+01 -.137E+02 -.161E+02   0.148E+01 0.131E+02 0.166E+02   -.248E+00 0.561E+00 -.512E+00   -.225E-02 0.293E-03 -.223E-02
   -.142E+02 -.974E+01 0.227E+04   0.145E+02 0.959E+01 -.227E+04   -.306E+00 0.150E+00 -.250E+00   -.217E-03 0.422E-03 0.299E-02
   -.689E+00 0.101E+02 0.473E+01   0.925E+00 -.101E+02 -.424E+01   -.245E+00 0.373E-02 -.483E+00   0.607E-02 -.607E-03 -.406E-03
   -.138E+01 0.127E+02 -.197E+04   0.136E+01 -.130E+02 0.197E+04   0.108E-01 0.309E+00 0.162E+01   0.238E-02 0.201E-02 -.391E-02
   -.153E+01 -.104E+01 -.448E+02   0.175E+01 0.136E+01 0.448E+02   -.228E+00 -.331E+00 0.597E-01   -.249E-03 -.113E-04 -.150E-02
   -.201E+01 -.245E+02 0.193E+04   0.184E+01 0.248E+02 -.192E+04   0.176E+00 -.338E+00 -.147E+01   -.316E-02 -.287E-02 0.325E-02
   0.370E+01 0.109E+02 -.598E+01   -.384E+01 -.108E+02 0.656E+01   0.143E+00 -.902E-01 -.578E+00   -.492E-03 -.259E-02 -.908E-03
   -.212E+02 -.324E+01 -.198E+04   0.215E+02 0.304E+01 0.198E+04   -.309E+00 0.211E+00 0.160E+01   -.961E-03 0.561E-03 -.226E-02
   -.162E+02 -.153E+02 0.198E+04   0.166E+02 0.157E+02 -.197E+04   -.410E+00 -.399E+00 -.160E+01   0.199E-02 0.688E-03 0.119E-02
   -.498E+01 -.322E+01 -.198E+04   0.475E+01 0.338E+01 0.198E+04   0.228E+00 -.152E+00 0.150E+01   0.200E-02 0.406E-03 -.155E-02
   0.238E+01 0.194E+02 0.196E+04   -.258E+01 -.198E+02 -.196E+04   0.200E+00 0.427E+00 -.150E+01   -.103E-02 -.139E-02 0.122E-02
   -.183E+01 -.131E+02 -.198E+04   0.202E+01 0.133E+02 0.198E+04   -.191E+00 -.200E+00 0.190E+01   0.396E-03 0.175E-02 -.910E-03
   0.452E+01 -.416E+01 0.421E+02   -.506E+01 0.415E+01 -.412E+02   0.549E+00 0.761E-02 -.839E+00   0.300E-03 0.343E-02 -.193E-02
   -.962E+01 0.370E+01 0.192E+04   0.946E+01 -.364E+01 -.192E+04   0.172E+00 -.649E-01 -.183E+01   -.420E-02 -.108E-02 0.302E-02
   0.679E+01 0.802E+01 -.666E+02   -.654E+01 -.746E+01 0.661E+02   -.251E+00 -.562E+00 0.515E+00   -.307E-02 -.947E-03 -.479E-03
   0.330E+00 0.213E+01 -.286E+02   -.493E+00 -.184E+01 0.286E+02   0.160E+00 -.295E+00 -.647E-03   0.168E-02 0.118E-02 -.601E-06
   -.148E+01 0.413E+01 -.582E+02   0.210E+01 -.420E+01 0.577E+02   -.614E+00 0.751E-01 0.443E+00   -.253E-04 -.292E-02 -.163E-02
   0.188E+02 0.196E+02 -.199E+04   -.191E+02 -.200E+02 0.199E+04   0.354E+00 0.405E+00 0.166E+01   -.937E-03 -.183E-03 -.257E-02
   -.358E+01 -.433E+01 -.201E+04   0.360E+01 0.408E+01 0.201E+04   -.189E-01 0.251E+00 0.178E+01   -.150E-02 -.187E-02 -.175E-02
   -.501E+00 -.309E+01 0.358E+02   0.440E+00 0.259E+01 -.349E+02   0.512E-01 0.501E+00 -.952E+00   0.202E-02 0.164E-02 -.148E-02
   0.367E+01 -.202E+01 0.287E+02   -.306E+01 0.204E+01 -.277E+02   -.611E+00 -.240E-01 -.960E+00   0.238E-02 0.372E-02 -.190E-02
   0.672E+01 0.111E+01 -.193E+04   -.658E+01 -.114E+01 0.193E+04   -.147E+00 0.292E-01 0.194E+01   0.213E-02 0.584E-03 -.364E-02
   0.637E+01 -.124E+02 -.202E+04   -.664E+01 0.127E+02 0.201E+04   0.261E+00 -.249E+00 0.164E+01   -.210E-02 -.162E-02 -.136E-02
   -.452E+01 -.515E+01 -.455E+02   0.426E+01 0.479E+01 0.455E+02   0.266E+00 0.360E+00 0.397E-02   -.490E-02 -.233E-02 0.198E-04
   0.178E+02 0.122E+02 0.192E+04   -.182E+02 -.121E+02 -.192E+04   0.326E+00 -.125E+00 -.177E+01   -.196E-03 -.696E-03 0.310E-03
   -.154E+02 0.785E+01 0.199E+04   0.155E+02 -.798E+01 -.199E+04   -.157E+00 0.126E+00 -.141E+01   0.910E-03 0.101E-02 0.113E-02
   0.139E+02 0.308E+01 -.201E+04   -.139E+02 -.320E+01 0.201E+04   -.530E-01 0.118E+00 0.144E+01   0.707E-03 -.506E-04 -.265E-02
 -----------------------------------------------------------------------------------------------
   0.193E+00 0.679E-01 -.151E+01   0.316E-12 0.201E-12 -.455E-12   -.201E+00 -.722E-01 0.157E+01   0.359E-04 0.887E-03 -.307E-01
 
 
 POSITION                                       TOTAL-FORCE (eV/Angst)
 -----------------------------------------------------------------------------------
      1.38556      0.78296      9.67805         0.003880     -0.003324     -0.001031
     10.98192      6.35972     12.23442        -0.004136     -0.006763     -0.000602
      9.64332      2.38912     14.74578         0.004241      0.005826      0.000800
     11.02161      3.19213      9.62624        -0.001791     -0.000215      0.010721
      8.24430     -0.02326     14.82822        -0.007977      0.006354     -0.011376
      9.62097      0.76479      9.68332        -0.000923      0.004215     -0.001891
      8.26909      4.79947     14.78387         0.005646      0.000841      0.014122
      9.64398      5.55942      9.74095         0.007705     -0.004919     -0.002379
      6.85951      2.38052     14.87463         0.001990     -0.002912     -0.003095
      6.87666      3.98453     12.33494        -0.012250      0.005171     -0.011587
      8.24606      3.17724      9.81196        -0.001353     -0.005277     -0.007776
      5.47733      1.59092     12.28059        -0.000460     -0.005150      0.003743
      6.88479      0.77176      9.71961         0.005559     -0.002246      0.004352
     12.36966      8.73178     12.26375        -0.005205      0.006186      0.003619
      8.26373      7.91074      9.74437         0.006516      0.000771     -0.002431
      4.09415      2.37605     14.76879        -0.005599      0.000920      0.012598
      6.86779      7.17401     14.71670        -0.003974      0.010666      0.007762
      2.78994      3.20355      9.74210         0.005891     -0.005801     -0.006185
     10.99773      1.58719     12.21276         0.009292      0.008974      0.003833
      2.74053      4.79392     14.79749        -0.005470      0.004512     -0.000439
      5.48959      7.88516      9.73478         0.003517     -0.003282      0.002789
     15.13435      8.71573     12.25778         0.000919     -0.007110     -0.000743
      4.15147      0.78874      9.68476         0.000479     -0.002950      0.008701
     12.38758      3.97258     12.23273        -0.002324     -0.009244      0.000424
      1.36942      2.37594     14.58963        -0.007129      0.004709     -0.008081
      8.24846      1.59111     12.29160        -0.007042     -0.006949     -0.005776
      5.51164      3.18158      9.94145         0.003235      0.004388      0.000595
      9.61450      3.97966     12.25024         0.009205      0.005624      0.005137
      0.00855      0.00626     14.59829         0.002366      0.005406     -0.005696
     12.41050      5.57385      9.87029         0.002460     -0.004199     -0.004437
     11.00120      4.77985     14.61040        -0.003351      0.003862     -0.003039
     13.74971      7.90488      9.89383         0.002530      0.003141     -0.001900
      9.64016      7.17708     14.59070        -0.000306     -0.002387     -0.001070
      9.59568      8.74565     12.18114         0.007298     -0.001221      0.004744
      4.12556      5.54989      9.96563         0.006128     -0.007933     -0.004544
      4.11594      3.98456     12.31554        -0.000919      0.001254     -0.008291
      8.24138      6.37032     12.27009        -0.001127     -0.000697      0.001216
     13.76904      6.33744     12.30338        -0.000495     -0.001105     -0.006584
      5.47361     -0.00882     14.63284         0.003191      0.007099      0.001636
      4.12468      7.15431     14.66239        -0.004832      0.004165     -0.005741
      2.75104      1.58017     12.19311        -0.006737      0.004487     -0.000091
      6.89379      8.71597     12.20394         0.002075      0.001113      0.008564
      2.75075      0.00303     14.52386        -0.005701      0.002290      0.016360
      5.48952      4.77860     14.69149        -0.002550      0.002586     -0.001295
      5.50067      6.35589     12.29519         0.003942     -0.007585     -0.005636
      6.87016      5.54136      9.94858        -0.006544     -0.011134      0.002651
     11.02598      7.92731      9.83131        -0.003405     -0.003621      0.003961
     12.36163      7.15271     14.64935         0.003535      0.001464     -0.006613
 -----------------------------------------------------------------------------------
    total drift:                               -0.007464     -0.003479      0.032154


--------------------------------------------------------------------------------------------------------



  FREE ENERGIE OF THE ION-ELECTRON SYSTEM (eV)
  ---------------------------------------------------
  free  energy   TOTEN  =      -192.66205292 eV

  energy  without entropy=     -192.41919747  energy(sigma->0) =     -192.54062519
 
 d Force = 0.5835834E-03[ 0.684E-04, 0.110E-02]  d Energy = 0.5894131E-03-0.583E-05
 d Force = 0.1420869E+02[ 0.142E+02, 0.142E+02]  d Ewald  = 0.1420870E+02-0.770E-05


--------------------------------------------------------------------------------------------------------


    POTLOK:  cpu time    0.0471: real time    0.0473


--------------------------------------------------------------------------------------------------------


 stress matrix after NEB project (eV)
      0.00000      0.00000      0.00000
      0.00000      0.00000      0.00000
      0.00000      0.00000      0.00000
  FORCES: max atom, RMS     0.017637    0.009546
  FORCE total and by dimension    0.066136    0.016360
  Stress total and by dimension    0.000000    0.000000
 Conjugate gradient step on ions:
 trial-energy change:   -0.000589  1 .order   -0.000584   -0.001099   -0.000068
  (g-gl).g = 0.321E-03      g.g   = 0.359E-03  gl.gl    = 0.666E-03
 g(Force)  = 0.359E-03   g(Stress)= 0.000E+00 ortho     =-0.710E-05
 gamma     =   0.48140
 trial     =   3.09223
 opt step  =   3.29024  (harmonic =   3.29740) maximal distance =0.00511883
 next E    =  -192.662055   (d E  =  -0.00059)


--------------------------------------------------------------------------------------------------------


  
 reached required accuracy - stopping structural energy minimisation
     LOOP+:  cpu time   65.0978: real time   65.6100
    4ORBIT:  cpu time    0.0000: real time    0.0000

 total amount of memory used by VASP on root node    84353. kBytes
========================================================================

   base      :      30000. kBytes
   nonlr-proj:       4285. kBytes
   fftplans  :       4447. kBytes
   grid      :       6721. kBytes
   one-center:        124. kBytes
   wavefun   :      38776. kBytes
 
  
  
 General timing and accounting informations for this job:
 ========================================================
  
                  Total CPU time used (sec):     2032.689
                            User time (sec):     1939.126
                          System time (sec):       93.564
                         Elapsed time (sec):     2049.506
  
                   Maximum memory used (kb):     1009140.
                   Average memory used (kb):           0.
  
                          Minor page faults:       839002
                          Major page faults:            0
                 Voluntary context switches:        11090
