unknown system                          
           1
    11.002582    0.000000    0.000000
     5.501291    9.528515    0.000000
     0.000000    0.000000   24.491785
   Au   Pd
  24  24
Direct configuration=     1
   0.08333333  0.08333333  0.40830017
   0.66666667  0.66666667  0.50000000
   0.75000000  0.25000000  0.59169983
   0.83333333  0.33333333  0.40830017
   0.75000000  0.00000000  0.59169983
   0.83333333  0.08333333  0.40830017
   0.50000000  0.50000000  0.59169983
   0.58333333  0.58333333  0.40830017
   0.50000000  0.25000000  0.59169983
   0.41666667  0.41666667  0.50000000
   0.58333333  0.33333333  0.40830017
   0.41666667  0.16666667  0.50000000
   0.58333333  0.08333333  0.40830017
   0.66666667  0.91666667  0.50000000
   0.33333333  0.83333333  0.40830017
   0.25000000  0.25000000  0.59169983
   0.25000000  0.75000000  0.59169983
   0.08333333  0.33333333  0.40830017
   0.91666667  0.16666667  0.50000000
   0.00000000  0.50000000  0.59169983
   0.08333333  0.83333333  0.40830017
   0.91666667  0.91666667  0.50000000
   0.33333333  0.08333333  0.40830017
   0.91666667  0.41666667  0.50000000
   0.00000000  0.25000000  0.59169983
   0.66666667  0.16666667  0.50000000
   0.33333333  0.33333333  0.40830017
   0.66666667  0.41666667  0.50000000
   0.00000000  0.00000000  0.59169983
   0.83333333  0.58333333  0.40830017
   0.75000000  0.50000000  0.59169983
   0.83333333  0.83333333  0.40830017
   0.50000000  0.75000000  0.59169983
   0.41666667  0.91666667  0.50000000
   0.08333333  0.58333333  0.40830017
   0.16666667  0.41666667  0.50000000
   0.41666667  0.66666667  0.50000000
   0.91666667  0.66666667  0.50000000
   0.50000000  0.00000000  0.59169983
   0.00000000  0.75000000  0.59169983
   0.16666667  0.16666667  0.50000000
   0.16666667  0.91666667  0.50000000
   0.25000000  0.00000000  0.59169983
   0.25000000  0.50000000  0.59169983
   0.16666667  0.66666667  0.50000000
   0.33333333  0.58333333  0.40830017
   0.58333333  0.83333333  0.40830017
   0.75000000  0.75000000  0.59169983
Direct configuration=     2
   0.08393532  0.08302920  0.40633565
   0.66607790  0.66714751  0.50038056
   0.75087123  0.25027346  0.59361131
   0.83276366  0.33446086  0.40600711
   0.75049326 -0.00098272  0.59388974
   0.83278652  0.08276265  0.40601870
   0.50023386  0.50099460  0.59358519
   0.58309324  0.58385348  0.40644608
   0.49981457  0.24972220  0.59397464
   0.41503650  0.41838876  0.49959063
   0.58235627  0.33391975  0.40644974
   0.41570295  0.16662419  0.50004743
   0.58362962  0.08279095  0.40609173
   0.66675898  0.91529498  0.50004415
   0.33406839  0.83258795  0.40674122
   0.24952292  0.24941448  0.59357843
   0.24936114  0.75069381  0.59320813
   0.08377129  0.33475508  0.40641822
   0.91744612  0.16638140  0.50091984
  -0.00027112  0.50096841  0.59349674
   0.08386809  0.83144207  0.40645298
   0.91795355  0.91482081  0.50037451
   0.33377402  0.08311582  0.40641358
   0.91675383  0.41726258  0.50037666
   0.00029814  0.24925121  0.59284090
   0.66663534  0.16710755  0.49999490
   0.33257880  0.33433770  0.40715231
   0.66622274  0.41732383  0.50028340
   0.00075988 -0.00018763  0.59282826
   0.83375687  0.58435242  0.40712536
   0.74967386  0.50035472  0.59281798
   0.83355713  0.83210317  0.40712187
   0.50024444  0.75051216  0.59255420
   0.41585371  0.91643754  0.50052949
   0.08299691  0.58344216  0.40760245
   0.16640717  0.41796758  0.49971263
   0.41608408  0.66734385  0.50009023
   0.91766116  0.66650569  0.49973912
   0.49965917 -0.00088460  0.59290967
   0.00025357  0.74963651  0.59260527
   0.16716518  0.16574424  0.50056842
   0.16795911  0.91627004  0.50065801
   0.25019312 -0.00014454  0.59236989
   0.24921911  0.50067035  0.59269684
   0.16661624  0.66596387  0.49997088
   0.33265058  0.58329779  0.40745709
   0.58384033  0.83305919  0.40713509
   0.74991125  0.74981294  0.59278279
Direct configuration=     3
   0.08574129  0.08211679  0.40044209
   0.66431162  0.66859005  0.50152225
   0.75348492  0.25109383  0.59934574
   0.83105466  0.33784346  0.39912794
   0.75197304 -0.00393089  0.60045948
   0.83114608  0.08105060  0.39917427
   0.50093544  0.50397839  0.59924128
   0.58237294  0.58541391  0.40088379
   0.49925828  0.24888880  0.60079908
   0.41014598  0.42355505  0.49836251
   0.57942510  0.33567899  0.40089844
   0.41281181  0.16649677  0.50018972
   0.58451850  0.08116380  0.39946643
   0.66703590  0.91117991  0.50017658
   0.33627355  0.83035182  0.40206438
   0.24809168  0.24765792  0.59921423
   0.24744454  0.75277523  0.59773302
   0.08508517  0.33902031  0.40077238
   0.91978449  0.16552559  0.50367938
  -0.00108449  0.50387365  0.59888746
   0.08547237  0.82576828  0.40091139
   0.92181420  0.90928324  0.50149804
   0.33509607  0.08246327  0.40075381
   0.91701534  0.41905032  0.50150663
   0.00119255  0.24700483  0.59626410
   0.66654134  0.16843019  0.49997962
   0.33031519  0.33735082  0.40370874
   0.66489097  0.41929532  0.50113360
   0.00303950 -0.00075054  0.59621354
   0.83502748  0.58740970  0.40360095
   0.74869546  0.50141889  0.59617244
   0.83422850  0.82841268  0.40358698
   0.50097777  0.75204862  0.59511729
   0.41341485  0.91575016  0.50211796
   0.08198765  0.58376865  0.40550928
   0.16562868  0.42187031  0.49885050
   0.41433631  0.66937540  0.50036093
   0.92064466  0.66602275  0.49895647
   0.49863667 -0.00353838  0.59653920
   0.00101427  0.74854606  0.59532158
   0.16866072  0.16297697  0.50227366
   0.17183644  0.91508017  0.50263203
   0.25077249 -0.00057817  0.59438008
   0.24687646  0.50268140  0.59568786
   0.16646495  0.66385547  0.49988350
   0.33060230  0.58319114  0.40492784
   0.58536131  0.83223674  0.40363985
   0.74964501  0.74925177  0.59603166
Direct configuration=     4
   0.08586327  0.08205517  0.40004404
   0.66419232  0.66868748  0.50159936
   0.75366145  0.25114924  0.59973305
   0.83093923  0.33807192  0.39866332
   0.75207298 -0.00413001  0.60090320
   0.83103529  0.08093497  0.39871200
   0.50098282  0.50417992  0.59962329
   0.58232429  0.58551930  0.40050811
   0.49922071  0.24883251  0.60126000
   0.40981567  0.42390398  0.49827957
   0.57922713  0.33579781  0.40052351
   0.41261654  0.16648816  0.50019934
   0.58457853  0.08105391  0.39901895
   0.66705461  0.91090198  0.50018553
   0.33642249  0.83020079  0.40174851
   0.24799501  0.24753928  0.59959487
   0.24731510  0.75291581  0.59803863
   0.08517391  0.33930838  0.40039106
   0.91994242  0.16546779  0.50386576
  -0.00113942  0.50406987  0.59925155
   0.08558073  0.82538507  0.40053711
   0.92207495  0.90890923  0.50157392
   0.33518536  0.08241919  0.40037155
   0.91703300  0.41917106  0.50158294
   0.00125296  0.24685311  0.59649530
   0.66653499  0.16851952  0.49997859
   0.33016231  0.33755432  0.40347616
   0.66480103  0.41942848  0.50119102
   0.00319347 -0.00078856  0.59644219
   0.83511329  0.58761619  0.40336291
   0.74862938  0.50149076  0.59639901
   0.83427385  0.82816342  0.40334823
   0.50102730  0.75215240  0.59529041
   0.41325013  0.91570373  0.50222524
   0.08191948  0.58379070  0.40536791
   0.16557610  0.42213390  0.49879228
   0.41421826  0.66951261  0.50037921
   0.92084617  0.66599013  0.49890361
   0.49856761 -0.00371762  0.59678434
   0.00106565  0.74847241  0.59550504
   0.16876173  0.16279007  0.50238883
   0.17209831  0.91499980  0.50276535
   0.25081162 -0.00060746  0.59451585
   0.24671823  0.50281722  0.59588988
   0.16645473  0.66371307  0.49987760
   0.33046396  0.58318394  0.40475701
   0.58546404  0.83218119  0.40340378
   0.74962703  0.74921387  0.59625109
Direct configuration=     5
   0.08415714  0.08273201  0.39938488
   0.66481109  0.66664831  0.50088283
   0.75209735  0.25070885  0.60114313
   0.83238007  0.33691784  0.39779545
   0.75161253 -0.00344303  0.60203978
   0.83299780  0.08058516  0.39793902
   0.49988788  0.50364685  0.60068246
   0.58313508  0.58505328  0.39955991
   0.49925835  0.24931137  0.60220036
   0.41386969  0.42050792  0.49923526
   0.57975800  0.33543936  0.39957814
   0.41405292  0.16684623  0.50023422
   0.58396590  0.08124918  0.39800157
   0.66646413  0.91449335  0.50014223
   0.33544929  0.83100398  0.40084694
   0.24795148  0.24880671  0.60084255
   0.24820404  0.75170058  0.59937085
   0.08420917  0.33772470  0.39946772
   0.91852209  0.16534337  0.50245010
  -0.00112148  0.50308155  0.60050400
   0.08452043  0.82779581  0.39952392
   0.92053121  0.91249807  0.50100814
   0.33514234  0.08275142  0.39935782
   0.91786777  0.41826334  0.50109280
   0.00143688  0.24824390  0.59782365
   0.66630620  0.16777262  0.50010036
   0.33151324  0.33611189  0.40264896
   0.66461875  0.41885867  0.50084353
   0.00243020 -0.00113970  0.59766777
   0.83432557  0.58677785  0.40288098
   0.74957070  0.50155663  0.59733445
   0.83386332  0.82957244  0.40268017
   0.50065973  0.75200120  0.59646588
   0.41349163  0.91636961  0.50128211
   0.08203185  0.58401912  0.40428551
   0.16499737  0.41968123  0.49937393
   0.41428744  0.66899675  0.50041896
   0.91997203  0.66490050  0.49924218
   0.49908716 -0.00299608  0.59756100
   0.00070673  0.74896133  0.59657835
   0.16785658  0.16487757  0.50143174
   0.17091817  0.91421250  0.50175997
   0.25107750 -0.00094702  0.59600685
   0.24839330  0.50143487  0.59655077
   0.16641090  0.66631847  0.50006359
   0.33110589  0.58328046  0.40375851
   0.58532528  0.83218606  0.40280638
   0.74988935  0.74928288  0.59715035
Direct configuration=     6
   0.08322958  0.08309999  0.39902652
   0.66514750  0.66553969  0.50049328
   0.75124701  0.25046943  0.60190974
   0.83316341  0.33629041  0.39732361
   0.75136220 -0.00306954  0.60265770
   0.83406476  0.08039498  0.39751878
   0.49929259  0.50335705  0.60125829
   0.58357587  0.58479993  0.39904440
   0.49927882  0.24957171  0.60271160
   0.41607373  0.41866160  0.49975484
   0.58004662  0.33524448  0.39906417
   0.41483383  0.16704090  0.50025318
   0.58363283  0.08135534  0.39744845
   0.66614311  0.91644587  0.50011869
   0.33492019  0.83144065  0.40035678
   0.24792781  0.24949577  0.60152087
   0.24868733  0.75103989  0.60009513
   0.08368467  0.33686371  0.39896573
   0.91774990  0.16527572  0.50168046
  -0.00111173  0.50254423  0.60118491
   0.08394398  0.82910645  0.39897308
   0.91969193  0.91444920  0.50070054
   0.33511895  0.08293204  0.39880669
   0.91832161  0.41776985  0.50082632
   0.00153687  0.24900002  0.59854582
   0.66618181  0.16736656  0.50016657
   0.33224770  0.33532769  0.40219924
   0.66451965  0.41854888  0.50065461
   0.00201523 -0.00133061  0.59833408
   0.83389731  0.58632208  0.40261898
   0.75008247  0.50159244  0.59784303
   0.83364012  0.83033848  0.40231697
   0.50045989  0.75191900  0.59710494
   0.41362292  0.91673163  0.50076936
   0.08209294  0.58414330  0.40369705
   0.16468273  0.41834780  0.49969015
   0.41432504  0.66871630  0.50044057
   0.91949679  0.66430811  0.49942625
   0.49936963 -0.00260380  0.59798325
   0.00051160  0.74922715  0.59716187
   0.16736447  0.16601247  0.50091139
   0.17027656  0.91378447  0.50121338
   0.25122205 -0.00113162  0.59681746
   0.24930398  0.50068333  0.59691007
   0.16638707  0.66773493  0.50016471
   0.33145488  0.58333294  0.40321566
   0.58524984  0.83218871  0.40248159
   0.75003196  0.74932041  0.59763925
Direct configuration=     7
   0.08351215  0.08316868  0.39884006
   0.66486217  0.66657442  0.50038234
   0.75149905  0.25043722  0.60217245
   0.83290572  0.33582175  0.39708041
   0.75123342 -0.00296914  0.60303994
   0.83324364  0.08126088  0.39725458
   0.49988852  0.50280490  0.60159367
   0.58361382  0.58443470  0.39871905
   0.49926426  0.24942398  0.60310889
   0.41568075  0.41848549  0.50000552
   0.58114982  0.33456461  0.39884356
   0.41464407  0.16731827  0.50034759
   0.58410092  0.08157721  0.39708250
   0.66655612  0.91605853  0.50021134
   0.33462835  0.83182547  0.40008940
   0.24861513  0.24925947  0.60188180
   0.24866780  0.75111583  0.60054569
   0.08397292  0.33642426  0.39866610
   0.91719799  0.16634911  0.50148179
  -0.00090445  0.50250201  0.60167033
   0.08399048  0.82934245  0.39857599
   0.91865065  0.91477669  0.50057450
   0.33451655  0.08308700  0.39848394
   0.91790509  0.41643458  0.50071060
   0.00086135  0.24888229  0.59857958
   0.66647594  0.16729483  0.50023406
   0.33228994  0.33513068  0.40227267
   0.66541299  0.41744361  0.50057543
   0.00157296 -0.00074178  0.59844569
   0.83384217  0.58601117  0.40253165
   0.74997421  0.50122433  0.59796206
   0.83344120  0.83086985  0.40236729
   0.50062955  0.75179291  0.59726037
   0.41373195  0.91715139  0.50038955
   0.08252212  0.58377073  0.40362642
   0.16572814  0.41806712  0.49987099
   0.41456955  0.66832963  0.50049495
   0.91903479  0.66541830  0.49971807
   0.49933357 -0.00202735  0.59802804
   0.00039929  0.74936114  0.59732197
   0.16728938  0.16580872  0.50067563
   0.16990273  0.91453157  0.50097851
   0.25092078 -0.00088945  0.59690656
   0.24935389  0.50042103  0.59693532
   0.16670755  0.66708900  0.50016841
   0.33174963  0.58304898  0.40319898
   0.58510548  0.83229270  0.40245279
   0.74975590  0.74964024  0.59764299
Direct configuration=     8
   0.08358114  0.08318544  0.39879454
   0.66479251  0.66682702  0.50035526
   0.75156059  0.25042936  0.60223659
   0.83284281  0.33570734  0.39702104
   0.75120199 -0.00294463  0.60313325
   0.83304318  0.08147227  0.39719008
   0.50003401  0.50267010  0.60167554
   0.58362308  0.58434554  0.39863963
   0.49926071  0.24938792  0.60320587
   0.41558481  0.41844250  0.50006672
   0.58141914  0.33439863  0.39878971
   0.41459774  0.16738599  0.50037064
   0.58421519  0.08163137  0.39699316
   0.66665695  0.91596397  0.50023395
   0.33455710  0.83191942  0.40002412
   0.24878293  0.24920178  0.60196992
   0.24866304  0.75113437  0.60065568
   0.08404329  0.33631698  0.39859295
   0.91706325  0.16661116  0.50143329
  -0.00085385  0.50249171  0.60178883
   0.08400183  0.82940007  0.39847905
   0.91839644  0.91485664  0.50054374
   0.33436949  0.08312483  0.39840515
   0.91780340  0.41610860  0.50068234
   0.00069644  0.24885355  0.59858783
   0.66654774  0.16727732  0.50025054
   0.33230024  0.33508258  0.40229060
   0.66563108  0.41717378  0.50055610
   0.00146499 -0.00059803  0.59847293
   0.83382871  0.58593527  0.40251033
   0.74994778  0.50113447  0.59799112
   0.83339264  0.83099958  0.40237957
   0.50067097  0.75176212  0.59729832
   0.41375857  0.91725387  0.50029682
   0.08262689  0.58367978  0.40360918
   0.16598336  0.41799859  0.49991513
   0.41462925  0.66823524  0.50050822
   0.91892201  0.66568932  0.49978931
   0.49932476 -0.00188662  0.59803897
   0.00037187  0.74939385  0.59736105
   0.16727105  0.16575897  0.50061808
   0.16981146  0.91471396  0.50092117
   0.25084723 -0.00083033  0.59692831
   0.24936607  0.50035699  0.59694148
   0.16678579  0.66693131  0.50016932
   0.33182158  0.58297965  0.40319491
   0.58507023  0.83231808  0.40244576
   0.74968851  0.74971832  0.59764390
Direct configuration=     9
   0.08358221  0.08315064  0.39860374
   0.66471381  0.66699759  0.50036445
   0.75172767  0.25030425  0.60239696
   0.83284397  0.33560235  0.39674729
   0.75119419 -0.00285142  0.60344324
   0.83295122  0.08164390  0.39695640
   0.50040565  0.50242069  0.60187333
   0.58337270  0.58436194  0.39845504
   0.49953026  0.24925333  0.60358695
   0.41559755  0.41855707  0.50014859
   0.58147182  0.33437733  0.39871426
   0.41468613  0.16711796  0.50040501
   0.58408575  0.08171168  0.39674223
   0.66640294  0.91602996  0.50030675
   0.33470680  0.83170347  0.39984344
   0.24876061  0.24888288  0.60219354
   0.24856193  0.75135457  0.60086435
   0.08404562  0.33653504  0.39843417
   0.91708769  0.16635005  0.50139776
  -0.00087853  0.50241811  0.60201893
   0.08395947  0.82934881  0.39824330
   0.91849018  0.91489096  0.50052523
   0.33454590  0.08319385  0.39815087
   0.91770055  0.41644936  0.50064827
   0.00056054  0.24870231  0.59846653
   0.66653952  0.16731419  0.50037254
   0.33252669  0.33495142  0.40247193
   0.66558170  0.41710664  0.50053538
   0.00125758 -0.00031737  0.59831152
   0.83408606  0.58572487  0.40259335
   0.74986938  0.50107753  0.59790848
   0.83348477  0.83100132  0.40249009
   0.50069804  0.75183968  0.59723265
   0.41364800  0.91753959  0.50009025
   0.08272748  0.58345583  0.40376376
   0.16567675  0.41833140  0.50002420
   0.41485694  0.66804300  0.50059754
   0.91920036  0.66541219  0.50000977
   0.49919970 -0.00170271  0.59795196
   0.00038206  0.74955718  0.59738165
   0.16748890  0.16545162  0.50057877
   0.16950897  0.91509299  0.50087784
   0.25065897 -0.00061438  0.59673507
   0.24924948  0.50047495  0.59698096
   0.16670223  0.66679148  0.50017255
   0.33215341  0.58264279  0.40335288
   0.58492767  0.83252317  0.40243217
   0.74946875  0.74979592  0.59760408
Direct configuration=    10
   0.08358344  0.08311058  0.39838408
   0.66462320  0.66719396  0.50037503
   0.75192002  0.25016023  0.60258160
   0.83284530  0.33548149  0.39643215
   0.75118522 -0.00274411  0.60380010
   0.83284536  0.08184148  0.39668737
   0.50083350  0.50213357  0.60210103
   0.58308445  0.58438082  0.39824254
   0.49984056  0.24909839  0.60402565
   0.41561221  0.41868897  0.50024284
   0.58153248  0.33435281  0.39862740
   0.41478788  0.16680940  0.50044457
   0.58393673  0.08180413  0.39645334
   0.66611052  0.91610594  0.50039055
   0.33487913  0.83145487  0.39963544
   0.24873492  0.24851576  0.60245097
   0.24844553  0.75160807  0.60110458
   0.08404832  0.33678608  0.39825137
   0.91711583  0.16604945  0.50135686
  -0.00090695  0.50233339  0.60228383
   0.08391071  0.82928981  0.39797189
   0.91859808  0.91493046  0.50050393
   0.33474898  0.08327331  0.39785814
   0.91758214  0.41684165  0.50060904
   0.00040408  0.24852820  0.59832689
   0.66653005  0.16735663  0.50051298
   0.33278738  0.33480042  0.40268068
   0.66552485  0.41702935  0.50051152
   0.00101880  0.00000572  0.59812570
   0.83438232  0.58548266  0.40268892
   0.74977911  0.50101198  0.59781333
   0.83359084  0.83100333  0.40261732
   0.50072919  0.75192896  0.59715705
   0.41352071  0.91786853  0.49985244
   0.08284328  0.58319802  0.40394171
   0.16532378  0.41871453  0.50014976
   0.41511906  0.66782169  0.50070036
   0.91952081  0.66509314  0.50026358
   0.49905572 -0.00149099  0.59785178
   0.00039379  0.74974521  0.59740536
   0.16773970  0.16509778  0.50053352
   0.16916074  0.91552932  0.50082796
   0.25044223 -0.00036577  0.59651261
   0.24911525  0.50061075  0.59702641
   0.16660604  0.66663051  0.50017627
   0.33253541  0.58225499  0.40353474
   0.58476354  0.83275926  0.40241653
   0.74921576  0.74988526  0.59755824
Direct configuration=    11
   0.08371688  0.08306287  0.39816241
   0.66453658  0.66703432  0.50030508
   0.75197213  0.25008033  0.60276347
   0.83292423  0.33569413  0.39612343
   0.75125294 -0.00287173  0.60415490
   0.83292495  0.08166384  0.39642071
   0.50073048  0.50224568  0.60228420
   0.58323821  0.58443394  0.39809907
   0.49974578  0.24919236  0.60443843
   0.41577426  0.41847559  0.50043886
   0.58144986  0.33430783  0.39859344
   0.41466397  0.16712665  0.50049838
   0.58401357  0.08174999  0.39620453
   0.66626481  0.91624249  0.50042168
   0.33484238  0.83129677  0.39947061
   0.24853918  0.24856342  0.60265307
   0.24851749  0.75171447  0.60121390
   0.08414679  0.33675084  0.39811852
   0.91700341  0.16620360  0.50122196
  -0.00100872  0.50225139  0.60251817
   0.08404218  0.82900344  0.39776057
   0.91864842  0.91469809  0.50046138
   0.33473340  0.08336568  0.39754443
   0.91766019  0.41692173  0.50057301
   0.00042828  0.24863601  0.59812043
   0.66635605  0.16727897  0.50066010
   0.33298619  0.33468248  0.40295194
   0.66551140  0.41716987  0.50047725
   0.00100180 -0.00008469  0.59794507
   0.83433080  0.58552718  0.40284344
   0.74981943  0.50103179  0.59767074
   0.83366254  0.83091030  0.40283158
   0.50050149  0.75212899  0.59701025
   0.41331263  0.91771849  0.49962065
   0.08291448  0.58319729  0.40415433
   0.16521716  0.41851609  0.50033172
   0.41499917  0.66808557  0.50084365
   0.91954126  0.66506518  0.50051813
   0.49896289 -0.00149486  0.59776913
   0.00032034  0.74994815  0.59742209
   0.16760374  0.16539371  0.50041830
   0.16937236  0.91516481  0.50072495
   0.25042025 -0.00040940  0.59622542
   0.24921053  0.50058862  0.59710070
   0.16654321  0.66696249  0.50020946
   0.33256493  0.58217341  0.40376221
   0.58491551  0.83268618  0.40239325
   0.74917019  0.74991564  0.59755101
Direct configuration=    12
   0.08389903  0.08299774  0.39785984
   0.66441836  0.66681643  0.50020960
   0.75204327  0.24997127  0.60301171
   0.83303197  0.33598438  0.39570206
   0.75134538 -0.00304591  0.60463916
   0.83303359  0.08142138  0.39605673
   0.50058987  0.50239870  0.60253421
   0.58344807  0.58450644  0.39790325
   0.49961641  0.24932063  0.60500185
   0.41599545  0.41818434  0.50070641
   0.58133710  0.33424643  0.39854710
   0.41449483  0.16755967  0.50057184
   0.58411846  0.08167610  0.39586493
   0.66647539  0.91642887  0.50046416
   0.33479222  0.83108099  0.39924562
   0.24827202  0.24862847  0.60292892
   0.24861570  0.75185971  0.60136311
   0.08428119  0.33670275  0.39793719
   0.91684996  0.16641401  0.50103782
  -0.00114764  0.50213947  0.60283803
   0.08422161  0.82861258  0.39747214
   0.91871713  0.91438093  0.50040331
   0.33471214  0.08349174  0.39711624
   0.91776672  0.41703103  0.50052383
   0.00046130  0.24878316  0.59783863
   0.66611855  0.16717297  0.50086089
   0.33325755  0.33452149  0.40332218
   0.66549303  0.41736167  0.50043049
   0.00097860 -0.00020810  0.59769851
   0.83426049  0.58558793  0.40305436
   0.74987445  0.50105884  0.59747612
   0.83376041  0.83078332  0.40312402
   0.50019069  0.75240201  0.59680989
   0.41302862  0.91751371  0.49930427
   0.08301165  0.58319628  0.40444454
   0.16507164  0.41824522  0.50058007
   0.41483555  0.66844575  0.50103923
   0.91956916  0.66502701  0.50086557
   0.49883618 -0.00150014  0.59765632
   0.00022009  0.75022515  0.59744492
   0.16741817  0.16579763  0.50026102
   0.16966121  0.91466729  0.50058435
   0.25039024 -0.00046896  0.59583342
   0.24934058  0.50055841  0.59720209
   0.16645745  0.66741561  0.50025475
   0.33260523  0.58206206  0.40407269
   0.58512293  0.83258644  0.40236148
   0.74910799  0.74995711  0.59754114
Direct configuration=    13
   0.08390426  0.08290469  0.39766406
   0.66435834  0.66703828  0.50009207
   0.75189915  0.25005073  0.60310086
   0.83313451  0.33594972  0.39537794
   0.75118766 -0.00309656  0.60493092
   0.83332353  0.08126753  0.39587641
   0.50040231  0.50262778  0.60265294
   0.58366480  0.58441517  0.39783019
   0.49933170  0.24934555  0.60536539
   0.41597922  0.41839533  0.50105155
   0.58162964  0.33418266  0.39863420
   0.41443401  0.16737073  0.50067996
   0.58435589  0.08140002  0.39573527
   0.66624401  0.91649959  0.50048835
   0.33475711  0.83116513  0.39910792
   0.24835729  0.24886479  0.60305485
   0.24861410  0.75169980  0.60139071
   0.08444670  0.33660919  0.39786791
   0.91663486  0.16649218  0.50073832
  -0.00120164  0.50240268  0.60305193
   0.08425359  0.82857746  0.39731448
   0.91855879  0.91478664  0.50033076
   0.33481993  0.08327741  0.39684452
   0.91778544  0.41679597  0.50042815
   0.00042651  0.24883368  0.59762399
   0.66632744  0.16703857  0.50102587
   0.33314717  0.33454663  0.40358802
   0.66541168  0.41731467  0.50037640
   0.00105327 -0.00034761  0.59751565
   0.83429299  0.58573555  0.40320872
   0.74972147  0.50114642  0.59733622
   0.83382720  0.83062505  0.40333541
   0.50013531  0.75246110  0.59665301
   0.41312530  0.91770241  0.49900489
   0.08299437  0.58314369  0.40474220
   0.16529397  0.41807473  0.50082665
   0.41464635  0.66834850  0.50112474
   0.91937999  0.66506056  0.50110436
   0.49879264 -0.00143674  0.59753508
   0.00031825  0.75005087  0.59752577
   0.16732955  0.16592706  0.50000516
   0.16958552  0.91450917  0.50035786
   0.25036554 -0.00046307  0.59553342
   0.24926557  0.50062655  0.59730999
   0.16678473  0.66736351  0.50039627
   0.33261490  0.58214839  0.40435573
   0.58513901  0.83261107  0.40233530
   0.74914608  0.74995679  0.59756964
Direct configuration=    14
   0.08390822  0.08283421  0.39751578
   0.66431289  0.66720631  0.50000306
   0.75179000  0.25011092  0.60316839
   0.83321217  0.33592347  0.39513245
   0.75106820 -0.00313493  0.60515189
   0.83354312  0.08115101  0.39573984
   0.50026025  0.50280128  0.60274287
   0.58382894  0.58434603  0.39777486
   0.49911606  0.24936442  0.60564073
   0.41596693  0.41855514  0.50131296
   0.58185120  0.33413436  0.39870016
   0.41438794  0.16722762  0.50076184
   0.58453571  0.08119091  0.39563707
   0.66606877  0.91655315  0.50050667
   0.33473052  0.83122887  0.39900363
   0.24842187  0.24904379  0.60315022
   0.24861288  0.75157869  0.60141162
   0.08457205  0.33653833  0.39781544
   0.91647195  0.16655139  0.50051148
  -0.00124253  0.50260202  0.60321394
   0.08427782  0.82855086  0.39719508
   0.91843887  0.91509391  0.50027581
   0.33490157  0.08311508  0.39663873
   0.91779961  0.41661795  0.50035568
   0.00040016  0.24887194  0.59746143
   0.66648565  0.16693677  0.50115083
   0.33306357  0.33456568  0.40378936
   0.66535007  0.41727906  0.50033543
   0.00110983 -0.00045328  0.59737716
   0.83431761  0.58584735  0.40332563
   0.74960561  0.50121276  0.59723026
   0.83387778  0.83050518  0.40349552
   0.50009337  0.75250586  0.59653420
   0.41319853  0.91784533  0.49877814
   0.08298128  0.58310386  0.40496764
   0.16546237  0.41794560  0.50101340
   0.41450305  0.66827485  0.50118950
   0.91923671  0.66508597  0.50128522
   0.49875966 -0.00138873  0.59744326
   0.00039260  0.74991887  0.59758701
   0.16726243  0.16602508  0.49981137
   0.16952818  0.91438942  0.50018632
   0.25034682 -0.00045861  0.59530620
   0.24920876  0.50067816  0.59739172
   0.16703262  0.66732404  0.50050345
   0.33262222  0.58221378  0.40457009
   0.58515119  0.83262973  0.40231546
   0.74917493  0.74995655  0.59759122
Direct configuration=    15
   0.08389707  0.08284227  0.39727881
   0.66418163  0.66727980  0.49991186
   0.75155227  0.25017826  0.60311376
   0.83345616  0.33578225  0.39475114
   0.75097805 -0.00307805  0.60534364
   0.83359662  0.08108120  0.39562097
   0.50035957  0.50274943  0.60287289
   0.58386292  0.58431026  0.39777570
   0.49912560  0.24937104  0.60598228
   0.41624579  0.41814176  0.50165891
   0.58206861  0.33392287  0.39896769
   0.41454012  0.16713458  0.50081890
   0.58467255  0.08126801  0.39568049
   0.66599695  0.91666526  0.50054816
   0.33494040  0.83110488  0.39888327
   0.24832471  0.24915007  0.60320441
   0.24841279  0.75166870  0.60139380
   0.08461536  0.33648069  0.39781855
   0.91644210  0.16659998  0.50019501
  -0.00138129  0.50279499  0.60338129
   0.08428614  0.82845532  0.39712643
   0.91828569  0.91513547  0.50026443
   0.33509632  0.08299370  0.39639532
   0.91769937  0.41653462  0.50022974
   0.00037731  0.24886888  0.59720544
   0.66632919  0.16706622  0.50130642
   0.33325273  0.33443074  0.40413403
   0.66523327  0.41731856  0.50027541
   0.00102367 -0.00039398  0.59716736
   0.83459471  0.58569733  0.40341982
   0.74946136  0.50127460  0.59707855
   0.83402559  0.83037885  0.40366693
   0.50011479  0.75257307  0.59635874
   0.41317002  0.91798350  0.49848411
   0.08295359  0.58306058  0.40535269
   0.16551019  0.41808720  0.50129312
   0.41469050  0.66829498  0.50115964
   0.91927066  0.66513158  0.50151336
   0.49864788 -0.00131426  0.59736640
   0.00036297  0.74991900  0.59768398
   0.16727810  0.16572537  0.49942251
   0.16934851  0.91470512  0.49985936
   0.25033734 -0.00031323  0.59493879
   0.24898918  0.50083951  0.59766571
   0.16675115  0.66727020  0.50071275
   0.33284396  0.58220343  0.40485666
   0.58506835  0.83263462  0.40218703
   0.74910946  0.74999080  0.59767373
Direct configuration=    16
   0.08388722  0.08284938  0.39706971
   0.66406580  0.66734465  0.49983138
   0.75134249  0.25023769  0.60306556
   0.83367147  0.33565763  0.39441465
   0.75089850 -0.00302787  0.60551285
   0.83364382  0.08101959  0.39551608
   0.50044721  0.50270368  0.60298763
   0.58389290  0.58427868  0.39777644
   0.49913401  0.24937688  0.60628368
   0.41649187  0.41777699  0.50196418
   0.58226045  0.33373625  0.39920377
   0.41467441  0.16705247  0.50086924
   0.58479330  0.08133605  0.39571881
   0.66593357  0.91676419  0.50058477
   0.33512560  0.83099547  0.39877706
   0.24823897  0.24924385  0.60325222
   0.24823623  0.75174812  0.60137808
   0.08465357  0.33642983  0.39782129
   0.91641576  0.16664286  0.49991574
  -0.00150372  0.50296527  0.60352897
   0.08429348  0.82837101  0.39706586
   0.91815052  0.91517213  0.50025439
   0.33526819  0.08288660  0.39618052
   0.91761092  0.41646109  0.50011862
   0.00035715  0.24886618  0.59697955
   0.66619113  0.16718044  0.50144371
   0.33341965  0.33431167  0.40443818
   0.66513021  0.41735341  0.50022246
   0.00094764 -0.00034165  0.59698223
   0.83483924  0.58556495  0.40350294
   0.74933407  0.50132918  0.59694469
   0.83415603  0.83026738  0.40381818
   0.50013370  0.75263238  0.59620390
   0.41314486  0.91810542  0.49822465
   0.08292915  0.58302238  0.40569248
   0.16555239  0.41821215  0.50153994
   0.41485591  0.66831274  0.50113329
   0.91930063  0.66517183  0.50171468
   0.49854925 -0.00124855  0.59729857
   0.00033683  0.74991911  0.59776955
   0.16729193  0.16546089  0.49907937
   0.16918997  0.91498370  0.49957083
   0.25032897 -0.00018495  0.59461459
   0.24879542  0.50098189  0.59790748
   0.16650277  0.66722269  0.50089744
   0.33303963  0.58219431  0.40510954
   0.58499525  0.83263894  0.40207370
   0.74905170  0.75002102  0.59774654
Direct configuration=    17
   0.08405382  0.08272086  0.39675188
   0.66420419  0.66733090  0.49976993
   0.75144715  0.25017493  0.60290847
   0.83368042  0.33562997  0.39404443