  56  56   0   0
  0.4903395E+02  0.1100258E-08  0.1100258E-08  0.2619179E-08  0.3500000E-15
  1.000000000000000E-004
  CAR 
 unknown system                          
      6.52500756    -21.57147075  301     -1.33328622      1.00000000
    -21.571  0.0000E+00  0.0000E+00
    -21.478  0.0000E+00  0.0000E+00
    -21.384  0.0000E+00  0.0000E+00
    -21.291  0.0000E+00  0.0000E+00
    -21.197  0.0000E+00  0.0000E+00
    -21.103  0.0000E+00  0.0000E+00
    -21.010  0.0000E+00  0.0000E+00
    -20.916  0.0000E+00  0.0000E+00
    -20.822  0.1523E-14  0.1426E-15
    -20.729  0.1543E-10  0.1445E-11
    -20.635  0.2818E-07  0.2640E-08
    -20.541  0.9463E-05  0.8889E-06
    -20.448  0.6057E-03  0.5761E-04
    -20.354  0.7958E-02  0.8030E-03
    -20.260  0.2673E-01  0.3307E-02
    -20.167  0.4197E-01  0.7238E-02
    -20.073  0.3994E-01  0.1098E-01
    -19.979  0.2424E-01  0.1325E-01
    -19.886  0.2447E-01  0.1554E-01
    -19.792  0.2380E-01  0.1777E-01
    -19.698  0.2486E-01  0.2010E-01
    -19.605  0.3242E-01  0.2313E-01
    -19.511  0.3701E-01  0.2660E-01
    -19.417  0.1557E-01  0.2806E-01
    -19.324  0.1464E-01  0.2943E-01
    -19.230  0.2026E-01  0.3133E-01
    -19.136  0.6713E-02  0.3196E-01
    -19.043  0.4696E-03  0.3200E-01
    -18.949  0.6527E-05  0.3200E-01
    -18.855  0.1717E-07  0.3200E-01
    -18.762  0.8287E-11  0.3200E-01
    -18.668  0.7200E-15  0.3200E-01
    -18.575  0.0000E+00  0.3200E-01
    -18.481  0.0000E+00  0.3200E-01
    -18.387  0.0000E+00  0.3200E-01
    -18.294  0.0000E+00  0.3200E-01
    -18.200  0.0000E+00  0.3200E-01
    -18.106  0.0000E+00  0.3200E-01
    -18.013  0.0000E+00  0.3200E-01
    -17.919  0.0000E+00  0.3200E-01
    -17.825  0.0000E+00  0.3200E-01
    -17.732  0.0000E+00  0.3200E-01
    -17.638  0.0000E+00  0.3200E-01
    -17.544  0.0000E+00  0.3200E-01
    -17.451  0.0000E+00  0.3200E-01
    -17.357  0.0000E+00  0.3200E-01
    -17.263  0.0000E+00  0.3200E-01
    -17.170  0.0000E+00  0.3200E-01
    -17.076  0.0000E+00  0.3200E-01
    -16.982  0.0000E+00  0.3200E-01
    -16.889  0.0000E+00  0.3200E-01
    -16.795  0.0000E+00  0.3200E-01
    -16.701  0.0000E+00  0.3200E-01
    -16.608  0.0000E+00  0.3200E-01
    -16.514  0.0000E+00  0.3200E-01
    -16.420  0.0000E+00  0.3200E-01
    -16.327  0.0000E+00  0.3200E-01
    -16.233  0.0000E+00  0.3200E-01
    -16.139  0.0000E+00  0.3200E-01
    -16.046  0.0000E+00  0.3200E-01
    -15.952  0.0000E+00  0.3200E-01
    -15.859  0.0000E+00  0.3200E-01
    -15.765  0.0000E+00  0.3200E-01
    -15.671  0.0000E+00  0.3200E-01
    -15.578  0.0000E+00  0.3200E-01
    -15.484  0.0000E+00  0.3200E-01
    -15.390  0.0000E+00  0.3200E-01
    -15.297  0.0000E+00  0.3200E-01
    -15.203  0.0000E+00  0.3200E-01
    -15.109  0.0000E+00  0.3200E-01
    -15.016  0.0000E+00  0.3200E-01
    -14.922  0.0000E+00  0.3200E-01
    -14.828  0.0000E+00  0.3200E-01
    -14.735  0.0000E+00  0.3200E-01
    -14.641  0.0000E+00  0.3200E-01
    -14.547  0.0000E+00  0.3200E-01
    -14.454  0.0000E+00  0.3200E-01
    -14.360  0.0000E+00  0.3200E-01
    -14.266  0.0000E+00  0.3200E-01
    -14.173  0.0000E+00  0.3200E-01
    -14.079  0.0000E+00  0.3200E-01
    -13.985  0.0000E+00  0.3200E-01
    -13.892  0.0000E+00  0.3200E-01
    -13.798  0.0000E+00  0.3200E-01
    -13.704  0.0000E+00  0.3200E-01
    -13.611  0.0000E+00  0.3200E-01
    -13.517  0.0000E+00  0.3200E-01
    -13.423  0.0000E+00  0.3200E-01
    -13.330  0.0000E+00  0.3200E-01
    -13.236  0.0000E+00  0.3200E-01
    -13.143  0.0000E+00  0.3200E-01
    -13.049  0.0000E+00  0.3200E-01
    -12.955  0.0000E+00  0.3200E-01
    -12.862  0.0000E+00  0.3200E-01
    -12.768  0.0000E+00  0.3200E-01
    -12.674  0.0000E+00  0.3200E-01
    -12.581  0.0000E+00  0.3200E-01
    -12.487  0.0000E+00  0.3200E-01
    -12.393  0.0000E+00  0.3200E-01
    -12.300  0.0000E+00  0.3200E-01
    -12.206  0.0000E+00  0.3200E-01
    -12.112  0.0000E+00  0.3200E-01
    -12.019  0.0000E+00  0.3200E-01
    -11.925  0.0000E+00  0.3200E-01
    -11.831  0.0000E+00  0.3200E-01
    -11.738  0.0000E+00  0.3200E-01
    -11.644  0.0000E+00  0.3200E-01
    -11.550  0.0000E+00  0.3200E-01
    -11.457  0.0000E+00  0.3200E-01
    -11.363  0.0000E+00  0.3200E-01
    -11.269  0.0000E+00  0.3200E-01
    -11.176  0.0000E+00  0.3200E-01
    -11.082  0.0000E+00  0.3200E-01
    -10.988  0.0000E+00  0.3200E-01
    -10.895  0.0000E+00  0.3200E-01
    -10.801  0.0000E+00  0.3200E-01
    -10.707  0.0000E+00  0.3200E-01
    -10.614  0.0000E+00  0.3200E-01
    -10.520  0.0000E+00  0.3200E-01
    -10.427  0.0000E+00  0.3200E-01
    -10.333  0.0000E+00  0.3200E-01
    -10.239  0.0000E+00  0.3200E-01
    -10.146  0.0000E+00  0.3200E-01
    -10.052  0.0000E+00  0.3200E-01
     -9.958  0.0000E+00  0.3200E-01
     -9.865  0.0000E+00  0.3200E-01
     -9.771  0.7903E-18  0.3200E-01
     -9.677  0.2184E-13  0.3200E-01
     -9.584  0.1046E-09  0.3200E-01
     -9.490  0.9392E-07  0.3200E-01
     -9.396  0.1658E-04  0.3200E-01
     -9.303  0.6154E-03  0.3206E-01
     -9.209  0.5232E-02  0.3255E-01
     -9.115  0.1194E-01  0.3367E-01
     -9.022  0.1162E-01  0.3476E-01
     -8.928  0.8156E-02  0.3552E-01
     -8.834  0.5034E-02  0.3599E-01
     -8.741  0.4229E-02  0.3639E-01
     -8.647  0.4200E-02  0.3678E-01
     -8.553  0.1059E-01  0.3777E-01
     -8.460  0.2083E-01  0.3972E-01
     -8.366  0.3107E-01  0.4263E-01
     -8.272  0.3944E-01  0.4633E-01
     -8.179  0.3772E-01  0.4986E-01
     -8.085  0.3465E-01  0.5311E-01
     -7.992  0.2592E-01  0.5553E-01
     -7.898  0.2588E-01  0.5796E-01
     -7.804  0.4772E-01  0.6243E-01
     -7.711  0.6959E-01  0.6894E-01
     -7.617  0.6897E-01  0.7540E-01
     -7.523  0.5815E-01  0.8085E-01
     -7.430  0.6471E-01  0.8691E-01
     -7.336  0.8408E-01  0.9478E-01
     -7.242  0.1047E+00  0.1046E+00
     -7.149  0.1114E+00  0.1150E+00
     -7.055  0.1095E+00  0.1253E+00
     -6.961  0.1148E+00  0.1360E+00
     -6.868  0.1217E+00  0.1474E+00
     -6.774  0.1470E+00  0.1612E+00
     -6.680  0.1648E+00  0.1766E+00
     -6.587  0.1634E+00  0.1919E+00
     -6.493  0.1638E+00  0.2073E+00
     -6.399  0.1598E+00  0.2222E+00
     -6.306  0.1538E+00  0.2366E+00
     -6.212  0.1551E+00  0.2512E+00
     -6.118  0.1567E+00  0.2658E+00
     -6.025  0.1607E+00  0.2809E+00
     -5.931  0.1627E+00  0.2961E+00
     -5.837  0.1639E+00  0.3115E+00
     -5.744  0.1592E+00  0.3264E+00
     -5.650  0.1576E+00  0.3411E+00
     -5.556  0.1574E+00  0.3559E+00
     -5.463  0.1687E+00  0.3717E+00
     -5.369  0.1734E+00  0.3879E+00
     -5.276  0.1717E+00  0.4040E+00
     -5.182  0.1649E+00  0.4194E+00
     -5.088  0.1612E+00  0.4345E+00
     -4.995  0.1694E+00  0.4504E+00
     -4.901  0.1804E+00  0.4673E+00
     -4.807  0.1833E+00  0.4845E+00
     -4.714  0.1763E+00  0.5010E+00
     -4.620  0.1794E+00  0.5178E+00
     -4.526  0.1869E+00  0.5353E+00
     -4.433  0.1867E+00  0.5528E+00
     -4.339  0.1790E+00  0.5695E+00
     -4.245  0.1741E+00  0.5858E+00
     -4.152  0.1791E+00  0.6026E+00
     -4.058  0.1833E+00  0.6198E+00
     -3.964  0.1814E+00  0.6368E+00
     -3.871  0.1776E+00  0.6534E+00
     -3.777  0.1762E+00  0.6699E+00
     -3.683  0.1863E+00  0.6874E+00
     -3.590  0.1923E+00  0.7054E+00
     -3.496  0.1922E+00  0.7234E+00
     -3.402  0.1854E+00  0.7407E+00
     -3.309  0.1862E+00  0.7582E+00
     -3.215  0.1947E+00  0.7764E+00
     -3.121  0.1994E+00  0.7951E+00
     -3.028  0.2038E+00  0.8142E+00
     -2.934  0.2054E+00  0.8334E+00
     -2.840  0.2049E+00  0.8526E+00
     -2.747  0.2025E+00  0.8716E+00
     -2.653  0.1905E+00  0.8894E+00
     -2.560  0.1866E+00  0.9069E+00
     -2.466  0.1941E+00  0.9251E+00
     -2.372  0.1961E+00  0.9434E+00
     -2.279  0.1909E+00  0.9613E+00
     -2.185  0.1933E+00  0.9794E+00
     -2.091  0.1981E+00  0.9980E+00
     -1.998  0.1885E+00  0.1016E+01
     -1.904  0.1761E+00  0.1032E+01
     -1.810  0.1609E+00  0.1047E+01
     -1.717  0.1482E+00  0.1061E+01
     -1.623  0.1420E+00  0.1074E+01
     -1.529  0.1287E+00  0.1086E+01
     -1.436  0.1001E+00  0.1096E+01
     -1.342  0.8070E-01  0.1103E+01
     -1.248  0.7137E-01  0.1110E+01
     -1.155  0.5722E-01  0.1115E+01
     -1.061  0.4407E-01  0.1120E+01
     -0.967  0.4896E-01  0.1124E+01
     -0.874  0.6095E-01  0.1130E+01
     -0.780  0.5842E-01  0.1135E+01
     -0.686  0.4966E-01  0.1140E+01
     -0.593  0.4629E-01  0.1144E+01
     -0.499  0.4920E-01  0.1149E+01
     -0.405  0.5584E-01  0.1154E+01
     -0.312  0.5046E-01  0.1159E+01
     -0.218  0.3167E-01  0.1162E+01
     -0.124  0.1945E-01  0.1164E+01
     -0.031  0.1677E-01  0.1165E+01
      0.063  0.1864E-01  0.1167E+01
      0.156  0.2484E-01  0.1169E+01
      0.250  0.3265E-01  0.1172E+01
      0.344  0.3424E-01  0.1176E+01
      0.437  0.3437E-01  0.1179E+01
      0.531  0.3148E-01  0.1182E+01
      0.625  0.3163E-01  0.1185E+01
      0.718  0.3139E-01  0.1188E+01
      0.812  0.3228E-01  0.1191E+01
      0.906  0.3215E-01  0.1194E+01
      0.999  0.3094E-01  0.1197E+01
      1.093  0.2163E-01  0.1199E+01
      1.187  0.2026E-01  0.1200E+01
      1.280  0.2550E-01  0.1203E+01
      1.374  0.2720E-01  0.1205E+01
      1.468  0.2824E-01  0.1208E+01
      1.561  0.2741E-01  0.1211E+01
      1.655  0.2982E-01  0.1213E+01
      1.749  0.3250E-01  0.1216E+01
      1.842  0.3316E-01  0.1220E+01
      1.936  0.3431E-01  0.1223E+01
      2.030  0.3146E-01  0.1226E+01
      2.123  0.3424E-01  0.1229E+01
      2.217  0.3783E-01  0.1232E+01
      2.311  0.3367E-01  0.1236E+01
      2.404  0.2744E-01  0.1238E+01
      2.498  0.2961E-01  0.1241E+01
      2.592  0.3214E-01  0.1244E+01
      2.685  0.2673E-01  0.1246E+01
      2.779  0.2365E-01  0.1249E+01
      2.872  0.1997E-01  0.1251E+01
      2.966  0.2148E-01  0.1253E+01
      3.060  0.2832E-01  0.1255E+01
      3.153  0.3111E-01  0.1258E+01
      3.247  0.3404E-01  0.1261E+01
      3.341  0.2864E-01  0.1264E+01
      3.434  0.2400E-01  0.1266E+01
      3.528  0.2677E-01  0.1269E+01
      3.622  0.3213E-01  0.1272E+01
      3.715  0.3303E-01  0.1275E+01
      3.809  0.2984E-01  0.1278E+01
      3.903  0.3728E-01  0.1281E+01
      3.996  0.4327E-01  0.1285E+01
      4.090  0.3863E-01  0.1289E+01
      4.184  0.3352E-01  0.1292E+01
      4.277  0.3849E-01  0.1296E+01
      4.371  0.4921E-01  0.1300E+01
      4.465  0.4579E-01  0.1304E+01
      4.558  0.4275E-01  0.1308E+01
      4.652  0.5251E-01  0.1313E+01
      4.746  0.6200E-01  0.1319E+01
      4.839  0.5933E-01  0.1325E+01
      4.933  0.5431E-01  0.1330E+01
      5.027  0.5448E-01  0.1335E+01
      5.120  0.4836E-01  0.1339E+01
      5.214  0.3300E-01  0.1343E+01
      5.307  0.1329E-01  0.1344E+01
      5.401  0.2265E-02  0.1344E+01
      5.495  0.1274E-03  0.1344E+01
      5.588  0.1803E-05  0.1344E+01
      5.682  0.5294E-08  0.1344E+01
      5.776  0.2938E-11  0.1344E+01
      5.869  0.2956E-15  0.1344E+01
      5.963  0.0000E+00  0.1344E+01
      6.057  0.0000E+00  0.1344E+01
      6.150  0.0000E+00  0.1344E+01
      6.244  0.0000E+00  0.1344E+01
      6.338  0.0000E+00  0.1344E+01
      6.431  0.0000E+00  0.1344E+01
      6.525  0.0000E+00  0.1344E+01
