  48  48   0   0
  0.5349325E+02  0.1100258E-08  0.1100258E-08  0.2449179E-08  0.3500000E-15
  1.000000000000000E-004
  CAR 
 unknown system                          
      6.34302829     -9.76965569  301     -1.06786750      1.00000000
     -9.770  0.0000E+00  0.0000E+00
     -9.716  0.0000E+00  0.0000E+00
     -9.662  0.0000E+00  0.0000E+00
     -9.609  0.0000E+00  0.0000E+00
     -9.555  0.0000E+00  0.0000E+00
     -9.501  0.0000E+00  0.0000E+00
     -9.447  0.0000E+00  0.0000E+00
     -9.394  0.0000E+00  0.0000E+00
     -9.340  0.9647E-17  0.5181E-18
     -9.286  0.3554E-14  0.1914E-15
     -9.233  0.7836E-12  0.4228E-13
     -9.179  0.9812E-10  0.5312E-11
     -9.125  0.6992E-08  0.3808E-09
     -9.071  0.2841E-06  0.1564E-07
     -9.018  0.6594E-05  0.3698E-06
     -8.964  0.8769E-04  0.5079E-05
     -8.910  0.6695E-03  0.4104E-04
     -8.857  0.2943E-02  0.1991E-03
     -8.803  0.7481E-02  0.6009E-03
     -8.749  0.1119E-01  0.1202E-02
     -8.695  0.1084E-01  0.1784E-02
     -8.642  0.9747E-02  0.2308E-02
     -8.588  0.1105E-01  0.2901E-02
     -8.534  0.1079E-01  0.3481E-02
     -8.481  0.6666E-02  0.3839E-02
     -8.427  0.2442E-02  0.3970E-02
     -8.373  0.7319E-03  0.4010E-02
     -8.320  0.1380E-02  0.4084E-02
     -8.266  0.4567E-02  0.4329E-02
     -8.212  0.9257E-02  0.4826E-02
     -8.158  0.1132E-01  0.5434E-02
     -8.105  0.9645E-02  0.5952E-02
     -8.051  0.8813E-02  0.6426E-02
     -7.997  0.1035E-01  0.6981E-02
     -7.944  0.1096E-01  0.7570E-02
     -7.890  0.1069E-01  0.8144E-02
     -7.836  0.1338E-01  0.8863E-02
     -7.782  0.1844E-01  0.9853E-02
     -7.729  0.1951E-01  0.1090E-01
     -7.675  0.1480E-01  0.1170E-01
     -7.621  0.1139E-01  0.1231E-01
     -7.568  0.1430E-01  0.1308E-01
     -7.514  0.1872E-01  0.1408E-01
     -7.460  0.1832E-01  0.1507E-01
     -7.406  0.1534E-01  0.1589E-01
     -7.353  0.1723E-01  0.1681E-01
     -7.299  0.2534E-01  0.1818E-01
     -7.245  0.3260E-01  0.1993E-01
     -7.192  0.3641E-01  0.2188E-01
     -7.138  0.4272E-01  0.2418E-01
     -7.084  0.5316E-01  0.2703E-01
     -7.030  0.6289E-01  0.3041E-01
     -6.977  0.6727E-01  0.3402E-01
     -6.923  0.6507E-01  0.3752E-01
     -6.869  0.6089E-01  0.4079E-01
     -6.816  0.6076E-01  0.4405E-01
     -6.762  0.6545E-01  0.4757E-01
     -6.708  0.7187E-01  0.5143E-01
     -6.655  0.7760E-01  0.5559E-01
     -6.601  0.8391E-01  0.6010E-01
     -6.547  0.9396E-01  0.6515E-01
     -6.493  0.1050E+00  0.7079E-01
     -6.440  0.1127E+00  0.7684E-01
     -6.386  0.1191E+00  0.8324E-01
     -6.332  0.1276E+00  0.9009E-01
     -6.279  0.1351E+00  0.9735E-01
     -6.225  0.1369E+00  0.1047E+00
     -6.171  0.1356E+00  0.1120E+00
     -6.117  0.1366E+00  0.1193E+00
     -6.064  0.1404E+00  0.1269E+00
     -6.010  0.1435E+00  0.1346E+00
     -5.956  0.1442E+00  0.1423E+00
     -5.903  0.1427E+00  0.1500E+00
     -5.849  0.1393E+00  0.1575E+00
     -5.795  0.1357E+00  0.1648E+00
     -5.741  0.1347E+00  0.1720E+00
     -5.688  0.1364E+00  0.1793E+00
     -5.634  0.1387E+00  0.1868E+00
     -5.580  0.1407E+00  0.1943E+00
     -5.527  0.1431E+00  0.2020E+00
     -5.473  0.1485E+00  0.2100E+00
     -5.419  0.1566E+00  0.2184E+00
     -5.366  0.1632E+00  0.2272E+00
     -5.312  0.1678E+00  0.2362E+00
     -5.258  0.1724E+00  0.2454E+00
     -5.204  0.1734E+00  0.2547E+00
     -5.151  0.1687E+00  0.2638E+00
     -5.097  0.1641E+00  0.2726E+00
     -5.043  0.1655E+00  0.2815E+00
     -4.990  0.1721E+00  0.2907E+00
     -4.936  0.1795E+00  0.3004E+00
     -4.882  0.1811E+00  0.3101E+00
     -4.828  0.1762E+00  0.3196E+00
     -4.775  0.1723E+00  0.3288E+00
     -4.721  0.1742E+00  0.3382E+00
     -4.667  0.1782E+00  0.3478E+00
     -4.614  0.1786E+00  0.3574E+00
     -4.560  0.1756E+00  0.3668E+00
     -4.506  0.1751E+00  0.3762E+00
     -4.452  0.1790E+00  0.3858E+00
     -4.399  0.1831E+00  0.3956E+00
     -4.345  0.1845E+00  0.4055E+00
     -4.291  0.1834E+00  0.4154E+00
     -4.238  0.1823E+00  0.4252E+00
     -4.184  0.1828E+00  0.4350E+00
     -4.130  0.1830E+00  0.4448E+00
     -4.077  0.1828E+00  0.4546E+00
     -4.023  0.1834E+00  0.4645E+00
     -3.969  0.1830E+00  0.4743E+00
     -3.915  0.1807E+00  0.4840E+00
     -3.862  0.1791E+00  0.4937E+00
     -3.808  0.1798E+00  0.5033E+00
     -3.754  0.1836E+00  0.5132E+00
     -3.701  0.1902E+00  0.5234E+00
     -3.647  0.1987E+00  0.5341E+00
     -3.593  0.2052E+00  0.5451E+00
     -3.539  0.2068E+00  0.5562E+00
     -3.486  0.2072E+00  0.5673E+00
     -3.432  0.2080E+00  0.5785E+00
     -3.378  0.2058E+00  0.5896E+00
     -3.325  0.2009E+00  0.6003E+00
     -3.271  0.1953E+00  0.6108E+00
     -3.217  0.1899E+00  0.6210E+00
     -3.163  0.1856E+00  0.6310E+00
     -3.110  0.1831E+00  0.6408E+00
     -3.056  0.1836E+00  0.6507E+00
     -3.002  0.1859E+00  0.6607E+00
     -2.949  0.1865E+00  0.6707E+00
     -2.895  0.1845E+00  0.6806E+00
     -2.841  0.1813E+00  0.6903E+00
     -2.787  0.1794E+00  0.7000E+00
     -2.734  0.1806E+00  0.7097E+00
     -2.680  0.1835E+00  0.7195E+00
     -2.626  0.1845E+00  0.7294E+00
     -2.573  0.1819E+00  0.7392E+00
     -2.519  0.1780E+00  0.7488E+00
     -2.465  0.1768E+00  0.7583E+00
     -2.412  0.1783E+00  0.7678E+00
     -2.358  0.1815E+00  0.7776E+00
     -2.304  0.1844E+00  0.7875E+00
     -2.250  0.1848E+00  0.7974E+00
     -2.197  0.1828E+00  0.8072E+00
     -2.143  0.1799E+00  0.8169E+00
     -2.089  0.1774E+00  0.8264E+00
     -2.036  0.1757E+00  0.8359E+00
     -1.982  0.1763E+00  0.8453E+00
     -1.928  0.1806E+00  0.8550E+00
     -1.874  0.1870E+00  0.8651E+00
     -1.821  0.1920E+00  0.8754E+00
     -1.767  0.1939E+00  0.8858E+00
     -1.713  0.1935E+00  0.8962E+00
     -1.660  0.1925E+00  0.9065E+00
     -1.606  0.1918E+00  0.9168E+00
     -1.552  0.1920E+00  0.9271E+00
     -1.498  0.1913E+00  0.9374E+00
     -1.445  0.1884E+00  0.9475E+00
     -1.391  0.1855E+00  0.9575E+00
     -1.337  0.1833E+00  0.9673E+00
     -1.284  0.1791E+00  0.9770E+00
     -1.230  0.1702E+00  0.9861E+00
     -1.176  0.1552E+00  0.9944E+00
     -1.123  0.1356E+00  0.1002E+01
     -1.069  0.1150E+00  0.1008E+01
     -1.015  0.9473E-01  0.1013E+01
     -0.961  0.7054E-01  0.1017E+01
     -0.908  0.4405E-01  0.1019E+01
     -0.854  0.2552E-01  0.1021E+01
     -0.800  0.1758E-01  0.1021E+01
     -0.747  0.1484E-01  0.1022E+01
     -0.693  0.1617E-01  0.1023E+01
     -0.639  0.2215E-01  0.1024E+01
     -0.585  0.3019E-01  0.1026E+01
     -0.532  0.3774E-01  0.1028E+01
     -0.478  0.4225E-01  0.1030E+01
     -0.424  0.4108E-01  0.1032E+01
     -0.371  0.3417E-01  0.1034E+01
     -0.317  0.2528E-01  0.1036E+01
     -0.263  0.2309E-01  0.1037E+01
     -0.209  0.3139E-01  0.1039E+01
     -0.156  0.4042E-01  0.1041E+01
     -0.102  0.4067E-01  0.1043E+01
     -0.048  0.3517E-01  0.1045E+01
      0.005  0.3113E-01  0.1046E+01
      0.059  0.2991E-01  0.1048E+01
      0.113  0.3055E-01  0.1050E+01
      0.166  0.3351E-01  0.1052E+01
      0.220  0.3698E-01  0.1054E+01
      0.274  0.3845E-01  0.1056E+01
      0.328  0.3774E-01  0.1058E+01
      0.381  0.3658E-01  0.1060E+01
      0.435  0.3703E-01  0.1062E+01
      0.489  0.3945E-01  0.1064E+01
      0.542  0.4169E-01  0.1066E+01
      0.596  0.4246E-01  0.1068E+01
      0.650  0.4259E-01  0.1070E+01
      0.704  0.4124E-01  0.1073E+01
      0.757  0.3764E-01  0.1075E+01
      0.811  0.3108E-01  0.1076E+01
      0.865  0.2155E-01  0.1078E+01
      0.918  0.1522E-01  0.1078E+01
      0.972  0.1666E-01  0.1079E+01
      1.026  0.2125E-01  0.1080E+01
      1.080  0.2441E-01  0.1082E+01
      1.133  0.2600E-01  0.1083E+01
      1.187  0.2438E-01  0.1084E+01
      1.241  0.1870E-01  0.1085E+01
      1.294  0.1327E-01  0.1086E+01
      1.348  0.1219E-01  0.1087E+01
      1.402  0.1464E-01  0.1088E+01
      1.456  0.1863E-01  0.1089E+01
      1.509  0.2425E-01  0.1090E+01
      1.563  0.3061E-01  0.1092E+01
      1.617  0.3523E-01  0.1093E+01
      1.670  0.3666E-01  0.1095E+01
      1.724  0.3737E-01  0.1097E+01
      1.778  0.4016E-01  0.1100E+01
      1.831  0.3887E-01  0.1102E+01
      1.885  0.2802E-01  0.1103E+01
      1.939  0.1577E-01  0.1104E+01
      1.993  0.1177E-01  0.1105E+01
      2.046  0.1448E-01  0.1105E+01
      2.100  0.1931E-01  0.1106E+01
      2.154  0.2645E-01  0.1108E+01
      2.207  0.3465E-01  0.1110E+01
      2.261  0.4110E-01  0.1112E+01
      2.315  0.4527E-01  0.1114E+01
      2.369  0.4607E-01  0.1117E+01
      2.422  0.4260E-01  0.1119E+01
      2.476  0.3678E-01  0.1121E+01
      2.530  0.3371E-01  0.1123E+01
      2.583  0.3727E-01  0.1125E+01
      2.637  0.4548E-01  0.1127E+01
      2.691  0.5253E-01  0.1130E+01
      2.745  0.5366E-01  0.1133E+01
      2.798  0.4553E-01  0.1135E+01
      2.852  0.3072E-01  0.1137E+01
      2.906  0.1906E-01  0.1138E+01
      2.959  0.1494E-01  0.1139E+01
      3.013  0.1389E-01  0.1140E+01
      3.067  0.1428E-01  0.1140E+01
      3.120  0.1829E-01  0.1141E+01
      3.174  0.2361E-01  0.1143E+01
      3.228  0.2546E-01  0.1144E+01
      3.282  0.2232E-01  0.1145E+01
      3.335  0.1743E-01  0.1146E+01
      3.389  0.1451E-01  0.1147E+01
      3.443  0.1350E-01  0.1148E+01
      3.496  0.1455E-01  0.1149E+01
      3.550  0.1929E-01  0.1150E+01
      3.604  0.2698E-01  0.1151E+01
      3.658  0.3479E-01  0.1153E+01
      3.711  0.4057E-01  0.1155E+01
      3.765  0.4265E-01  0.1157E+01
      3.819  0.3843E-01  0.1159E+01
      3.872  0.2983E-01  0.1161E+01
      3.926  0.2346E-01  0.1162E+01
      3.980  0.2254E-01  0.1163E+01
      4.034  0.2401E-01  0.1165E+01
      4.087  0.2434E-01  0.1166E+01
      4.141  0.2479E-01  0.1167E+01
      4.195  0.2588E-01  0.1169E+01
      4.248  0.2478E-01  0.1170E+01
      4.302  0.2097E-01  0.1171E+01
      4.356  0.1807E-01  0.1172E+01
      4.410  0.2013E-01  0.1173E+01
      4.463  0.2613E-01  0.1175E+01
      4.517  0.3392E-01  0.1177E+01
      4.571  0.4495E-01  0.1179E+01
      4.624  0.5599E-01  0.1182E+01
      4.678  0.5736E-01  0.1185E+01
      4.732  0.4918E-01  0.1188E+01
      4.785  0.4498E-01  0.1190E+01
      4.839  0.4867E-01  0.1193E+01
      4.893  0.5170E-01  0.1195E+01
      4.947  0.5383E-01  0.1198E+01
      5.000  0.6091E-01  0.1202E+01
      5.054  0.6981E-01  0.1205E+01
      5.108  0.7137E-01  0.1209E+01
      5.161  0.6508E-01  0.1213E+01
      5.215  0.5958E-01  0.1216E+01
      5.269  0.5604E-01  0.1219E+01
      5.323  0.4655E-01  0.1221E+01
      5.376  0.2965E-01  0.1223E+01
      5.430  0.1335E-01  0.1224E+01
      5.484  0.4010E-02  0.1224E+01
      5.537  0.7639E-03  0.1224E+01
      5.591  0.8895E-04  0.1224E+01
      5.645  0.6171E-05  0.1224E+01
      5.699  0.2509E-06  0.1224E+01
      5.752  0.5917E-08  0.1224E+01
      5.806  0.8037E-10  0.1224E+01
      5.860  0.6256E-12  0.1224E+01
      5.913  0.2778E-14  0.1224E+01
      5.967  0.6890E-17  0.1224E+01
      6.021  0.0000E+00  0.1224E+01
      6.074  0.0000E+00  0.1224E+01
      6.128  0.0000E+00  0.1224E+01
      6.182  0.0000E+00  0.1224E+01
      6.236  0.0000E+00  0.1224E+01
      6.289  0.0000E+00  0.1224E+01
      6.343  0.0000E+00  0.1224E+01
