       N       E                     dE             d eps       ncg     rms          rms(c)
DAV:   1     0.319973025581E+04    0.31997E+04   -0.18982E+05  3672   0.112E+03
DAV:   2     0.150475210030E+02   -0.31847E+04   -0.29292E+04  4356   0.263E+02
DAV:   3    -0.201744244776E+03   -0.21679E+03   -0.20087E+03  4116   0.651E+01
DAV:   4    -0.207785917346E+03   -0.60417E+01   -0.59722E+01  4248   0.110E+01
DAV:   5    -0.207969832783E+03   -0.18392E+00   -0.18334E+00  4464   0.195E+00    0.621E+01
RMM:   6    -0.205397094812E+03    0.25727E+01   -0.10278E+02  3678   0.157E+01    0.582E+01
RMM:   7    -0.204454379953E+03    0.94271E+00   -0.63941E+01  3681   0.118E+01    0.442E+01
RMM:   8    -0.215321891249E+03   -0.10868E+02   -0.71055E+01  3675   0.126E+01    0.382E+01
RMM:   9    -0.208478039369E+03    0.68439E+01   -0.38896E+01  3675   0.958E+00    0.311E+01
RMM:  10    -0.195305565334E+03    0.13172E+02   -0.24887E+01  3681   0.792E+00    0.178E+01
RMM:  11    -0.190689267789E+03    0.46163E+01   -0.66980E+00  3680   0.413E+00    0.125E+01
RMM:  12    -0.190118661880E+03    0.57061E+00   -0.32044E+00  3680   0.283E+00    0.907E+00
RMM:  13    -0.189826764077E+03    0.29190E+00   -0.10840E+00  3679   0.160E+00    0.873E+00
RMM:  14    -0.189538041297E+03    0.28872E+00   -0.80142E-01  3679   0.141E+00    0.622E+00
RMM:  15    -0.189399225465E+03    0.13882E+00   -0.49718E-01  3679   0.106E+00    0.524E+00
RMM:  16    -0.189418722181E+03   -0.19497E-01   -0.27653E-01  3681   0.814E-01    0.479E+00
RMM:  17    -0.189262394293E+03    0.15633E+00   -0.16941E-01  3678   0.640E-01    0.287E+00
RMM:  18    -0.189216955378E+03    0.45439E-01   -0.12101E-01  3678   0.533E-01    0.184E+00
RMM:  19    -0.189189425372E+03    0.27530E-01   -0.34046E-02  3679   0.289E-01    0.990E-01
RMM:  20    -0.189182812029E+03    0.66133E-02   -0.87906E-03  3679   0.143E-01    0.632E-01
RMM:  21    -0.189180908597E+03    0.19034E-02   -0.46184E-03  3679   0.102E-01    0.470E-01
RMM:  22    -0.189180942474E+03   -0.33877E-04   -0.29279E-03  3679   0.850E-02    0.379E-01
RMM:  23    -0.189180460732E+03    0.48174E-03   -0.21411E-03  3679   0.732E-02    0.200E-01
RMM:  24    -0.189180285407E+03    0.17532E-03   -0.49106E-04  3680   0.343E-02    0.965E-02
RMM:  25    -0.189180533599E+03   -0.24819E-03   -0.16577E-04  3681   0.197E-02    0.912E-02
RMM:  26    -0.189180792187E+03   -0.25859E-03   -0.11637E-04  3676   0.173E-02    0.660E-02
RMM:  27    -0.189181287146E+03   -0.49496E-03   -0.93319E-05  3677   0.141E-02    0.524E-02
RMM:  28    -0.189181694390E+03   -0.40724E-03   -0.48695E-05  3672   0.104E-02    0.205E-02
RMM:  29    -0.189182095825E+03   -0.40143E-03   -0.20164E-05  3637   0.626E-03    0.198E-02
RMM:  30    -0.189182586651E+03   -0.49083E-03   -0.19628E-05  3468   0.623E-03    0.174E-02
RMM:  31    -0.189182954352E+03   -0.36770E-03   -0.17108E-05  3334   0.563E-03    0.136E-02
RMM:  32    -0.189183314886E+03   -0.36053E-03   -0.21144E-05  3323   0.604E-03    0.141E-02
RMM:  33    -0.189183478149E+03   -0.16326E-03   -0.10207E-05  2886   0.402E-03    0.114E-02
RMM:  34    -0.189183564195E+03   -0.86046E-04   -0.43695E-06  2605   0.260E-03    0.511E-03
RMM:  35    -0.189183618349E+03   -0.54154E-04   -0.18991E-06  2301   0.179E-03    0.426E-03
RMM:  36    -0.189183639201E+03   -0.20852E-04   -0.73715E-07  2146   0.119E-03    0.212E-03
RMM:  37    -0.189183646934E+03   -0.77328E-05   -0.21407E-07  1495   0.649E-04    0.135E-03
RMM:  38    -0.189183661343E+03   -0.14409E-04   -0.19047E-07  2045   0.692E-04    0.971E-04
RMM:  39    -0.189183669654E+03   -0.83113E-05   -0.12215E-07  1334   0.538E-04    0.774E-04
RMM:  40    -0.189183673875E+03   -0.42207E-05   -0.84863E-08  1379   0.500E-04    0.709E-04
RMM:  41    -0.189183674636E+03   -0.76105E-06   -0.13668E-08   614   0.330E-04
   1 F= -.18918367E+03 E0= -.18904557E+03  d E =-.189184E+03
       N       E                     dE             d eps       ncg     rms          rms(c)
DAV:   1    -0.189730621003E+03   -0.54695E+00   -0.18302E+02  3720   0.207E+01    0.226E+00
RMM:   2    -0.189935858904E+03   -0.20524E+00   -0.19798E+00  3683   0.302E+00    0.191E+00
RMM:   3    -0.190013625015E+03   -0.77766E-01   -0.20489E-01  3708   0.774E-01    0.303E+00
RMM:   4    -0.189937780139E+03    0.75845E-01   -0.83623E-02  3687   0.457E-01    0.187E+00
RMM:   5    -0.189912318016E+03    0.25462E-01   -0.42933E-02  3681   0.330E-01    0.935E-01
RMM:   6    -0.189919427867E+03   -0.71099E-02   -0.27444E-02  3681   0.260E-01    0.121E+00
RMM:   7    -0.189905438417E+03    0.13989E-01   -0.13148E-02  3682   0.185E-01    0.311E-01
RMM:   8    -0.189904259213E+03    0.11792E-02   -0.22135E-03  3681   0.723E-02    0.180E-01
RMM:   9    -0.189903938541E+03    0.32067E-03   -0.94691E-04  3681   0.482E-02    0.111E-01
RMM:  10    -0.189903837904E+03    0.10064E-03   -0.39951E-04  3682   0.309E-02    0.807E-02
RMM:  11    -0.189903788004E+03    0.49900E-04   -0.11501E-04  3687   0.168E-02    0.469E-02
RMM:  12    -0.189903781609E+03    0.63950E-05   -0.30624E-05  3674   0.887E-03    0.332E-02
RMM:  13    -0.189903775352E+03    0.62564E-05   -0.13001E-05  3601   0.596E-03    0.165E-02
RMM:  14    -0.189903774793E+03    0.55953E-06   -0.53058E-06  2870   0.374E-03
   2 F= -.18990377E+03 E0= -.18976654E+03  d E =-.720100E+00
       N       E                     dE             d eps       ncg     rms          rms(c)
DAV:   1    -0.189191086861E+03    0.71269E+00   -0.17077E+03  3672   0.643E+01    0.579E+00
RMM:   2    -0.191040416285E+03   -0.18493E+01   -0.18069E+01  3681   0.912E+00    0.493E+00
RMM:   3    -0.191358699555E+03   -0.31828E+00   -0.15116E+00  3707   0.212E+00    0.665E+00
RMM:   4    -0.190923469206E+03    0.43523E+00   -0.44106E-01  3687   0.108E+00    0.384E+00
RMM:   5    -0.190857540100E+03    0.65929E-01   -0.22090E-01  3681   0.734E-01    0.285E+00
RMM:   6    -0.190878818903E+03   -0.21279E-01   -0.22637E-01  3681   0.740E-01    0.305E+00
RMM:   7    -0.190790166527E+03    0.88652E-01   -0.99636E-02  3681   0.507E-01    0.112E+00
RMM:   8    -0.190776848076E+03    0.13318E-01   -0.26903E-02  3681   0.253E-01    0.675E-01
RMM:   9    -0.190771417301E+03    0.54308E-02   -0.93475E-03  3681   0.151E-01    0.299E-01
RMM:  10    -0.190770839739E+03    0.57756E-03   -0.31285E-03  3682   0.842E-02    0.260E-01
RMM:  11    -0.190770336995E+03    0.50274E-03   -0.10075E-03  3683   0.494E-02    0.154E-01
RMM:  12    -0.190770231416E+03    0.10558E-03   -0.33155E-04  3684   0.298E-02    0.791E-02
RMM:  13    -0.190770216197E+03    0.15218E-04   -0.14508E-04  3681   0.193E-02    0.536E-02
RMM:  14    -0.190770200488E+03    0.15710E-04   -0.47452E-05  3677   0.110E-02    0.293E-02
RMM:  15    -0.190770197778E+03    0.27099E-05   -0.13427E-05  3567   0.591E-03    0.148E-02
RMM:  16    -0.190770200500E+03   -0.27220E-05   -0.48346E-06  2911   0.357E-03    0.783E-03
RMM:  17    -0.190770204028E+03   -0.35276E-05   -0.23381E-06  2240   0.266E-03    0.606E-03
RMM:  18    -0.190770207957E+03   -0.39297E-05   -0.87782E-07  2054   0.176E-03    0.303E-03
RMM:  19    -0.190770209780E+03   -0.18233E-05   -0.21634E-07  1980   0.854E-04    0.166E-03
RMM:  20    -0.190770211876E+03   -0.20957E-05   -0.44376E-08   931   0.459E-04    0.131E-03
RMM:  21    -0.190770213642E+03   -0.17657E-05   -0.22706E-08   718   0.424E-04    0.989E-04
RMM:  22    -0.190770216763E+03   -0.31212E-05   -0.92894E-08  1507   0.507E-04    0.140E-03
RMM:  23    -0.190770219124E+03   -0.23607E-05   -0.41787E-08   913   0.390E-04    0.122E-03
RMM:  24    -0.190770222758E+03   -0.36339E-05   -0.13245E-07  1205   0.479E-04    0.104E-03
RMM:  25    -0.190770224321E+03   -0.15629E-05   -0.70854E-08  1010   0.420E-04    0.792E-04
RMM:  26    -0.190770225687E+03   -0.13665E-05   -0.91088E-08  1069   0.408E-04    0.519E-04
RMM:  27    -0.190770226170E+03   -0.48314E-06   -0.23421E-08   587   0.331E-04
   3 F= -.19077023E+03 E0= -.19063612E+03  d E =-.158655E+01
       N       E                     dE             d eps       ncg     rms          rms(c)
DAV:   1    -0.191107260388E+03   -0.33703E+00   -0.36441E+02  3672   0.295E+01    0.220E+00
RMM:   2    -0.191509185063E+03   -0.40192E+00   -0.37792E+00  3681   0.421E+00    0.231E+00
RMM:   3    -0.191585855021E+03   -0.76670E-01   -0.28868E-01  3713   0.924E-01    0.346E+00
RMM:   4    -0.191471038245E+03    0.11482E+00   -0.60489E-02  3687   0.418E-01    0.169E+00
RMM:   5    -0.191454555914E+03    0.16482E-01   -0.28907E-02  3681   0.278E-01    0.109E+00
RMM:   6    -0.191458731352E+03   -0.41754E-02   -0.49668E-02  3681   0.349E-01    0.116E+00
RMM:   7    -0.191446692707E+03    0.12039E-01   -0.21041E-02  3681   0.231E-01    0.595E-01
RMM:   8    -0.191443233720E+03    0.34590E-02   -0.43070E-03  3686   0.103E-01    0.285E-01
RMM:   9    -0.191442360471E+03    0.87325E-03   -0.15143E-03  3681   0.627E-02    0.136E-01
RMM:  10    -0.191442212996E+03    0.14747E-03   -0.49401E-04  3681   0.349E-02    0.107E-01
RMM:  11    -0.191442115292E+03    0.97704E-04   -0.18127E-04  3684   0.211E-02    0.681E-02
RMM:  12    -0.191442096441E+03    0.18852E-04   -0.12063E-04  3681   0.171E-02    0.527E-02
RMM:  13    -0.191442074939E+03    0.21502E-04   -0.65368E-05  3684   0.128E-02    0.216E-02
RMM:  14    -0.191442075272E+03   -0.33261E-06   -0.12123E-05  3648   0.554E-03    0.146E-02
RMM:  15    -0.191442074078E+03    0.11936E-05   -0.25621E-06  2335   0.274E-03    0.632E-03
RMM:  16    -0.191442074504E+03   -0.42557E-06   -0.92912E-07  2013   0.170E-03
   4 F= -.19144207E+03 E0= -.19130895E+03  d E =-.671848E+00
       N       E                     dE             d eps       ncg     rms          rms(c)
DAV:   1    -0.189134325053E+03    0.23077E+01   -0.34279E+03  3672   0.928E+01    0.566E+00
RMM:   2    -0.192578219239E+03   -0.34439E+01   -0.33671E+01  3681   0.127E+01    0.585E+00
RMM:   3    -0.192898475046E+03   -0.32026E+00   -0.21184E+00  3706   0.251E+00    0.735E+00
RMM:   4    -0.192310481136E+03    0.58799E+00   -0.34589E-01  3686   0.100E+00    0.405E+00
RMM:   5    -0.192232646187E+03    0.77835E-01   -0.15989E-01  3681   0.639E-01    0.333E+00
RMM:   6    -0.192240997183E+03   -0.83510E-02   -0.37460E-01  3681   0.949E-01    0.339E+00
RMM:   7    -0.192168362861E+03    0.72634E-01   -0.22972E-01  3681   0.757E-01    0.250E+00
RMM:   8    -0.192112302601E+03    0.56060E-01   -0.64787E-02  3684   0.404E-01    0.107E+00
RMM:   9    -0.192101863450E+03    0.10439E-01   -0.16977E-02  3681   0.207E-01    0.556E-01
RMM:  10    -0.192099405150E+03    0.24583E-02   -0.62023E-03  3679   0.124E-01    0.438E-01
RMM:  11    -0.192098156422E+03    0.12487E-02   -0.36638E-03  3681   0.950E-02    0.326E-01
RMM:  12    -0.192097289299E+03    0.86712E-03   -0.25053E-03  3681   0.787E-02    0.179E-01
RMM:  13    -0.192097120050E+03    0.16925E-03   -0.11016E-03  3681   0.521E-02    0.111E-01
RMM:  14    -0.192097019188E+03    0.10086E-03   -0.26823E-04  3684   0.264E-02    0.442E-02
RMM:  15    -0.192097005203E+03    0.13984E-04   -0.42106E-05  3679   0.106E-02    0.257E-02
RMM:  16    -0.192097004291E+03    0.91264E-06   -0.18833E-05  3673   0.693E-03    0.178E-02
RMM:  17    -0.192097006354E+03   -0.20629E-05   -0.62165E-06  3153   0.400E-03    0.115E-02
RMM:  18    -0.192097011805E+03   -0.54508E-05   -0.24493E-06  2266   0.268E-03    0.636E-03
RMM:  19    -0.192097015096E+03   -0.32918E-05   -0.90979E-07  2049   0.175E-03    0.295E-03
RMM:  20    -0.192097020999E+03   -0.59022E-05   -0.31571E-07  2077   0.888E-04    0.211E-03
RMM:  21    -0.192097023916E+03   -0.29176E-05   -0.12423E-07  1391   0.595E-04    0.100E-03
RMM:  22    -0.192097028238E+03   -0.43219E-05   -0.12186E-07  1610   0.525E-04    0.102E-03
RMM:  23    -0.192097031844E+03   -0.36056E-05   -0.12203E-07  1412   0.467E-04    0.113E-03
RMM:  24    -0.192097036059E+03   -0.42149E-05   -0.14398E-07  1268   0.485E-04    0.762E-04
RMM:  25    -0.192097038472E+03   -0.24138E-05   -0.16869E-07  1533   0.499E-04    0.648E-04
RMM:  26    -0.192097039739E+03   -0.12668E-05   -0.89553E-08   974   0.388E-04    0.313E-04
RMM:  27    -0.192097040164E+03   -0.42439E-06   -0.38097E-08   678   0.345E-04
   5 F= -.19209704E+03 E0= -.19196686E+03  d E =-.132681E+01
       N       E                     dE             d eps       ncg     rms          rms(c)
DAV:   1    -0.191629281355E+03    0.46776E+00   -0.90789E+02  3672   0.468E+01    0.300E+00
RMM:   2    -0.192635541482E+03   -0.10063E+01   -0.96184E+00  3681   0.670E+00    0.338E+00
RMM:   3    -0.192759735663E+03   -0.12419E+00   -0.66105E-01  3708   0.140E+00    0.457E+00
RMM:   4    -0.192555235409E+03    0.20450E+00   -0.11458E-01  3682   0.580E-01    0.247E+00
RMM:   5    -0.192518025733E+03    0.37210E-01   -0.46635E-02  3682   0.352E-01    0.163E+00
RMM:   6    -0.192514282573E+03    0.37432E-02   -0.10694E-01  3681   0.505E-01    0.153E+00
RMM:   7    -0.192497502425E+03    0.16780E-01   -0.55099E-02  3681   0.369E-01    0.107E+00
RMM:   8    -0.192487783381E+03    0.97190E-02   -0.13283E-02  3685   0.183E-01    0.497E-01
RMM:   9    -0.192485381173E+03    0.24022E-02   -0.41934E-03  3681   0.104E-01    0.264E-01
RMM:  10    -0.192484719392E+03    0.66178E-03   -0.13431E-03  3681   0.577E-02    0.175E-01
RMM:  11    -0.192484460093E+03    0.25930E-03   -0.65527E-04  3681   0.398E-02    0.119E-01
RMM:  12    -0.192484347826E+03    0.11227E-03   -0.52475E-04  3681   0.352E-02    0.851E-02
RMM:  13    -0.192484307271E+03    0.40555E-04   -0.19673E-04  3681   0.219E-02    0.482E-02
RMM:  14    -0.192484297131E+03    0.10139E-04   -0.49499E-05  3685   0.112E-02    0.254E-02
RMM:  15    -0.192484292439E+03    0.46921E-05   -0.94336E-06  3409   0.502E-03    0.131E-02
RMM:  16    -0.192484292057E+03    0.38172E-06   -0.47362E-06  2949   0.356E-03
   6 F= -.19248429E+03 E0= -.19235308E+03  d E =-.387252E+00
       N       E                     dE             d eps       ncg     rms          rms(c)
DAV:   1    -0.192457351678E+03    0.26941E-01   -0.37992E+01  3720   0.949E+00    0.576E-01
RMM:   2    -0.192502518391E+03   -0.45167E-01   -0.41734E-01  3681   0.139E+00    0.820E-01
RMM:   3    -0.192504194198E+03   -0.16758E-02   -0.29191E-02  3716   0.296E-01    0.914E-01
RMM:   4    -0.192496529958E+03    0.76642E-02   -0.42976E-03  3682   0.115E-01    0.436E-01
RMM:   5    -0.192495603953E+03    0.92600E-03   -0.16062E-03  3682   0.665E-02    0.319E-01
RMM:   6    -0.192495390069E+03    0.21388E-03   -0.46402E-03  3681   0.106E-01    0.305E-01
RMM:   7    -0.192494677532E+03    0.71254E-03   -0.26544E-03  3681   0.808E-02    0.163E-01
RMM:   8    -0.192494512646E+03    0.16489E-03   -0.46251E-04  3686   0.343E-02    0.101E-01
RMM:   9    -0.192494410832E+03    0.10181E-03   -0.15614E-04  3681   0.201E-02    0.540E-02
RMM:  10    -0.192494381438E+03    0.29394E-04   -0.65120E-05  3678   0.126E-02    0.349E-02
RMM:  11    -0.192494369308E+03    0.12130E-04   -0.26174E-05  3677   0.790E-03    0.186E-02
RMM:  12    -0.192494368593E+03    0.71431E-06   -0.24808E-05  3674   0.750E-03    0.134E-02
RMM:  13    -0.192494368344E+03    0.24898E-06   -0.66088E-06  3524   0.401E-03
   7 F= -.19249437E+03 E0= -.19236297E+03  d E =-.397328E+00
       N       E                     dE             d eps       ncg     rms          rms(c)
DAV:   1    -0.192509004001E+03   -0.14635E-01   -0.46689E+01  3672   0.106E+01    0.790E-01
RMM:   2    -0.192561260935E+03   -0.52257E-01   -0.54189E-01  3681   0.155E+00    0.668E-01
RMM:   3    -0.192576348794E+03   -0.15088E-01   -0.37856E-02  3700   0.323E-01    0.126E+00
RMM:   4    -0.192560683410E+03    0.15665E-01   -0.11240E-02  3687   0.169E-01    0.587E-01
RMM:   5    -0.192558417283E+03    0.22661E-02   -0.42987E-03  3678   0.105E-01    0.363E-01
RMM:   6    -0.192558930688E+03   -0.51341E-03   -0.59563E-03  3681   0.120E-01    0.401E-01
RMM:   7    -0.192557460456E+03    0.14702E-02   -0.29984E-03  3681   0.862E-02    0.160E-01
RMM:   8    -0.192557343242E+03    0.11721E-03   -0.56480E-04  3681   0.377E-02    0.121E-01
RMM:   9    -0.192557162982E+03    0.18026E-03   -0.23595E-04  3680   0.241E-02    0.582E-02
RMM:  10    -0.192557125227E+03    0.37755E-04   -0.64151E-05  3680   0.125E-02    0.319E-02
RMM:  11    -0.192557110380E+03    0.14847E-04   -0.35646E-05  3681   0.884E-03    0.143E-02
RMM:  12    -0.192557109200E+03    0.11802E-05   -0.26403E-05  3677   0.752E-03    0.103E-02
RMM:  13    -0.192557109067E+03    0.13247E-06   -0.44506E-06  2763   0.342E-03
   8 F= -.19255711E+03 E0= -.19242607E+03  d E =-.627407E-01
       N       E                     dE             d eps       ncg     rms          rms(c)
DAV:   1    -0.192556658708E+03    0.45049E-03   -0.31943E+00  3744   0.276E+00    0.200E-01
RMM:   2    -0.192560233218E+03   -0.35745E-02   -0.37060E-02  3681   0.405E-01    0.179E-01
RMM:   3    -0.192561136969E+03   -0.90375E-03   -0.25632E-03  3700   0.840E-02    0.317E-01
RMM:   4    -0.192560144761E+03    0.99221E-03   -0.72001E-04  3684   0.431E-02    0.151E-01
RMM:   5    -0.192560017144E+03    0.12762E-03   -0.27652E-04  3678   0.268E-02    0.934E-02
RMM:   6    -0.192560069126E+03   -0.51982E-04   -0.41961E-04  3681   0.317E-02    0.107E-01
RMM:   7    -0.192559964975E+03    0.10415E-03   -0.21363E-04  3681   0.230E-02    0.436E-02
RMM:   8    -0.192559959385E+03    0.55902E-05   -0.40844E-05  3680   0.101E-02    0.338E-02
RMM:   9    -0.192559946012E+03    0.13374E-04   -0.17449E-05  3667   0.653E-03    0.158E-02
RMM:  10    -0.192559943313E+03    0.26989E-05   -0.44050E-06  2778   0.337E-03    0.831E-03
RMM:  11    -0.192559942423E+03    0.88929E-06   -0.29766E-06  2057   0.283E-03
   9 F= -.19255994E+03 E0= -.19242902E+03  d E =-.655741E-01
       N       E                     dE             d eps       ncg     rms          rms(c)
DAV:   1    -0.192561600744E+03   -0.16574E-02   -0.94506E+00  3672   0.474E+00    0.308E-01
RMM:   2    -0.192572871340E+03   -0.11271E-01   -0.10977E-01  3681   0.696E-01    0.390E-01
RMM:   3    -0.192573763276E+03   -0.89194E-03   -0.76124E-03  3705   0.144E-01    0.448E-01
RMM:   4    -0.192571867783E+03    0.18955E-02   -0.15732E-03  3682   0.649E-02    0.224E-01
RMM:   5    -0.192571559980E+03    0.30780E-03   -0.64550E-04  3681   0.414E-02    0.162E-01
RMM:   6    -0.192571617405E+03   -0.57426E-04   -0.12705E-03  3681   0.548E-02    0.170E-01
RMM:   7    -0.192571387539E+03    0.22987E-03   -0.76600E-04  3681   0.432E-02    0.751E-02
RMM:   8    -0.192571365232E+03    0.22307E-04   -0.11778E-04  3681   0.173E-02    0.560E-02
RMM:   9    -0.192571328669E+03    0.36563E-04   -0.40793E-05  3679   0.995E-03    0.317E-02
RMM:  10    -0.192571315274E+03    0.13395E-04   -0.22950E-05  3672   0.743E-03    0.184E-02
RMM:  11    -0.192571310219E+03    0.50545E-05   -0.14508E-05  3672   0.566E-03    0.918E-03
RMM:  12    -0.192571309564E+03    0.65531E-06   -0.97153E-06  3660   0.458E-03
  10 F= -.19257131E+03 E0= -.19244033E+03  d E =-.113671E-01
       N       E                     dE             d eps       ncg     rms          rms(c)
DAV:   1    -0.192571137474E+03    0.17275E-03   -0.94441E-01  3696   0.150E+00    0.964E-02
RMM:   2    -0.192572274357E+03   -0.11369E-02   -0.10948E-02  3681   0.220E-01    0.130E-01
RMM:   3    -0.192572314732E+03   -0.40375E-04   -0.75565E-04  3705   0.455E-02    0.134E-01
RMM:   4    -0.192572150134E+03    0.16460E-03   -0.14920E-04  3682   0.201E-02    0.699E-02
RMM:   5    -0.192572124237E+03    0.25897E-04   -0.64985E-05  3681   0.132E-02    0.522E-02
RMM:   6    -0.192572135358E+03   -0.11121E-04   -0.13328E-04  3681   0.178E-02    0.555E-02
RMM:   7    -0.192572110809E+03    0.24549E-04   -0.78067E-05  3681   0.138E-02    0.231E-02
RMM:   8    -0.192572108910E+03    0.18985E-05   -0.11537E-05  3468   0.544E-03    0.176E-02
RMM:   9    -0.192572105283E+03    0.36275E-05   -0.38808E-06  2698   0.315E-03    0.104E-02
RMM:  10    -0.192572103964E+03    0.13193E-05   -0.23578E-06  2014   0.263E-03    0.615E-03
RMM:  11    -0.192572103574E+03    0.38958E-06   -0.18262E-06  1949   0.233E-03
  11 F= -.19257210E+03 E0= -.19244112E+03  d E =-.121612E-01
       N       E                     dE             d eps       ncg     rms          rms(c)
DAV:   1    -0.192572463531E+03   -0.35957E-03   -0.19015E+00  3684   0.212E+00    0.129E-01
RMM:   2    -0.192574709081E+03   -0.22456E-02   -0.21765E-02  3681   0.314E-01    0.176E-01
RMM:   3    -0.192574788546E+03   -0.79464E-04   -0.15626E-03  3712   0.676E-02    0.192E-01
RMM:   4    -0.192574478282E+03    0.31026E-03   -0.23065E-04  3690   0.252E-02    0.958E-02
RMM:   5    -0.192574437664E+03    0.40618E-04   -0.10699E-04  3681   0.169E-02    0.802E-02
RMM:   6    -0.192574446326E+03   -0.86625E-05   -0.26610E-04  3681   0.252E-02    0.857E-02
RMM:   7    -0.192574402100E+03    0.44227E-04   -0.18108E-04  3681   0.209E-02    0.416E-02
RMM:   8    -0.192574395168E+03    0.69311E-05   -0.36216E-05  3669   0.957E-03    0.241E-02
RMM:   9    -0.192574390096E+03    0.50724E-05   -0.69904E-06  3180   0.427E-03    0.159E-02
RMM:  10    -0.192574386499E+03    0.35974E-05   -0.62877E-06  3520   0.387E-03    0.109E-02
RMM:  11    -0.192574384720E+03    0.17784E-05   -0.40418E-06  2658   0.316E-03    0.548E-03
RMM:  12    -0.192574384429E+03    0.29118E-06   -0.22682E-06  1978   0.257E-03
  12 F= -.19257438E+03 E0= -.19244333E+03  d E =-.228086E-02
       N       E                     dE             d eps       ncg     rms          rms(c)
DAV:   1    -0.192574270726E+03    0.11399E-03   -0.47166E-01  3684   0.106E+00    0.643E-02
RMM:   2    -0.192574835156E+03   -0.56443E-03   -0.53988E-03  3681   0.156E-01    0.928E-02
RMM:   3    -0.192574841706E+03   -0.65502E-05   -0.39125E-04  3713   0.337E-02    0.954E-02
RMM:   4    -0.192574764864E+03    0.76842E-04   -0.56914E-05  3690   0.126E-02    0.476E-02
RMM:   5    -0.192574756705E+03    0.81592E-05   -0.26484E-05  3674   0.845E-03    0.402E-02
RMM:   6    -0.192574762005E+03   -0.53002E-05   -0.68996E-05  3681   0.128E-02    0.433E-02
RMM:   7    -0.192574750871E+03    0.11134E-04   -0.45293E-05  3673   0.105E-02    0.205E-02
RMM:   8    -0.192574749139E+03    0.17323E-05   -0.86118E-06  3309   0.470E-03    0.120E-02
RMM:   9    -0.192574747830E+03    0.13087E-05   -0.16723E-06  2143   0.223E-03    0.795E-03
RMM:  10    -0.192574746960E+03    0.87015E-06   -0.14905E-06  1956   0.206E-03
  13 F= -.19257475E+03 E0= -.19244367E+03  d E =-.264339E-02
       N       E                     dE             d eps       ncg     rms          rms(c)
DAV:   1    -0.192574571244E+03    0.17659E-03   -0.14500E+00  3672   0.185E+00    0.103E-01
RMM:   2    -0.192576231300E+03   -0.16601E-02   -0.16344E-02  3681   0.273E-01    0.140E-01
RMM:   3    -0.192576227511E+03    0.37894E-05   -0.11457E-03  3716   0.590E-02    0.135E-01
RMM:   4    -0.192576096441E+03    0.13107E-03   -0.13594E-04  3688   0.196E-02    0.796E-02
RMM:   5    -0.192576070320E+03    0.26120E-04   -0.68664E-05  3680   0.134E-02    0.757E-02
RMM:   6    -0.192576053685E+03    0.16635E-04   -0.16674E-04  3681   0.200E-02    0.686E-02
RMM:   7    -0.192576032098E+03    0.21587E-04   -0.15079E-04  3681   0.190E-02    0.372E-02
RMM:   8    -0.192576027605E+03    0.44930E-05   -0.32804E-05  3670   0.898E-03    0.235E-02
RMM:   9    -0.192576023315E+03    0.42897E-05   -0.57355E-06  3053   0.393E-03    0.149E-02
RMM:  10    -0.192576020649E+03    0.26661E-05   -0.42710E-06  2812   0.327E-03    0.108E-02
RMM:  11    -0.192576018909E+03    0.17402E-05   -0.38041E-06  2480   0.321E-03    0.571E-03
RMM:  12    -0.192576018571E+03    0.33720E-06   -0.24318E-06  1964   0.267E-03
  14 F= -.19257602E+03 E0= -.19244498E+03  d E =-.127161E-02
       N       E                     dE             d eps       ncg     rms          rms(c)
DAV:   1    -0.192575948017E+03    0.70892E-04   -0.25577E-01  3696   0.776E-01    0.432E-02
RMM:   2    -0.192576243971E+03   -0.29595E-03   -0.28756E-03  3681   0.115E-01    0.624E-02
RMM:   3    -0.192576239745E+03    0.42260E-05   -0.20361E-04  3717   0.248E-02    0.591E-02
RMM:   4    -0.192576212941E+03    0.26803E-04   -0.23850E-05  3682   0.822E-03    0.330E-02
RMM:   5    -0.192576209502E+03    0.34392E-05   -0.11639E-05  3635   0.557E-03    0.317E-02
RMM:   6    -0.192576208763E+03    0.73905E-06   -0.32316E-05  3678   0.879E-03    0.300E-02
RMM:   7    -0.192576204943E+03    0.38197E-05   -0.27672E-05  3670   0.814E-03    0.158E-02
RMM:   8    -0.192576203982E+03    0.96107E-06   -0.55101E-06  2999   0.375E-03
  15 F= -.19257620E+03 E0= -.19244518E+03  d E =-.145702E-02
       N       E                     dE             d eps       ncg     rms          rms(c)
DAV:   1    -0.192576161332E+03    0.43611E-04   -0.48861E-02  3744   0.340E-01    0.220E-02
RMM:   2    -0.192576219484E+03   -0.58151E-04   -0.58356E-04  3681   0.507E-02    0.272E-02
RMM:   3    -0.192576220979E+03   -0.14958E-05   -0.45515E-05  3710   0.116E-02    0.283E-02
RMM:   4    -0.192576215988E+03    0.49919E-05   -0.68023E-06  3322   0.431E-03    0.181E-02
RMM:   5    -0.192576213976E+03    0.20114E-05   -0.32011E-06  2525   0.301E-03    0.127E-02
RMM:   6    -0.192576214227E+03   -0.25048E-06   -0.40501E-06  2762   0.335E-03
  16 F= -.19257621E+03 E0= -.19244522E+03  d E =-.146727E-02
       N       E                     dE             d eps       ncg     rms          rms(c)
DAV:   1    -0.192575353466E+03    0.86051E-03   -0.15414E+00  3672   0.190E+00    0.101E-01
RMM:   2    -0.192577164832E+03   -0.18114E-02   -0.17172E-02  3681   0.281E-01    0.166E-01
RMM:   3    -0.192577078234E+03    0.86598E-04   -0.12088E-03  3727   0.608E-02    0.129E-01
RMM:   4    -0.192576962928E+03    0.11531E-03   -0.13929E-04  3685   0.198E-02    0.858E-02
RMM:   5    -0.192576915797E+03    0.47130E-04   -0.53931E-05  3678   0.122E-02    0.697E-02
RMM:   6    -0.192576905916E+03    0.98819E-05   -0.22718E-04  3681   0.230E-02    0.736E-02
RMM:   7    -0.192576874580E+03    0.31336E-04   -0.16728E-04  3681   0.199E-02    0.370E-02
RMM:   8    -0.192576871705E+03    0.28748E-05   -0.33726E-05  3669   0.912E-03    0.246E-02
RMM:   9    -0.192576867239E+03    0.44654E-05   -0.55597E-06  3002   0.385E-03    0.172E-02
RMM:  10    -0.192576863219E+03    0.40200E-05   -0.60416E-06  3369   0.383E-03    0.119E-02
RMM:  11    -0.192576861129E+03    0.20906E-05   -0.52941E-06  3186   0.352E-03    0.630E-03
RMM:  12    -0.192576860648E+03    0.48099E-06   -0.24746E-06  2008   0.260E-03
  17 F= -.19257686E+03 E0= -.19244592E+03  d E =-.646421E-03
