unknown system                          
           1
    11.002582    0.000000    0.000000
     5.501291    9.528515    0.000000
     0.000000    0.000000   24.491785
   Au   Pd
  24  24
Direct configuration=     1
   0.08333333  0.08333333  0.40830017
   0.08333333  0.83333333  0.40830017
   0.00000000  0.75000000  0.59169983
   0.08333333  0.33333333  0.40830017
   0.33333333  0.08333333  0.40830017
   0.91666667  0.16666667  0.50000000
   0.33333333  0.33333333  0.40830017
   0.25000000  0.75000000  0.59169983
   0.25000000  0.25000000  0.59169983
   0.33333333  0.58333333  0.40830017
   0.33333333  0.83333333  0.40830017
   0.16666667  0.91666667  0.50000000
   0.00000000  0.25000000  0.59169983
   0.50000000  0.00000000  0.59169983
   0.58333333  0.33333333  0.40830017
   0.58333333  0.58333333  0.40830017
   0.58333333  0.83333333  0.40830017
   0.41666667  0.91666667  0.50000000
   0.50000000  0.75000000  0.59169983
   0.66666667  0.16666667  0.50000000
   0.66666667  0.41666667  0.50000000
   0.75000000  0.25000000  0.59169983
   0.75000000  0.50000000  0.59169983
   0.41666667  0.16666667  0.50000000
   0.50000000  0.25000000  0.59169983
   0.41666667  0.41666667  0.50000000
   0.91666667  0.91666667  0.50000000
   0.58333333  0.08333333  0.40830017
   0.25000000  0.00000000  0.59169983
   0.16666667  0.16666667  0.50000000
   0.25000000  0.50000000  0.59169983
   0.16666667  0.66666667  0.50000000
   0.00000000  0.50000000  0.59169983
   0.66666667  0.91666667  0.50000000
   0.41666667  0.66666667  0.50000000
   0.91666667  0.41666667  0.50000000
   0.50000000  0.50000000  0.59169983
   0.08333333  0.58333333  0.40830017
   0.83333333  0.08333333  0.40830017
   0.75000000  0.00000000  0.59169983
   0.83333333  0.33333333  0.40830017
   0.00000000  0.00000000  0.59169983
   0.83333333  0.58333333  0.40830017
   0.66666667  0.66666667  0.50000000
   0.83333333  0.83333333  0.40830017
   0.91666667  0.66666667  0.50000000
   0.16666667  0.41666667  0.50000000
   0.75000000  0.75000000  0.59169983
Direct configuration=     2
   0.08333333  0.08333333  0.40830017
   0.08333333  0.83333333  0.40830017
  -0.00089134  0.75007578  0.59311538
   0.08333333  0.33333333  0.40830017
   0.33333333  0.08333333  0.40830017
   0.91719088  0.16619456  0.49965320
   0.33333333  0.33333333  0.40830017
   0.25023932  0.74935677  0.59350656
   0.24935394  0.25113850  0.59351009
   0.33333333  0.58333333  0.40830017
   0.33333333  0.83333333  0.40830017
   0.16612101  0.91664493  0.50079279
   0.00102391  0.24963547  0.59358398
   0.50144578 -0.00035803  0.59389229
   0.58333333  0.33333333  0.40830017
   0.58333333  0.58333333  0.40830017
   0.58333333  0.83333333  0.40830017
   0.41692076  0.91616655  0.50045383
   0.50029809  0.74941390  0.59358956
   0.66677916  0.16462903  0.49999428
   0.66573413  0.41846431  0.49995212
   0.74925509  0.24918531  0.59419386
   0.75020124  0.50108966  0.59356005
   0.41699615  0.16762477  0.50013776
   0.49973590  0.25078883  0.59288437
   0.41514841  0.41797810  0.50069422
   0.91596255  0.91575446  0.50000118
   0.58333333  0.08333333  0.40830017
   0.24945132  0.00019344  0.59291880
   0.16609678  0.16759522  0.50029220
   0.25072606  0.49944250  0.59237071
   0.16646364  0.66510657  0.50003213
  -0.00007593  0.50063849  0.59228002
   0.66884692  0.91513838  0.50000590
   0.41688194  0.66554565  0.50034120
   0.91715499  0.41811443  0.49972652
   0.49899143  0.49980019  0.59271116
   0.08333333  0.58333333  0.40830017
   0.83333333  0.08333333  0.40830017
   0.75012841 -0.00040563  0.59265132
   0.83333333  0.33333333  0.40830017
  -0.00020453 -0.00022678  0.59289303
   0.83333333  0.58333333  0.40830017
   0.66861211  0.66651289  0.49997261
   0.83333333  0.83333333  0.40830017
   0.91641154  0.66655962  0.49979117
   0.16536880  0.41840086  0.50024167
   0.75058646  0.75003824  0.59238661
Direct configuration=     3
   0.08333333  0.08333333  0.40830017
   0.08333333  0.83333333  0.40830017
  -0.00356536  0.75030313  0.59736204
   0.08333333  0.33333333  0.40830017
   0.33333333  0.08333333  0.40830017
   0.91876354  0.16477823  0.49861280
   0.33333333  0.33333333  0.40830017
   0.25095729  0.74742708  0.59892676
   0.24741575  0.25455400  0.59894087
   0.33333333  0.58333333  0.40830017
   0.33333333  0.83333333  0.40830017
   0.16448404  0.91657972  0.50317115
   0.00409566  0.24854190  0.59923644
   0.50578311 -0.00143213  0.60046967
   0.58333333  0.33333333  0.40830017
   0.58333333  0.58333333  0.40830017
   0.58333333  0.83333333  0.40830017
   0.41768304  0.91466619  0.50181531
   0.50119237  0.74765561  0.59925877
   0.66711664  0.15851611  0.49997712
   0.66293653  0.42385724  0.49980848
   0.74702036  0.24674124  0.60167595
   0.75080497  0.50435865  0.59914070
   0.41798459  0.17049907  0.50055105
   0.49894359  0.25315531  0.59643800
   0.41059363  0.42191240  0.50277687
   0.91385022  0.91301783  0.50000473
   0.58333333  0.08333333  0.40830017
   0.24780529  0.00077375  0.59657572
   0.16438713  0.17038087  0.50116880
   0.25290425  0.49777000  0.59438334
   0.16585456  0.66042627  0.50012850
  -0.00030372  0.50255395  0.59402058
   0.67538767  0.91055352  0.50002361
   0.41752778  0.66218260  0.50136480
   0.91861995  0.42245773  0.49890608
   0.49596573  0.49920078  0.59574516
   0.08333333  0.58333333  0.40830017
   0.83333333  0.08333333  0.40830017
   0.75051365 -0.00162252  0.59550578
   0.83333333  0.33333333  0.40830017
  -0.00081811 -0.00090712  0.59647265
   0.83333333  0.58333333  0.40830017
   0.67444844  0.66605157  0.49989046
   0.83333333  0.83333333  0.40830017
   0.91564616  0.66623849  0.49916469
   0.16147522  0.42360346  0.50096668
   0.75234584  0.75015297  0.59444695
Direct configuration=     4
   0.08333333  0.08333333  0.40830017
   0.08333333  0.83333333  0.40830017
  -0.00299759  0.75006417  0.59913312
   0.08333333  0.33333333  0.40830017
   0.33333333  0.08333333  0.40830017
   0.91615387  0.16695186  0.50052972
   0.33333333  0.33333333  0.40830017
   0.25030166  0.74723349  0.60118540
   0.24845064  0.25427461  0.60105467
   0.33333333  0.58333333  0.40830017
   0.33333333  0.83333333  0.40830017
   0.16485285  0.91471436  0.50489833
   0.00238947  0.24912883  0.60128222
   0.50566935 -0.00099188  0.60288523
   0.58333333  0.33333333  0.40830017
   0.58333333  0.58333333  0.40830017
   0.58333333  0.83333333  0.40830017
   0.41870832  0.91452643  0.50393545
   0.50109317  0.74780074  0.60144078
   0.66808896  0.15983298  0.50144917
   0.66497212  0.42179407  0.50192639
   0.74725678  0.24706630  0.60412253
   0.75152508  0.50296644  0.60124469
   0.41695475  0.17001597  0.50247088
   0.49878735  0.25279398  0.59797933
   0.41094057  0.42136399  0.50368023
   0.91560868  0.91120174  0.50095357
   0.58333333  0.08333333  0.40830017
   0.24876857  0.00048074  0.59816408
   0.16472169  0.17142834  0.50276048
   0.25228825  0.49821258  0.59583855
   0.16456335  0.66161913  0.50128467
  -0.00037529  0.50299665  0.59491195
   0.67453464  0.90952498  0.50098474
   0.41638510  0.66381960  0.50288502
   0.91835258  0.42205960  0.50011330
   0.49688697  0.49856314  0.59730552
   0.08333333  0.58333333  0.40830017
   0.83333333  0.08333333  0.40830017
   0.75054485 -0.00141377  0.59691103
   0.83333333  0.33333333  0.40830017
  -0.00157005 -0.00069023  0.59797098
   0.83333333  0.58333333  0.40830017
   0.67465141  0.66638770  0.50114400
   0.83333333  0.83333333  0.40830017
   0.91637115  0.66667353  0.49971282
   0.16136911  0.42310023  0.50188510
   0.75222760  0.75034609  0.59550667
Direct configuration=     5
   0.08333333  0.08333333  0.40830017
   0.08333333  0.83333333  0.40830017
  -0.00129426  0.74934728  0.60444636
   0.08333333  0.33333333  0.40830017
   0.33333333  0.08333333  0.40830017
   0.90832486  0.17347276  0.50628048
   0.33333333  0.33333333  0.40830017
   0.24833475  0.74665271  0.60796132
   0.25155532  0.25343641  0.60739607
   0.33333333  0.58333333  0.40830017
   0.33333333  0.83333333  0.40830017
   0.16595927  0.90911826  0.51007985
  -0.00272908  0.25088963  0.60741956
   0.50532806  0.00032885  0.61013189
   0.58333333  0.33333333  0.40830017
   0.58333333  0.58333333  0.40830017
   0.58333333  0.83333333  0.40830017
   0.42178415  0.91410714  0.51029587
   0.50079556  0.74823612  0.60798683
   0.67100592  0.16378358  0.50586530
   0.67107888  0.41560457  0.50828012
   0.74796604  0.24804149  0.61146229
   0.75368541  0.49878981  0.60755665
   0.41386525  0.16856667  0.50823038
   0.49831860  0.25171000  0.60260333
   0.41198139  0.41971874  0.50639030
   0.92088409  0.90575347  0.50380007
   0.58333333  0.08333333  0.40830017
   0.25165840 -0.00039827  0.60292916
   0.16572535  0.17457075  0.50753553
   0.25044024  0.49954031  0.60020418
   0.16068974  0.66519773  0.50475317
  -0.00058999  0.50432474  0.59758604
   0.67197558  0.90643936  0.50386815
   0.41295708  0.66873059  0.50744566
   0.91755048  0.42086520  0.50373497
   0.49965070  0.49665022  0.60198663
   0.08333333  0.58333333  0.40830017
   0.83333333  0.08333333  0.40830017
   0.75063843 -0.00078750  0.60112677
   0.83333333  0.33333333  0.40830017
  -0.00382587 -0.00003953  0.60246600
   0.83333333  0.58333333  0.40830017
   0.67526032  0.66739607  0.50490464
   0.83333333  0.83333333  0.40830017
   0.91854612  0.66797865  0.50135722
   0.16105080  0.42159054  0.50464035
   0.75187287  0.75092543  0.59868584
Direct configuration=     6
   0.08333333  0.08333333  0.40830017
   0.08333333  0.83333333  0.40830017
  -0.00138151  0.74972552  0.60716275
   0.08333333  0.33333333  0.40830017
   0.33333333  0.08333333  0.40830017
   0.91524989  0.16901470  0.50906279
   0.33333333  0.33333333  0.40830017
   0.24889735  0.74679196  0.61152891
   0.25016791  0.25292058  0.61066120
   0.33333333  0.58333333  0.40830017
   0.33333333  0.83333333  0.40830017
   0.16485303  0.91309471  0.51208884
  -0.00114994  0.24983536  0.61016416
   0.50504752  0.00021450  0.61382386
   0.58333333  0.33333333  0.40830017
   0.58333333  0.58333333  0.40830017
   0.58333333  0.83333333  0.40830017
   0.42069329  0.91455619  0.51296544
   0.50156292  0.74709118  0.61123119
   0.66844763  0.16294174  0.50808295
   0.66688584  0.42028601  0.51105599
   0.74756211  0.24812438  0.61532350
   0.75253884  0.49963365  0.61065395
   0.41623216  0.16691486  0.51063605
   0.49960198  0.25108429  0.60501770
   0.41351324  0.41897707  0.50767046
   0.91895268  0.90916828  0.50579712
   0.58333333  0.08333333  0.40830017
   0.25128365  0.00045895  0.60556949
   0.16408996  0.17271341  0.51029143
   0.25011266  0.49982167  0.60246004
   0.16322616  0.66375989  0.50683586
  -0.00039811  0.50321445  0.59920117
   0.66977142  0.91154635  0.50569894
   0.41514164  0.66746786  0.50991461
   0.91713291  0.41981425  0.50596153
   0.50046200  0.49703633  0.60445573
   0.08333333  0.58333333  0.40830017
   0.83333333  0.08333333  0.40830017
   0.75032760 -0.00027652  0.60300521
   0.83333333  0.33333333  0.40830017
  -0.00381791  0.00059068  0.60477931
   0.83333333  0.58333333  0.40830017
   0.67363195  0.66450546  0.50714622
   0.83333333  0.83333333  0.40830017
   0.91886443  0.66698359  0.50287602
   0.16316510  0.41978046  0.50618412
   0.75119097  0.75064237  0.60064651
Direct configuration=     7
   0.08333333  0.08333333  0.40830017
   0.08333333  0.83333333  0.40830017
  -0.00139947  0.74980338  0.60772193
   0.08333333  0.33333333  0.40830017
   0.33333333  0.08333333  0.40830017
   0.91667544  0.16809698  0.50963555
   0.33333333  0.33333333  0.40830017
   0.24901317  0.74682062  0.61226332
   0.24988230  0.25281440  0.61133335
   0.33333333  0.58333333  0.40830017
   0.33333333  0.83333333  0.40830017
   0.16462530  0.91391328  0.51250240
  -0.00082487  0.24961834  0.61072915
   0.50498977  0.00019096  0.61458386
   0.58333333  0.33333333  0.40830017
   0.58333333  0.58333333  0.40830017
   0.58333333  0.83333333  0.40830017
   0.42046873  0.91464863  0.51351498
   0.50172088  0.74685549  0.61189906
   0.66792100  0.16276844  0.50853946
   0.66602268  0.42124971  0.51162742
   0.74747896  0.24814144  0.61611834
   0.75230281  0.49980735  0.61129154
   0.41671940  0.16657483  0.51113127
   0.49986617  0.25095549  0.60551471
   0.41382857  0.41882440  0.50793399
   0.91855509  0.90987124  0.50620822
   0.58333333  0.08333333  0.40830017
   0.25120650  0.00063541  0.60611302
   0.16375331  0.17233107  0.51085874
   0.25004523  0.49987959  0.60292442
   0.16374830  0.66346391  0.50726459
  -0.00035861  0.50298589  0.59953365
   0.66931769  0.91259764  0.50607581
   0.41559135  0.66720793  0.51042285
   0.91704695  0.41959791  0.50641987
   0.50062901  0.49711581  0.60496401
   0.08333333  0.58333333  0.40830017
   0.83333333  0.08333333  0.40830017
   0.75026361 -0.00017133  0.60339189
   0.83333333  0.33333333  0.40830017
  -0.00381627  0.00072041  0.60525551
   0.83333333  0.58333333  0.40830017
   0.67329674  0.66391041  0.50760766
   0.83333333  0.83333333  0.40830017
   0.91892995  0.66677875  0.50318867
   0.16360034  0.41940785  0.50650191
   0.75105060  0.75058410  0.60105012
Direct configuration=     8
   0.08333333  0.08333333  0.40830017
   0.08333333  0.83333333  0.40830017
  -0.00234113  0.75029081  0.60771119
   0.08333333  0.33333333  0.40830017
   0.33333333  0.08333333  0.40830017
   0.91614108  0.16766554  0.50903961
   0.33333333  0.33333333  0.40830017
   0.24994507  0.74760239  0.61237531
   0.24883231  0.25324331  0.61148412
   0.33333333  0.58333333  0.40830017
   0.33333333  0.83333333  0.40830017
   0.16592425  0.91465097  0.51202637
   0.00058759  0.24937529  0.61097990
   0.50495567 -0.00062215  0.61498982
   0.58333333  0.33333333  0.40830017
   0.58333333  0.58333333  0.40830017
   0.58333333  0.83333333  0.40830017
   0.41951911  0.91445193  0.51300350
   0.50148919  0.74714769  0.61220080
   0.66840753  0.16350111  0.50807158
   0.66587744  0.41969325  0.51088883
   0.74761393  0.24784927  0.61635393
   0.75222235  0.50074096  0.61163477
   0.41642310  0.16708933  0.51072055
   0.49966490  0.25169720  0.60595395
   0.41409151  0.41888515  0.50803517
   0.91674750  0.91216019  0.50643933
   0.58333333  0.08333333  0.40830017
   0.25044611  0.00043662  0.60691107
   0.16446929  0.17081893  0.51082739
   0.25112994  0.49888525  0.60301234
   0.16595262  0.66292980  0.50748491
  -0.00028280  0.50198966  0.59994154
   0.66967645  0.91313348  0.50614428
   0.41556758  0.66682539  0.51050277
   0.91714489  0.41904176  0.50641405
   0.49912013  0.49783242  0.60562512
   0.08333333  0.58333333  0.40830017
   0.83333333  0.08333333  0.40830017
   0.75028255 -0.00067256  0.60366299
   0.83333333  0.33333333  0.40830017
  -0.00276115  0.00035931  0.60596272
   0.83333333  0.58333333  0.40830017
   0.67214985  0.66501377  0.50762818
   0.83333333  0.83333333  0.40830017
   0.91737285  0.66698736  0.50363593
   0.16521229  0.41810509  0.50659331
   0.75092583  0.75047428  0.60130039
Direct configuration=     9
   0.08333333  0.08333333  0.40830017
   0.08333333  0.83333333  0.40830017
  -0.00258752  0.75041834  0.60770838
   0.08333333  0.33333333  0.40830017
   0.33333333  0.08333333  0.40830017
   0.91600126  0.16755265  0.50888368
   0.33333333  0.33333333  0.40830017
   0.25018891  0.74780695  0.61240462
   0.24855758  0.25335554  0.61152356
   0.33333333  0.58333333  0.40830017
   0.33333333  0.83333333  0.40830017
   0.16626412  0.91484399  0.51190181
   0.00095716  0.24931170  0.61104551
   0.50494675 -0.00083491  0.61509604
   0.58333333  0.33333333  0.40830017
   0.58333333  0.58333333  0.40830017
   0.58333333  0.83333333  0.40830017
   0.41927063  0.91440047  0.51286966
   0.50142857  0.74722414  0.61227976
   0.66853483  0.16369281  0.50794916
   0.66583943  0.41928599  0.51069557
   0.74764925  0.24777283  0.61641557
   0.75220130  0.50098524  0.61172457
   0.41634558  0.16722396  0.51061308
   0.49961223  0.25189127  0.60606887
   0.41416031  0.41890104  0.50806164
   0.91627454  0.91275910  0.50649980
   0.58333333  0.08333333  0.40830017
   0.25024715  0.00038460  0.60711989
   0.16465662  0.17042327  0.51081919
   0.25141376  0.49862508  0.60303534
   0.16652939  0.66279004  0.50754256
  -0.00026297  0.50172900  0.60004827
   0.66977032  0.91327369  0.50616219
   0.41556136  0.66672530  0.51052369
   0.91717051  0.41889624  0.50641253
   0.49872532  0.49801992  0.60579810
   0.08333333  0.58333333  0.40830017
   0.83333333  0.08333333  0.40830017
   0.75028751 -0.00080370  0.60373393
   0.83333333  0.33333333  0.40830017
  -0.00248508  0.00026482  0.60614776
   0.83333333  0.58333333  0.40830017
   0.67184977  0.66530246  0.50763355
   0.83333333  0.83333333  0.40830017
   0.91696543  0.66704195  0.50375296
   0.16563406  0.41776422  0.50661723
   0.75089319  0.75044554  0.60136588
Direct configuration=    10
   0.08333333  0.08333333  0.40830017
   0.08333333  0.83333333  0.40830017
  -0.00206533  0.75003874  0.60741523
   0.08333333  0.33333333  0.40830017
   0.33333333  0.08333333  0.40830017
   0.91631088  0.16724846  0.50855930
   0.33333333  0.33333333  0.40830017
   0.24985971  0.74826250  0.61230322
   0.24915156  0.25286078  0.61147248
   0.33333333  0.58333333  0.40830017
   0.33333333  0.83333333  0.40830017
   0.16598490  0.91507119  0.51161919
   0.00063224  0.24934482  0.61107902
   0.50438162 -0.00068700  0.61514065
   0.58333333  0.33333333  0.40830017
   0.58333333  0.58333333  0.40830017
   0.58333333  0.83333333  0.40830017
   0.41934510  0.91460957  0.51254334
   0.50140714  0.74753506  0.61236559
   0.66773646  0.16417069  0.50776539
   0.66582675  0.41929537  0.51035309
   0.74807232  0.24793228  0.61632683
   0.75196163  0.50074330  0.61169738
   0.41691020  0.16692828  0.51041354
   0.49958368  0.25149584  0.60618606
   0.41453939  0.41869170  0.50815618
   0.91680583  0.91277819  0.50664728
   0.58333333  0.08333333  0.40830017
   0.25020451  0.00021547  0.60764352
   0.16494079  0.16975318  0.51071030
   0.25133757  0.49882138  0.60307330
   0.16642510  0.66335955  0.50769289
  -0.00013718  0.50157573  0.60026364
   0.66919876  0.91390204  0.50621411
   0.41612062  0.66601688  0.51055826
   0.91718375  0.41856148  0.50639988
   0.49869642  0.49822457  0.60612380
   0.08333333  0.58333333  0.40830017
   0.83333333  0.08333333  0.40830017
   0.74984889 -0.00054239  0.60383877
   0.83333333  0.33333333  0.40830017
  -0.00175305  0.00013490  0.60645472
   0.83333333  0.58333333  0.40830017
   0.67107531  0.66540673  0.50761577
   0.83333333  0.83333333  0.40830017
   0.91717730  0.66701817  0.50406156
   0.16564338  0.41779473  0.50669160
   0.75070216  0.75039413  0.60155283
Direct configuration=    11
   0.08333333  0.08333333  0.40830017
   0.08333333  0.83333333  0.40830017
  -0.00190025  0.74991874  0.60732256
   0.08333333  0.33333333  0.40830017
   0.33333333  0.08333333  0.40830017
   0.91640877  0.16715230  0.50845675
   0.33333333  0.33333333  0.40830017
   0.24975564  0.74840652  0.61227117
   0.24933933  0.25270438  0.61145633
   0.33333333  0.58333333  0.40830017
   0.33333333  0.83333333  0.40830017
   0.16589663  0.91514301  0.51152985
   0.00052952  0.24935529  0.61108961
   0.50420297 -0.00064024  0.61515475
   0.58333333  0.33333333  0.40830017
   0.58333333  0.58333333  0.40830017
   0.58333333  0.83333333  0.40830017
   0.41936864  0.91467567  0.51244019
   0.50140036  0.74763335  0.61239273
   0.66748407  0.16432176  0.50770730
   0.66582273  0.41929833  0.51024482
   0.74820607  0.24798268  0.61629878
   0.75188586  0.50066682  0.61168879
   0.41708870  0.16683481  0.51035045
   0.49957465  0.25137083  0.60622310
   0.41465923  0.41862552  0.50818607
   0.91697379  0.91278423  0.50669391
   0.58333333  0.08333333  0.40830017
   0.25019104  0.00016200  0.60780905
   0.16503062  0.16954135  0.51067587
   0.25131348  0.49888344  0.60308530
   0.16639212  0.66353958  0.50774042
  -0.00009742  0.50152727  0.60033172
   0.66901807  0.91410068  0.50623052
   0.41629742  0.66579292  0.51056919
   0.91718793  0.41845566  0.50639588
   0.49868728  0.49828927  0.60622676
   0.08333333  0.58333333  0.40830017
   0.83333333  0.08333333  0.40830017
   0.74971024 -0.00045978  0.60387191
   0.83333333  0.33333333  0.40830017
  -0.00152163  0.00009383  0.60655175
   0.83333333  0.58333333  0.40830017
   0.67083048  0.66543969  0.50761015
   0.83333333  0.83333333  0.40830017
   0.91724427  0.66701065  0.50415912
   0.16564632  0.41780438  0.50671512
   0.75064177  0.75037788  0.60161194
Direct configuration=    12
   0.08333333  0.08333333  0.40830017
   0.08333333  0.83333333  0.40830017
  -0.00188993  0.74990898  0.60708539
   0.08333333  0.33333333  0.40830017
   0.33333333  0.08333333  0.40830017
   0.91620697  0.16715744  0.50837781
   0.33333333  0.33333333  0.40830017
   0.24976703  0.74841947  0.61214650
   0.24948053  0.25248096  0.61132001
   0.33333333  0.58333333  0.40830017
   0.33333333  0.83333333  0.40830017
   0.16622755  0.91487201  0.51153069
   0.00053097  0.24936074  0.61102630
   0.50397711 -0.00060088  0.61514355
   0.58333333  0.33333333  0.40830017
   0.58333333  0.58333333  0.40830017
   0.58333333  0.83333333  0.40830017
   0.41914336  0.91466288  0.51240469
   0.50129000  0.74779912  0.61239091
   0.66771669  0.16422439  0.50772933
   0.66609568  0.41922192  0.51017642
   0.74824652  0.24791190  0.61609199
   0.75169939  0.50059630  0.61154181
   0.41689957  0.16694574  0.51026415
   0.49976280  0.25128965  0.60625148
   0.41446488  0.41872120  0.50831546
   0.91695282  0.91274420  0.50680367
   0.58333333  0.08333333  0.40830017
   0.25026306  0.00013111  0.60798836
   0.16529472  0.16937894  0.51068379
   0.25134435  0.49891283  0.60311222
   0.16629386  0.66370724  0.50776678
  -0.00001686  0.50136610  0.60047617
   0.66925450  0.91388113  0.50632962
   0.41633283  0.66581278  0.51065020
   0.91725315  0.41847485  0.50642828
   0.49891043  0.49822047  0.60635042
   0.08333333  0.58333333  0.40830017
   0.83333333  0.08333333  0.40830017
   0.74969720 -0.00029484  0.60385153
   0.83333333  0.33333333  0.40830017
  -0.00148960  0.00016346  0.60665914
   0.83333333  0.58333333  0.40830017
   0.67084908  0.66539210  0.50764441
   0.83333333  0.83333333  0.40830017
   0.91726491  0.66704628  0.50433225
   0.16546064  0.41791437  0.50678026
   0.75060391  0.75036783  0.60168571
Direct configuration=    13
   0.08333333  0.08333333  0.40830017
   0.08333333  0.83333333  0.40830017
  -0.00188479  0.74990411  0.60696728
   0.08333333  0.33333333  0.40830017
   0.33333333  0.08333333  0.40830017
   0.91610647  0.16716001  0.50833850
   0.33333333  0.33333333  0.40830017
   0.24977271  0.74842592  0.61208441
   0.24955085  0.25236970  0.61125213
   0.33333333  0.58333333  0.40830017
   0.33333333  0.83333333  0.40830017
   0.16639234  0.91473705  0.51153110
   0.00053169  0.24936345  0.61099478
   0.50386463 -0.00058128  0.61513796
   0.58333333  0.33333333  0.40830017
   0.58333333  0.58333333  0.40830017
   0.58333333  0.83333333  0.40830017
   0.41903116  0.91465650  0.51238701
   0.50123504  0.74788167  0.61239000
   0.66783254  0.16417590  0.50774031
   0.66623160  0.41918387  0.51014235
   0.74826666  0.24787665  0.61598901
   0.75160652  0.50056118  0.61146861
   0.41680538  0.16700099  0.51022117
   0.49985651  0.25124922  0.60626561
   0.41436810  0.41876885  0.50837989
   0.91694237  0.91272427  0.50685833
   0.58333333  0.08333333  0.40830017
   0.25029893  0.00011572  0.60807766
   0.16542624  0.16929805  0.51068773
   0.25135972  0.49892746  0.60312562
   0.16624493  0.66379073  0.50777991
   0.00002325  0.50128584  0.60054811
   0.66937225  0.91377178  0.50637898
   0.41635046  0.66582267  0.51069054
   0.91728563  0.41848440  0.50644442
   0.49902156  0.49818620  0.60641201
   0.08333333  0.58333333  0.40830017
   0.83333333  0.08333333  0.40830017
   0.74969070 -0.00021269  0.60384138
   0.83333333  0.33333333  0.40830017
  -0.00147364  0.00019814  0.60671262
   0.83333333  0.58333333  0.40830017
   0.67085834  0.66536840  0.50766147
   0.83333333  0.83333333  0.40830017
   0.91727518  0.66706403  0.50441848
   0.16536818  0.41796915  0.50681270
   0.75058506  0.75036282  0.60172245
Direct configuration=    14
   0.08333333  0.08333333  0.40830017
   0.08333333  0.83333333  0.40830017
  -0.00203481  0.74999861  0.60678608
   0.08333333  0.33333333  0.40830017
   0.33333333  0.08333333  0.40830017
   0.91648594  0.16688463  0.50831234
   0.33333333  0.33333333  0.40830017
   0.24988490  0.74828980  0.61197294
   0.24958627  0.25238304  0.61109901
   0.33333333  0.58333333  0.40830017
   0.33333333  0.83333333  0.40830017
   0.16629682  0.91484764  0.51161600
   0.00063571  0.24931826  0.61088928
   0.50394499 -0.00057229  0.61510345
   0.58333333  0.33333333  0.40830017
   0.58333333  0.58333333  0.40830017
   0.58333333  0.83333333  0.40830017
   0.41913539  0.91460235  0.51241718
   0.50121782  0.74789943  0.61239468
   0.66773724  0.16408416  0.50776211
   0.66613859  0.41926270  0.51010305
   0.74832816  0.24777294  0.61575043
   0.75156048  0.50060367  0.61130178
   0.41690083  0.16700951  0.51015377
   0.49990704  0.25125494  0.60624966
   0.41429576  0.41886511  0.50850522
   0.91700146  0.91270189  0.50690539
   0.58333333  0.08333333  0.40830017
   0.25021128  0.00015772  0.60817782
   0.16534542  0.16924856  0.51070957
   0.25149704  0.49878666  0.60319434
   0.16627671  0.66371831  0.50773180
   0.00002817  0.50114948  0.60072589
   0.66940132  0.91361291  0.50645993
   0.41653702  0.66562023  0.51077610
   0.91750630  0.41849054  0.50648069
   0.49909113  0.49816070  0.60646958
   0.08333333  0.58333333  0.40830017
   0.83333333  0.08333333  0.40830017
   0.74969205 -0.00022943  0.60384655
   0.83333333  0.33333333  0.40830017
  -0.00145238  0.00021511  0.60673568
   0.83333333  0.58333333  0.40830017
   0.67095626  0.66541722  0.50769245
   0.83333333  0.83333333  0.40830017
   0.91724260  0.66699246  0.50452288
   0.16520929  0.41813323  0.50685378
   0.75053592  0.75037114  0.60182089
Direct configuration=    15
   0.08333333  0.08333333  0.40830017
   0.08333333  0.83333333  0.40830017
  -0.00209780  0.75003829  0.60671000
   0.08333333  0.33333333  0.40830017
   0.33333333  0.08333333  0.40830017
   0.91664529  0.16676900  0.50830135
   0.33333333  0.33333333  0.40830017
   0.24993202  0.74823264  0.61192614
   0.24960115  0.25238865  0.61103472
   0.33333333  0.58333333  0.40830017
   0.33333333  0.83333333  0.40830017
   0.16625671  0.91489409  0.51165164
   0.00067939  0.24929928  0.61084499
   0.50397874 -0.00056852  0.61508896
   0.58333333  0.33333333  0.40830017
   0.58333333  0.58333333  0.40830017
   0.58333333  0.83333333  0.40830017
   0.41917916  0.91457961  0.51242985
   0.50121059  0.74790689  0.61239665
   0.66769722  0.16404563  0.50777126
   0.66609953  0.41929580  0.51008655
   0.74835398  0.24772939  0.61565024
   0.75154115  0.50062151  0.61123172
   0.41694091  0.16701308  0.51012546
   0.49992826  0.25125734  0.60624296
   0.41426538  0.41890553  0.50855786
   0.91702628  0.91269250  0.50692515
   0.58333333  0.08333333  0.40830017
   0.25017447  0.00017536  0.60821988
   0.16531148  0.16922778  0.51071875
   0.25155471  0.49872753  0.60322320
   0.16629005  0.66368789  0.50771159
   0.00003024  0.50109222  0.60080054
   0.66941353  0.91354619  0.50649393
   0.41661536  0.66553522  0.51081203
   0.91759896  0.41849312  0.50649592
   0.49912034  0.49815000  0.60649376
   0.08333333  0.58333333  0.40830017
   0.83333333  0.08333333  0.40830017
   0.74969261 -0.00023646  0.60384872
   0.83333333  0.33333333  0.40830017
  -0.00144345  0.00022224  0.60674536
   0.83333333  0.58333333  0.40830017
   0.67099737  0.66543771  0.50770545
   0.83333333  0.83333333  0.40830017
   0.91722891  0.66696241  0.50456672
   0.16514257  0.41820213  0.50687102
   0.75051529  0.75037463  0.60186223
Direct configuration=    16
   0.08333333  0.08333333  0.40830017
   0.08333333  0.83333333  0.40830017
  -0.00212536  0.75005565  0.60667670
   0.08333333  0.33333333  0.40830017
   0.33333333  0.08333333  0.40830017
   0.91671501  0.16671840  0.50829655
   0.33333333  0.33333333  0.40830017
   0.24995263  0.74820763  0.61190566
   0.24960766  0.25239110  0.61100658
   0.33333333  0.58333333  0.40830017
   0.33333333  0.83333333  0.40830017
   0.16623916  0.91491441  0.51166724
   0.00069850  0.24929098  0.61082560
   0.50399350 -0.00056687  0.61508262
   0.58333333  0.33333333  0.40830017
   0.58333333  0.58333333  0.40830017
   0.58333333  0.83333333  0.40830017
   0.41919831  0.91456966  0.51243539
   0.50120742  0.74791016  0.61239751
   0.66767971  0.16402878  0.50777527
   0.66608244  0.41931028  0.51007932
   0.74836528  0.24771034  0.61560640
   0.75153269  0.50062932  0.61120107
   0.41695845  0.16701465  0.51011308
   0.49993755  0.25125839  0.60624003
   0.41425209  0.41892322  0.50858088
   0.91703714  0.91268839  0.50693379
   0.58333333  0.08333333  0.40830017
   0.25015837  0.00018308  0.60823829
   0.16529663  0.16921869  0.51072276
   0.25157994  0.49870166  0.60323583
   0.16629589  0.66367458  0.50770275
   0.00003114  0.50106717  0.60083321
   0.66941887  0.91351700  0.50650880
   0.41664963  0.66549802  0.51082775
   0.91763950  0.41849425  0.50650258
   0.49913312  0.49814531  0.60650433
   0.08333333  0.58333333  0.40830017
   0.83333333  0.08333333  0.40830017
   0.74969286 -0.00023953  0.60384967
   0.83333333  0.33333333  0.40830017
  -0.00143954  0.00022536  0.60674960
   0.83333333  0.58333333  0.40830017
   0.67101536  0.66544668  0.50771114
   0.83333333  0.83333333  0.40830017
   0.91722293  0.66694926  0.50458590
   0.16511338  0.41823228  0.50687857
   0.75050626  0.75037616  0.60188032
Direct configuration=    17
   0.08333333  0.08333333  0.40830017
   0.08333333  0.83333333  0.40830017
  -0.00210397  0.74998893  0.60654851
   0.08333333  0.33333333  0.40830017