unknown system                          
           1
    11.002582    0.000000    0.000000
     5.501291    9.528515    0.000000
     0.000000    0.000000   24.491785
   Au   Pd
  24  24
Direct configuration=     1
   0.08333333  0.08333333  0.40830017
   0.08333333  0.83333333  0.40830017
   0.58333333  0.83333333  0.40830017
   0.66666667  0.66666667  0.50000000
   0.08333333  0.58333333  0.40830017
   0.66666667  0.41666667  0.50000000
   0.91666667  0.41666667  0.50000000
   0.00000000  0.00000000  0.59169983
   0.91666667  0.16666667  0.50000000
   0.33333333  0.08333333  0.40830017
   0.16666667  0.41666667  0.50000000
   0.25000000  0.00000000  0.59169983
   0.91666667  0.91666667  0.50000000
   0.33333333  0.58333333  0.40830017
   0.16666667  0.66666667  0.50000000
   0.25000000  0.50000000  0.59169983
   0.33333333  0.83333333  0.40830017
   0.75000000  0.00000000  0.59169983
   0.66666667  0.91666667  0.50000000
   0.58333333  0.08333333  0.40830017
   0.41666667  0.16666667  0.50000000
   0.58333333  0.33333333  0.40830017
   0.58333333  0.58333333  0.40830017
   0.33333333  0.33333333  0.40830017
   0.50000000  0.00000000  0.59169983
   0.16666667  0.91666667  0.50000000
   0.25000000  0.25000000  0.59169983
   0.16666667  0.16666667  0.50000000
   0.08333333  0.33333333  0.40830017
   0.00000000  0.50000000  0.59169983
   0.91666667  0.66666667  0.50000000
   0.00000000  0.25000000  0.59169983
   0.41666667  0.41666667  0.50000000
   0.00000000  0.75000000  0.59169983
   0.50000000  0.25000000  0.59169983
   0.75000000  0.25000000  0.59169983
   0.25000000  0.75000000  0.59169983
   0.75000000  0.50000000  0.59169983
   0.83333333  0.58333333  0.40830017
   0.50000000  0.75000000  0.59169983
   0.83333333  0.08333333  0.40830017
   0.41666667  0.91666667  0.50000000
   0.66666667  0.16666667  0.50000000
   0.83333333  0.83333333  0.40830017
   0.83333333  0.33333333  0.40830017
   0.50000000  0.50000000  0.59169983
   0.41666667  0.66666667  0.50000000
   0.75000000  0.75000000  0.59169983
Direct configuration=     2
   0.08333333  0.08333333  0.40830017
   0.08333333  0.83333333  0.40830017
   0.58333333  0.83333333  0.40830017
   0.66659934  0.66711281  0.50083207
   0.08333333  0.58333333  0.40830017
   0.66572208  0.41625779  0.50081601
   0.91755151  0.41663414  0.50007216
   0.00051434 -0.00011395  0.59388155
   0.91640600  0.16709974  0.49999188
   0.33333333  0.08333333  0.40830017
   0.16576636  0.41584938  0.50046713
   0.25073162 -0.00006015  0.59320198
   0.91627993  0.91633657  0.49970542
   0.33333333  0.58333333  0.40830017
   0.16720487  0.66746148  0.50086450
   0.25055872  0.49976455  0.59377447
   0.33333333  0.83333333  0.40830017
   0.74901773  0.00051944  0.59391611
   0.66708976  0.91587483  0.50046550
   0.58333333  0.08333333  0.40830017
   0.41655266  0.16673430  0.50117440
   0.58333333  0.33333333  0.40830017
   0.58333333  0.58333333  0.40830017
   0.33333333  0.33333333  0.40830017
   0.49979585 -0.00001566  0.59284485
   0.16808382  0.91614072  0.50029849
   0.24997281  0.24976663  0.59283973
   0.16676310  0.16650855  0.50025864
   0.08333333  0.33333333  0.40830017
  -0.00082888  0.50044568  0.59286378
   0.91622448  0.66674249  0.50023987
  -0.00023169  0.25092454  0.59293442
   0.41778139  0.41650749  0.50061013
  -0.00022833  0.74931085  0.59293163
   0.50031601  0.25001565  0.59270177
   0.74912432  0.25097695  0.59291600
   0.25083289  0.74957880  0.59265766
   0.74995853  0.50004800  0.59304130
   0.83333333  0.58333333  0.40830017
   0.50021945  0.74961859  0.59263854
   0.83333333  0.08333333  0.40830017
   0.41590247  0.91636883  0.50064962
   0.66631010  0.16755247  0.50026835
   0.83333333  0.83333333  0.40830017
   0.83333333  0.33333333  0.40830017
   0.50024311  0.50008030  0.59263433
   0.41613014  0.66720692  0.50080233
   0.75025351  0.74931707  0.59288879
Direct configuration=     3
   0.08333333  0.08333333  0.40830017
   0.08333333  0.83333333  0.40830017
   0.58333333  0.83333333  0.40830017
   0.66639736  0.66845122  0.50332828
   0.08333333  0.58333333  0.40830017
   0.66288832  0.41503116  0.50326403
   0.92020604  0.41653656  0.50028864
   0.00205737 -0.00045579  0.60042670
   0.91562398  0.16839896  0.49996751
   0.33333333  0.08333333  0.40830017
   0.16306544  0.41339752  0.50186853
   0.25292648 -0.00024060  0.59770845
   0.91511974  0.91534627  0.49882169
   0.33333333  0.58333333  0.40830017
   0.16881949  0.66984591  0.50345802
   0.25223487  0.49905821  0.59999837
   0.33333333  0.83333333  0.40830017
   0.74607093  0.00207775  0.60056494
   0.66835902  0.91349931  0.50186200
   0.58333333  0.08333333  0.40830017
   0.41621066  0.16693719  0.50469762
   0.58333333  0.33333333  0.40830017
   0.58333333  0.58333333  0.40830017
   0.33333333  0.33333333  0.40830017
   0.49918341 -0.00006266  0.59627989
   0.17233529  0.91456288  0.50119395
   0.24989123  0.24906652  0.59625944
   0.16705240  0.16603421  0.50103455
   0.08333333  0.33333333  0.40830017
  -0.00331554  0.50178273  0.59635563
   0.91489793  0.66696994  0.50095946
  -0.00092675  0.25369817  0.59663819
   0.42112558  0.41602998  0.50244051
  -0.00091332  0.74724340  0.59662702
   0.50126405  0.25006259  0.59570757
   0.74649727  0.25390779  0.59656452
   0.25333155  0.74831521  0.59553115
   0.74983411  0.50019198  0.59706569
   0.83333333  0.58333333  0.40830017
   0.50087779  0.74847438  0.59545468
   0.83333333  0.08333333  0.40830017
   0.41360989  0.91547534  0.50259849
   0.66524040  0.17020988  0.50107339
   0.83333333  0.83333333  0.40830017
   0.83333333  0.33333333  0.40830017
   0.50097245  0.50032120  0.59543783
   0.41452058  0.66882767  0.50320931
   0.75101403  0.74726827  0.59645566
Direct configuration=     4
   0.08333333  0.08333333  0.40830017
   0.08333333  0.83333333  0.40830017
   0.58333333  0.83333333  0.40830017
   0.66629878  0.66910441  0.50454651
   0.08333333  0.58333333  0.40830017
   0.66150536  0.41443253  0.50445874
   0.92150154  0.41648894  0.50039428
   0.00281042 -0.00062262  0.60362093
   0.91524234  0.16903302  0.49995561
   0.33333333  0.08333333  0.40830017
   0.16174731  0.41220093  0.50255246
   0.25399764 -0.00032867  0.59990774
   0.91455352  0.91486297  0.49839041
   0.33333333  0.58333333  0.40830017
   0.16960748  0.67100958  0.50472373
   0.25305289  0.49871349  0.60303583
   0.33333333  0.83333333  0.40830017
   0.74463280  0.00283825  0.60380978
   0.66897847  0.91233999  0.50254353
   0.58333333  0.08333333  0.40830017
   0.41604375  0.16703621  0.50641706
   0.58333333  0.33333333  0.40830017
   0.58333333  0.58333333  0.40830017
   0.33333333  0.33333333  0.40830017
   0.49888453 -0.00008559  0.59795630
   0.17441014  0.91379284  0.50163097
   0.24985142  0.24872484  0.59792836
   0.16719359  0.16580271  0.50141322
   0.08333333  0.33333333  0.40830017
  -0.00452910  0.50243525  0.59805977
   0.91425053  0.66708095  0.50131065
  -0.00126596  0.25505178  0.59844574
   0.42275764  0.41579693  0.50333380
  -0.00124762  0.74623442  0.59843049
   0.50172672  0.25008550  0.59717450
   0.74521519  0.25533813  0.59834511
   0.25455097  0.74769854  0.59693350
   0.74977339  0.50026225  0.59902972
   0.83333333  0.58333333  0.40830017
   0.50119909  0.74791596  0.59682905
   0.83333333  0.08333333  0.40830017
   0.41249104  0.91503928  0.50354960
   0.66471836  0.17150678  0.50146627
   0.83333333  0.83333333  0.40830017
   0.83333333  0.33333333  0.40830017
   0.50132839  0.50043877  0.59680603
   0.41373506  0.66961864  0.50438399
   0.75138519  0.74626840  0.59819640
Direct configuration=     5
   0.08333333  0.08333333  0.40830017
   0.08333333  0.83333333  0.40830017
   0.58333333  0.83333333  0.40830017
   0.66625907  0.66765243  0.50545444
   0.08333333  0.58333333  0.40830017
   0.66269173  0.41590530  0.50533939
   0.91901880  0.41679018  0.50126323
   0.00249940 -0.00048779  0.60538529
   0.91582517  0.16807938  0.50132916
   0.33333333  0.08333333  0.40830017
   0.16338883  0.41335311  0.50381497
   0.25359390 -0.00008528  0.60161330
   0.91441634  0.91591426  0.49992650
   0.33333333  0.58333333  0.40830017
   0.16943251  0.66957598  0.50604132
   0.25302080  0.49831970  0.60498482
   0.33333333  0.83333333  0.40830017
   0.74515197  0.00264014  0.60582144
   0.66814710  0.91375802  0.50383443
   0.58333333  0.08333333  0.40830017
   0.41652458  0.16660680  0.50734676
   0.58333333  0.33333333  0.40830017
   0.58333333  0.58333333  0.40830017
   0.33333333  0.33333333  0.40830017
   0.49954302 -0.00079061  0.59941371
   0.17290082  0.91526256  0.50282217
   0.24928884  0.24936234  0.59949565
   0.16736911  0.16453704  0.50238617
   0.08333333  0.33333333  0.40830017
  -0.00450298  0.50242807  0.59937857
   0.91530583  0.66669334  0.50208671
  -0.00159116  0.25528260  0.59956857
   0.42021673  0.41661323  0.50433533
  -0.00165924  0.74659783  0.59960125
   0.50171533  0.25038759  0.59862882
   0.74588064  0.25489665  0.59977372
   0.25449817  0.74798153  0.59849619
   0.74993339  0.49999888  0.60039888
   0.83333333  0.58333333  0.40830017
   0.50162631  0.74769269  0.59829648
   0.83333333  0.08333333  0.40830017
   0.41277128  0.91545344  0.50447508
   0.66538016  0.16957998  0.50247616
   0.83333333  0.83333333  0.40830017
   0.83333333  0.33333333  0.40830017
   0.50124440  0.50075848  0.59840585
   0.41490198  0.66898727  0.50504341
   0.75127021  0.74651744  0.59973391
Direct configuration=     6
   0.08333333  0.08333333  0.40830017
   0.08333333  0.83333333  0.40830017
   0.58333333  0.83333333  0.40830017
   0.66613993  0.66329648  0.50817821
   0.08333333  0.58333333  0.40830017
   0.66625087  0.42032358  0.50798137
   0.91157059  0.41769389  0.50387005
   0.00156634 -0.00008327  0.61067835
   0.91757368  0.16521845  0.50544981
   0.33333333  0.08333333  0.40830017
   0.16831339  0.41680964  0.50760252
   0.25238270  0.00064488  0.60672998
   0.91400481  0.91906811  0.50453478
   0.33333333  0.58333333  0.40830017
   0.16890760  0.66527519  0.50999409
   0.25292455  0.49713835  0.61083177
   0.33333333  0.83333333  0.40830017
   0.74670949  0.00204583  0.61185645
   0.66565302  0.91801211  0.50770713
   0.58333333  0.08333333  0.40830017
   0.41796707  0.16531858  0.51013586
   0.58333333  0.33333333  0.40830017
   0.58333333  0.58333333  0.40830017
   0.33333333  0.33333333  0.40830017
   0.50151850 -0.00290568  0.60378594
   0.16837286  0.91967169  0.50639576
   0.24760111  0.25127485  0.60419752
   0.16789567  0.16074003  0.50530501
   0.08333333  0.33333333  0.40830017
  -0.00442460  0.50240652  0.60333497
   0.91847172  0.66553052  0.50441492
  -0.00256677  0.25597504  0.60293704
   0.41259401  0.41906211  0.50733991
  -0.00289411  0.74768806  0.60311353
   0.50168116  0.25129386  0.60299181
   0.74787699  0.25357219  0.60405953
   0.25433977  0.74883050  0.60318425
   0.75041339  0.49920877  0.60450637
   0.83333333  0.58333333  0.40830017
   0.50290799  0.74702288  0.60269877
   0.83333333  0.08333333  0.40830017
   0.41361200  0.91669590  0.50725150
   0.66736557  0.16379956  0.50550584
   0.83333333  0.83333333  0.40830017
   0.83333333  0.33333333  0.40830017
   0.50099241  0.50171762  0.60320532
   0.41840276  0.66709315  0.50702166
   0.75092525  0.74726456  0.60434645
Direct configuration=     7
   0.08333333  0.08333333  0.40830017
   0.08333333  0.83333333  0.40830017
   0.58333333  0.83333333  0.40830017
   0.66599945  0.66652723  0.50915811
   0.08333333  0.58333333  0.40830017
   0.66526254  0.41768664  0.50900889
   0.91453004  0.41650735  0.50518872
   0.00081038  0.00008326  0.61221460
   0.91696427  0.16482345  0.50754410
   0.33333333  0.08333333  0.40830017
   0.16768063  0.41625296  0.50927308
   0.25152166  0.00102148  0.60849654
   0.91552141  0.91830342  0.50701150
   0.33333333  0.58333333  0.40830017
   0.16803651  0.66642600  0.51148111
   0.25218201  0.49761136  0.61291128
   0.33333333  0.83333333  0.40830017
   0.74813347  0.00148185  0.61374909
   0.66619271  0.91657372  0.50943057
   0.58333333  0.08333333  0.40830017
   0.41701548  0.16576089  0.51101583
   0.58333333  0.33333333  0.40830017
   0.58333333  0.58333333  0.40830017
   0.33333333  0.33333333  0.40830017
   0.50200152 -0.00325624  0.60565636
   0.16697527  0.91870087  0.50832428
   0.24727104  0.25174505  0.60589907
   0.16764074  0.16259457  0.50689133
   0.08333333  0.33333333  0.40830017
  -0.00365108  0.50196077  0.60454944
   0.91812569  0.66584509  0.50567241
  -0.00244585  0.25510345  0.60400208
   0.41340281  0.41862859  0.50876816
  -0.00296929  0.74891475  0.60442528
   0.50177099  0.25138792  0.60471507
   0.74903440  0.25229662  0.60545026
   0.25339678  0.74947688  0.60491250
   0.75073774  0.49904300  0.60634298
   0.83333333  0.58333333  0.40830017
   0.50290960  0.74744856  0.60455340
   0.83333333  0.08333333  0.40830017
   0.41482401  0.91643220  0.50852925
   0.66710213  0.16485942  0.50722882
   0.83333333  0.83333333  0.40830017
   0.83333333  0.33333333  0.40830017
   0.50079791  0.50153030  0.60497999
   0.41732898  0.66717640  0.50783025
   0.75060954  0.74802110  0.60587804
Direct configuration=     8
   0.08333333  0.08333333  0.40830017
   0.08333333  0.83333333  0.40830017
   0.58333333  0.83333333  0.40830017
   0.66588421  0.66917736  0.50996191
   0.08333333  0.58333333  0.40830017
   0.66445183  0.41552358  0.50985175
   0.91695763  0.41553405  0.50627041
   0.00019027  0.00021986  0.61347477
   0.91646439  0.16449944  0.50926202
   0.33333333  0.08333333  0.40830017
   0.16716158  0.41579633  0.51064341
   0.25081537  0.00133040  0.60994563
   0.91676546  0.91767616  0.50904312
   0.33333333  0.58333333  0.40830017
   0.16732196  0.66737000  0.51270089
   0.25157291  0.49799937  0.61461708
   0.33333333  0.83333333  0.40830017
   0.74930154  0.00101922  0.61530160
   0.66663541  0.91539382  0.51084428
   0.58333333  0.08333333  0.40830017
   0.41623490  0.16612372  0.51173767
   0.58333333  0.33333333  0.40830017
   0.58333333  0.58333333  0.40830017
   0.33333333  0.33333333  0.40830017
   0.50239773 -0.00354380  0.60719065
   0.16582885  0.91790452  0.50990622
   0.24700029  0.25213074  0.60729484
   0.16743163  0.16411582  0.50819256
   0.08333333  0.33333333  0.40830017
  -0.00301658  0.50159513  0.60554566
   0.91784185  0.66610313  0.50670391
  -0.00234667  0.25438849  0.60487572
   0.41406626  0.41827298  0.50993973
  -0.00303096  0.74992098  0.60550128
   0.50184468  0.25146507  0.60612864
   0.74998381  0.25125028  0.60659105
   0.25262326  0.75000709  0.60633016
   0.75100381  0.49890702  0.60784952
   0.83333333  0.58333333  0.40830017
   0.50291092  0.74779774  0.60607473
   0.83333333  0.08333333  0.40830017
   0.41581821  0.91621588  0.50957737
   0.66688602  0.16572880  0.50864215
   0.83333333  0.83333333  0.40830017
   0.83333333  0.33333333  0.40830017
   0.50063836  0.50137664  0.60643573
   0.41644818  0.66724468  0.50849353
   0.75035057  0.74864167  0.60713438
Direct configuration=     9
   0.08333333  0.08333333  0.40830017
   0.08333333  0.83333333  0.40830017
   0.58333333  0.83333333  0.40830017
   0.66589450  0.66894082  0.50989017
   0.08333333  0.58333333  0.40830017
   0.66452420  0.41571665  0.50977651
   0.91674095  0.41562093  0.50617386
   0.00024562  0.00020766  0.61336229
   0.91650901  0.16452836  0.50910868
   0.33333333  0.08333333  0.40830017
   0.16720791  0.41583708  0.51052110
   0.25087841  0.00130283  0.60981629
   0.91665442  0.91773215  0.50886178
   0.33333333  0.58333333  0.40830017
   0.16738574  0.66728574  0.51259202
   0.25162728  0.49796474  0.61446482
   0.33333333  0.83333333  0.40830017
   0.74919728  0.00106052  0.61516303
   0.66659589  0.91549914  0.51071810
   0.58333333  0.08333333  0.40830017
   0.41630458  0.16609133  0.51167324
   0.58333333  0.33333333  0.40830017
   0.58333333  0.58333333  0.40830017
   0.33333333  0.33333333  0.40830017
   0.50236236 -0.00351813  0.60705370
   0.16593118  0.91797560  0.50976502
   0.24702445  0.25209632  0.60717026
   0.16745030  0.16398004  0.50807642
   0.08333333  0.33333333  0.40830017
  -0.00307322  0.50162776  0.60545674
   0.91786718  0.66608010  0.50661184
  -0.00235552  0.25445231  0.60479774
   0.41400705  0.41830473  0.50983516
  -0.00302545  0.74983117  0.60540524
   0.50183810  0.25145818  0.60600247
   0.74989906  0.25134367  0.60648922
   0.25269231  0.74995976  0.60620362
   0.75098006  0.49891916  0.60771505
   0.83333333  0.58333333  0.40830017
   0.50291080  0.74776658  0.60593894
   0.83333333  0.08333333  0.40830017
   0.41572947  0.91623519  0.50948382
   0.66690531  0.16565120  0.50851600
   0.83333333  0.83333333  0.40830017
   0.83333333  0.33333333  0.40830017
   0.50065260  0.50139036  0.60630580
   0.41652679  0.66723859  0.50843432
   0.75037369  0.74858628  0.60702224
Direct configuration=    10
   0.08333333  0.08333333  0.40830017
   0.08333333  0.83333333  0.40830017
   0.58333333  0.83333333  0.40830017
   0.66657579  0.66756386  0.51002214
   0.08333333  0.58333333  0.40830017
   0.66389006  0.41583685  0.50996341
   0.91730690  0.41596134  0.50631886
   0.00064725  0.00016467  0.61362231
   0.91631687  0.16546889  0.50905253
   0.33333333  0.08333333  0.40830017
   0.16613757  0.41553898  0.51056045
   0.25113301  0.00124714  0.60981738
   0.91577231  0.91691457  0.50895430
   0.33333333  0.58333333  0.40830017
   0.16804507  0.66738561  0.51253533
   0.25122955  0.49888444  0.61460938
   0.33333333  0.83333333  0.40830017
   0.74863199  0.00124214  0.61521003
   0.66787571  0.91577528  0.51081217
   0.58333333  0.08333333  0.40830017
   0.41633275  0.16618245  0.51184898
   0.58333333  0.33333333  0.40830017
   0.58333333  0.58333333  0.40830017
   0.33333333  0.33333333  0.40830017
   0.50153154 -0.00221196  0.60744844
   0.16761940  0.91696402  0.51014071
   0.24794183  0.25125500  0.60746648
   0.16750328  0.16441437  0.50833472
   0.08333333  0.33333333  0.40830017
  -0.00309946  0.50188050  0.60563787
   0.91723798  0.66639034  0.50682583
  -0.00189570  0.25384153  0.60509363
   0.41553311  0.41771827  0.51018976
  -0.00248575  0.74956380  0.60596482
   0.50188994  0.25088702  0.60626896
   0.74943055  0.25160985  0.60679048
   0.25263889  0.74979936  0.60651439
   0.75073274  0.49929439  0.60769270
   0.83333333  0.58333333  0.40830017
   0.50232765  0.74792673  0.60615596
   0.83333333  0.08333333  0.40830017
   0.41445472  0.91632115  0.50982291
   0.66596370  0.16618196  0.50889155
   0.83333333  0.83333333  0.40830017
   0.83333333  0.33333333  0.40830017
   0.50067733  0.50117484  0.60645290
   0.41573543  0.66775643  0.50880737
   0.75081479  0.74825612  0.60728126
Direct configuration=    11
   0.08333333  0.08333333  0.40830017
   0.08333333  0.83333333  0.40830017
   0.58333333  0.83333333  0.40830017
   0.66681854  0.66707324  0.51006917
   0.08333333  0.58333333  0.40830017
   0.66366412  0.41587967  0.51003001
   0.91750855  0.41608263  0.50637053
   0.00079036  0.00014935  0.61371496
   0.91624842  0.16580401  0.50903252
   0.33333333  0.08333333  0.40830017
   0.16575621  0.41543276  0.51057447
   0.25122373  0.00122730  0.60981777
   0.91545801  0.91662326  0.50898726
   0.33333333  0.58333333  0.40830017
   0.16827999  0.66742120  0.51251514
   0.25108784  0.49921214  0.61466089
   0.33333333  0.83333333  0.40830017
   0.74843057  0.00130685  0.61522678
   0.66833172  0.91587367  0.51084568
   0.58333333  0.08333333  0.40830017
   0.41634278  0.16621491  0.51191159
   0.58333333  0.33333333  0.40830017
   0.58333333  0.58333333  0.40830017
   0.33333333  0.33333333  0.40830017
   0.50123552 -0.00174657  0.60758909
   0.16822092  0.91660358  0.51027458
   0.24826870  0.25095524  0.60757203
   0.16752216  0.16456912  0.50842675
   0.08333333  0.33333333  0.40830017
  -0.00310881  0.50197056  0.60570240
   0.91701379  0.66650088  0.50690208
  -0.00173187  0.25362391  0.60519906
   0.41607686  0.41750931  0.51031611
  -0.00229345  0.74946853  0.60616420
   0.50190842  0.25068351  0.60636391
   0.74926362  0.25170470  0.60689782
   0.25261986  0.74974220  0.60662511
   0.75064463  0.49942809  0.60768474
   0.83333333  0.58333333  0.40830017
   0.50211986  0.74798379  0.60623329
   0.83333333  0.08333333  0.40830017
   0.41400052  0.91635178  0.50994373
   0.66562820  0.16637107  0.50902536
   0.83333333  0.83333333  0.40830017
   0.83333333  0.33333333  0.40830017
   0.50068615  0.50109806  0.60650531
   0.41545346  0.66794094  0.50894029
   0.75097195  0.74813848  0.60737355
Direct configuration=    12
   0.08333333  0.08333333  0.40830017
   0.08333333  0.83333333  0.40830017
   0.58333333  0.83333333  0.40830017
   0.66663054  0.66678180  0.51011166
   0.08333333  0.58333333  0.40830017
   0.66372623  0.41621633  0.51008651
   0.91719360  0.41625074  0.50639574
   0.00086676  0.00015181  0.61375044
   0.91637189  0.16564216  0.50881887
   0.33333333  0.08333333  0.40830017
   0.16588550  0.41565560  0.51050490
   0.25148095  0.00106115  0.60976939
   0.91570059  0.91677820  0.50889012
   0.33333333  0.58333333  0.40830017
   0.16857294  0.66689999  0.51235352
   0.25098727  0.49950649  0.61455570
   0.33333333  0.83333333  0.40830017
   0.74825637  0.00128499  0.61514132
   0.66783266  0.91588482  0.51086798
   0.58333333  0.08333333  0.40830017
   0.41639468  0.16607259  0.51194460
   0.58333333  0.33333333  0.40830017
   0.58333333  0.58333333  0.40830017
   0.33333333  0.33333333  0.40830017
   0.50084232 -0.00115086  0.60772259
   0.16834044  0.91670875  0.51040669
   0.24884147  0.25073856  0.60774543
   0.16752016  0.16443764  0.50850787
   0.08333333  0.33333333  0.40830017
  -0.00294044  0.50191132  0.60584559
   0.91697889  0.66646477  0.50701664
  -0.00151038  0.25341440  0.60539444
   0.41612353  0.41734519  0.51051803
  -0.00195647  0.74940306  0.60654805
   0.50158933  0.25059708  0.60658921
   0.74902605  0.25188437  0.60705492
   0.25260337  0.74962031  0.60689400
   0.75054963  0.49956644  0.60752751
   0.83333333  0.58333333  0.40830017
   0.50183300  0.74819563  0.60627502
   0.83333333  0.08333333  0.40830017
   0.41410259  0.91623264  0.51015334
   0.66546768  0.16663428  0.50921157
   0.83333333  0.83333333  0.40830017
   0.83333333  0.33333333  0.40830017
   0.50066464  0.50095607  0.60658727
   0.41556139  0.66795085  0.50919586
   0.75095990  0.74813810  0.60745881
Direct configuration=    13
   0.08333333  0.08333333  0.40830017
   0.08333333  0.83333333  0.40830017
   0.58333333  0.83333333  0.40830017
   0.66647317  0.66653787  0.51014723
   0.08333333  0.58333333  0.40830017
   0.66377822  0.41649812  0.51013381
   0.91693000  0.41639145  0.50641683
   0.00093071  0.00015388  0.61378013
   0.91647524  0.16550669  0.50864003
   0.33333333  0.08333333  0.40830017
   0.16599372  0.41584212  0.51044667
   0.25169625  0.00092208  0.60972889
   0.91590363  0.91690789  0.50880881
   0.33333333  0.58333333  0.40830017
   0.16881815  0.66646373  0.51221825
   0.25090309  0.49975287  0.61446765
   0.33333333  0.83333333  0.40830017
   0.74811056  0.00126669  0.61506980
   0.66741494  0.91589416  0.51088664
   0.58333333  0.08333333  0.40830017
   0.41643812  0.16595347  0.51197222
   0.58333333  0.33333333  0.40830017
   0.58333333  0.58333333  0.40830017
   0.33333333  0.33333333  0.40830017
   0.50051321 -0.00065225  0.60783433
   0.16844049  0.91679677  0.51051727
   0.24932088  0.25055719  0.60789057
   0.16751848  0.16432759  0.50857577
   0.08333333  0.33333333  0.40830017
  -0.00279950  0.50186174  0.60596543
   0.91694968  0.66643454  0.50711254
  -0.00132499  0.25323904  0.60555798
   0.41616259  0.41720782  0.51068705
  -0.00167441  0.74934825  0.60686934
   0.50132225  0.25052473  0.60677778
   0.74882720  0.25203475  0.60718642
   0.25258957  0.74951828  0.60711906
   0.75047011  0.49968224  0.60739591
   0.83333333  0.58333333  0.40830017
   0.50159288  0.74837295  0.60630994
   0.83333333  0.08333333  0.40830017
   0.41418802  0.91613292  0.51032878
   0.66533333  0.16685458  0.50936743
   0.83333333  0.83333333  0.40830017
   0.83333333  0.33333333  0.40830017
   0.50064664  0.50083723  0.60665588
   0.41565174  0.66795914  0.50940978
   0.75094980  0.74813779  0.60753017
Direct configuration=    14
   0.08333333  0.08333333  0.40830017
   0.08333333  0.83333333  0.40830017
   0.58333333  0.83333333  0.40830017
   0.66620801  0.66705831  0.51014080
   0.08333333  0.58333333  0.40830017
   0.66388723  0.41623959  0.51014162
   0.91718558  0.41615052  0.50646866
   0.00075897  0.00027424  0.61374993
   0.91636929  0.16558844  0.50854432
   0.33333333  0.08333333  0.40830017
   0.16608818  0.41560302  0.51043578
   0.25165717  0.00090645  0.60975645
   0.91607936  0.91676752  0.50878070
   0.33333333  0.58333333  0.40830017
   0.16866512  0.66664049  0.51217684
   0.25091640  0.49970745  0.61435447
   0.33333333  0.83333333  0.40830017
   0.74827087  0.00114844  0.61492616
   0.66733844  0.91560274  0.51090714
   0.58333333  0.08333333  0.40830017
   0.41624426  0.16603697  0.51195638
   0.58333333  0.33333333  0.40830017
   0.58333333  0.58333333  0.40830017
   0.33333333  0.33333333  0.40830017
   0.50059986 -0.00069498  0.60796069
   0.16832233  0.91668155  0.51060568
   0.24932905  0.25077281  0.60799053
   0.16741986  0.16450017  0.50865014
   0.08333333  0.33333333  0.40830017
  -0.00251860  0.50161610  0.60605365
   0.91682816  0.66669312  0.50726266
  -0.00123638  0.25328426  0.60563916
   0.41624463  0.41706101  0.51082541
  -0.00156050  0.74946063  0.60705570
   0.50106449  0.25070083  0.60702208
   0.74881190  0.25205812  0.60726948
   0.25248829  0.74947306  0.60730098
   0.75054349  0.49965902  0.60731078
   0.83333333  0.58333333  0.40830017
   0.50159943  0.74848984  0.60641162
   0.83333333  0.08333333  0.40830017
   0.41446658  0.91599852  0.51042594
   0.66554186  0.16687736  0.50951417
   0.83333333  0.83333333  0.40830017
   0.83333333  0.33333333  0.40830017
   0.50064793  0.50072464  0.60678038
   0.41554258  0.66791885  0.50959560
   0.75078821  0.74831611  0.60755691
Direct configuration=    15
   0.08333333  0.08333333  0.40830017
   0.08333333  0.83333333  0.40830017
   0.58333333  0.83333333  0.40830017
   0.66609023  0.66728948  0.51013794
   0.08333333  0.58333333  0.40830017
   0.66393565  0.41612475  0.51014509
   0.91729911  0.41604351  0.50649168
   0.00068268  0.00032771  0.61373651
   0.91632222  0.16562475  0.50850181
   0.33333333  0.08333333  0.40830017
   0.16613013  0.41549681  0.51043095
   0.25163981  0.00089951  0.60976869
   0.91615742  0.91670516  0.50876821
   0.33333333  0.58333333  0.40830017
   0.16859714  0.66671900  0.51215844
   0.25092232  0.49968727  0.61430420
   0.33333333  0.83333333  0.40830017
   0.74834207  0.00109591  0.61486236
   0.66730446  0.91547329  0.51091625
   0.58333333  0.08333333  0.40830017
   0.41615815  0.16607407  0.51194935
   0.58333333  0.33333333  0.40830017
   0.58333333  0.58333333  0.40830017
   0.33333333  0.33333333  0.40830017
   0.50063834 -0.00071397  0.60801682
   0.16826984  0.91663037  0.51064495
   0.24933268  0.25086859  0.60803493
   0.16737605  0.16457683  0.50868317
   0.08333333  0.33333333  0.40830017
  -0.00239383  0.50150699  0.60609283
   0.91677418  0.66680797  0.50732934
  -0.00119702  0.25330435  0.60567522
   0.41628108  0.41699581  0.51088687
  -0.00150991  0.74951055  0.60713847
   0.50095000  0.25077905  0.60713059
   0.74880510  0.25206850  0.60730638
   0.25244330  0.74945297  0.60738178
   0.75057608  0.49964870  0.60727297
   0.83333333  0.58333333  0.40830017
   0.50160234  0.74854177  0.60645678
   0.83333333  0.08333333  0.40830017
   0.41459031  0.91593882  0.51046909
   0.66563448  0.16688747  0.50957936
   0.83333333  0.83333333  0.40830017
   0.83333333  0.33333333  0.40830017
   0.50064850  0.50067463  0.60683568
   0.41549410  0.66790096  0.50967813
   0.75071644  0.74839532  0.60756878
Direct configuration=    16
   0.08333333  0.08333333  0.40830017
   0.08333333  0.83333333  0.40830017
   0.58333333  0.83333333  0.40830017
   0.66615655  0.66718054  0.51010737
   0.08333333  0.58333333  0.40830017
   0.66393606  0.41614976  0.51014590
   0.91734270  0.41613885  0.50654740
   0.00050147  0.00055020  0.61368032
   0.91635848  0.16560271  0.50847766
   0.33333333  0.08333333  0.40830017
   0.16608555  0.41550296  0.51043012
   0.25151809  0.00098727  0.60982151
   0.91600025  0.91667563  0.50876884
   0.33333333  0.58333333  0.40830017
   0.16844398  0.66682661  0.51218797
   0.25088198  0.49968683  0.61419265
   0.33333333  0.83333333  0.40830017
   0.74842075  0.00109449  0.61469665
   0.66733620  0.91571907  0.51091986
   0.58333333  0.08333333  0.40830017
   0.41627606  0.16599693  0.51198730
   0.58333333  0.33333333  0.40830017
   0.58333333  0.58333333  0.40830017
   0.33333333  0.33333333  0.40830017
   0.50078072 -0.00079987  0.60815266
   0.16821906  0.91659037  0.51073367
   0.24922272  0.25103862  0.60813050
   0.16736819  0.16450555  0.50876911
   0.08333333  0.33333333  0.40830017
  -0.00227042  0.50142882  0.60616756
   0.91682924  0.66678284  0.50751171
  -0.00118259  0.25337080  0.60572932
   0.41632526  0.41690457  0.51100977
  -0.00145082  0.74956691  0.60726319
   0.50091251  0.25081013  0.60738041
   0.74884992  0.25207474  0.60738017
   0.25235467  0.74942995  0.60755117
   0.75067001  0.49965988  0.60717768
   0.83333333  0.58333333  0.40830017
   0.50170053  0.74848925  0.60661344
   0.83333333  0.08333333  0.40830017
   0.41446397  0.91603844  0.51052928
   0.66577401  0.16653530  0.50973591
   0.83333333  0.83333333  0.40830017
   0.83333333  0.33333333  0.40830017
   0.50070318  0.50066029  0.60698049
   0.41542289  0.66774484  0.50986296
   0.75072791  0.74843680  0.60761349
Direct configuration=    17
   0.08333333  0.08333333  0.40830017
   0.08333333  0.83333333  0.40830017
   0.58333333  0.83333333  0.40830017
   0.66619773  0.66711289  0.51008839