  56  56   0   0
  0.4903395E+02  0.1100258E-08  0.1100258E-08  0.2619179E-08  0.3500000E-15
  1.000000000000000E-004
  CAR 
 unknown system                          
      6.39530755    -21.72414744  301     -1.25586369      1.00000000
    -21.724  0.0000E+00  0.0000E+00
    -21.630  0.0000E+00  0.0000E+00
    -21.537  0.0000E+00  0.0000E+00
    -21.443  0.0000E+00  0.0000E+00
    -21.349  0.0000E+00  0.0000E+00
    -21.255  0.0000E+00  0.0000E+00
    -21.162  0.0000E+00  0.0000E+00
    -21.068  0.0000E+00  0.0000E+00
    -20.974  0.1530E-14  0.1434E-15
    -20.881  0.1560E-10  0.1462E-11
    -20.787  0.2859E-07  0.2681E-08
    -20.693  0.9603E-05  0.9027E-06
    -20.599  0.6125E-03  0.5831E-04
    -20.506  0.7948E-02  0.8033E-03
    -20.412  0.2572E-01  0.3214E-02
    -20.318  0.4258E-01  0.7206E-02
    -20.224  0.6964E-01  0.1373E-01
    -20.131  0.8407E-01  0.2161E-01
    -20.037  0.5542E-01  0.2681E-01
    -19.943  0.1626E-01  0.2833E-01
    -19.850  0.1842E-01  0.3006E-01
    -19.756  0.1702E-01  0.3165E-01
    -19.662  0.3534E-02  0.3199E-01
    -19.568  0.1517E-03  0.3200E-01
    -19.475  0.1269E-05  0.3200E-01
    -19.381  0.1982E-08  0.3200E-01
    -19.287  0.5624E-12  0.3200E-01
    -19.193  0.2843E-16  0.3200E-01
    -19.100  0.0000E+00  0.3200E-01
    -19.006  0.0000E+00  0.3200E-01
    -18.912  0.0000E+00  0.3200E-01
    -18.818  0.0000E+00  0.3200E-01
    -18.725  0.0000E+00  0.3200E-01
    -18.631  0.0000E+00  0.3200E-01
    -18.537  0.0000E+00  0.3200E-01
    -18.444  0.0000E+00  0.3200E-01
    -18.350  0.0000E+00  0.3200E-01
    -18.256  0.0000E+00  0.3200E-01
    -18.162  0.0000E+00  0.3200E-01
    -18.069  0.0000E+00  0.3200E-01
    -17.975  0.0000E+00  0.3200E-01
    -17.881  0.0000E+00  0.3200E-01
    -17.787  0.0000E+00  0.3200E-01
    -17.694  0.0000E+00  0.3200E-01
    -17.600  0.0000E+00  0.3200E-01
    -17.506  0.0000E+00  0.3200E-01
    -17.412  0.0000E+00  0.3200E-01
    -17.319  0.0000E+00  0.3200E-01
    -17.225  0.0000E+00  0.3200E-01
    -17.131  0.0000E+00  0.3200E-01
    -17.038  0.0000E+00  0.3200E-01
    -16.944  0.0000E+00  0.3200E-01
    -16.850  0.0000E+00  0.3200E-01
    -16.756  0.0000E+00  0.3200E-01
    -16.663  0.0000E+00  0.3200E-01
    -16.569  0.0000E+00  0.3200E-01
    -16.475  0.0000E+00  0.3200E-01
    -16.381  0.0000E+00  0.3200E-01
    -16.288  0.0000E+00  0.3200E-01
    -16.194  0.0000E+00  0.3200E-01
    -16.100  0.0000E+00  0.3200E-01
    -16.007  0.0000E+00  0.3200E-01
    -15.913  0.0000E+00  0.3200E-01
    -15.819  0.0000E+00  0.3200E-01
    -15.725  0.0000E+00  0.3200E-01
    -15.632  0.0000E+00  0.3200E-01
    -15.538  0.0000E+00  0.3200E-01
    -15.444  0.0000E+00  0.3200E-01
    -15.350  0.0000E+00  0.3200E-01
    -15.257  0.0000E+00  0.3200E-01
    -15.163  0.0000E+00  0.3200E-01
    -15.069  0.0000E+00  0.3200E-01
    -14.975  0.0000E+00  0.3200E-01
    -14.882  0.0000E+00  0.3200E-01
    -14.788  0.0000E+00  0.3200E-01
    -14.694  0.0000E+00  0.3200E-01
    -14.601  0.0000E+00  0.3200E-01
    -14.507  0.0000E+00  0.3200E-01
    -14.413  0.0000E+00  0.3200E-01
    -14.319  0.0000E+00  0.3200E-01
    -14.226  0.0000E+00  0.3200E-01
    -14.132  0.0000E+00  0.3200E-01
    -14.038  0.0000E+00  0.3200E-01
    -13.944  0.0000E+00  0.3200E-01
    -13.851  0.0000E+00  0.3200E-01
    -13.757  0.0000E+00  0.3200E-01
    -13.663  0.0000E+00  0.3200E-01
    -13.570  0.0000E+00  0.3200E-01
    -13.476  0.0000E+00  0.3200E-01
    -13.382  0.0000E+00  0.3200E-01
    -13.288  0.0000E+00  0.3200E-01
    -13.195  0.0000E+00  0.3200E-01
    -13.101  0.0000E+00  0.3200E-01
    -13.007  0.0000E+00  0.3200E-01
    -12.913  0.0000E+00  0.3200E-01
    -12.820  0.0000E+00  0.3200E-01
    -12.726  0.0000E+00  0.3200E-01
    -12.632  0.0000E+00  0.3200E-01
    -12.538  0.0000E+00  0.3200E-01
    -12.445  0.0000E+00  0.3200E-01
    -12.351  0.0000E+00  0.3200E-01
    -12.257  0.0000E+00  0.3200E-01
    -12.164  0.0000E+00  0.3200E-01
    -12.070  0.0000E+00  0.3200E-01
    -11.976  0.0000E+00  0.3200E-01
    -11.882  0.0000E+00  0.3200E-01
    -11.789  0.0000E+00  0.3200E-01
    -11.695  0.0000E+00  0.3200E-01
    -11.601  0.0000E+00  0.3200E-01
    -11.507  0.0000E+00  0.3200E-01
    -11.414  0.0000E+00  0.3200E-01
    -11.320  0.0000E+00  0.3200E-01
    -11.226  0.0000E+00  0.3200E-01
    -11.132  0.0000E+00  0.3200E-01
    -11.039  0.0000E+00  0.3200E-01
    -10.945  0.0000E+00  0.3200E-01
    -10.851  0.0000E+00  0.3200E-01
    -10.758  0.0000E+00  0.3200E-01
    -10.664  0.0000E+00  0.3200E-01
    -10.570  0.0000E+00  0.3200E-01
    -10.476  0.0000E+00  0.3200E-01
    -10.383  0.0000E+00  0.3200E-01
    -10.289  0.0000E+00  0.3200E-01
    -10.195  0.0000E+00  0.3200E-01
    -10.101  0.4225E-16  0.3200E-01
    -10.008  0.6950E-12  0.3200E-01
     -9.914  0.2051E-08  0.3200E-01
     -9.820  0.1104E-05  0.3200E-01
     -9.727  0.1116E-03  0.3201E-01
     -9.633  0.2212E-02  0.3222E-01
     -9.539  0.9139E-02  0.3307E-01
     -9.445  0.8581E-02  0.3388E-01
     -9.352  0.5792E-02  0.3442E-01
     -9.258  0.1040E-01  0.3540E-01
     -9.164  0.5722E-02  0.3593E-01
     -9.070  0.7782E-03  0.3601E-01
     -8.977  0.1360E-02  0.3613E-01
     -8.883  0.6024E-02  0.3670E-01
     -8.789  0.1054E-01  0.3769E-01
     -8.695  0.1454E-01  0.3905E-01
     -8.602  0.1969E-01  0.4089E-01
     -8.508  0.1119E-01  0.4194E-01
     -8.414  0.7299E-02  0.4263E-01
     -8.321  0.1082E-01  0.4364E-01
     -8.227  0.1272E-01  0.4483E-01
     -8.133  0.2657E-01  0.4732E-01
     -8.039  0.3941E-01  0.5102E-01
     -7.946  0.5895E-01  0.5654E-01
     -7.852  0.9449E-01  0.6540E-01
     -7.758  0.1213E+00  0.7677E-01
     -7.664  0.1217E+00  0.8818E-01
     -7.571  0.1089E+00  0.9839E-01
     -7.477  0.8661E-01  0.1065E+00
     -7.383  0.9130E-01  0.1151E+00
     -7.289  0.1079E+00  0.1252E+00
     -7.196  0.1242E+00  0.1368E+00
     -7.102  0.1465E+00  0.1505E+00
     -7.008  0.1567E+00  0.1652E+00
     -6.915  0.1539E+00  0.1797E+00
     -6.821  0.1521E+00  0.1939E+00
     -6.727  0.1493E+00  0.2079E+00
     -6.633  0.1498E+00  0.2219E+00
     -6.540  0.1708E+00  0.2380E+00
     -6.446  0.1786E+00  0.2547E+00
     -6.352  0.1604E+00  0.2697E+00
     -6.258  0.1340E+00  0.2823E+00
     -6.165  0.1365E+00  0.2951E+00
     -6.071  0.1557E+00  0.3097E+00
     -5.977  0.1718E+00  0.3258E+00
     -5.884  0.1657E+00  0.3413E+00
     -5.790  0.1499E+00  0.3554E+00
     -5.696  0.1529E+00  0.3697E+00
     -5.602  0.1652E+00  0.3852E+00
     -5.509  0.1804E+00  0.4021E+00
     -5.415  0.1790E+00  0.4189E+00
     -5.321  0.1774E+00  0.4355E+00
     -5.227  0.1768E+00  0.4521E+00
     -5.134  0.1806E+00  0.4690E+00
     -5.040  0.1854E+00  0.4864E+00
     -4.946  0.1834E+00  0.5036E+00
     -4.852  0.1924E+00  0.5216E+00
     -4.759  0.1901E+00  0.5394E+00
     -4.665  0.1818E+00  0.5565E+00
     -4.571  0.1798E+00  0.5733E+00
     -4.478  0.1903E+00  0.5912E+00
     -4.384  0.2028E+00  0.6102E+00
     -4.290  0.2141E+00  0.6302E+00
     -4.196  0.2211E+00  0.6510E+00
     -4.103  0.2225E+00  0.6718E+00
     -4.009  0.2125E+00  0.6917E+00
     -3.915  0.1882E+00  0.7094E+00
     -3.821  0.1828E+00  0.7265E+00
     -3.728  0.1912E+00  0.7444E+00
     -3.634  0.1977E+00  0.7629E+00
     -3.540  0.2095E+00  0.7826E+00
     -3.447  0.1967E+00  0.8010E+00
     -3.353  0.1655E+00  0.8165E+00
     -3.259  0.1486E+00  0.8305E+00
     -3.165  0.1466E+00  0.8442E+00
     -3.072  0.1580E+00  0.8590E+00
     -2.978  0.1682E+00  0.8748E+00
     -2.884  0.1637E+00  0.8901E+00
     -2.790  0.1612E+00  0.9052E+00
     -2.697  0.1640E+00  0.9206E+00
     -2.603  0.1605E+00  0.9357E+00
     -2.509  0.1622E+00  0.9509E+00
     -2.415  0.1651E+00  0.9663E+00
     -2.322  0.1631E+00  0.9816E+00
     -2.228  0.1594E+00  0.9966E+00
     -2.134  0.1598E+00  0.1012E+01
     -2.041  0.1620E+00  0.1027E+01
     -1.947  0.1484E+00  0.1041E+01
     -1.853  0.1233E+00  0.1052E+01
     -1.759  0.1017E+00  0.1062E+01
     -1.666  0.1016E+00  0.1071E+01
     -1.572  0.1036E+00  0.1081E+01
     -1.478  0.8673E-01  0.1089E+01
     -1.384  0.7260E-01  0.1096E+01
     -1.291  0.6434E-01  0.1102E+01
     -1.197  0.6096E-01  0.1108E+01
     -1.103  0.7027E-01  0.1114E+01
     -1.009  0.8927E-01  0.1123E+01
     -0.916  0.1016E+00  0.1132E+01
     -0.822  0.8394E-01  0.1140E+01
     -0.728  0.6789E-01  0.1146E+01
     -0.635  0.5871E-01  0.1152E+01
     -0.541  0.3954E-01  0.1156E+01
     -0.447  0.3324E-01  0.1159E+01
     -0.353  0.3428E-01  0.1162E+01
     -0.260  0.2335E-01  0.1164E+01
     -0.166  0.1921E-01  0.1166E+01
     -0.072  0.2500E-01  0.1168E+01
      0.022  0.2987E-01  0.1171E+01
      0.115  0.3326E-01  0.1174E+01
      0.209  0.3201E-01  0.1177E+01
      0.303  0.4215E-01  0.1181E+01
      0.396  0.4250E-01  0.1185E+01
      0.490  0.3119E-01  0.1188E+01
      0.584  0.3142E-01  0.1191E+01
      0.678  0.3293E-01  0.1194E+01
      0.771  0.2504E-01  0.1196E+01
      0.865  0.1915E-01  0.1198E+01
      0.959  0.1848E-01  0.1200E+01
      1.053  0.1836E-01  0.1202E+01
      1.146  0.1856E-01  0.1203E+01
      1.240  0.2213E-01  0.1205E+01
      1.334  0.2521E-01  0.1208E+01
      1.428  0.2828E-01  0.1210E+01
      1.521  0.3110E-01  0.1213E+01
      1.615  0.4675E-01  0.1218E+01
      1.709  0.4782E-01  0.1222E+01
      1.802  0.3302E-01  0.1225E+01
      1.896  0.2809E-01  0.1228E+01
      1.990  0.2882E-01  0.1231E+01
      2.084  0.2815E-01  0.1233E+01
      2.177  0.2565E-01  0.1236E+01
      2.271  0.1746E-01  0.1237E+01
      2.365  0.1039E-01  0.1238E+01
      2.459  0.1374E-01  0.1240E+01
      2.552  0.1793E-01  0.1241E+01
      2.646  0.2226E-01  0.1243E+01
      2.740  0.3078E-01  0.1246E+01
      2.834  0.3449E-01  0.1249E+01
      2.927  0.3001E-01  0.1252E+01
      3.021  0.2517E-01  0.1255E+01
      3.115  0.3155E-01  0.1258E+01
      3.208  0.2913E-01  0.1260E+01
      3.302  0.2054E-01  0.1262E+01
      3.396  0.2402E-01  0.1265E+01
      3.490  0.2233E-01  0.1267E+01
      3.583  0.1864E-01  0.1268E+01
      3.677  0.3361E-01  0.1272E+01
      3.771  0.4901E-01  0.1276E+01
      3.865  0.5118E-01  0.1281E+01
      3.958  0.5120E-01  0.1286E+01
      4.052  0.4574E-01  0.1290E+01
      4.146  0.3696E-01  0.1293E+01
      4.239  0.3519E-01  0.1297E+01
      4.333  0.4487E-01  0.1301E+01
      4.427  0.4733E-01  0.1305E+01
      4.521  0.4335E-01  0.1309E+01
      4.614  0.4470E-01  0.1314E+01
      4.708  0.5713E-01  0.1319E+01
      4.802  0.5828E-01  0.1324E+01
      4.896  0.4876E-01  0.1329E+01
      4.989  0.5521E-01  0.1334E+01
      5.083  0.6144E-01  0.1340E+01
      5.177  0.3586E-01  0.1343E+01
      5.271  0.6895E-02  0.1344E+01
      5.364  0.3515E-03  0.1344E+01
      5.458  0.4139E-05  0.1344E+01
      5.552  0.1017E-07  0.1344E+01
      5.645  0.4869E-11  0.1344E+01
      5.739  0.4367E-15  0.1344E+01
      5.833  0.0000E+00  0.1344E+01
      5.927  0.0000E+00  0.1344E+01
      6.020  0.0000E+00  0.1344E+01
      6.114  0.0000E+00  0.1344E+01
      6.208  0.0000E+00  0.1344E+01
      6.302  0.0000E+00  0.1344E+01
      6.395  0.0000E+00  0.1344E+01
