unknown system                          
           1
    11.002582    0.000000    0.000000
     5.501291    9.528515    0.000000
     0.000000    0.000000   26.191785
   Au   O    Pd
  24   8  24
Direct configuration=     1
   0.08333333  0.08333333  0.38179910
   0.33333333  0.83333333  0.38179910
   0.33333333  0.58333333  0.38179910
   0.91666667  0.16666667  0.46754708
   0.66666667  0.91666667  0.46754708
   0.83333333  0.83333333  0.38179910
   0.08333333  0.33333333  0.38179910
   0.66666667  0.66666667  0.46754708
   0.83333333  0.58333333  0.38179910
   0.08333333  0.58333333  0.38179910
   0.91666667  0.66666667  0.46754708
   0.08333333  0.83333333  0.38179910
   0.83333333  0.33333333  0.38179910
   0.83333333  0.08333333  0.38179910
   0.58333333  0.83333333  0.38179910
   0.33333333  0.08333333  0.38179910
   0.50000000  0.50000000  0.55329505
   0.58333333  0.58333333  0.38179910
   0.41666667  0.41666667  0.46754708
   0.33333333  0.33333333  0.38179910
   0.58333333  0.33333333  0.38179910
   0.25000000  0.25000000  0.55329505
   0.58333333  0.08333333  0.38179910
   0.66666667  0.16666667  0.46754708
   0.33333333  0.33333333  0.61820090
   0.08333333  0.08333333  0.61820090
   0.08333333  0.83333333  0.61820090
   0.08333333  0.58333333  0.61820090
   0.83333333  0.83333333  0.61820090
   0.33333333  0.83333333  0.61820090
   0.83333333  0.33333333  0.61820090
   0.83333333  0.08333333  0.61820090
   0.50000000  0.25000000  0.55329505
   0.50000000  0.00000000  0.55329505
   0.16666667  0.41666667  0.46754708
   0.41666667  0.16666667  0.46754708
   0.75000000  0.75000000  0.55329505
   0.25000000  0.75000000  0.55329505
   0.16666667  0.91666667  0.46754708
   0.16666667  0.66666667  0.46754708
   0.16666667  0.16666667  0.46754708
   0.41666667  0.91666667  0.46754708
   0.66666667  0.41666667  0.46754708
   0.75000000  0.50000000  0.55329505
   0.50000000  0.75000000  0.55329505
   0.00000000  0.75000000  0.55329505
   0.91666667  0.91666667  0.46754708
   0.75000000  0.00000000  0.55329505
   0.00000000  0.00000000  0.55329505
   0.00000000  0.50000000  0.55329505
   0.25000000  0.50000000  0.55329505
   0.75000000  0.25000000  0.55329505
   0.00000000  0.25000000  0.55329505
   0.91666667  0.41666667  0.46754708
   0.25000000  0.00000000  0.55329505
   0.41666667  0.66666667  0.46754708
Direct configuration=     2
   0.08333333  0.08333333  0.38179910
   0.33333333  0.83333333  0.38179910
   0.33333333  0.58333333  0.38179910
   0.91790807  0.16630531  0.46858475
   0.66564507  0.91789238  0.46890180
   0.83333333  0.83333333  0.38179910
   0.08333333  0.33333333  0.38179910
   0.66568005  0.66585220  0.46954844
   0.83333333  0.58333333  0.38179910
   0.08333333  0.58333333  0.38179910
   0.91877202  0.66579335  0.46869857
   0.08333333  0.83333333  0.38179910
   0.83333333  0.33333333  0.38179910
   0.83333333  0.08333333  0.38179910
   0.58333333  0.83333333  0.38179910
   0.33333333  0.08333333  0.38179910
   0.50032083  0.50039313  0.55470213
   0.58333333  0.58333333  0.38179910
   0.41497430  0.41738236  0.46851619
   0.33333333  0.33333333  0.38179910
   0.58333333  0.33333333  0.38179910
   0.25030528  0.24957341  0.55534969
   0.58333333  0.08333333  0.38179910
   0.66652504  0.16664862  0.46930439
   0.33444759  0.33294011  0.61430249
   0.08414677  0.08381877  0.61418539
   0.08461638  0.83242288  0.61443795
   0.08282902  0.58270203  0.61412424
   0.83141267  0.83341967  0.61390548
   0.33498458  0.83262436  0.61377401
   0.83258666  0.33509837  0.61378857
   0.83169445  0.08412020  0.61422399
   0.49901291  0.24989244  0.55559126
   0.50032538 -0.00067308  0.55406055
   0.16645315  0.41657164  0.46784047
   0.41595586  0.16646426  0.46795881
   0.75007360  0.75052478  0.55580632
   0.24973995  0.75098008  0.55647201
   0.16679776  0.91629572  0.46825552
   0.16669988  0.66726779  0.46886794
   0.16714357  0.16643094  0.46888002
   0.41500001  0.91758854  0.46850982
   0.66731014  0.41664137  0.46821395
   0.75086867  0.49873022  0.55547638
   0.49874184  0.75100778  0.55546973
   0.00040460  0.74952244  0.55746214
   0.91838473  0.91594866  0.46849215
   0.75025490 -0.00024249  0.55697641
   0.00037697 -0.00039663  0.55771926
   0.00033805  0.50070304  0.55546311
   0.24927541  0.49971292  0.55673658
   0.75048075  0.24993633  0.55696831
  -0.00052561  0.25039440  0.55653148
   0.91781793  0.41587393  0.46878435
   0.25029554 -0.00098086  0.55644289
   0.41530641  0.66805077  0.46824142
Direct configuration=     3
   0.08333333  0.08333333  0.38179910
   0.33333333  0.83333333  0.38179910
   0.33333333  0.58333333  0.38179910
   0.92163227  0.16522123  0.47169777
   0.66258028  0.92156953  0.47296597
   0.83333333  0.83333333  0.38179910
   0.08333333  0.33333333  0.38179910
   0.66272020  0.66340880  0.47555253
   0.83333333  0.58333333  0.38179910
   0.08333333  0.58333333  0.38179910
   0.92508806  0.66317340  0.47215303
   0.08333333  0.83333333  0.38179910
   0.83333333  0.33333333  0.38179910
   0.83333333  0.08333333  0.38179910
   0.58333333  0.83333333  0.38179910
   0.33333333  0.08333333  0.38179910
   0.50128333  0.50157250  0.55892335
   0.58333333  0.58333333  0.38179910
   0.40989720  0.41952944  0.47142354
   0.33333333  0.33333333  0.38179910
   0.58333333  0.33333333  0.38179910
   0.25122113  0.24829363  0.56151362
   0.58333333  0.08333333  0.38179910
   0.66610018  0.16659447  0.47457632
   0.33779034  0.33176043  0.60260728
   0.08658708  0.08527507  0.60213887
   0.08846550  0.82969152  0.60314909
   0.08131607  0.58080810  0.60189428
   0.82565070  0.83367867  0.60101924
   0.33993831  0.83049744  0.60049336
   0.83034665  0.34039348  0.60055160
   0.82677781  0.08648081  0.60229328
   0.49605162  0.24956978  0.56247988
   0.50130151 -0.00269232  0.55635706
   0.16581260  0.41628655  0.46872065
   0.41382343  0.16585705  0.46919403
   0.75029442  0.75209912  0.56334012
   0.24895978  0.75392033  0.56600287
   0.16719104  0.91518288  0.47038086
   0.16679953  0.66907116  0.47283055
   0.16857429  0.16572374  0.47287886
   0.41000003  0.92035416  0.47139805
   0.66924057  0.41656548  0.47021455
   0.75347469  0.49492087  0.56202035
   0.49496735  0.75403110  0.56199378
   0.00161841  0.74808974  0.56996339
   0.92353891  0.91379465  0.47132737
   0.75101960 -0.00096994  0.56802049
   0.00150788 -0.00158650  0.57099188
   0.00135219  0.50281214  0.56196727
   0.24710165  0.49885170  0.56706115
   0.75192300  0.24974531  0.56798808
  -0.00210245  0.25157760  0.56624075
   0.92127172  0.41349573  0.47249615
   0.25118215 -0.00392343  0.56588642
   0.41122564  0.67220307  0.47032443
Direct configuration=     4
   0.08333333  0.08333333  0.38179910
   0.33333333  0.83333333  0.38179910
   0.33333333  0.58333333  0.38179910
   0.91927300  0.16590799  0.46972569
   0.66452181  0.91924007  0.47039133
   0.83333333  0.83333333  0.38179910
   0.08333333  0.33333333  0.38179910
   0.66459525  0.66495668  0.47174896
   0.83333333  0.58333333  0.38179910
   0.08333333  0.58333333  0.38179910
   0.92108687  0.66483313  0.46996464
   0.08333333  0.83333333  0.38179910
   0.83333333  0.33333333  0.38179910
   0.83333333  0.08333333  0.38179910
   0.58333333  0.83333333  0.38179910
   0.33333333  0.08333333  0.38179910
   0.50067359  0.50082537  0.55624922
   0.58333333  0.58333333  0.38179910
   0.41311352  0.41816927  0.46958175
   0.33333333  0.33333333  0.38179910
   0.58333333  0.33333333  0.38179910
   0.25064094  0.24910436  0.55760880
   0.58333333  0.08333333  0.38179910
   0.66636933  0.16662877  0.47123657
   0.33567272  0.33250775  0.61001615
   0.08504115  0.08435251  0.60977029
   0.08602710  0.83142182  0.61030054
   0.08227451  0.58200789  0.60964191
   0.82930089  0.83351459  0.60918262
   0.33680014  0.83184483  0.60890660
   0.83176569  0.33703905  0.60893717
   0.82989248  0.08498537  0.60985134
   0.49792758  0.24977419  0.55811597
   0.50068313 -0.00141314  0.55490223
   0.16621839  0.41646715  0.46816306
   0.41517431  0.16624172  0.46841153
   0.75015453  0.75110178  0.55856748
   0.24945401  0.75205770  0.55996511
   0.16694190  0.91588786  0.46903447
   0.16673640  0.66792873  0.47032025
   0.16766793  0.16617175  0.47034561
   0.41316750  0.91860215  0.46956837
   0.66801765  0.41661355  0.46894718
   0.75182379  0.49733407  0.55787477
   0.49735847  0.75211584  0.55786082
   0.00084947  0.74899735  0.56204390
   0.92027376  0.91515921  0.46953127
   0.75053516 -0.00050910  0.56102411
   0.00079145 -0.00083272  0.56258373
   0.00070973  0.50147603  0.55784691
   0.24847872  0.49939728  0.56052058
   0.75100934  0.24986632  0.56100710
  -0.00110353  0.25082805  0.56008996
   0.91908376  0.41500231  0.47014474
   0.25062049 -0.00205932  0.55990398
   0.41381079  0.66957260  0.46900485
Direct configuration=     5
   0.08333333  0.08333333  0.38179910
   0.33333333  0.83333333  0.38179910
   0.33333333  0.58333333  0.38179910
   0.92013309  0.16565762  0.47044463
   0.66381401  0.92008930  0.47132994
   0.83333333  0.83333333  0.38179910
   0.08333333  0.33333333  0.38179910
   0.66391168  0.66439239  0.47313559
   0.83333333  0.58333333  0.38179910
   0.08333333  0.58333333  0.38179910
   0.92254554  0.66422806  0.47076244
   0.08333333  0.83333333  0.38179910
   0.83333333  0.33333333  0.38179910
   0.83333333  0.08333333  0.38179910
   0.58333333  0.83333333  0.38179910
   0.33333333  0.08333333  0.38179910
   0.50089588  0.50109775  0.55722410
   0.58333333  0.58333333  0.38179910
   0.41194098  0.41866513  0.47025319
   0.33333333  0.33333333  0.38179910
   0.58333333  0.33333333  0.38179910
   0.25085246  0.24880880  0.55903233
   0.58333333  0.08333333  0.38179910
   0.66627121  0.16661627  0.47245410
   0.33644472  0.33223531  0.60731518
   0.08560473  0.08468884  0.60698819
   0.08691604  0.83079102  0.60769342
   0.08192510  0.58157050  0.60681745
   0.82797018  0.83357441  0.60620659
   0.33794419  0.83135363  0.60583948
   0.83124837  0.33826193  0.60588014
   0.82875700  0.08553055  0.60709598
   0.49724369  0.24969967  0.55970687
   0.50090857 -0.00187948  0.55543260
   0.16607045  0.41640131  0.46836634
   0.41468183  0.16610149  0.46869680
   0.75020553  0.75146537  0.56030739
   0.24927384  0.75273674  0.56216623
   0.16703273  0.91563086  0.46952530
   0.16675942  0.66834521  0.47123540
   0.16799835  0.16600842  0.47126913
   0.41201277  0.91924086  0.47023539
   0.66846348  0.41659603  0.46940921
   0.75242564  0.49645432  0.55938608
   0.49648677  0.75281406  0.55936753
   0.00112979  0.74866647  0.56493102
   0.92146410  0.91466175  0.47018606
   0.75071177 -0.00067711  0.56357470
   0.00105263 -0.00110752  0.56564899
   0.00094395  0.50196312  0.55934902
   0.24797669  0.49919838  0.56290500
   0.75134243  0.24982220  0.56355208
  -0.00146770  0.25110130  0.56233229
   0.91988140  0.41445307  0.47100197
   0.25082525 -0.00273890  0.56208493
   0.41286835  0.67053156  0.46948592
Direct configuration=     6
   0.08333333  0.08333333  0.38179910
   0.33333333  0.83333333  0.38179910
   0.33333333  0.58333333  0.38179910
   0.91988333  0.16573033  0.47023585
   0.66401955  0.91984269  0.47105738
   0.83333333  0.83333333  0.38179910
   0.08333333  0.33333333  0.38179910
   0.66411019  0.66455626  0.47273292
   0.83333333  0.58333333  0.38179910
   0.08333333  0.58333333  0.38179910
   0.92212196  0.66440377  0.47053077
   0.08333333  0.83333333  0.38179910
   0.83333333  0.33333333  0.38179910
   0.83333333  0.08333333  0.38179910
   0.58333333  0.83333333  0.38179910
   0.33333333  0.08333333  0.38179910
   0.50083133  0.50101865  0.55694101
   0.58333333  0.58333333  0.38179910
   0.41228148  0.41852114  0.47005821
   0.33333333  0.33333333  0.38179910
   0.58333333  0.33333333  0.38179910
   0.25079103  0.24889463  0.55861895
   0.58333333  0.08333333  0.38179910
   0.66629970  0.16661990  0.47210054
   0.33622054  0.33231442  0.60809952
   0.08544107  0.08459117  0.60779609
   0.08665790  0.83097420  0.60845050
   0.08202657  0.58169751  0.60763764
   0.82835660  0.83355704  0.60707080
   0.33761197  0.83149627  0.60673014
   0.83139859  0.33790682  0.60676787
   0.82908673  0.08537224  0.60789611
   0.49744228  0.24972131  0.55924489
   0.50084310 -0.00174406  0.55527859
   0.16611341  0.41642043  0.46830731
   0.41482485  0.16614221  0.46861396
   0.75019072  0.75135979  0.55980214
   0.24932616  0.75253955  0.56152704
   0.16700635  0.91570549  0.46938277
   0.16675274  0.66822427  0.47096965
   0.16790240  0.16605585  0.47100095
   0.41234809  0.91905539  0.47004170
   0.66833401  0.41660112  0.46927504
   0.75225086  0.49670979  0.55894721
   0.49673990  0.75261130  0.55892999
   0.00104839  0.74876256  0.56409263
   0.92111844  0.91480621  0.46999591
   0.75066048 -0.00062832  0.56283403
   0.00097679 -0.00102772  0.56475887
   0.00087593  0.50182168  0.55891282
   0.24812248  0.49925614  0.56221259
   0.75124570  0.24983501  0.56281304
  -0.00136195  0.25102195  0.56168114
   0.91964977  0.41461257  0.47075303
   0.25076579 -0.00254156  0.56145161
   0.41314203  0.67025309  0.46934622
Direct configuration=     7
   0.08333333  0.08333333  0.38179910
   0.33333333  0.83333333  0.38179910
   0.33333333  0.58333333  0.38179910
   0.92024519  0.16526288  0.47216877
   0.66552362  0.91852980  0.47233687
   0.83333333  0.83333333  0.38179910
   0.08333333  0.33333333  0.38179910
   0.66450062  0.66505605  0.47498138
   0.83333333  0.58333333  0.38179910
   0.08333333  0.58333333  0.38179910
   0.92125002  0.66530752  0.47215138
   0.08333333  0.83333333  0.38179910
   0.83333333  0.33333333  0.38179910
   0.83333333  0.08333333  0.38179910
   0.58333333  0.83333333  0.38179910
   0.33333333  0.08333333  0.38179910
   0.50053339  0.50107793  0.55794103
   0.58333333  0.58333333  0.38179910
   0.41187025  0.41891816  0.47169532
   0.33333333  0.33333333  0.38179910
   0.58333333  0.33333333  0.38179910
   0.24744722  0.24456773  0.55882928
   0.58333333  0.08333333  0.38179910
   0.66684869  0.16709234  0.47438041
   0.33954829  0.33081940  0.60767617
   0.08809445  0.08711878  0.60692530
   0.08869876  0.82870995  0.60761646
   0.08206156  0.57809286  0.60684077
   0.82333051  0.83352842  0.60655492
   0.34175210  0.82964098  0.60578556
   0.82979412  0.34207586  0.60596197
   0.82544272  0.08715731  0.60751213
   0.50128898  0.24788471  0.56014679
   0.50066471 -0.00163987  0.55642586
   0.16635238  0.41597358  0.46955449
   0.41406794  0.16688924  0.46959892
   0.74712578  0.74829789  0.56051561
   0.25230309  0.74645371  0.56224667
   0.16688189  0.91585940  0.47077195
   0.16695077  0.66871782  0.47275661
   0.16782108  0.16603577  0.47278297
   0.41145114  0.91916636  0.47113035
   0.66854881  0.41553522  0.47054707
   0.74985349  0.50201036  0.55965759
   0.50219897  0.74996761  0.55971350
   0.00197978  0.74894591  0.56462633
   0.92147159  0.91478897  0.47180131
   0.74414558  0.00314067  0.56352994
   0.00116441 -0.00153248  0.56513474
  -0.00183336  0.49973627  0.55967999
   0.25142135  0.50128563  0.56334885
   0.74480863  0.25224346  0.56350184
   0.00324474  0.25278387  0.56252409
   0.92045553  0.41428460  0.47232736
   0.25191128  0.00250362  0.56230952
   0.41228199  0.67060191  0.47059680
Direct configuration=     8
   0.08333333  0.08333333  0.38179910
   0.33333333  0.83333333  0.38179910
   0.33333333  0.58333333  0.38179910
   0.92043985  0.16501141  0.47320863
   0.66633277  0.91782350  0.47302521
   0.83333333  0.83333333  0.38179910
   0.08333333  0.33333333  0.38179910
   0.66471067  0.66532492  0.47619100
   0.83333333  0.58333333  0.38179910
   0.08333333  0.58333333  0.38179910
   0.92078094  0.66579371  0.47302323
   0.08333333  0.83333333  0.38179910
   0.83333333  0.33333333  0.38179910
   0.83333333  0.08333333  0.38179910
   0.58333333  0.83333333  0.38179910
   0.33333333  0.08333333  0.38179910
   0.50037311  0.50110982  0.55847901
   0.58333333  0.58333333  0.38179910
   0.41164902  0.41913174  0.47257605
   0.33333333  0.33333333  0.38179910
   0.58333333  0.33333333  0.38179910
   0.24564833  0.24223995  0.55894243
   0.58333333  0.08333333  0.38179910
   0.66714404  0.16734650  0.47560693
   0.34133855  0.33001512  0.60744842
   0.08952190  0.08847858  0.60645684
   0.08979670  0.82749183  0.60716777
   0.08208039  0.57615365  0.60641207
   0.82062659  0.83351302  0.60627738
   0.34397940  0.82864288  0.60527739
   0.82893095  0.34431870  0.60552842
   0.82348233  0.08811764  0.60730556
   0.50335841  0.24689666  0.56063199
   0.50056873 -0.00158382  0.55704306
   0.16648094  0.41573319  0.47022544
   0.41366075  0.16729112  0.47012880
   0.74547691  0.74665067  0.56089944
   0.25390461  0.74317967  0.56263381
   0.16681493  0.91594221  0.47151929
   0.16705731  0.66898334  0.47371795
   0.16777733  0.16602496  0.47374166
   0.41096860  0.91922606  0.47171602
   0.66866437  0.41496179  0.47123140
   0.74856376  0.50486194  0.56003976
   0.50513582  0.74854536  0.56013501
   0.00248085  0.74904455  0.56491345
   0.92166157  0.91477970  0.47277257
   0.74064072  0.00516829  0.56390432
   0.00126535 -0.00180403  0.56533694
  -0.00329090  0.49861437  0.56009271
   0.25319607  0.50237745  0.56396013
   0.74134564  0.25353914  0.56387240
   0.00572303  0.25373174  0.56297758
   0.92088901  0.41410816  0.47317431
   0.25252754  0.00521781  0.56277107
   0.41181931  0.67078957  0.47126958
Direct configuration=     9
   0.08333333  0.08333333  0.38179910
   0.33333333  0.83333333  0.38179910
   0.33333333  0.58333333  0.38179910
   0.92049230  0.16495852  0.47506094
   0.66704280  0.91752096  0.47383414
   0.83333333  0.83333333  0.38179910
   0.08333333  0.33333333  0.38179910
   0.66487764  0.66532368  0.47637164
   0.83333333  0.58333333  0.38179910
   0.08333333  0.58333333  0.38179910
   0.92048393  0.66624625  0.47436953
   0.08333333  0.83333333  0.38179910
   0.83333333  0.33333333  0.38179910
   0.83333333  0.08333333  0.38179910
   0.58333333  0.83333333  0.38179910
   0.33333333  0.08333333  0.38179910
   0.50133981  0.50122136  0.55971805
   0.58333333  0.58333333  0.38179910
   0.41167076  0.41904705  0.47367685
   0.33333333  0.33333333  0.38179910
   0.58333333  0.33333333  0.38179910
   0.24831070  0.24475171  0.56018963
   0.58333333  0.08333333  0.38179910
   0.66740717  0.16716861  0.47655028
   0.34363561  0.32770947  0.60719720
   0.09053365  0.09057665  0.60755777
   0.09238194  0.82586711  0.60828639
   0.08195967  0.57237874  0.60661012
   0.81624935  0.83349625  0.60640665
   0.34683133  0.82783187  0.60504554
   0.82794008  0.34684098  0.60529748
   0.82097211  0.08924901  0.60831317
   0.50297157  0.24630028  0.56162057
   0.50029449 -0.00134549  0.55840190
   0.16646138  0.41601241  0.47153338
   0.41409690  0.16753342  0.47105719
   0.74421046  0.74492973  0.56194375
   0.25850403  0.74077578  0.56302337
   0.16680323  0.91611193  0.47297572
   0.16677354  0.66902224  0.47485751
   0.16704590  0.16570784  0.47396679
   0.41098800  0.91893146  0.47266014
   0.66886054  0.41474052  0.47235430
   0.74623780  0.50783882  0.56078689
   0.50822527  0.74707064  0.56092956
  -0.00136871  0.74899738  0.56466633
   0.92143999  0.91510308  0.47437031
   0.73603914  0.00505323  0.56441051
   0.00099460 -0.00043290  0.56469961
  -0.00478127  0.49729271  0.56069441
   0.25638984  0.50007549  0.56502993
   0.73862538  0.25842893  0.56451045
   0.00186681  0.25848906  0.56353020
   0.92070271  0.41401060  0.47421667
   0.25818455  0.00101654  0.56314008
   0.41199844  0.67070457  0.47236332
Direct configuration=    10
   0.08333333  0.08333333  0.38179910
   0.33333333  0.83333333  0.38179910
   0.33333333  0.58333333  0.38179910
   0.92049656  0.16495423  0.47521130
   0.66710043  0.91749640  0.47389980
   0.83333333  0.83333333  0.38179910
   0.08333333  0.33333333  0.38179910
   0.66489119  0.66532358  0.47638630
   0.83333333  0.58333333  0.38179910
   0.08333333  0.58333333  0.38179910
   0.92045983  0.66628298  0.47447881
   0.08333333  0.83333333  0.38179910
   0.83333333  0.33333333  0.38179910
   0.83333333  0.08333333  0.38179910
   0.58333333  0.83333333  0.38179910
   0.33333333  0.08333333  0.38179910
   0.50141827  0.50123041  0.55981862
   0.58333333  0.58333333  0.38179910
   0.41167253  0.41904017  0.47376620
   0.33333333  0.33333333  0.38179910
   0.58333333  0.33333333  0.38179910
   0.24852681  0.24495559  0.56029087
   0.58333333  0.08333333  0.38179910
   0.66742852  0.16715417  0.47662685
   0.34382207  0.32752232  0.60717681
   0.09061578  0.09074695  0.60764713
   0.09259179  0.82573523  0.60837719
   0.08194987  0.57207234  0.60662619
   0.81589405  0.83349489  0.60641715
   0.34706282  0.82776603  0.60502672
   0.82785966  0.34704571  0.60527873
   0.82076835  0.08934084  0.60839495
   0.50294017  0.24625187  0.56170082
   0.50027223 -0.00132614  0.55851219
   0.16645980  0.41603508  0.47163954
   0.41413230  0.16755309  0.47113254
   0.74410766  0.74479004  0.56202852
   0.25887736  0.74058066  0.56305499
   0.16680228  0.91612570  0.47309394
   0.16675051  0.66902540  0.47495001
   0.16698653  0.16568210  0.47398506
   0.41098958  0.91890754  0.47273678
   0.66887646  0.41472256  0.47244544
   0.74604900  0.50808045  0.56084753
   0.50847604  0.74695094  0.56099405
  -0.00168118  0.74899355  0.56464627
   0.92142200  0.91512933  0.47450000
   0.73566563  0.00504389  0.56445160
   0.00097262 -0.00032160  0.56464788
  -0.00490224  0.49718544  0.56074325
   0.25664908  0.49988864  0.56511677
   0.73840458  0.25882584  0.56456224
   0.00155381  0.25887521  0.56357506
   0.92068759  0.41400268  0.47430128
   0.25864373  0.00067553  0.56317003
   0.41201298  0.67069767  0.47245210
Direct configuration=    11
   0.08333333  0.08333333  0.38179910
   0.33333333  0.83333333  0.38179910
   0.33333333  0.58333333  0.38179910
   0.92022373  0.16520093  0.47608438
   0.66666550  0.91783537  0.47414700
   0.83333333  0.83333333  0.38179910
   0.08333333  0.33333333  0.38179910
   0.66492222  0.66510066  0.47529245
   0.83333333  0.58333333  0.38179910
   0.08333333  0.58333333  0.38179910
   0.92066923  0.66605641  0.47491158
   0.08333333  0.83333333  0.38179910
   0.83333333  0.33333333  0.38179910
   0.83333333  0.08333333  0.38179910
   0.58333333  0.83333333  0.38179910
   0.33333333  0.08333333  0.38179910
   0.50217023  0.50137448  0.56100173
   0.58333333  0.58333333  0.38179910
   0.41201193  0.41893518  0.47409953
   0.33333333  0.33333333  0.38179910
   0.58333333  0.33333333  0.38179910
   0.24911470  0.24613861  0.56092416
   0.58333333  0.08333333  0.38179910
   0.66747017  0.16696444  0.47668090
   0.34435693  0.32636460  0.60872388
   0.09123034  0.09138919  0.60783594
   0.09337774  0.82495082  0.60826906
   0.08136960  0.57097023  0.60683506
   0.81385222  0.83379589  0.60728359
   0.34862245  0.82700474  0.60601458
   0.82673078  0.34836497  0.60626591
   0.81933226  0.09001949  0.60847838
   0.50434458  0.24529392  0.56191745
   0.50016433 -0.00151651  0.55955468
   0.16618090  0.41644024  0.47234056
   0.41476158  0.16715093  0.47160026
   0.74396715  0.74445678  0.56272065
   0.25865023  0.74183380  0.56371509
   0.16689194  0.91604353  0.47390027
   0.16656262  0.66880822  0.47552129
   0.16688767  0.16574990  0.47415234
   0.41169491  0.91872295  0.47315578
   0.66880080  0.41509719  0.47288063
   0.74466931  0.50876910  0.56133343
   0.50917144  0.74662888  0.56146809
  -0.00246933  0.74849517  0.56559416
   0.92112318  0.91550947  0.47529235
   0.73564402  0.00470680  0.56536553
   0.00121756  0.00035594  0.56542512
  -0.00464482  0.49730590  0.56126891
   0.25607281  0.49976924  0.56580309
   0.73939223  0.25911146  0.56549649
   0.00127069  0.25830214  0.56403162
   0.92006166  0.41423908  0.47445425
   0.25865810  0.00028313  0.56359363
   0.41263774  0.67029061  0.47287296
Direct configuration=    12
   0.08333333  0.08333333  0.38179910
   0.33333333  0.83333333  0.38179910
   0.33333333  0.58333333  0.38179910
   0.91989055  0.16550219  0.47715059
   0.66613436  0.91824931  0.47444888
   0.83333333  0.83333333  0.38179910
   0.08333333  0.33333333  0.38179910
   0.66496011  0.66482843  0.47395664
   0.83333333  0.58333333  0.38179910
   0.08333333  0.58333333  0.38179910
   0.92092494  0.66577973  0.47544007
   0.08333333  0.83333333  0.38179910
   0.83333333  0.33333333  0.38179910
   0.83333333  0.08333333  0.38179910
   0.58333333  0.83333333  0.38179910
   0.33333333  0.08333333  0.38179910
   0.50308851  0.50155042  0.56244653
   0.58333333  0.58333333  0.38179910
   0.41242641  0.41880697  0.47450658
   0.33333333  0.33333333  0.38179910
   0.58333333  0.33333333  0.38179910
   0.24983264  0.24758331  0.56169754
   0.58333333  0.08333333  0.38179910
   0.66752104  0.16673275  0.47674691
   0.34501010  0.32495080  0.61061316
   0.09198084  0.09217349  0.60806651
   0.09433754  0.82399289  0.60813702
   0.08066096  0.56962434  0.60709014
   0.81135875  0.83416347  0.60834169
   0.35052705  0.82607504  0.60722094
   0.82535220  0.34997604  0.60747144
   0.81757851  0.09084824  0.60858026
   0.50605963  0.24412408  0.56218201
   0.50003257 -0.00174897  0.56082776
   0.16584032  0.41693503  0.47319664
   0.41553006  0.16665981  0.47217144
   0.74379555  0.74404982  0.56356587
   0.25837287  0.74336412  0.56452120
   0.16700144  0.91594318  0.47488496
   0.16633317  0.66854299  0.47621894
   0.16676693  0.16583269  0.47435662
   0.41255627  0.91849752  0.47366747
   0.66870840  0.41555469  0.47341208
   0.74298443  0.50961008  0.56192681
   0.51002065  0.74623558  0.56204698
  -0.00343181  0.74788656  0.56675172
   0.92075826  0.91597370  0.47625997
   0.73561763  0.00429516  0.56648163
   0.00151668  0.00118335  0.56637427
  -0.00433046  0.49745301  0.56191083
   0.25536907  0.49962342  0.56664123
   0.74059834  0.25946027  0.56663739
   0.00092496  0.25760232  0.56458916
   0.91929727  0.41452777  0.47464106
   0.25867565 -0.00019607  0.56411093
   0.41340069  0.66979352  0.47338692
Direct configuration=    13
   0.08333333  0.08333333  0.38179910
   0.33333333  0.83333333  0.38179910
   0.33333333  0.58333333  0.38179910
   0.91959636  0.16571546  0.47759763
   0.66590099  0.91818808  0.47489573
   0.83333333  0.83333333  0.38179910
   0.08333333  0.33333333  0.38179910
   0.66517564  0.66491324  0.47355055
   0.83333333  0.58333333  0.38179910
   0.08333333  0.58333333  0.38179910
   0.92064848  0.66595930  0.47568019
   0.08333333  0.83333333  0.38179910
   0.83333333  0.33333333  0.38179910
   0.83333333  0.08333333  0.38179910
   0.58333333  0.83333333  0.38179910
   0.33333333  0.08333333  0.38179910
   0.50218583  0.50168970  0.56355786
   0.58333333  0.58333333  0.38179910
   0.41271786  0.41894612  0.47494712
   0.33333333  0.33333333  0.38179910
   0.58333333  0.33333333  0.38179910
   0.24972196  0.24719028  0.56218302
   0.58333333  0.08333333  0.38179910
   0.66786725  0.16676584  0.47686213
   0.34673507  0.32404690  0.61184755
   0.09289726  0.09196363  0.60869980
   0.09372054  0.82410393  0.60840924
   0.08059044  0.56953705  0.60816113
   0.81026682  0.83423096  0.60987163
   0.35176705  0.82574894  0.60851039
   0.82505118  0.35131552  0.60885829
   0.81731377  0.09094339  0.60926715
   0.50521922  0.24507538  0.56292181
   0.49995506 -0.00203713  0.56181980
   0.16585219  0.41692009  0.47359063
   0.41559526  0.16649818  0.47256412
   0.74352209  0.74375032  0.56373883
   0.25923300  0.74329163  0.56492696
   0.16718826  0.91574392  0.47536217
   0.16641905  0.66852341  0.47679627
   0.16708038  0.16614500  0.47478299
   0.41300907  0.91845633  0.47405930
   0.66847314  0.41559820  0.47378680
   0.74347852  0.50919135  0.56222359
   0.50956490  0.74661436  0.56230443
  -0.00395354  0.74803768  0.56790786
   0.92059478  0.91605546  0.47694908
   0.73582183  0.00376237  0.56702437
   0.00152365  0.00117148  0.56743657
  -0.00541064  0.49643765  0.56198723
   0.25618090  0.49885554  0.56751852
   0.74079443  0.25963742  0.56728071
   0.00090420  0.25829222  0.56493138
   0.91886518  0.41468999  0.47483000
   0.25843705  0.00047860  0.56455870
   0.41361895  0.66939774  0.47378833
Direct configuration=    14
   0.08333333  0.08333333  0.38179910
   0.33333333  0.83333333  0.38179910
   0.33333333  0.58333333  0.38179910
   0.91924883  0.16596740  0.47812570
   0.66562531  0.91811576  0.47542359
   0.83333333  0.83333333  0.38179910
   0.08333333  0.33333333  0.38179910
   0.66543025  0.66501342  0.47307085
   0.83333333  0.58333333  0.38179910
   0.08333333  0.58333333  0.38179910
   0.92032189  0.66617143  0.47596385
   0.08333333  0.83333333  0.38179910
   0.83333333  0.33333333  0.38179910
   0.83333333  0.08333333  0.38179910
   0.58333333  0.83333333  0.38179910
   0.33333333  0.08333333  0.38179910
   0.50111950  0.50185422  0.56487065
   0.58333333  0.58333333  0.38179910
   0.41306215  0.41911048  0.47546752
   0.33333333  0.33333333  0.38179910
   0.58333333  0.33333333  0.38179910
   0.24959123  0.24672599  0.56275651
   0.58333333  0.08333333  0.38179910
   0.66827623  0.16680494  0.47699824
   0.34877274  0.32297914  0.61330572
   0.09397981  0.09171573  0.60944789
   0.09299169  0.82423510  0.60873082
   0.08050714  0.56943393  0.60942627
   0.80897693  0.83431070  0.61167892
   0.35323185  0.82536373  0.61003361
   0.82469559  0.35289784  0.61049657
   0.81700105  0.09105579  0.61007857
   0.50422645  0.24619913  0.56379573
   0.49986350 -0.00237753  0.56299168
   0.16586620  0.41690245  0.47405603
   0.41567228  0.16630725  0.47302799
   0.74319906  0.74339653  0.56394315
   0.26024905  0.74320600  0.56540629
   0.16740896  0.91550854  0.47592588
   0.16652050  0.66850028  0.47747826
   0.16745064  0.16651391  0.47528666
   0.41354396  0.91840766  0.47452218
   0.66819524  0.41564959  0.47422945
   0.74406219  0.50869672  0.56257418
   0.50902652  0.74706181  0.56260856