  48  48   0   0
  0.5349325E+02  0.1100258E-08  0.1100258E-08  0.2449179E-08  0.3500000E-15
  1.000000000000000E-004
  CAR 
 unknown system                          
      6.32760905     -9.98156776  301     -1.06634134      1.00000000
     -9.982  0.0000E+00  0.0000E+00
     -9.927  0.0000E+00  0.0000E+00
     -9.873  0.0000E+00  0.0000E+00
     -9.818  0.0000E+00  0.0000E+00
     -9.764  0.0000E+00  0.0000E+00
     -9.710  0.0000E+00  0.0000E+00
     -9.655  0.0000E+00  0.0000E+00
     -9.601  0.0000E+00  0.0000E+00
     -9.547  0.8850E-17  0.4811E-18
     -9.492  0.3625E-14  0.1975E-15
     -9.438  0.8040E-12  0.4391E-13
     -9.384  0.1007E-09  0.5519E-11
     -9.329  0.7148E-08  0.3941E-09
     -9.275  0.2885E-06  0.1608E-07
     -9.220  0.6647E-05  0.3774E-06
     -9.166  0.8773E-04  0.5147E-05
     -9.112  0.6658E-03  0.4134E-04
     -9.057  0.2917E-02  0.1999E-03
     -9.003  0.7424E-02  0.6035E-03
     -8.949  0.1126E-01  0.1216E-02
     -8.894  0.1135E-01  0.1833E-02
     -8.840  0.1041E-01  0.2399E-02
     -8.786  0.1080E-01  0.2986E-02
     -8.731  0.9660E-02  0.3511E-02
     -8.677  0.5951E-02  0.3834E-02
     -8.622  0.2366E-02  0.3963E-02
     -8.568  0.6118E-03  0.3996E-02
     -8.514  0.2888E-03  0.4012E-02
     -8.459  0.9338E-03  0.4063E-02
     -8.405  0.2450E-02  0.4196E-02
     -8.351  0.3850E-02  0.4405E-02
     -8.296  0.4325E-02  0.4640E-02
     -8.242  0.5565E-02  0.4943E-02
     -8.188  0.8830E-02  0.5423E-02
     -8.133  0.1225E-01  0.6089E-02
     -8.079  0.1444E-01  0.6874E-02
     -8.024  0.1612E-01  0.7750E-02
     -7.970  0.1791E-01  0.8724E-02
     -7.916  0.1934E-01  0.9776E-02
     -7.861  0.1871E-01  0.1079E-01
     -7.807  0.1498E-01  0.1161E-01
     -7.753  0.1211E-01  0.1227E-01
     -7.698  0.1455E-01  0.1306E-01
     -7.644  0.1915E-01  0.1410E-01
     -7.590  0.1963E-01  0.1517E-01
     -7.535  0.1521E-01  0.1599E-01
     -7.481  0.1069E-01  0.1657E-01
     -7.426  0.1089E-01  0.1717E-01
     -7.372  0.1639E-01  0.1806E-01
     -7.318  0.2531E-01  0.1943E-01
     -7.263  0.3774E-01  0.2148E-01
     -7.209  0.5167E-01  0.2429E-01
     -7.155  0.6175E-01  0.2765E-01
     -7.100  0.6789E-01  0.3134E-01
     -7.046  0.7424E-01  0.3538E-01
     -6.992  0.7926E-01  0.3969E-01
     -6.937  0.7859E-01  0.4396E-01
     -6.883  0.7200E-01  0.4787E-01
     -6.828  0.6248E-01  0.5127E-01
     -6.774  0.5497E-01  0.5426E-01
     -6.720  0.5407E-01  0.5720E-01
     -6.665  0.5943E-01  0.6043E-01
     -6.611  0.6808E-01  0.6413E-01
     -6.557  0.7898E-01  0.6842E-01
     -6.502  0.9190E-01  0.7342E-01
     -6.448  0.1048E+00  0.7912E-01
     -6.394  0.1124E+00  0.8523E-01
     -6.339  0.1121E+00  0.9132E-01
     -6.285  0.1094E+00  0.9727E-01
     -6.230  0.1122E+00  0.1034E+00
     -6.176  0.1232E+00  0.1101E+00
     -6.122  0.1363E+00  0.1175E+00
     -6.067  0.1443E+00  0.1253E+00
     -6.013  0.1479E+00  0.1334E+00
     -5.959  0.1514E+00  0.1416E+00
     -5.904  0.1537E+00  0.1499E+00
     -5.850  0.1529E+00  0.1583E+00
     -5.796  0.1512E+00  0.1665E+00
     -5.741  0.1497E+00  0.1746E+00
     -5.687  0.1492E+00  0.1827E+00
     -5.632  0.1520E+00  0.1910E+00
     -5.578  0.1553E+00  0.1994E+00
     -5.524  0.1547E+00  0.2078E+00
     -5.469  0.1532E+00  0.2162E+00
     -5.415  0.1567E+00  0.2247E+00
     -5.361  0.1604E+00  0.2334E+00
     -5.306  0.1563E+00  0.2419E+00
     -5.252  0.1496E+00  0.2500E+00
     -5.198  0.1484E+00  0.2581E+00
     -5.143  0.1530E+00  0.2664E+00
     -5.089  0.1623E+00  0.2753E+00
     -5.034  0.1743E+00  0.2847E+00
     -4.980  0.1840E+00  0.2947E+00
     -4.926  0.1881E+00  0.3050E+00
     -4.871  0.1882E+00  0.3152E+00
     -4.817  0.1834E+00  0.3251E+00
     -4.763  0.1715E+00  0.3345E+00
     -4.708  0.1603E+00  0.3432E+00
     -4.654  0.1582E+00  0.3518E+00
     -4.600  0.1632E+00  0.3607E+00
     -4.545  0.1698E+00  0.3699E+00
     -4.491  0.1754E+00  0.3794E+00
     -4.436  0.1791E+00  0.3892E+00
     -4.382  0.1780E+00  0.3988E+00
     -4.328  0.1718E+00  0.4082E+00
     -4.273  0.1671E+00  0.4173E+00
     -4.219  0.1670E+00  0.4263E+00
     -4.165  0.1697E+00  0.4356E+00
     -4.110  0.1721E+00  0.4449E+00
     -4.056  0.1714E+00  0.4542E+00
     -4.002  0.1698E+00  0.4635E+00
     -3.947  0.1731E+00  0.4729E+00
     -3.893  0.1832E+00  0.4828E+00
     -3.838  0.1958E+00  0.4935E+00
     -3.784  0.2060E+00  0.5047E+00
     -3.730  0.2139E+00  0.5163E+00
     -3.675  0.2223E+00  0.5284E+00
     -3.621  0.2276E+00  0.5408E+00
     -3.567  0.2254E+00  0.5530E+00
     -3.512  0.2203E+00  0.5650E+00
     -3.458  0.2178E+00  0.5768E+00
     -3.404  0.2132E+00  0.5884E+00
     -3.349  0.2034E+00  0.5995E+00
     -3.295  0.1923E+00  0.6099E+00
     -3.240  0.1830E+00  0.6199E+00
     -3.186  0.1776E+00  0.6295E+00
     -3.132  0.1783E+00  0.6392E+00
     -3.077  0.1811E+00  0.6491E+00
     -3.023  0.1817E+00  0.6590E+00
     -2.969  0.1828E+00  0.6689E+00
     -2.914  0.1849E+00  0.6790E+00
     -2.860  0.1843E+00  0.6890E+00
     -2.806  0.1823E+00  0.6989E+00
     -2.751  0.1818E+00  0.7088E+00
     -2.697  0.1808E+00  0.7186E+00
     -2.642  0.1787E+00  0.7283E+00
     -2.588  0.1804E+00  0.7381E+00
     -2.534  0.1873E+00  0.7483E+00
     -2.479  0.1930E+00  0.7588E+00
     -2.425  0.1908E+00  0.7692E+00
     -2.371  0.1812E+00  0.7790E+00
     -2.316  0.1708E+00  0.7883E+00
     -2.262  0.1642E+00  0.7972E+00
     -2.208  0.1620E+00  0.8060E+00
     -2.153  0.1627E+00  0.8149E+00
     -2.099  0.1637E+00  0.8238E+00
     -2.044  0.1633E+00  0.8327E+00
     -1.990  0.1663E+00  0.8417E+00
     -1.936  0.1771E+00  0.8513E+00
     -1.881  0.1910E+00  0.8617E+00
     -1.827  0.2030E+00  0.8727E+00
     -1.773  0.2130E+00  0.8843E+00
     -1.718  0.2196E+00  0.8963E+00
     -1.664  0.2212E+00  0.9083E+00
     -1.610  0.2174E+00  0.9201E+00
     -1.555  0.2077E+00  0.9314E+00
     -1.501  0.1970E+00  0.9421E+00
     -1.446  0.1890E+00  0.9524E+00
     -1.392  0.1806E+00  0.9622E+00
     -1.338  0.1713E+00  0.9715E+00
     -1.283  0.1627E+00  0.9804E+00
     -1.229  0.1529E+00  0.9887E+00
     -1.175  0.1396E+00  0.9963E+00
     -1.120  0.1206E+00  0.1003E+01
     -1.066  0.9596E-01  0.1008E+01
     -1.012  0.7007E-01  0.1012E+01
     -0.957  0.5011E-01  0.1015E+01
     -0.903  0.4081E-01  0.1017E+01
     -0.848  0.3826E-01  0.1019E+01
     -0.794  0.3496E-01  0.1021E+01
     -0.740  0.3130E-01  0.1022E+01
     -0.685  0.3170E-01  0.1024E+01
     -0.631  0.3607E-01  0.1026E+01
     -0.577  0.4014E-01  0.1028E+01
     -0.522  0.4110E-01  0.1031E+01
     -0.468  0.4108E-01  0.1033E+01
     -0.414  0.4211E-01  0.1035E+01
     -0.359  0.4261E-01  0.1037E+01
     -0.305  0.3976E-01  0.1040E+01
     -0.250  0.3355E-01  0.1041E+01
     -0.196  0.2722E-01  0.1043E+01
     -0.142  0.2251E-01  0.1044E+01
     -0.087  0.1976E-01  0.1045E+01
     -0.033  0.1785E-01  0.1046E+01
      0.021  0.1631E-01  0.1047E+01
      0.076  0.1773E-01  0.1048E+01
      0.130  0.2334E-01  0.1049E+01
      0.184  0.2985E-01  0.1051E+01
      0.239  0.3216E-01  0.1053E+01
      0.293  0.3116E-01  0.1054E+01
      0.348  0.3301E-01  0.1056E+01
      0.402  0.3981E-01  0.1058E+01
      0.456  0.4884E-01  0.1061E+01
      0.511  0.5566E-01  0.1064E+01
      0.565  0.5757E-01  0.1067E+01
      0.619  0.5518E-01  0.1070E+01
      0.674  0.4915E-01  0.1073E+01
      0.728  0.4136E-01  0.1075E+01
      0.782  0.3551E-01  0.1077E+01
      0.837  0.3117E-01  0.1079E+01
      0.891  0.2558E-01  0.1080E+01
      0.946  0.2027E-01  0.1081E+01
      1.000  0.1798E-01  0.1082E+01
      1.054  0.1757E-01  0.1083E+01
      1.109  0.1538E-01  0.1084E+01
      1.163  0.1135E-01  0.1085E+01
      1.217  0.9905E-02  0.1085E+01
      1.272  0.1262E-01  0.1086E+01
      1.326  0.1553E-01  0.1087E+01
      1.380  0.1580E-01  0.1087E+01
      1.435  0.1752E-01  0.1088E+01
      1.489  0.2575E-01  0.1090E+01
      1.544  0.3470E-01  0.1092E+01
      1.598  0.3515E-01  0.1094E+01
      1.652  0.3108E-01  0.1095E+01
      1.707  0.3211E-01  0.1097E+01
      1.761  0.3827E-01  0.1099E+01
      1.815  0.3992E-01  0.1101E+01
      1.870  0.3139E-01  0.1103E+01
      1.924  0.2088E-01  0.1104E+01
      1.978  0.1860E-01  0.1105E+01
      2.033  0.2382E-01  0.1106E+01
      2.087  0.3052E-01  0.1108E+01
      2.142  0.3487E-01  0.1110E+01
      2.196  0.3764E-01  0.1112E+01
      2.250  0.4152E-01  0.1114E+01
      2.305  0.4397E-01  0.1117E+01
      2.359  0.4248E-01  0.1119E+01
      2.413  0.3963E-01  0.1121E+01
      2.468  0.3673E-01  0.1123E+01
      2.522  0.3560E-01  0.1125E+01
      2.576  0.3880E-01  0.1127E+01
      2.631  0.4345E-01  0.1130E+01
      2.685  0.4531E-01  0.1132E+01
      2.740  0.4239E-01  0.1134E+01
      2.794  0.3381E-01  0.1136E+01
      2.848  0.2131E-01  0.1137E+01
      2.903  0.1056E-01  0.1138E+01
      2.957  0.6909E-02  0.1138E+01
      3.011  0.9625E-02  0.1139E+01
      3.066  0.1330E-01  0.1140E+01
      3.120  0.1628E-01  0.1140E+01
      3.175  0.2119E-01  0.1142E+01
      3.229  0.2573E-01  0.1143E+01
      3.283  0.2629E-01  0.1144E+01
      3.338  0.2459E-01  0.1146E+01
      3.392  0.2244E-01  0.1147E+01
      3.446  0.2092E-01  0.1148E+01
      3.501  0.2382E-01  0.1149E+01
      3.555  0.3207E-01  0.1151E+01
      3.609  0.3939E-01  0.1153E+01
      3.664  0.4056E-01  0.1155E+01
      3.718  0.3810E-01  0.1158E+01
      3.773  0.3580E-01  0.1159E+01
      3.827  0.3121E-01  0.1161E+01
      3.881  0.2343E-01  0.1162E+01
      3.936  0.1997E-01  0.1164E+01
      3.990  0.2312E-01  0.1165E+01
      4.044  0.2542E-01  0.1166E+01
      4.099  0.2485E-01  0.1168E+01
      4.153  0.2541E-01  0.1169E+01
      4.207  0.2592E-01  0.1170E+01
      4.262  0.2330E-01  0.1172E+01
      4.316  0.2097E-01  0.1173E+01
      4.371  0.2591E-01  0.1174E+01
      4.425  0.3694E-01  0.1176E+01
      4.479  0.4470E-01  0.1179E+01
      4.534  0.4772E-01  0.1181E+01
      4.588  0.5321E-01  0.1184E+01
      4.642  0.5912E-01  0.1187E+01
      4.697  0.5537E-01  0.1190E+01
      4.751  0.4369E-01  0.1193E+01
      4.805  0.3560E-01  0.1195E+01
      4.860  0.3636E-01  0.1197E+01
      4.914  0.4326E-01  0.1199E+01
      4.969  0.5353E-01  0.1202E+01
      5.023  0.6679E-01  0.1205E+01
      5.077  0.7611E-01  0.1210E+01
      5.132  0.7218E-01  0.1214E+01
      5.186  0.5970E-01  0.1217E+01
      5.240  0.4881E-01  0.1219E+01
      5.295  0.3937E-01  0.1222E+01
      5.349  0.2678E-01  0.1223E+01
      5.403  0.1313E-01  0.1224E+01
      5.458  0.4203E-02  0.1224E+01
      5.512  0.8339E-03  0.1224E+01
      5.567  0.9965E-04  0.1224E+01
      5.621  0.7054E-05  0.1224E+01
      5.675  0.2925E-06  0.1224E+01
      5.730  0.7038E-08  0.1224E+01
      5.784  0.9747E-10  0.1224E+01
      5.838  0.7716E-12  0.1224E+01
      5.893  0.3470E-14  0.1224E+01
      5.947  0.8169E-17  0.1224E+01
      6.001  0.0000E+00  0.1224E+01
      6.056  0.0000E+00  0.1224E+01
      6.110  0.0000E+00  0.1224E+01
      6.165  0.0000E+00  0.1224E+01
      6.219  0.0000E+00  0.1224E+01
      6.273  0.0000E+00  0.1224E+01
      6.328  0.0000E+00  0.1224E+01
