 vasp.5.4.1 24Jun15 (build Mar 14 2019 10:18:33) complex                        
  
 executed on INTEL-19.0.2+OPENMPI date 2022.07.15  18:44:25
 running on   36 total cores
 distrk:  each k-point on   36 cores,    1 groups
 distr:  one band on NCORES_PER_BAND=   6 cores,    6 groups


--------------------------------------------------------------------------------------------------------


 INCAR:
 POTCAR:    PAW_PBE Au 04Oct2007                  
 POTCAR:    PAW_PBE Pd 04Jan2005                  
 POTCAR:    PAW_PBE Au 04Oct2007                  
  local pseudopotential read in
  partial core-charges read in
  partial kinetic energy density read in
  atomic valenz-charges read in
  non local Contribution for L=           2  read in
    real space projection operators read in
  non local Contribution for L=           2  read in
    real space projection operators read in
  non local Contribution for L=           0  read in
    real space projection operators read in
  non local Contribution for L=           0  read in
    real space projection operators read in
  non local Contribution for L=           1  read in
    real space projection operators read in
  non local Contribution for L=           1  read in
    real space projection operators read in
    PAW grid and wavefunctions read in
 
   number of l-projection  operators is LMAX  =           6
   number of lm-projection operators is LMMAX =          18
 
 POTCAR:    PAW_PBE Pd 04Jan2005                  
  local pseudopotential read in
  partial core-charges read in
  partial kinetic energy density read in
  atomic valenz-charges read in
  non local Contribution for L=           2  read in
    real space projection operators read in
  non local Contribution for L=           2  read in
    real space projection operators read in
  non local Contribution for L=           0  read in
    real space projection operators read in
  non local Contribution for L=           0  read in
    real space projection operators read in
  non local Contribution for L=           1  read in
    real space projection operators read in
  non local Contribution for L=           1  read in
    real space projection operators read in
    PAW grid and wavefunctions read in
 
   number of l-projection  operators is LMAX  =           6
   number of lm-projection operators is LMMAX =          18
 
 Optimization of the real space projectors (new method)

 maximal supplied QI-value         = 15.12
 optimisation between [QCUT,QGAM] = [ 10.13, 20.41] = [ 28.73,116.64] Ry 
 Optimized for a Real-space Cutoff    1.51 Angstroem

   l    n(q)    QCUT    max X(q) W(low)/X(q) W(high)/X(q)  e(spline) 
   2      8    10.129    60.898    0.46E-03    0.46E-03    0.14E-06
   2      8    10.129    58.894    0.47E-03    0.47E-03    0.14E-06
   0      9    10.129   109.617    0.16E-03    0.11E-03    0.54E-07
   0      9    10.129    75.026    0.15E-03    0.11E-03    0.52E-07
   1      9    10.129    16.344    0.96E-04    0.15E-03    0.14E-06
   1      9    10.129    10.160    0.81E-04    0.12E-03    0.11E-06
 Optimization of the real space projectors (new method)

 maximal supplied QI-value         = 14.36
 optimisation between [QCUT,QGAM] = [ 10.20, 20.39] = [ 29.12,116.47] Ry 
 Optimized for a Real-space Cutoff    1.51 Angstroem

   l    n(q)    QCUT    max X(q) W(low)/X(q) W(high)/X(q)  e(spline) 
   2      8    10.197    59.108    0.26E-03    0.14E-03    0.96E-07
   2      8    10.197    58.101    0.27E-03    0.14E-03    0.98E-07
   0      9    10.197   102.235    0.54E-04    0.60E-05    0.72E-07
   0      9    10.197    58.388    0.52E-04    0.60E-05    0.68E-07
   1      9    10.197    22.191    0.18E-03    0.25E-03    0.79E-07
   1      9    10.197    15.590    0.15E-03    0.21E-03    0.69E-07
  PAW_PBE Au 04Oct2007                  :
 energy of atom  1       EATOM= -926.0867
 kinetic energy error for atom=    0.0062 (will be added to EATOM!!)
  PAW_PBE Pd 04Jan2005                  :
 energy of atom  2       EATOM= -809.7530
 kinetic energy error for atom=    0.0091 (will be added to EATOM!!)
 
 
 POSCAR: Au Pd                                   
  positions in cartesian coordinates
  No initial velocities read in
 exchange correlation table for  LEXCH =        8
   RHO(1)=    0.500       N(1)  =     2000
   RHO(2)=  100.500       N(2)  =     4000

 VTST: version 3.2, (02/03/18)

 CHAIN: initializing optimizer
 
 OPT: Using VASP Conjugate-Gradient optimizer
 CHAIN: Read ICHAIN            0
 
 POSCAR: Au Pd                                   
  positions in cartesian coordinates
  No initial velocities read in
 


--------------------------------------------------------------------------------------------------------


 ion  position               nearest neighbor table
   1  0.083  0.083  0.408-  19 2.75  15 2.75   8 2.75  23 2.75  45 2.75  40 2.75   9 2.75   7 2.75
                            16 2.75
   2  0.500  0.250  0.592-  47 2.75  27 2.75  31 2.75  35 2.75  37 2.75  30 2.75  38 2.75  25 2.75
                            36 2.75
   3  0.583  0.833  0.408-   6 2.75   5 2.75  12 2.75  26 2.75  40 2.75   8 2.75  17 2.75  18 2.75
                             4 2.75
   4  0.417  0.917  0.500-   8 2.75  28 2.75  13 2.75  19 2.75  24 2.75  18 2.75  36 2.75   7 2.75
                             6 2.75  40 2.75   3 2.75  35 2.75
   5  0.583  0.083  0.408-  27 2.75  14 2.75  17 2.75   3 2.75  34 2.75   9 2.75  40 2.75   6 2.75
                            36 2.75
   6  0.667  0.917  0.500-   3 2.75  48 2.75  35 2.75  18 2.75  36 2.75  42 2.75  27 2.75  22 2.75
                             4 2.75   5 2.75  17 2.75  30 2.75
   7  0.167  0.917  0.500-  23 2.75  33 2.75  46 2.75  10 2.75  24 2.75  16 2.75  19 2.75   4 2.75
                            22 2.75   1 2.75  13 2.75   8 2.75
   8  0.333  0.833  0.408-   4 2.75   1 2.75  11 2.75  12 2.75  40 2.75  23 2.75   3 2.75  24 2.75
                             7 2.75
   9  0.833  0.083  0.408-  16 2.75  15 2.75  17 2.75  23 2.75  34 2.75   5 2.75   1 2.75  22 2.75
                            27 2.75
  10  0.167  0.667  0.500-  21 2.75  37 2.75  41 2.75   7 2.75  39 2.75  22 2.75  47 2.75  42 2.75
                            24 2.75  23 2.75  33 2.75  11 2.75
  11  0.333  0.583  0.408-  24 2.75  14 2.75  23 2.75   8 2.75  34 2.75  21 2.75  12 2.75  47 2.75
                            10 2.75
  12  0.583  0.583  0.408-  18 2.75   8 2.75  15 2.75   3 2.75  34 2.75  26 2.75  11 2.75  32 2.75
                            24 2.75
  13  0.250  0.000  0.592-  19 2.75   4 2.75  28 2.75  33 2.75  38 2.75  43 2.75  35 2.75  46 2.75
                             7 2.75
  14  0.333  0.333  0.408-  47 2.75  11 2.75  21 2.75  40 2.75   5 2.75  45 2.75  34 2.75  36 2.75
                            39 2.75
  15  0.833  0.333  0.408-  44 2.75   9 2.75  12 2.75  26 2.75   1 2.75  34 2.75  45 2.75  16 2.75
                            32 2.75
  16  0.917  0.167  0.500-   9 2.75  46 2.75  25 2.75   7 2.75  32 2.75  44 2.75  22 2.75  27 2.75
                            19 2.75  15 2.75   1 2.75  43 2.75
  17  0.833  0.833  0.408-  22 2.75   9 2.75  21 2.75   5 2.75  26 2.75  23 2.75   3 2.75  42 2.75
                             6 2.75
  18  0.667  0.667  0.500-  12 2.75  29 2.75  28 2.75   6 2.75   4 2.75  32 2.75  44 2.75  42 2.75
                            24 2.75   3 2.75  26 2.75  48 2.75
  19  0.167  0.167  0.500-   1 2.75  13 2.75  43 2.75   4 2.75  39 2.75   7 2.75  44 2.75  36 2.75
                            16 2.75  45 2.75  40 2.75  38 2.75
  20  0.000  0.500  0.592-  42 2.75  39 2.75  41 2.75  38 2.75  43 2.75  48 2.75  29 2.75  37 2.75
                            44 2.75
  21  0.083  0.583  0.408-  10 2.75  14 2.75  17 2.75  23 2.75  45 2.75  26 2.75  11 2.75  39 2.75
                            42 2.75
  22  0.917  0.917  0.500-  17 2.75  41 2.75  30 2.75  27 2.75  16 2.75  10 2.75  42 2.75   7 2.75
                             6 2.75   9 2.75  23 2.75  46 2.75
  23  0.083  0.833  0.408-   7 2.75   1 2.75   9 2.75  11 2.75  21 2.75  17 2.75   8 2.75  10 2.75
                            22 2.75
  24  0.417  0.667  0.500-  11 2.75  31 2.75  33 2.75   7 2.75  32 2.75   4 2.75  47 2.75  10 2.75
                            18 2.75   8 2.75  12 2.75  28 2.75
  25  0.750  0.250  0.592-  32 2.75  16 2.75  30 2.75  31 2.75  29 2.75  46 2.75  43 2.75   2 2.75
                            27 2.75
  26  0.833  0.583  0.408-  42 2.75  15 2.75  17 2.75   3 2.75  45 2.75  12 2.75  21 2.75  44 2.75
                            18 2.75
  27  0.667  0.167  0.500-   5 2.75  30 2.75   2 2.75  22 2.75   6 2.75  32 2.75  47 2.75  36 2.75
                            16 2.75  34 2.75  25 2.75   9 2.75
  28  0.500  0.750  0.592-   4 2.75  18 2.75  13 2.75  29 2.75  31 2.75  35 2.75  33 2.75  48 2.75
                            24 2.75
  29  0.750  0.500  0.592-  18 2.75  44 2.75  28 2.75  43 2.75  25 2.75  48 2.75  31 2.75  20 2.75
                            32 2.75
  30  0.750  0.000  0.592-  27 2.75  22 2.75  25 2.75   2 2.75  41 2.75  48 2.75  46 2.75  35 2.75
                             6 2.75
  31  0.500  0.500  0.592-  24 2.75  32 2.75  25 2.75  28 2.75   2 2.75  33 2.75  29 2.75  37 2.75
                            47 2.75
  32  0.667  0.417  0.500-  34 2.75  25 2.75  31 2.75  16 2.75  27 2.75  18 2.75  24 2.75  44 2.75
                            47 2.75  12 2.75  15 2.75  29 2.75
  33  0.250  0.750  0.592-   7 2.75  24 2.75  13 2.75  31 2.75  37 2.75  46 2.75  41 2.75  28 2.75
                            10 2.75
  34  0.583  0.333  0.408-  32 2.75   9 2.75  11 2.75  12 2.75   5 2.75  15 2.75  14 2.75  27 2.75
                            47 2.75
  35  0.500  0.000  0.592-  36 2.75   6 2.75  28 2.75   2 2.75  38 2.75  48 2.75  30 2.75  13 2.75
                             4 2.75
  36  0.417  0.167  0.500-  40 2.75  35 2.75  38 2.75   6 2.75  39 2.75   4 2.75  47 2.75  27 2.75
                            19 2.75  14 2.75   5 2.75   2 2.75
  37  0.250  0.500  0.592-  10 2.75  47 2.75  33 2.75  38 2.75  41 2.75   2 2.75  20 2.75  31 2.75
                            39 2.75
  38  0.250  0.250  0.592-  39 2.75  36 2.75  35 2.75  13 2.75  37 2.75  20 2.75   2 2.75  43 2.75
                            19 2.75
  39  0.167  0.417  0.500-  45 2.75  38 2.75  20 2.75  36 2.75  19 2.75  42 2.75  10 2.75  44 2.75
                            47 2.75  21 2.75  37 2.75  14 2.75
  40  0.333  0.083  0.408-  36 2.75   8 2.75  14 2.75   3 2.75  45 2.75   1 2.75   5 2.75   4 2.75
                            19 2.75
  41  0.000  0.750  0.592-  22 2.75  10 2.75  20 2.75  30 2.75  37 2.75  46 2.75  33 2.75  48 2.75
                            42 2.75
  42  0.917  0.667  0.500-  26 2.75  20 2.75  48 2.75   6 2.75  39 2.75  44 2.75  22 2.75  10 2.75
                            18 2.75  17 2.75  21 2.75  41 2.75
  43  0.000  0.250  0.592-  44 2.75  19 2.75  20 2.75  29 2.75  13 2.75  46 2.75  25 2.75  38 2.75
                            16 2.75
  44  0.917  0.417  0.500-  15 2.75  43 2.75  29 2.75  19 2.75  16 2.75  42 2.75  18 2.75  32 2.75
                            39 2.75  26 2.75  20 2.75  45 2.75
  45  0.083  0.333  0.408-  39 2.75  21 2.75  26 2.75   1 2.75  40 2.75  14 2.75  15 2.75  19 2.75
                            44 2.75
  46  0.000  0.000  0.592-  16 2.75   7 2.75  25 2.75  33 2.75  41 2.75  43 2.75  30 2.75  13 2.75
                            22 2.75
  47  0.417  0.417  0.500-  14 2.75   2 2.75  37 2.75  24 2.75  27 2.75  36 2.75  10 2.75  32 2.75
                            39 2.75  11 2.75  34 2.75  31 2.75
  48  0.750  0.750  0.592-   6 2.75  42 2.75  29 2.75  30 2.75  35 2.75  20 2.75  41 2.75  28 2.75
                            18 2.75
 
  LATTYP: Found a hexagonal cell.
 ALAT       =    11.0025815153
 C/A-ratio  =     2.2260035120
  
  Lattice vectors:
  
 A1 = (   5.5012907576,  -9.5285150994,   0.0000000000)
 A2 = ( -11.0025815153,   0.0000000000,   0.0000000000)
 A3 = (   0.0000000000,   0.0000000000, -24.4917850943)


Analysis of symmetry for initial positions (statically):
=====================================================================
 Subroutine PRICEL returns:
 Original cell was already a primitive cell.
 

 Routine SETGRP: Setting up the symmetry group for a 
 hexagonal supercell.


 Subroutine GETGRP returns: Found  1 space group operations
 (whereof  1 operations were pure point group operations)
 out of a pool of 24 trial point group operations.


The static configuration has the point symmetry C_1 .


Analysis of symmetry for dynamics (positions and initial velocities):
=====================================================================
 Subroutine PRICEL returns:
 Original cell was already a primitive cell.
 

 Routine SETGRP: Setting up the symmetry group for a 
 hexagonal supercell.


 Subroutine GETGRP returns: Found  1 space group operations
 (whereof  1 operations were pure point group operations)
 out of a pool of 24 trial point group operations.


The dynamic configuration has the point symmetry C_1 .
 
 
 KPOINTS: Automatic mesh                          

Automatic generation of k-mesh.
Space group operators:
 irot       det(A)        alpha          n_x          n_y          n_z        tau_x        tau_y        tau_z
    1     1.000000     0.000000     1.000000     0.000000     0.000000     0.000000     0.000000     0.000000
 
 Subroutine IBZKPT returns following result:
 ===========================================
 
 Found      6 irreducible k-points:
 
 Following reciprocal coordinates:
            Coordinates               Weight
  0.250000  0.250000  0.000000     16.000000
  0.000000  0.250000  0.000000     16.000000
 -0.250000  0.000000  0.000000     16.000000
 -0.250000  0.250000  0.000000     16.000000
  0.500000 -0.250000  0.000000     16.000000
 -0.250000  0.500000  0.000000     16.000000
 
 Following cartesian coordinates:
            Coordinates               Weight
  0.022722  0.013119  0.000000     16.000000
  0.000000  0.026237  0.000000     16.000000
 -0.022722  0.013119  0.000000     16.000000
 -0.022722  0.039356  0.000000     16.000000
  0.045444 -0.052474  0.000000     16.000000
 -0.022722  0.065593  0.000000     16.000000
 


--------------------------------------------------------------------------------------------------------




 Dimension of arrays:
   k-points           NKPTS =      6   k-points in BZ     NKDIM =      6   number of bands    NBANDS=    306
   number of dos      NEDOS =    301   number of ions     NIONS =     48
   non local maximal  LDIM  =      6   non local SUM 2l+1 LMDIM =     18
   total plane-waves  NPLWV = 349920
   max r-space proj   IRMAX =   2009   max aug-charges    IRDMAX=   8532
   dimension x,y,z NGX =    54 NGY =   54 NGZ =  120
   dimension x,y,z NGXF=   108 NGYF=  108 NGZF=  240
   support grid    NGXF=   108 NGYF=  108 NGZF=  240
   ions per type =              24  24
 NGX,Y,Z   is equivalent  to a cutoff of   8.16,  8.16,  8.15 a.u.
 NGXF,Y,Z  is equivalent  to a cutoff of  16.32, 16.32, 16.29 a.u.


 I would recommend the setting:
   dimension x,y,z NGX =    54 NGY =   54 NGZ =  120
 SYSTEM =  unknown system                          
 POSCAR =  Au Pd                                   

 Startparameter for this run:
   NWRITE =      1    write-flag & timer
   PREC   = normal    normal or accurate (medium, high low for compatibility)
   ISTART =      0    job   : 0-new  1-cont  2-samecut
   ICHARG =      2    charge: 1-file 2-atom 10-const
   ISPIN  =      1    spin polarized calculation?
   LNONCOLLINEAR =      F non collinear calculations
   LSORBIT =      F    spin-orbit coupling
   INIWAV =      1    electr: 0-lowe 1-rand  2-diag
   LASPH  =      F    aspherical Exc in radial PAW
   METAGGA=      F    non-selfconsistent MetaGGA calc.

 Electronic Relaxation 1
   ENCUT  =  400.0 eV  29.40 Ry    5.42 a.u.  17.94 17.94 39.94*2*pi/ulx,y,z
   ENINI  =  400.0     initial cutoff
   ENAUG  =  416.2 eV  augmentation charge cutoff
   NELM   =    500;   NELMIN=  2; NELMDL= -5     # of ELM steps 
   EDIFF  = 0.1E-05   stopping-criterion for ELM
   LREAL  =      T    real-space projection
   NLSPLINE    = F    spline interpolate recip. space projectors
   LCOMPAT=      F    compatible to vasp.4.4
   GGA_COMPAT  = T    GGA compatible to vasp.4.4-vasp.4.6
   LMAXPAW     = -100 max onsite density
   LMAXMIX     =    2 max onsite mixed and CHGCAR
   VOSKOWN=      1    Vosko Wilk Nusair interpolation
   ROPT   =   -0.00050  -0.00050
 Ionic relaxation
   EDIFFG = -.2E-01   stopping-criterion for IOM
   NSW    =    500    number of steps for IOM
   NBLOCK =      1;   KBLOCK =    500    inner block; outer block 
   IBRION =      2    ionic relax: 0-MD 1-quasi-New 2-CG
   NFREE  =      2    steps in history (QN), initial steepest desc. (CG)
   ISIF   =      0    stress and relaxation
   IWAVPR =     11    prediction:  0-non 1-charg 2-wave 3-comb
   ISYM   =      2    0-nonsym 1-usesym 2-fastsym
   LCORR  =      T    Harris-Foulkes like correction to forces

   POTIM  = 0.3500    time-step for ionic-motion
   TEIN   =    0.0    initial temperature
   TEBEG  =    0.0;   TEEND  =   0.0 temperature during run
   SMASS  =  -3.00    Nose mass-parameter (am)
   estimated Nose-frequenzy (Omega)   =  0.10E-29 period in steps =****** mass=  -0.277E-26a.u.
   SCALEE = 1.0000    scale energy and forces
   NPACO  =    256;   APACO  = 16.0  distance and # of slots for P.C.
   PSTRESS=    0.0 pullay stress

  Mass of Ions in am
   POMASS = 196.97106.42
  Ionic Valenz
   ZVAL   =  11.00 10.00
  Atomic Wigner-Seitz radii
   RWIGS  =  -1.00 -1.00
  virtual crystal weights 
   VCA    =   1.00  1.00
   NELECT =     504.0000    total number of electrons
   NUPDOWN=      -1.0000    fix difference up-down

 DOS related values:
   EMIN   =  10.00;   EMAX   =-10.00  energy-range for DOS
   EFERMI =   0.00
   ISMEAR =     0;   SIGMA  =   0.10  broadening in eV -4-tet -1-fermi 0-gaus

 Electronic relaxation 2 (details)
   IALGO  =     68    algorithm
   LDIAG  =      T    sub-space diagonalisation (order eigenvalues)
   LSUBROT=      F    optimize rotation matrix (better conditioning)
   TURBO    =      0    0=normal 1=particle mesh
   IRESTART =      0    0=no restart 2=restart with 2 vectors
   NREBOOT  =      0    no. of reboots
   NMIN     =      0    reboot dimension
   EREF     =   0.00    reference energy to select bands
   IMIX   =      4    mixing-type and parameters
     AMIX     =   0.40;   BMIX     =  1.00
     AMIX_MAG =   1.60;   BMIX_MAG =  1.00
     AMIN     =   0.10
     WC   =   100.;   INIMIX=   1;  MIXPRE=   1;  MAXMIX= -45

 Intra band minimization:
   WEIMIN = 0.0010     energy-eigenvalue tresh-hold
   EBREAK =  0.82E-09  absolut break condition
   DEPER  =   0.30     relativ break condition  

   TIME   =   0.40     timestep for ELM

  volume/ion in A,a.u.               =      53.49       360.99
  Fermi-wavevector in a.u.,A,eV,Ry     =   0.951418  1.797920 12.315955  0.905197
  Thomas-Fermi vector in A             =   2.079887
 
 Write flags
   LWAVE  =      F    write WAVECAR
   LCHARG =      F    write CHGCAR
   LVTOT  =      F    write LOCPOT, total local potential
   LVHAR  =      F    write LOCPOT, Hartree potential only
   LELF   =      F    write electronic localiz. function (ELF)
   LORBIT =      0    0 simple, 1 ext, 2 COOP (PROOUT)


 Dipole corrections
   LMONO  =      F    monopole corrections only (constant potential shift)
   LDIPOL =      T    correct potential (dipole corrections)
   IDIPOL =      3    1-x, 2-y, 3-z, 4-all directions 
   EPSILON=  1.0000000 bulk dielectric constant

 Exchange correlation treatment:
   GGA     =    PE    GGA type
   LEXCH   =     8    internal setting for exchange type
   VOSKOWN=      1    Vosko Wilk Nusair interpolation
   LHFCALC =     F    Hartree Fock is set to
   LHFONE  =     F    Hartree Fock one center treatment
   AEXX    =    0.0000 exact exchange contribution

 Linear response parameters
   LEPSILON=     F    determine dielectric tensor
   LRPA    =     F    only Hartree local field effects (RPA)
   LNABLA  =     F    use nabla operator in PAW spheres
   LVEL    =     F    velocity operator in full k-point grid
   LINTERFAST=   F  fast interpolation
   KINTER  =     0    interpolate to denser k-point grid
   CSHIFT  =0.1000    complex shift for real part using Kramers Kronig
   OMEGAMAX=  -1.0    maximum frequency
   DEG_THRESHOLD= 0.2000000E-02 threshold for treating states as degnerate
   RTIME   =    0.100 relaxation time in fs

 Orbital magnetization related:
   ORBITALMAG=     F  switch on orbital magnetization
   LCHIMAG   =     F  perturbation theory with respect to B field
   DQ        =  0.001000  dq finite difference perturbation B field



--------------------------------------------------------------------------------------------------------


 conjugate gradient relaxation of ions
 charge density and potential will be updated during run
 non-spin polarized calculation
 RMM-DIIS sequential band-by-band and
  variant of blocked Davidson during initial phase
 perform sub-space diagonalisation
    before iterative eigenvector-optimisation
 modified Broyden-mixing scheme, WC =      100.0
 initial mixing is a Kerker type mixing with AMIX =  0.4000 and BMIX =      1.0000
 Hartree-type preconditioning will be used
 using additional bands           54
 real space projection scheme for non local part
 use partial core corrections
 calculate Harris-corrections to forces 
   (improved forces if not selfconsistent)
 use gradient corrections 
 use of overlap-Matrix (Vanderbilt PP)
 Gauss-broadening in eV      SIGMA  =   0.10


--------------------------------------------------------------------------------------------------------


  energy-cutoff  :      400.00
  volume of cell :     2567.68
      direct lattice vectors                 reciprocal lattice vectors
    11.002581515  0.000000000  0.000000000     0.090887761 -0.052474073  0.000000000
     5.501290758  9.528515099  0.000000000     0.000000000  0.104948147  0.000000000
     0.000000000  0.000000000 24.491785094     0.000000000  0.000000000  0.040830017

  length of vectors
    11.002581515 11.002581515 24.491785094     0.104948147  0.104948147  0.040830017


 
 k-points in units of 2pi/SCALE and weight: Automatic mesh                          
   0.02272194  0.01311852  0.00000000       0.167
   0.00000000  0.02623704  0.00000000       0.167
  -0.02272194  0.01311852  0.00000000       0.167
  -0.02272194  0.03935555  0.00000000       0.167
   0.04544388 -0.05247407  0.00000000       0.167
  -0.02272194  0.06559259  0.00000000       0.167
 
 k-points in reciprocal lattice and weights: Automatic mesh                          
   0.25000000  0.25000000  0.00000000       0.167
   0.00000000  0.25000000  0.00000000       0.167
  -0.25000000  0.00000000  0.00000000       0.167
  -0.25000000  0.25000000  0.00000000       0.167
   0.50000000 -0.25000000  0.00000000       0.167
  -0.25000000  0.50000000  0.00000000       0.167
 
 position of ions in fractional coordinates (direct lattice) 
   0.08333333  0.08333333  0.40830017
   0.50000000  0.25000000  0.59169983
   0.58333333  0.83333333  0.40830017
   0.41666667  0.91666667  0.50000000
   0.58333333  0.08333333  0.40830017
   0.66666667  0.91666667  0.50000000
   0.16666667  0.91666667  0.50000000
   0.33333333  0.83333333  0.40830017
   0.83333333  0.08333333  0.40830017
   0.16666667  0.66666667  0.50000000
   0.33333333  0.58333333  0.40830017
   0.58333333  0.58333333  0.40830017
   0.25000000  0.00000000  0.59169983
   0.33333333  0.33333333  0.40830017
   0.83333333  0.33333333  0.40830017
   0.91666667  0.16666667  0.50000000
   0.83333333  0.83333333  0.40830017
   0.66666667  0.66666667  0.50000000
   0.16666667  0.16666667  0.50000000
   0.00000000  0.50000000  0.59169983
   0.08333333  0.58333333  0.40830017
   0.91666667  0.91666667  0.50000000
   0.08333333  0.83333333  0.40830017
   0.41666667  0.66666667  0.50000000
   0.75000000  0.25000000  0.59169983
   0.83333333  0.58333333  0.40830017
   0.66666667  0.16666667  0.50000000
   0.50000000  0.75000000  0.59169983
   0.75000000  0.50000000  0.59169983
   0.75000000  0.00000000  0.59169983
   0.50000000  0.50000000  0.59169983
   0.66666667  0.41666667  0.50000000
   0.25000000  0.75000000  0.59169983
   0.58333333  0.33333333  0.40830017
   0.50000000  0.00000000  0.59169983
   0.41666667  0.16666667  0.50000000
   0.25000000  0.50000000  0.59169983
   0.25000000  0.25000000  0.59169983
   0.16666667  0.41666667  0.50000000
   0.33333333  0.08333333  0.40830017
   0.00000000  0.75000000  0.59169983
   0.91666667  0.66666667  0.50000000
   0.00000000  0.25000000  0.59169983
   0.91666667  0.41666667  0.50000000
   0.08333333  0.33333333  0.40830017
   0.00000000  0.00000000  0.59169983
   0.41666667  0.41666667  0.50000000
   0.75000000  0.75000000  0.59169983
 
 position of ions in cartesian coordinates  (Angst):
   1.37532269  0.79404292 10.00000000
   6.87661345  2.38212877 14.49178509
  11.00258152  7.94042925 10.00000000
   9.62725883  8.73447217 12.24589255
   6.87661345  0.79404292 10.00000000
  12.37790420  8.73447217 12.24589255
   6.87661345  8.73447217 12.24589255
   8.25193614  7.94042925 10.00000000
   9.62725883  0.79404292 10.00000000
   5.50129076  6.35234340 12.24589255
   6.87661345  5.55830047 10.00000000
   9.62725883  5.55830047 10.00000000
   2.75064538  0.00000000 14.49178509
   5.50129076  3.17617170 10.00000000
  11.00258152  3.17617170 10.00000000
  11.00258152  1.58808585 12.24589255
  13.75322689  7.94042925 10.00000000
  11.00258152  6.35234340 12.24589255
   2.75064538  1.58808585 12.24589255
   2.75064538  4.76425755 14.49178509
   4.12596807  5.55830047 10.00000000
  15.12854958  8.73447217 12.24589255
   5.50129076  7.94042925 10.00000000
   8.25193614  6.35234340 12.24589255
   9.62725883  2.38212877 14.49178509
  12.37790420  5.55830047 10.00000000
   8.25193614  1.58808585 12.24589255
   9.62725883  7.14638632 14.49178509
  11.00258152  4.76425755 14.49178509
   8.25193614  0.00000000 14.49178509
   8.25193614  4.76425755 14.49178509
   9.62725883  3.97021462 12.24589255
   6.87661345  7.14638632 14.49178509
   8.25193614  3.17617170 10.00000000
   5.50129076  0.00000000 14.49178509
   5.50129076  1.58808585 12.24589255
   5.50129076  4.76425755 14.49178509
   4.12596807  2.38212877 14.49178509
   4.12596807  3.97021462 12.24589255
   4.12596807  0.79404292 10.00000000
   4.12596807  7.14638632 14.49178509
  13.75322689  6.35234340 12.24589255
   1.37532269  2.38212877 14.49178509
  12.37790420  3.97021462 12.24589255
   2.75064538  3.17617170 10.00000000
   0.00000000  0.00000000 14.49178509
   6.87661345  3.97021462 12.24589255
  12.37790420  7.14638632 14.49178509
 


--------------------------------------------------------------------------------------------------------


 k-point  1 :   0.2500 0.2500 0.0000  plane waves:   46635
 k-point  2 :   0.0000 0.2500 0.0000  plane waves:   46635
 k-point  3 :  -0.2500 0.0000 0.0000  plane waves:   46635
 k-point  4 :  -0.2500 0.2500 0.0000  plane waves:   46644
 k-point  5 :   0.5000-0.2500 0.0000  plane waves:   46644
 k-point  6 :  -0.2500 0.5000 0.0000  plane waves:   46644

 maximum and minimum number of plane-waves per node :      7818     7732

 maximum number of plane-waves:     46644
 maximum index in each direction: 
   IXMAX=   18   IYMAX=   18   IZMAX=   39
   IXMIN=  -18   IYMIN=  -18   IZMIN=  -39

 WARNING: aliasing errors must be expected set NGX to  74 to avoid them
 WARNING: aliasing errors must be expected set NGY to  74 to avoid them
 WARNING: aliasing errors must be expected set NGZ to 158 to avoid them
 aliasing errors are usually negligible using standard VASP settings
 and one can safely disregard these warnings

 real space projection operators:
  total allocation   :      12803.06 KBytes
  max/ min on nodes  :       2145.66       2127.94


 parallel 3D FFT for wavefunctions:
    minimum data exchange during FFTs selected (reduces bandwidth)
 parallel 3D FFT for charge:
    minimum data exchange during FFTs selected (reduces bandwidth)


 total amount of memory used by VASP on root node    84353. kBytes
========================================================================

   base      :      30000. kBytes
   nonlr-proj:       4285. kBytes
   fftplans  :       4447. kBytes
   grid      :       6721. kBytes
   one-center:        124. kBytes
   wavefun   :      38776. kBytes
 
     INWAV:  cpu time    0.0000: real time    0.0000
 Broyden mixing: mesh for mixing (old mesh)
   NGX = 35   NGY = 35   NGZ = 79
  (NGX  =108   NGY  =108   NGZ  =240)
  gives a total of  96775 points

 initial charge density was supplied:
 charge density of overlapping atoms calculated
 number of electron     504.0000000 magnetization 
 keeping initial charge density in first step


--------------------------------------------------------------------------------------------------------


 Maximum index for non-local projection operator          355
 Maximum index for augmentation-charges          437 (set IRDMAX)


--------------------------------------------------------------------------------------------------------


 First call to EWALD:  gamma=   0.129
 Maximum number of real-space cells 4x 4x 2
 Maximum number of reciprocal cells 2x 2x 5

 FEWALD executed in parallel
    FEWALD:  cpu time    0.0029: real time    0.0032


----------------------------------------- Iteration    1(   1)  ---------------------------------------


    POTLOK:  cpu time    0.0491: real time    0.0492
    SETDIJ:  cpu time    0.0061: real time    0.0061
     EDDAV:  cpu time    6.8732: real time    6.8928
       DOS:  cpu time    0.0015: real time    0.0015
    --------------------------------------------
      LOOP:  cpu time    6.9327: real time    6.9598

 eigenvalue-minimisations  :  3672
 total energy-change (2. order) : 0.3200766E+04  (-0.1898047E+05)
 number of electron     504.0000000 magnetization 
 augmentation part      504.0000000 magnetization 

 DIPCOR: dipole corrections for dipol
 direction  3 min pos     1,
 dipolmoment           0.000000      0.000000      0.000007 electrons x Angstroem
 Tr[quadrupol]    -10209.227662

 energy correction for charged system         0.000000 eV
 dipol+quadrupol energy correction           -0.000000 eV
 added-field ion interaction          0.000009 eV  (added to PSCEN)


 Free energy of the ion-electron system (eV)
  ---------------------------------------------------
  alpha Z        PSCENC =       805.86937378
  Ewald energy   TEWEN  =    200445.35558635
  -Hartree energ DENC   =   -242861.64825976
  -exchange      EXHF   =         0.00000000
  -V(xc)+E(xc)   XCENC  =      -327.55883828
  PAW double counting   =     40340.05962942   -38292.62782345
  entropy T*S    EENTRO =        -0.13293872
  eigenvalues    EBANDS =      1431.66351415
  atomic energy  EATOM  =     41659.78587232
  Solvation  Ediel_sol  =         0.00000000
  ---------------------------------------------------
  free energy    TOTEN  =      3200.76611582 eV

  energy without entropy =     3200.89905454  energy(sigma->0) =     3200.83258518


--------------------------------------------------------------------------------------------------------




----------------------------------------- Iteration    1(   2)  ---------------------------------------


     EDDAV:  cpu time    8.0038: real time    8.0277
       DOS:  cpu time    0.0015: real time    0.0015
    --------------------------------------------
      LOOP:  cpu time    8.0065: real time    8.0317

 eigenvalue-minimisations  :  4344
 total energy-change (2. order) :-0.3184035E+04  (-0.2927653E+04)
 number of electron     504.0000000 magnetization 
 augmentation part      504.0000000 magnetization 

 DIPCOR: dipole corrections for dipol
 direction  3 min pos     1,
 dipolmoment           0.000000      0.000000      0.000007 electrons x Angstroem
 Tr[quadrupol]    -10209.227662

 energy correction for charged system         0.000000 eV
 dipol+quadrupol energy correction           -0.000000 eV
 added-field ion interaction          0.000009 eV  (added to PSCEN)


 Free energy of the ion-electron system (eV)
  ---------------------------------------------------
  alpha Z        PSCENC =       805.86937378
  Ewald energy   TEWEN  =    200445.35558635
  -Hartree energ DENC   =   -242861.64825976
  -exchange      EXHF   =         0.00000000
  -V(xc)+E(xc)   XCENC  =      -327.55883828
  PAW double counting   =     40340.05962942   -38292.62782345
  entropy T*S    EENTRO =        -0.12854751
  eigenvalues    EBANDS =     -1752.37637284
  atomic energy  EATOM  =     41659.78587232
  Solvation  Ediel_sol  =         0.00000000
  ---------------------------------------------------
  free energy    TOTEN  =        16.73062003 eV

  energy without entropy =       16.85916754  energy(sigma->0) =       16.79489378


--------------------------------------------------------------------------------------------------------




----------------------------------------- Iteration    1(   3)  ---------------------------------------


     EDDAV:  cpu time    7.9311: real time    7.9512
       DOS:  cpu time    0.0016: real time    0.0016
    --------------------------------------------
      LOOP:  cpu time    7.9333: real time    7.9564

 eigenvalue-minimisations  :  4152
 total energy-change (2. order) :-0.2176027E+03  (-0.2017718E+03)
 number of electron     504.0000000 magnetization 
 augmentation part      504.0000000 magnetization 

 DIPCOR: dipole corrections for dipol
 direction  3 min pos     1,
 dipolmoment           0.000000      0.000000      0.000007 electrons x Angstroem
 Tr[quadrupol]    -10209.227662

 energy correction for charged system         0.000000 eV
 dipol+quadrupol energy correction           -0.000000 eV
 added-field ion interaction          0.000009 eV  (added to PSCEN)


 Free energy of the ion-electron system (eV)
  ---------------------------------------------------
  alpha Z        PSCENC =       805.86937378
  Ewald energy   TEWEN  =    200445.35558635
  -Hartree energ DENC   =   -242861.64825976
  -exchange      EXHF   =         0.00000000
  -V(xc)+E(xc)   XCENC  =      -327.55883828
  PAW double counting   =     40340.05962942   -38292.62782345
  entropy T*S    EENTRO =        -0.17717752
  eigenvalues    EBANDS =     -1969.93042338
  atomic energy  EATOM  =     41659.78587232
  Solvation  Ediel_sol  =         0.00000000
  ---------------------------------------------------
  free energy    TOTEN  =      -200.87206052 eV

  energy without entropy =     -200.69488300  energy(sigma->0) =     -200.78347176


--------------------------------------------------------------------------------------------------------




----------------------------------------- Iteration    1(   4)  ---------------------------------------


     EDDAV:  cpu time    7.9865: real time    8.0237
       DOS:  cpu time    0.0016: real time    0.0016
    --------------------------------------------
      LOOP:  cpu time    7.9886: real time    8.0298

 eigenvalue-minimisations  :  4176
 total energy-change (2. order) :-0.5973653E+01  (-0.5899981E+01)
 number of electron     504.0000000 magnetization 
 augmentation part      504.0000000 magnetization 

 DIPCOR: dipole corrections for dipol
 direction  3 min pos     1,
 dipolmoment           0.000000      0.000000      0.000007 electrons x Angstroem
 Tr[quadrupol]    -10209.227662

 energy correction for charged system         0.000000 eV
 dipol+quadrupol energy correction           -0.000000 eV
 added-field ion interaction          0.000009 eV  (added to PSCEN)


 Free energy of the ion-electron system (eV)
  ---------------------------------------------------
  alpha Z        PSCENC =       805.86937378
  Ewald energy   TEWEN  =    200445.35558635
  -Hartree energ DENC   =   -242861.64825976
  -exchange      EXHF   =         0.00000000
  -V(xc)+E(xc)   XCENC  =      -327.55883828
  PAW double counting   =     40340.05962942   -38292.62782345
  entropy T*S    EENTRO =        -0.18604073
  eigenvalues    EBANDS =     -1975.89521324
  atomic energy  EATOM  =     41659.78587232
  Solvation  Ediel_sol  =         0.00000000
  ---------------------------------------------------
  free energy    TOTEN  =      -206.84571358 eV

  energy without entropy =     -206.65967285  energy(sigma->0) =     -206.75269322


--------------------------------------------------------------------------------------------------------




----------------------------------------- Iteration    1(   5)  ---------------------------------------


     EDDAV:  cpu time    8.2984: real time    8.3942
       DOS:  cpu time    0.0015: real time    0.0016
    CHARGE:  cpu time    0.2355: real time    0.2360
    MIXING:  cpu time    0.0021: real time    0.0022
    --------------------------------------------
      LOOP:  cpu time    8.5382: real time    8.6371

 eigenvalue-minimisations  :  4416
 total energy-change (2. order) :-0.1962058E+00  (-0.1954868E+00)
 number of electron     503.9998404 magnetization 
 augmentation part      191.4038590 magnetization 

 DIPCOR: dipole corrections for dipol
 direction  3 min pos     1,
 dipolmoment           0.000000      0.000000      0.000007 electrons x Angstroem
 Tr[quadrupol]    -10209.227662

 energy correction for charged system         0.000000 eV
 dipol+quadrupol energy correction           -0.000000 eV
 added-field ion interaction          0.000009 eV  (added to PSCEN)


 Broyden mixing:
  rms(total) = 0.62938E+01    rms(broyden)= 0.62938E+01
  rms(prec ) = 0.65108E+01
  weight for this iteration     100.00

 Free energy of the ion-electron system (eV)
  ---------------------------------------------------
  alpha Z        PSCENC =       805.86937378
  Ewald energy   TEWEN  =    200445.35558635
  -Hartree energ DENC   =   -242861.64825976
  -exchange      EXHF   =         0.00000000
  -V(xc)+E(xc)   XCENC  =      -327.55883828
  PAW double counting   =     40340.05962942   -38292.62782345
  entropy T*S    EENTRO =        -0.18694242
  eigenvalues    EBANDS =     -1976.09051732
  atomic energy  EATOM  =     41659.78587232
  Solvation  Ediel_sol  =         0.00000000
  ---------------------------------------------------
  free energy    TOTEN  =      -207.04191935 eV

  energy without entropy =     -206.85497694  energy(sigma->0) =     -206.94844814


--------------------------------------------------------------------------------------------------------




----------------------------------------- Iteration    1(   6)  ---------------------------------------


    POTLOK:  cpu time    0.0425: real time    0.0427
    SETDIJ:  cpu time    0.0058: real time    0.0063
    EDDIAG:  cpu time    1.2358: real time    1.2388
  RMM-DIIS:  cpu time    3.4081: real time    3.4165
    ORTHCH:  cpu time    0.3070: real time    0.3077
       DOS:  cpu time    0.0016: real time    0.0016
    CHARGE:  cpu time    0.2409: real time    0.2428
    MIXING:  cpu time    0.0021: real time    0.0021
    --------------------------------------------
      LOOP:  cpu time    5.2443: real time    5.2607

 eigenvalue-minimisations  :  3678
 total energy-change (2. order) :-0.3168418E+02  (-0.1403659E+02)
 number of electron     503.9998469 magnetization 
 augmentation part      187.1771357 magnetization 

 DIPCOR: dipole corrections for dipol
 direction  3 min pos     1,
 dipolmoment           0.000000      0.000000      2.952210 electrons x Angstroem
 Tr[quadrupol]    -10209.948562

 energy correction for charged system         0.000000 eV
 dipol+quadrupol energy correction           -0.307112 eV
 added-field ion interaction          4.205442 eV  (added to PSCEN)


 Broyden mixing:
  rms(total) = 0.76047E+01    rms(broyden)= 0.76045E+01
  rms(prec ) = 0.87484E+01
  weight for this iteration     100.00

 eigenvalues of (default mixing * dielectric matrix)
  average eigenvalue GAMMA=   0.2773
  0.2773

 Free energy of the ion-electron system (eV)
  ---------------------------------------------------
  alpha Z        PSCENC =       809.76769364
  Ewald energy   TEWEN  =    200445.35558635
  -Hartree energ DENC   =   -242580.15960017
  -exchange      EXHF   =         0.00000000
  -V(xc)+E(xc)   XCENC  =      -339.97376192
  PAW double counting   =     43932.48475731   -41944.13792607
  entropy T*S    EENTRO =        -0.32959586
  eigenvalues    EBANDS =     -2221.51912915
  atomic energy  EATOM  =     41659.78587232
  Solvation  Ediel_sol  =         0.00000000
  ---------------------------------------------------
  free energy    TOTEN  =      -238.72610355 eV

  energy without entropy =     -238.39650769  energy(sigma->0) =     -238.56130562


--------------------------------------------------------------------------------------------------------




----------------------------------------- Iteration    1(   7)  ---------------------------------------


    POTLOK:  cpu time    0.0419: real time    0.0431
    SETDIJ:  cpu time    0.0059: real time    0.0060
    EDDIAG:  cpu time    1.2409: real time    1.2498
  RMM-DIIS:  cpu time    3.4248: real time    3.4334
    ORTHCH:  cpu time    0.2992: real time    0.3000
       DOS:  cpu time    0.0015: real time    0.0015
    CHARGE:  cpu time    0.2361: real time    0.2367
    MIXING:  cpu time    0.0021: real time    0.0021
    --------------------------------------------
      LOOP:  cpu time    5.2532: real time    5.2767

 eigenvalue-minimisations  :  3675
 total energy-change (2. order) : 0.3885001E+02  (-0.4299932E+01)
 number of electron     503.9998386 magnetization 
 augmentation part      194.5038794 magnetization 

 DIPCOR: dipole corrections for dipol
 direction  3 min pos     1,
 dipolmoment           0.000000      0.000000     -0.125496 electrons x Angstroem
 Tr[quadrupol]    -10210.000717

 energy correction for charged system         0.000000 eV
 dipol+quadrupol energy correction           -0.000555 eV
 added-field ion interaction         -0.178770 eV  (added to PSCEN)


 Broyden mixing:
  rms(total) = 0.47789E+01    rms(broyden)= 0.47787E+01
  rms(prec ) = 0.51428E+01
  weight for this iteration     100.00

 eigenvalues of (default mixing * dielectric matrix)
  average eigenvalue GAMMA=   0.6054
  0.9467  0.2642

 Free energy of the ion-electron system (eV)
  ---------------------------------------------------
  alpha Z        PSCENC =       805.69003923
  Ewald energy   TEWEN  =    200445.35558635
  -Hartree energ DENC   =   -242516.46645213
  -exchange      EXHF   =         0.00000000
  -V(xc)+E(xc)   XCENC  =      -341.85812435
  PAW double counting   =     44521.57086057   -42548.12095800
  entropy T*S    EENTRO =        -0.23255039
  eigenvalues    EBANDS =     -2225.60036766
  atomic energy  EATOM  =     41659.78587232
  Solvation  Ediel_sol  =         0.00000000
  ---------------------------------------------------
  free energy    TOTEN  =      -199.87609407 eV

  energy without entropy =     -199.64354367  energy(sigma->0) =     -199.75981887


--------------------------------------------------------------------------------------------------------




----------------------------------------- Iteration    1(   8)  ---------------------------------------


    POTLOK:  cpu time    0.0423: real time    0.0425
    SETDIJ:  cpu time    0.0056: real time    0.0056
    EDDIAG:  cpu time    1.2484: real time    1.2522
  RMM-DIIS:  cpu time    3.3919: real time    3.4013
    ORTHCH:  cpu time    0.2984: real time    0.2991
       DOS:  cpu time    0.0016: real time    0.0016
    CHARGE:  cpu time    0.2467: real time    0.2478
    MIXING:  cpu time    0.0020: real time    0.0020
    --------------------------------------------
      LOOP:  cpu time    5.2375: real time    5.2557

 eigenvalue-minimisations  :  3679
 total energy-change (2. order) :-0.1726252E+02  (-0.9485659E+01)
 number of electron     503.9998381 magnetization 
 augmentation part      195.2997805 magnetization 

 DIPCOR: dipole corrections for dipol
 direction  3 min pos     1,
 dipolmoment           0.000000      0.000000      1.508783 electrons x Angstroem
 Tr[quadrupol]    -10208.273244

 energy correction for charged system         0.000000 eV
 dipol+quadrupol energy correction           -0.080215 eV
 added-field ion interaction          2.149271 eV  (added to PSCEN)


 Broyden mixing:
  rms(total) = 0.46497E+01    rms(broyden)= 0.46494E+01
  rms(prec ) = 0.53572E+01
  weight for this iteration     100.00

 eigenvalues of (default mixing * dielectric matrix)
  average eigenvalue GAMMA=   0.8559
  1.9119  0.4616  0.1942

 Free energy of the ion-electron system (eV)
  ---------------------------------------------------
  alpha Z        PSCENC =       807.93842010
  Ewald energy   TEWEN  =    200445.35558635
  -Hartree energ DENC   =   -242386.39837762
  -exchange      EXHF   =         0.00000000
  -V(xc)+E(xc)   XCENC  =      -343.25430056
  PAW double counting   =     46143.07635281   -44194.67402337
  entropy T*S    EENTRO =        -0.34280413
  eigenvalues    EBANDS =     -2348.62533965
  atomic energy  EATOM  =     41659.78587232
  Solvation  Ediel_sol  =         0.00000000
  ---------------------------------------------------
  free energy    TOTEN  =      -217.13861374 eV

  energy without entropy =     -216.79580961  energy(sigma->0) =     -216.96721167


--------------------------------------------------------------------------------------------------------




----------------------------------------- Iteration    1(   9)  ---------------------------------------


    POTLOK:  cpu time    0.0413: real time    0.0423
    SETDIJ:  cpu time    0.0055: real time    0.0055
    EDDIAG:  cpu time    1.2333: real time    1.2363
  RMM-DIIS:  cpu time    3.4026: real time    3.4109
    ORTHCH:  cpu time    0.2996: real time    0.3003
       DOS:  cpu time    0.0015: real time    0.0015
    CHARGE:  cpu time    0.2389: real time    0.2395
    MIXING:  cpu time    0.0022: real time    0.0022
    --------------------------------------------
      LOOP:  cpu time    5.2257: real time    5.2431

 eigenvalue-minimisations  :  3679
 total energy-change (2. order) :-0.8409536E+01  (-0.3825698E+01)
 number of electron     503.9998344 magnetization 
 augmentation part      196.2049780 magnetization 

 DIPCOR: dipole corrections for dipol
 direction  3 min pos     1,
 dipolmoment           0.000000      0.000000      0.380268 electrons x Angstroem
 Tr[quadrupol]    -10210.491260

 energy correction for charged system         0.000000 eV
 dipol+quadrupol energy correction           -0.005095 eV
 added-field ion interaction          0.541695 eV  (added to PSCEN)


 Broyden mixing:
  rms(total) = 0.54160E+01    rms(broyden)= 0.54159E+01
  rms(prec ) = 0.63471E+01
  weight for this iteration     100.00

 eigenvalues of (default mixing * dielectric matrix)
  average eigenvalue GAMMA=   0.7575
  2.1278  0.4058  0.2482  0.2482

 Free energy of the ion-electron system (eV)
  ---------------------------------------------------
  alpha Z        PSCENC =       806.40596351
  Ewald energy   TEWEN  =    200445.35558635
  -Hartree energ DENC   =   -242427.18170348
  -exchange      EXHF   =         0.00000000
  -V(xc)+E(xc)   XCENC  =      -344.61783557
  PAW double counting   =     48368.10186513   -46448.57166446
  entropy T*S    EENTRO =        -0.12547336
  eigenvalues    EBANDS =     -2284.70076053
  atomic energy  EATOM  =     41659.78587232
  Solvation  Ediel_sol  =         0.00000000
  ---------------------------------------------------
  free energy    TOTEN  =      -225.54815009 eV

  energy without entropy =     -225.42267674  energy(sigma->0) =     -225.48541341


--------------------------------------------------------------------------------------------------------




----------------------------------------- Iteration    1(  10)  ---------------------------------------


    POTLOK:  cpu time    0.0418: real time    0.0421
    SETDIJ:  cpu time    0.0054: real time    0.0057
    EDDIAG:  cpu time    1.2327: real time    1.2378
  RMM-DIIS:  cpu time    3.3980: real time    3.4062
    ORTHCH:  cpu time    0.2984: real time    0.2991
       DOS:  cpu time    0.0015: real time    0.0015
    CHARGE:  cpu time    0.2367: real time    0.2372
    MIXING:  cpu time    0.0022: real time    0.0022
    --------------------------------------------
      LOOP:  cpu time    5.2175: real time    5.2341

 eigenvalue-minimisations  :  3679
 total energy-change (2. order) : 0.1973657E+02  (-0.3401423E+01)
 number of electron     503.9998345 magnetization 
 augmentation part      197.5763973 magnetization 

 DIPCOR: dipole corrections for dipol
 direction  3 min pos     1,
 dipolmoment           0.000000      0.000000      0.525167 electrons x Angstroem
 Tr[quadrupol]    -10210.865811

 energy correction for charged system         0.000000 eV
 dipol+quadrupol energy correction           -0.009718 eV
 added-field ion interaction          0.748104 eV  (added to PSCEN)


 Broyden mixing:
  rms(total) = 0.30956E+01    rms(broyden)= 0.30954E+01
  rms(prec ) = 0.35976E+01
  weight for this iteration     100.00

 eigenvalues of (default mixing * dielectric matrix)
  average eigenvalue GAMMA=   0.7026
  2.1948  0.4563  0.4563  0.2029  0.2029

 Free energy of the ion-electron system (eV)
  ---------------------------------------------------
  alpha Z        PSCENC =       806.60774988
  Ewald energy   TEWEN  =    200445.35558635
  -Hartree energ DENC   =   -242438.78035321
  -exchange      EXHF   =         0.00000000
  -V(xc)+E(xc)   XCENC  =      -344.87860381
  PAW double counting   =     48933.97619343   -47021.49147333
  entropy T*S    EENTRO =        -0.19602874
  eigenvalues    EBANDS =     -2246.19052096
  atomic energy  EATOM  =     41659.78587232
  Solvation  Ediel_sol  =         0.00000000
  ---------------------------------------------------
  free energy    TOTEN  =      -205.81157806 eV

  energy without entropy =     -205.61554932  energy(sigma->0) =     -205.71356369


--------------------------------------------------------------------------------------------------------




----------------------------------------- Iteration    1(  11)  ---------------------------------------


    POTLOK:  cpu time    0.0412: real time    0.0422
    SETDIJ:  cpu time    0.0058: real time    0.0060
    EDDIAG:  cpu time    1.2405: real time    1.2436
  RMM-DIIS:  cpu time    3.4076: real time    3.4159
    ORTHCH:  cpu time    0.2981: real time    0.3023
       DOS:  cpu time    0.0016: real time    0.0016
    CHARGE:  cpu time    0.2330: real time    0.2336
    MIXING:  cpu time    0.0025: real time    0.0025
    --------------------------------------------
      LOOP:  cpu time    5.2309: real time    5.2501

 eigenvalue-minimisations  :  3682
 total energy-change (2. order) : 0.9794401E+01  (-0.1533757E+01)
 number of electron     503.9998348 magnetization 
 augmentation part      198.6037464 magnetization 

 DIPCOR: dipole corrections for dipol
 direction  3 min pos     1,
 dipolmoment           0.000000      0.000000      0.350016 electrons x Angstroem
 Tr[quadrupol]    -10211.182881

 energy correction for charged system         0.000000 eV
 dipol+quadrupol energy correction           -0.004317 eV
 added-field ion interaction          0.498600 eV  (added to PSCEN)


 Broyden mixing:
  rms(total) = 0.18378E+01    rms(broyden)= 0.18375E+01
  rms(prec ) = 0.21319E+01
  weight for this iteration     100.00

 eigenvalues of (default mixing * dielectric matrix)
  average eigenvalue GAMMA=   0.7042
  2.2406  0.6611  0.6611  0.2084  0.2271  0.2271

 Free energy of the ion-electron system (eV)
  ---------------------------------------------------
  alpha Z        PSCENC =       806.36364778
  Ewald energy   TEWEN  =    200445.35558635
  -Hartree energ DENC   =   -242452.79589530
  -exchange      EXHF   =         0.00000000
  -V(xc)+E(xc)   XCENC  =      -344.93576296
  PAW double counting   =     49129.91112336   -47218.96579737
  entropy T*S    EENTRO =        -0.12566219
  eigenvalues    EBANDS =     -2220.61028874
  atomic energy  EATOM  =     41659.78587232
  Solvation  Ediel_sol  =         0.00000000
  ---------------------------------------------------
  free energy    TOTEN  =      -196.01717676 eV

  energy without entropy =     -195.89151456  energy(sigma->0) =     -195.95434566


--------------------------------------------------------------------------------------------------------




----------------------------------------- Iteration    1(  12)  ---------------------------------------


    POTLOK:  cpu time    0.0414: real time    0.0415
    SETDIJ:  cpu time    0.0055: real time    0.0055
    EDDIAG:  cpu time    1.2394: real time    1.2440
  RMM-DIIS:  cpu time    3.3767: real time    3.3848
    ORTHCH:  cpu time    0.2960: real time    0.2973
       DOS:  cpu time    0.0016: real time    0.0016
    CHARGE:  cpu time    0.2450: real time    0.2456
    MIXING:  cpu time    0.0027: real time    0.0027
    --------------------------------------------
      LOOP:  cpu time    5.2089: real time    5.2262

 eigenvalue-minimisations  :  3681
 total energy-change (2. order) : 0.7243626E+01  (-0.9610156E+00)
 number of electron     503.9998359 magnetization 
 augmentation part      197.9457209 magnetization 

 DIPCOR: dipole corrections for dipol
 direction  3 min pos     1,
 dipolmoment           0.000000      0.000000      0.235883 electrons x Angstroem
 Tr[quadrupol]    -10211.633899

 energy correction for charged system         0.000000 eV
 dipol+quadrupol energy correction           -0.001961 eV
 added-field ion interaction          0.336017 eV  (added to PSCEN)


 Broyden mixing:
  rms(total) = 0.93376E+00    rms(broyden)= 0.93361E+00
  rms(prec ) = 0.10396E+01
  weight for this iteration     100.00

 eigenvalues of (default mixing * dielectric matrix)
  average eigenvalue GAMMA=   0.6695
  2.2371  0.6244  0.6244  0.5183  0.2071  0.2375  0.2375

 Free energy of the ion-electron system (eV)
  ---------------------------------------------------
  alpha Z        PSCENC =       806.20342025
  Ewald energy   TEWEN  =    200445.35558635
  -Hartree energ DENC   =   -242489.35812001
  -exchange      EXHF   =         0.00000000
  -V(xc)+E(xc)   XCENC  =      -344.58797744
  PAW double counting   =     49331.72211632   -47419.22536610
  entropy T*S    EENTRO =        -0.16385063
  eigenvalues    EBANDS =     -2178.50523133
  atomic energy  EATOM  =     41659.78587232
  Solvation  Ediel_sol  =         0.00000000
  ---------------------------------------------------
  free energy    TOTEN  =      -188.77355027 eV

  energy without entropy =     -188.60969964  energy(sigma->0) =     -188.69162496


--------------------------------------------------------------------------------------------------------




----------------------------------------- Iteration    1(  13)  ---------------------------------------


    POTLOK:  cpu time    0.0414: real time    0.0417
    SETDIJ:  cpu time    0.0062: real time    0.0062
    EDDIAG:  cpu time    1.2312: real time    1.2836
  RMM-DIIS:  cpu time    3.3632: real time    3.4069
    ORTHCH:  cpu time    0.2960: real time    0.2967
       DOS:  cpu time    0.0016: real time    0.0016
    CHARGE:  cpu time    0.2377: real time    0.2382
    MIXING:  cpu time    0.0028: real time    0.0028
    --------------------------------------------
      LOOP:  cpu time    5.1808: real time    5.2821

 eigenvalue-minimisations  :  3680
 total energy-change (2. order) : 0.4388132E+00  (-0.1732351E+00)
 number of electron     503.9998362 magnetization 
 augmentation part      197.6013816 magnetization 

 DIPCOR: dipole corrections for dipol
 direction  3 min pos     1,
 dipolmoment           0.000000      0.000000      0.257837 electrons x Angstroem
 Tr[quadrupol]    -10211.941516

 energy correction for charged system         0.000000 eV
 dipol+quadrupol energy correction           -0.002343 eV
 added-field ion interaction          0.367291 eV  (added to PSCEN)


 Broyden mixing:
  rms(total) = 0.77141E+00    rms(broyden)= 0.77131E+00
  rms(prec ) = 0.83483E+00
  weight for this iteration     100.00

 eigenvalues of (default mixing * dielectric matrix)
  average eigenvalue GAMMA=   0.6466
  2.2176  0.6949  0.6949  0.5872  0.2120  0.2352  0.2352  0.2962

 Free energy of the ion-electron system (eV)
  ---------------------------------------------------
  alpha Z        PSCENC =       806.23431266
  Ewald energy   TEWEN  =    200445.35558635
  -Hartree energ DENC   =   -242509.91434443
  -exchange      EXHF   =         0.00000000
  -V(xc)+E(xc)   XCENC  =      -344.31431893
  PAW double counting   =     49362.94869349   -47448.83013886
  entropy T*S    EENTRO =        -0.18447676
  eigenvalues    EBANDS =     -2159.41592288
  atomic energy  EATOM  =     41659.78587232
  Solvation  Ediel_sol  =         0.00000000
  ---------------------------------------------------
  free energy    TOTEN  =      -188.33473704 eV

  energy without entropy =     -188.15026029  energy(sigma->0) =     -188.24249867


--------------------------------------------------------------------------------------------------------




----------------------------------------- Iteration    1(  14)  ---------------------------------------


    POTLOK:  cpu time    0.0415: real time    0.0417
    SETDIJ:  cpu time    0.0060: real time    0.0060
    EDDIAG:  cpu time    1.2289: real time    1.2327
  RMM-DIIS:  cpu time    3.4077: real time    3.4166
    ORTHCH:  cpu time    0.2963: real time    0.2970
       DOS:  cpu time    0.0015: real time    0.0015
    CHARGE:  cpu time    0.2357: real time    0.2362
    MIXING:  cpu time    0.0030: real time    0.0030
    --------------------------------------------
      LOOP:  cpu time    5.2212: real time    5.2391

 eigenvalue-minimisations  :  3681
 total energy-change (2. order) : 0.3413063E+00  (-0.4506887E-01)
 number of electron     503.9998363 magnetization 
 augmentation part      197.5039750 magnetization 

 DIPCOR: dipole corrections for dipol
 direction  3 min pos     1,
 dipolmoment           0.000000      0.000000      0.250062 electrons x Angstroem
 Tr[quadrupol]    -10212.032331

 energy correction for charged system         0.000000 eV
 dipol+quadrupol energy correction           -0.002203 eV
 added-field ion interaction          0.356215 eV  (added to PSCEN)


 Broyden mixing:
  rms(total) = 0.59136E+00    rms(broyden)= 0.59130E+00
  rms(prec ) = 0.64094E+00
  weight for this iteration     100.00

 eigenvalues of (default mixing * dielectric matrix)
  average eigenvalue GAMMA=   0.6663
  2.1975  0.8668  0.8668  0.5571  0.5571  0.2071  0.2385  0.2385  0.2675

 Free energy of the ion-electron system (eV)
  ---------------------------------------------------
  alpha Z        PSCENC =       806.22337558
  Ewald energy   TEWEN  =    200445.35558635
  -Hartree energ DENC   =   -242518.99494340
  -exchange      EXHF   =         0.00000000
  -V(xc)+E(xc)   XCENC  =      -344.09904865
  PAW double counting   =     49358.29436319   -47442.73240486
  entropy T*S    EENTRO =        -0.18420919
  eigenvalues    EBANDS =     -2151.64202214
  atomic energy  EATOM  =     41659.78587232
  Solvation  Ediel_sol  =         0.00000000
  ---------------------------------------------------
  free energy    TOTEN  =      -187.99343078 eV

  energy without entropy =     -187.80922160  energy(sigma->0) =     -187.90132619


--------------------------------------------------------------------------------------------------------




----------------------------------------- Iteration    1(  15)  ---------------------------------------


    POTLOK:  cpu time    0.0412: real time    0.0414
    SETDIJ:  cpu time    0.0056: real time    0.0057
    EDDIAG:  cpu time    1.2344: real time    1.2382
  RMM-DIIS:  cpu time    3.4348: real time    3.4447
    ORTHCH:  cpu time    0.2949: real time    0.2955
       DOS:  cpu time    0.0016: real time    0.0016
    CHARGE:  cpu time    0.2329: real time    0.2337
    MIXING:  cpu time    0.0030: real time    0.0030
    --------------------------------------------
      LOOP:  cpu time    5.2491: real time    5.2678

 eigenvalue-minimisations  :  3679
 total energy-change (2. order) : 0.1463085E-01  (-0.3084129E-01)
 number of electron     503.9998365 magnetization 
 augmentation part      197.3831972 magnetization 

 DIPCOR: dipole corrections for dipol
 direction  3 min pos     1,
 dipolmoment           0.000000      0.000000      0.277678 electrons x Angstroem
 Tr[quadrupol]    -10212.155347

 energy correction for charged system         0.000000 eV
 dipol+quadrupol energy correction           -0.002717 eV
 added-field ion interaction          0.395554 eV  (added to PSCEN)


 Broyden mixing:
  rms(total) = 0.54221E+00    rms(broyden)= 0.54217E+00
  rms(prec ) = 0.60376E+00
  weight for this iteration     100.00

 eigenvalues of (default mixing * dielectric matrix)
  average eigenvalue GAMMA=   0.7418
  2.1505  1.3413  1.3413  0.6721  0.6721  0.3157  0.2404  0.2404  0.2112  0.2328

 Free energy of the ion-electron system (eV)
  ---------------------------------------------------
  alpha Z        PSCENC =       806.26220096
  Ewald energy   TEWEN  =    200445.35558635
  -Hartree energ DENC   =   -242527.23667991
  -exchange      EXHF   =         0.00000000
  -V(xc)+E(xc)   XCENC  =      -343.92655209
  PAW double counting   =     49357.50465753   -47440.54830873
  entropy T*S    EENTRO =        -0.17508642
  eigenvalues    EBANDS =     -2145.00048995
  atomic energy  EATOM  =     41659.78587232
  Solvation  Ediel_sol  =         0.00000000
  ---------------------------------------------------
  free energy    TOTEN  =      -187.97879993 eV

  energy without entropy =     -187.80371351  energy(sigma->0) =     -187.89125672


--------------------------------------------------------------------------------------------------------




----------------------------------------- Iteration    1(  16)  ---------------------------------------


    POTLOK:  cpu time    0.0409: real time    0.0411
    SETDIJ:  cpu time    0.0055: real time    0.0055
    EDDIAG:  cpu time    1.2328: real time    1.2358
  RMM-DIIS:  cpu time    3.3862: real time    3.3945
    ORTHCH:  cpu time    0.2956: real time    0.2966
       DOS:  cpu time    0.0016: real time    0.0016
    CHARGE:  cpu time    0.2435: real time    0.2441
    MIXING:  cpu time    0.0032: real time    0.0032
    --------------------------------------------
      LOOP:  cpu time    5.2100: real time    5.2244

 eigenvalue-minimisations  :  3682
 total energy-change (2. order) : 0.1251104E+00  (-0.3730548E-01)
 number of electron     503.9998367 magnetization 
 augmentation part      197.1110249 magnetization 

 DIPCOR: dipole corrections for dipol
 direction  3 min pos     1,
 dipolmoment           0.000000      0.000000      0.291225 electrons x Angstroem
 Tr[quadrupol]    -10212.633338

 energy correction for charged system         0.000000 eV
 dipol+quadrupol energy correction           -0.002989 eV
 added-field ion interaction          0.414852 eV  (added to PSCEN)


 Broyden mixing:
  rms(total) = 0.39681E+00    rms(broyden)= 0.39673E+00
  rms(prec ) = 0.46908E+00
  weight for this iteration     100.00

 eigenvalues of (default mixing * dielectric matrix)
  average eigenvalue GAMMA=   0.7503
  2.1437  1.5032  1.5032  0.6632  0.6632  0.5462  0.3167  0.2367  0.2367  0.2082
  0.2318

 Free energy of the ion-electron system (eV)
  ---------------------------------------------------
  alpha Z        PSCENC =       806.28122772
  Ewald energy   TEWEN  =    200445.35558635
  -Hartree energ DENC   =   -242552.62171241
  -exchange      EXHF   =         0.00000000
  -V(xc)+E(xc)   XCENC  =      -343.56742891
  PAW double counting   =     49375.33295968   -47455.25632793
  entropy T*S    EENTRO =        -0.19229844
  eigenvalues    EBANDS =     -2122.97156794
  atomic energy  EATOM  =     41659.78587232
  Solvation  Ediel_sol  =         0.00000000
  ---------------------------------------------------
  free energy    TOTEN  =      -187.85368956 eV

  energy without entropy =     -187.66139112  energy(sigma->0) =     -187.75754034


--------------------------------------------------------------------------------------------------------




----------------------------------------- Iteration    1(  17)  ---------------------------------------


    POTLOK:  cpu time    0.0412: real time    0.0416
    SETDIJ:  cpu time    0.0061: real time    0.0061
    EDDIAG:  cpu time    1.2312: real time    1.2343
  RMM-DIIS:  cpu time    3.4151: real time    3.4236
    ORTHCH:  cpu time    0.2955: real time    0.2962
       DOS:  cpu time    0.0016: real time    0.0016
    CHARGE:  cpu time    0.2369: real time    0.2375
    MIXING:  cpu time    0.0032: real time    0.0032
    --------------------------------------------
      LOOP:  cpu time    5.2314: real time    5.2463

 eigenvalue-minimisations  :  3679
 total energy-change (2. order) : 0.1112262E+00  (-0.2574032E-01)
 number of electron     503.9998367 magnetization 
 augmentation part      197.0330327 magnetization 

 DIPCOR: dipole corrections for dipol
 direction  3 min pos     1,
 dipolmoment           0.000000      0.000000      0.269671 electrons x Angstroem
 Tr[quadrupol]    -10212.952869

 energy correction for charged system         0.000000 eV
 dipol+quadrupol energy correction           -0.002563 eV
 added-field ion interaction          0.384148 eV  (added to PSCEN)


 Broyden mixing:
  rms(total) = 0.28222E+00    rms(broyden)= 0.28218E+00
  rms(prec ) = 0.33510E+00
  weight for this iteration     100.00

 eigenvalues of (default mixing * dielectric matrix)
  average eigenvalue GAMMA=   0.7586
  2.2159  1.5404  1.5404  0.8006  0.7348  0.7348  0.3264  0.2978  0.2373  0.2373
  0.2094  0.2285

 Free energy of the ion-electron system (eV)
  ---------------------------------------------------
  alpha Z        PSCENC =       806.25094929
  Ewald energy   TEWEN  =    200445.35558635
  -Hartree energ DENC   =   -242567.80320569
  -exchange      EXHF   =         0.00000000
  -V(xc)+E(xc)   XCENC  =      -343.40161136
  PAW double counting   =     49401.84430854   -47480.51179095
  entropy T*S    EENTRO =        -0.19979399
  eigenvalues    EBANDS =     -2109.06277784
  atomic energy  EATOM  =     41659.78587232
  Solvation  Ediel_sol  =         0.00000000
  ---------------------------------------------------
  free energy    TOTEN  =      -187.74246334 eV

  energy without entropy =     -187.54266935  energy(sigma->0) =     -187.64256634


--------------------------------------------------------------------------------------------------------




----------------------------------------- Iteration    1(  18)  ---------------------------------------


    POTLOK:  cpu time    0.0410: real time    0.0411
    SETDIJ:  cpu time    0.0055: real time    0.0055
    EDDIAG:  cpu time    1.2255: real time    1.2284
  RMM-DIIS:  cpu time    3.3855: real time    3.4227
    ORTHCH:  cpu time    0.2943: real time    0.2950
       DOS:  cpu time    0.0016: real time    0.0016
    CHARGE:  cpu time    0.2353: real time    0.2359
    MIXING:  cpu time    0.0034: real time    0.0034
    --------------------------------------------
      LOOP:  cpu time    5.1928: real time    5.2361

 eigenvalue-minimisations  :  3679
 total energy-change (2. order) : 0.8778681E-01  (-0.1186637E-01)
 number of electron     503.9998366 magnetization 
 augmentation part      197.0458543 magnetization 

 DIPCOR: dipole corrections for dipol
 direction  3 min pos     1,
 dipolmoment           0.000000      0.000000      0.199595 electrons x Angstroem
 Tr[quadrupol]    -10213.169582

 energy correction for charged system         0.000000 eV
 dipol+quadrupol energy correction           -0.001404 eV
 added-field ion interaction          0.284325 eV  (added to PSCEN)


 Broyden mixing:
  rms(total) = 0.14114E+00    rms(broyden)= 0.14108E+00
  rms(prec ) = 0.15912E+00
  weight for this iteration     100.00

 eigenvalues of (default mixing * dielectric matrix)
  average eigenvalue GAMMA=   0.7418
  2.3079  1.5509  1.5509  0.7724  0.7724  0.7804  0.3932  0.3329  0.2381  0.2381
  0.2091  0.2653  0.2313

 Free energy of the ion-electron system (eV)
  ---------------------------------------------------
  alpha Z        PSCENC =       806.15228524
  Ewald energy   TEWEN  =    200445.35558635
  -Hartree energ DENC   =   -242577.53217997
  -exchange      EXHF   =         0.00000000
  -V(xc)+E(xc)   XCENC  =      -343.32219716
  PAW double counting   =     49431.82093045   -47510.04306741
  entropy T*S    EENTRO =        -0.22681654
  eigenvalues    EBANDS =     -2099.64508979
  atomic energy  EATOM  =     41659.78587232
  Solvation  Ediel_sol  =         0.00000000
  ---------------------------------------------------
  free energy    TOTEN  =      -187.65467653 eV

  energy without entropy =     -187.42785999  energy(sigma->0) =     -187.54126826


--------------------------------------------------------------------------------------------------------




----------------------------------------- Iteration    1(  19)  ---------------------------------------


    POTLOK:  cpu time    0.0410: real time    0.0411
    SETDIJ:  cpu time    0.0054: real time    0.0054
    EDDIAG:  cpu time    1.2295: real time    1.2405
  RMM-DIIS:  cpu time    3.4018: real time    3.4114
    ORTHCH:  cpu time    0.2964: real time    0.2971
       DOS:  cpu time    0.0016: real time    0.0016
    CHARGE:  cpu time    0.2317: real time    0.2323
    MIXING:  cpu time    0.0037: real time    0.0037
    --------------------------------------------
      LOOP:  cpu time    5.2117: real time    5.2355

 eigenvalue-minimisations  :  3683
 total energy-change (2. order) : 0.1883177E-01  (-0.2985908E-02)
 number of electron     503.9998366 magnetization 
 augmentation part      197.0590803 magnetization 

 DIPCOR: dipole corrections for dipol
 direction  3 min pos     1,
 dipolmoment           0.000000      0.000000      0.176740 electrons x Angstroem
 Tr[quadrupol]    -10213.244348

 energy correction for charged system         0.000000 eV
 dipol+quadrupol energy correction           -0.001101 eV
 added-field ion interaction          0.251767 eV  (added to PSCEN)


 Broyden mixing:
  rms(total) = 0.77683E-01    rms(broyden)= 0.77644E-01
  rms(prec ) = 0.84523E-01
  weight for this iteration     100.00

 eigenvalues of (default mixing * dielectric matrix)
  average eigenvalue GAMMA=   0.7424
  2.3852  1.5660  1.5660  0.8707  0.8707  0.6392  0.6392  0.3954  0.2961  0.2376
  0.2376  0.2093  0.2286  0.2514

 Free energy of the ion-electron system (eV)
  ---------------------------------------------------
  alpha Z        PSCENC =       806.12003027
  Ewald energy   TEWEN  =    200445.35558635
  -Hartree energ DENC   =   -242579.94168117
  -exchange      EXHF   =         0.00000000
  -V(xc)+E(xc)   XCENC  =      -343.34076658
  PAW double counting   =     49447.24260820   -47525.64022520
  entropy T*S    EENTRO =        -0.22387089
  eigenvalues    EBANDS =     -2096.99339806
  atomic energy  EATOM  =     41659.78587232
  Solvation  Ediel_sol  =         0.00000000
  ---------------------------------------------------
  free energy    TOTEN  =      -187.63584476 eV

  energy without entropy =     -187.41197387  energy(sigma->0) =     -187.52390931


--------------------------------------------------------------------------------------------------------




----------------------------------------- Iteration    1(  20)  ---------------------------------------


    POTLOK:  cpu time    0.0414: real time    0.0415
    SETDIJ:  cpu time    0.0053: real time    0.0053
    EDDIAG:  cpu time    1.2350: real time    1.2401
  RMM-DIIS:  cpu time    3.3597: real time    3.4271
    ORTHCH:  cpu time    0.2874: real time    0.3072
       DOS:  cpu time    0.0015: real time    0.0016
    CHARGE:  cpu time    0.2410: real time    0.2431
    MIXING:  cpu time    0.0039: real time    0.0039
    --------------------------------------------
      LOOP:  cpu time    5.1757: real time    5.2720

 eigenvalue-minimisations  :  3681
 total energy-change (2. order) : 0.2444661E-02  (-0.7958724E-03)
 number of electron     503.9998366 magnetization 
 augmentation part      197.0606534 magnetization 

 DIPCOR: dipole corrections for dipol
 direction  3 min pos     1,
 dipolmoment           0.000000      0.000000      0.166351 electrons x Angstroem
 Tr[quadrupol]    -10213.330538

 energy correction for charged system         0.000000 eV
 dipol+quadrupol energy correction           -0.000975 eV
 added-field ion interaction          0.236968 eV  (added to PSCEN)


 Broyden mixing:
  rms(total) = 0.67395E-01    rms(broyden)= 0.67386E-01
  rms(prec ) = 0.74743E-01
  weight for this iteration     100.00

 eigenvalues of (default mixing * dielectric matrix)
  average eigenvalue GAMMA=   0.7509
  2.4399  1.5613  1.5613  1.0549  1.0549  0.6733  0.6733  0.4905  0.3056  0.3056
  0.2376  0.2376  0.2090  0.2290  0.2290

 Free energy of the ion-electron system (eV)
  ---------------------------------------------------
  alpha Z        PSCENC =       806.10535749
  Ewald energy   TEWEN  =    200445.35558635
  -Hartree energ DENC   =   -242582.69338213
  -exchange      EXHF   =         0.00000000
  -V(xc)+E(xc)   XCENC  =      -343.35599831
  PAW double counting   =     49459.59804572   -47538.11755463
  entropy T*S    EENTRO =        -0.22188885
  eigenvalues    EBANDS =     -2094.08943807
  atomic energy  EATOM  =     41659.78587232
  Solvation  Ediel_sol  =         0.00000000
  ---------------------------------------------------
  free energy    TOTEN  =      -187.63340010 eV

  energy without entropy =     -187.41151125  energy(sigma->0) =     -187.52245567


--------------------------------------------------------------------------------------------------------




----------------------------------------- Iteration    1(  21)  ---------------------------------------


    POTLOK:  cpu time    0.0425: real time    0.0427
    SETDIJ:  cpu time    0.0060: real time    0.0060
    EDDIAG:  cpu time    1.2300: real time    1.2345
  RMM-DIIS:  cpu time    3.3800: real time    3.3883
    ORTHCH:  cpu time    0.2960: real time    0.2967
       DOS:  cpu time    0.0016: real time    0.0016
    CHARGE:  cpu time    0.2375: real time    0.2380
    MIXING:  cpu time    0.0041: real time    0.0041
    --------------------------------------------
      LOOP:  cpu time    5.1984: real time    5.2167

 eigenvalue-minimisations  :  3682
 total energy-change (2. order) : 0.7400739E-03  (-0.7084821E-03)
 number of electron     503.9998366 magnetization 
 augmentation part      197.0546363 magnetization 

 DIPCOR: dipole corrections for dipol
 direction  3 min pos     1,
 dipolmoment           0.000000      0.000000      0.156645 electrons x Angstroem
 Tr[quadrupol]    -10213.437348

 energy correction for charged system         0.000000 eV
 dipol+quadrupol energy correction           -0.000865 eV
 added-field ion interaction          0.223142 eV  (added to PSCEN)


 Broyden mixing:
  rms(total) = 0.63635E-01    rms(broyden)= 0.63623E-01
  rms(prec ) = 0.73833E-01
  weight for this iteration     100.00

 eigenvalues of (default mixing * dielectric matrix)
  average eigenvalue GAMMA=   0.7547
  2.4492  1.4948  1.4948  1.3909  1.0396  0.7697  0.6993  0.6993  0.3319  0.3319
  0.2383  0.2383  0.2387  0.2387  0.2099  0.2099

 Free energy of the ion-electron system (eV)
  ---------------------------------------------------
  alpha Z        PSCENC =       806.09164199
  Ewald energy   TEWEN  =    200445.35558635
  -Hartree energ DENC   =   -242586.31564471
  -exchange      EXHF   =         0.00000000
  -V(xc)+E(xc)   XCENC  =      -343.35981172
  PAW double counting   =     49467.70809381   -47546.27312547
  entropy T*S    EENTRO =        -0.22267192
  eigenvalues    EBANDS =     -2090.40260068
  atomic energy  EATOM  =     41659.78587232
  Solvation  Ediel_sol  =         0.00000000
  ---------------------------------------------------
  free energy    TOTEN  =      -187.63266002 eV

  energy without entropy =     -187.40998811  energy(sigma->0) =     -187.52132406


--------------------------------------------------------------------------------------------------------




----------------------------------------- Iteration    1(  22)  ---------------------------------------


    POTLOK:  cpu time    0.0422: real time    0.0428
    SETDIJ:  cpu time    0.0053: real time    0.0056
    EDDIAG:  cpu time    1.2241: real time    1.2270
  RMM-DIIS:  cpu time    3.3763: real time    3.3860
    ORTHCH:  cpu time    0.2987: real time    0.2994
       DOS:  cpu time    0.0017: real time    0.0017
    CHARGE:  cpu time    0.2388: real time    0.2396
    MIXING:  cpu time    0.0042: real time    0.0042
    --------------------------------------------
      LOOP:  cpu time    5.1920: real time    5.2108

 eigenvalue-minimisations  :  3680
 total energy-change (2. order) : 0.2496811E-02  (-0.4711592E-03)
 number of electron     503.9998367 magnetization 
 augmentation part      197.0403188 magnetization 

 DIPCOR: dipole corrections for dipol
 direction  3 min pos     1,
 dipolmoment           0.000000      0.000000      0.145748 electrons x Angstroem
 Tr[quadrupol]    -10213.553007

 energy correction for charged system         0.000000 eV
 dipol+quadrupol energy correction           -0.000749 eV
 added-field ion interaction          0.207620 eV  (added to PSCEN)


 Broyden mixing:
  rms(total) = 0.43068E-01    rms(broyden)= 0.43057E-01
  rms(prec ) = 0.50579E-01
  weight for this iteration     100.00

 eigenvalues of (default mixing * dielectric matrix)
  average eigenvalue GAMMA=   0.7491
  2.4262  1.5897  1.5897  1.5111  0.9194  0.9194  0.6995  0.6995  0.3631  0.3631
  0.2376  0.2376  0.2859  0.2559  0.2269  0.2096  0.1999

 Free energy of the ion-electron system (eV)
  ---------------------------------------------------
  alpha Z        PSCENC =       806.07623534
  Ewald energy   TEWEN  =    200445.35558635
  -Hartree energ DENC   =   -242590.64060213
  -exchange      EXHF   =         0.00000000
  -V(xc)+E(xc)   XCENC  =      -343.34666875
  PAW double counting   =     49469.43852033   -47547.93781667
  entropy T*S    EENTRO =        -0.21983089
  eigenvalues    EBANDS =     -2086.14145911
  atomic energy  EATOM  =     41659.78587232
  Solvation  Ediel_sol  =         0.00000000
  ---------------------------------------------------
  free energy    TOTEN  =      -187.63016321 eV

  energy without entropy =     -187.41033232  energy(sigma->0) =     -187.52024777


--------------------------------------------------------------------------------------------------------




----------------------------------------- Iteration    1(  23)  ---------------------------------------


    POTLOK:  cpu time    0.0546: real time    0.0550
    SETDIJ:  cpu time    0.0055: real time    0.0055
    EDDIAG:  cpu time    1.2295: real time    1.2336
  RMM-DIIS:  cpu time    3.4451: real time    3.4574
    ORTHCH:  cpu time    0.2947: real time    0.2954
       DOS:  cpu time    0.0016: real time    0.0016
    CHARGE:  cpu time    0.2326: real time    0.2332
    MIXING:  cpu time    0.0041: real time    0.0042
    --------------------------------------------
      LOOP:  cpu time    5.2688: real time    5.3292

 eigenvalue-minimisations  :  3679
 total energy-change (2. order) : 0.2251405E-02  (-0.2043608E-03)
 number of electron     503.9998367 magnetization 
 augmentation part      197.0451614 magnetization 

 DIPCOR: dipole corrections for dipol
 direction  3 min pos     1,
 dipolmoment           0.000000      0.000000      0.136193 electrons x Angstroem
 Tr[quadrupol]    -10213.616305

 energy correction for charged system         0.000000 eV
 dipol+quadrupol energy correction           -0.000654 eV
[...]
    275       1.7156      0.00000
    276       1.7487      0.00000
    277       2.0928      0.00000
    278       2.1285      0.00000
    279       2.2346      0.00000
    280       2.2981      0.00000
    281       2.3838      0.00000
    282       2.5660      0.00000
    283       2.6839      0.00000
    284       3.0287      0.00000
    285       3.1748      0.00000
    286       3.1997      0.00000
    287       3.5230      0.00000
    288       3.5676      0.00000
    289       3.6589      0.00000
    290       3.9632      0.00000
    291       4.0214      0.00000
    292       4.1562      0.00000
    293       4.4072      0.00000
    294       4.5098      0.00000
    295       4.5559      0.00000
    296       4.5711      0.00000
    297       4.6202      0.00000
    298       4.6533      0.00000
    299       4.8162      0.00000
    300       4.8951      0.00000
    301       4.9319      0.00000
    302       5.0101      0.00000
    303       5.0600      0.00000
    304       5.0804      0.00000
    305       5.1410      0.00000
    306       5.2050      0.00000


--------------------------------------------------------------------------------------------------------


 soft charge-density along one line, spin component           1
         0         1         2         3         4         5         6         7         8         9
 total charge-density along one line
 
 pseudopotential strength for first ion, spin component:           1
 -8.091  -0.004  -0.004  -0.007  -0.000  -8.236  -0.004  -0.004
 -0.004  -8.009   0.001   0.003   0.004  -0.004  -8.157   0.001
 -0.004   0.001  -7.999   0.001  -0.002  -0.004   0.001  -8.146
 -0.007   0.003   0.001  -8.004  -0.004  -0.007   0.003   0.001
 -0.000   0.004  -0.002  -0.004  -8.092  -0.000   0.004  -0.002
 -8.236  -0.004  -0.004  -0.007  -0.000  -8.366  -0.004  -0.004
 -0.004  -8.157   0.001   0.003   0.004  -0.004  -8.288   0.001
 -0.004   0.001  -8.146   0.001  -0.002  -0.004   0.001  -8.278
 -0.007   0.003   0.001  -8.151  -0.004  -0.007   0.003   0.001
 -0.000   0.004  -0.002  -0.004  -8.237  -0.000   0.004  -0.002
 -0.002   0.003  -0.028   0.003  -0.001  -0.002   0.003  -0.028
 -0.004   0.004  -0.041   0.004  -0.002  -0.004   0.004  -0.041
 -0.004  -0.001   0.001  -0.000   0.002  -0.004  -0.001   0.001
 -0.000  -0.002  -0.003  -0.003   0.000  -0.000  -0.002  -0.002
 -0.002  -0.000   0.002  -0.001  -0.004  -0.002  -0.000   0.002
 -0.004  -0.000   0.002  -0.000   0.003  -0.004  -0.000   0.002
 -0.000  -0.003  -0.002  -0.004   0.000  -0.000  -0.002  -0.002
 -0.003  -0.000   0.003  -0.000  -0.005  -0.003  -0.000   0.003
 total augmentation occupancy for first ion, spin component:           1
  4.463  -0.007   0.112   0.056   0.098  -2.649  -0.019  -0.124  -0.109  -0.100   0.144  -0.053   0.026  -0.004  -0.004  -0.005
 -0.007   3.988   0.046   0.005   0.040  -0.019  -1.722  -0.005   0.002  -0.025  -0.116   0.023  -0.121  -0.005  -0.002   0.006
  0.112   0.046   4.391   0.056   0.074  -0.124  -0.005  -2.254  -0.022  -0.074   1.147  -0.145  -0.016  -0.202  -0.037   0.003
  0.056   0.005   0.056   4.066  -0.016  -0.108   0.002  -0.022  -1.767  -0.016  -0.092   0.008  -0.002  -0.012  -0.137  -0.000
  0.098   0.040   0.074  -0.016   4.279  -0.100  -0.025  -0.074  -0.016  -2.485   0.080  -0.032  -0.029  -0.005   0.031   0.004
 -2.649  -0.019  -0.124  -0.108  -0.100   2.715   0.039   0.132   0.147   0.100  -0.129   0.051  -0.019   0.004   0.004   0.002
 -0.019  -1.722  -0.005   0.002  -0.025   0.039   1.429  -0.027  -0.007   0.012   0.107  -0.024   0.111   0.001   0.003  -0.005
 -0.124  -0.005  -2.254  -0.022  -0.074   0.132  -0.027   2.064  -0.004   0.073  -1.073   0.169   0.012   0.199   0.027  -0.001
 -0.109   0.002  -0.022  -1.767  -0.016   0.147  -0.007  -0.004   1.446   0.040   0.083  -0.010   0.003   0.011   0.128  -0.000
 -0.100  -0.025  -0.074  -0.016  -2.485   0.100   0.012   0.073   0.040   2.568  -0.072   0.030   0.024   0.006  -0.023  -0.002
  0.144  -0.116   1.147  -0.092   0.080  -0.129   0.107  -1.073   0.083  -0.072   2.389  -0.505  -0.012   0.095  -0.011   0.001
 -0.053   0.023  -0.145   0.008  -0.032   0.051  -0.024   0.169  -0.010   0.030  -0.505   0.154   0.013  -0.050   0.019  -0.000
  0.026  -0.121  -0.016  -0.002  -0.029  -0.019   0.111   0.012   0.003   0.024  -0.012   0.013   0.195   0.007  -0.006  -0.006
 -0.004  -0.005  -0.202  -0.012  -0.005   0.004   0.001   0.199   0.011   0.006   0.095  -0.050   0.007   0.083   0.007  -0.000
 -0.004  -0.002  -0.037  -0.137   0.031   0.004   0.003   0.027   0.128  -0.023  -0.011   0.019  -0.006   0.007   0.188   0.000
 -0.005   0.006   0.003  -0.000   0.004   0.002  -0.005  -0.001  -0.000  -0.002   0.001  -0.000  -0.006  -0.000   0.000   0.000
 -0.000  -0.002   0.004  -0.004   0.000  -0.000   0.000  -0.006   0.001  -0.000  -0.006   0.002  -0.000  -0.003  -0.000   0.000
 -0.002  -0.000   0.004   0.006  -0.006   0.001  -0.000  -0.002  -0.006   0.002   0.001  -0.001   0.000  -0.000  -0.006  -0.000


------------------------ aborting loop because EDIFF is reached ----------------------------------------


    CHARGE:  cpu time    0.2312: real time    0.2321
    FORLOC:  cpu time    0.0165: real time    0.0165
    FORNL :  cpu time    1.3328: real time    1.3378
    FORCOR:  cpu time    0.0578: real time    0.0580
    FORHAR:  cpu time    0.0264: real time    0.0264
    MIXING:  cpu time    0.0026: real time    0.0027
    OFIELD:  cpu time    0.0000: real time    0.0000

 VOLUME and BASIS-vectors are now :
 -----------------------------------------------------------------------------
  energy-cutoff  :      400.00
  volume of cell :     2567.68
      direct lattice vectors                 reciprocal lattice vectors
    11.002581515  0.000000000  0.000000000     0.090887761 -0.052474073  0.000000000
     5.501290758  9.528515099  0.000000000     0.000000000  0.104948147  0.000000000
     0.000000000  0.000000000 24.491785094     0.000000000  0.000000000  0.040830017

  length of vectors
    11.002581515 11.002581515 24.491785094     0.104948147  0.104948147  0.040830017


 FORCES acting on ions
    electron-ion (+dipol)            ewald-force                    non-local-force                 convergence-correction
 -----------------------------------------------------------------------------------------------
   -.166E+02 -.209E+02 0.223E+04   0.173E+02 0.212E+02 -.223E+04   -.760E+00 -.289E+00 0.360E+00   0.131E-01 -.283E-03 -.350E-02
   -.102E+02 -.525E+01 -.229E+04   0.101E+02 0.522E+01 0.229E+04   0.138E+00 0.536E-01 0.699E+00   -.346E-01 -.213E-01 -.111E-02
   -.420E+01 -.789E+01 0.228E+04   0.417E+01 0.786E+01 -.228E+04   0.192E-01 0.236E-01 0.399E+00   0.899E-02 0.722E-02 -.145E-01
   0.992E+01 0.859E+01 -.683E+02   -.948E+01 -.802E+01 0.687E+02   -.441E+00 -.564E+00 -.341E+00   -.514E-02 -.191E-03 -.688E-03
   0.108E+02 -.146E+02 0.217E+04   -.110E+02 0.153E+02 -.217E+04   0.248E+00 -.681E+00 -.248E+00   -.991E-02 -.581E-02 0.143E-02
   0.274E+01 0.298E+01 -.547E+02   -.244E+01 -.254E+01 0.564E+02   -.295E+00 -.424E+00 -.166E+01   -.283E-02 -.134E-01 0.284E-02
   -.460E+01 0.657E+00 -.344E+02   0.430E+01 -.909E+00 0.354E+02   0.294E+00 0.242E+00 -.101E+01   0.628E-02 0.753E-02 0.289E-01
   -.831E+01 -.116E+02 0.224E+04   0.853E+01 0.121E+02 -.224E+04   -.225E+00 -.515E+00 0.420E+00   -.166E-02 0.161E-01 0.269E-02
   0.818E+01 -.143E+02 0.222E+04   -.850E+01 0.147E+02 -.222E+04   0.308E+00 -.356E+00 0.193E+00   0.353E-02 -.574E-02 0.657E-02
   -.354E+01 -.791E+01 -.178E+02   0.312E+01 0.708E+01 0.193E+02   0.440E+00 0.809E+00 -.156E+01   -.174E-01 0.179E-01 -.385E-02
   0.388E+01 0.215E+02 0.223E+04   -.351E+01 -.218E+02 -.223E+04   -.368E+00 0.327E+00 0.259E+00   -.297E-02 0.101E-01 0.118E-01
   -.737E+01 0.137E+02 0.223E+04   0.755E+01 -.144E+02 -.223E+04   -.186E+00 0.638E+00 0.119E+00   0.117E-01 -.179E-02 0.140E-01
   0.582E+01 0.950E+01 -.238E+04   -.583E+01 -.954E+01 0.238E+04   -.927E-02 0.340E-01 -.188E+00   0.131E-01 0.107E-01 0.290E-01
   0.106E+02 0.106E+02 0.215E+04   -.107E+02 -.111E+02 -.215E+04   0.813E-01 0.505E+00 -.461E+00   -.179E-01 -.496E-02 0.273E-02
   -.112E+02 -.676E+01 0.219E+04   0.113E+02 0.734E+01 -.219E+04   -.150E+00 -.591E+00 -.278E-02   0.216E-01 0.215E-01 0.101E-01
   -.183E+01 0.949E+01 -.460E+02   0.125E+01 -.867E+01 0.476E+02   0.558E+00 -.803E+00 -.162E+01   0.243E-01 -.131E-01 -.444E-02
   0.793E+01 0.660E+01 0.220E+04   -.818E+01 -.733E+01 -.220E+04   0.249E+00 0.722E+00 0.268E+00   0.101E-02 0.292E-02 0.362E-01
   0.641E+01 -.964E+01 -.309E+02   -.571E+01 0.862E+01 0.318E+02   -.703E+00 0.102E+01 -.941E+00   0.370E-02 0.654E-02 0.333E-02
   0.706E+01 0.154E+02 -.103E+03   -.639E+01 -.143E+02 0.103E+03   -.679E+00 -.119E+01 0.132E+00   0.126E-02 0.373E-02 -.184E-01
   0.304E+00 -.912E+01 -.230E+04   -.312E+00 0.914E+01 0.230E+04   0.866E-02 -.166E-01 0.484E+00   0.200E-02 -.776E-02 -.694E-02
   0.135E+02 0.218E+02 0.218E+04   -.147E+02 -.222E+02 -.218E+04   0.113E+01 0.454E+00 -.327E+00   -.647E-02 -.264E-02 0.218E-01
   -.840E+01 0.230E+01 -.171E+02   0.795E+01 -.230E+01 0.186E+02   0.467E+00 0.229E-01 -.154E+01   -.368E-02 -.162E-01 0.577E-02
   0.413E+01 0.145E+01 0.228E+04   -.409E+01 -.144E+01 -.228E+04   -.376E-01 -.992E-02 0.380E+00   0.292E-02 0.277E-02 0.222E-01
   0.250E+01 -.904E+01 -.175E+02   -.255E+01 0.822E+01 0.191E+02   0.447E-01 0.801E+00 -.153E+01   0.932E-02 0.243E-01 -.408E-02
   0.426E+01 -.212E+01 -.203E+04   -.412E+01 0.232E+01 0.203E+04   -.162E+00 -.181E+00 0.184E+01   0.177E-01 -.167E-01 0.109E-01
   -.101E+02 0.140E+02 0.191E+04   0.105E+02 -.142E+02 -.191E+04   -.342E+00 0.207E+00 -.161E+01   0.154E-02 -.670E-02 0.673E-02
   0.728E+00 0.213E+01 -.484E+02   -.771E+00 -.144E+01 0.487E+02   0.499E-01 -.657E+00 -.306E+00   -.108E-01 -.220E-01 0.386E-02
   -.228E+00 0.135E+02 -.203E+04   0.360E+00 -.136E+02 0.203E+04   -.143E+00 0.106E+00 0.149E+01   0.140E-01 0.159E-01 0.885E-02
   0.819E+01 -.161E+01 -.203E+04   -.849E+01 0.129E+01 0.203E+04   0.276E+00 0.311E+00 0.183E+01   0.191E-01 0.986E-02 0.111E-01
   -.655E+01 0.793E+00 -.204E+04   0.667E+01 -.783E+00 0.204E+04   -.101E+00 0.124E-01 0.169E+01   -.187E-01 -.223E-01 0.294E-02
   -.199E+01 -.168E+01 -.202E+04   0.217E+01 0.161E+01 0.202E+04   -.172E+00 0.672E-01 0.181E+01   -.177E-02 0.635E-02 0.180E-01
   0.884E+00 -.173E+01 -.320E+02   -.122E+01 0.134E+01 0.328E+02   0.323E+00 0.384E+00 -.808E+00   0.209E-01 0.146E-01 -.143E-02
   0.421E+01 0.946E+01 -.203E+04   -.429E+01 -.959E+01 0.203E+04   0.862E-01 0.126E+00 0.131E+01   -.661E-02 0.379E-02 0.363E-01
   0.593E+01 0.408E+01 0.190E+04   -.593E+01 -.408E+01 -.190E+04   -.849E-02 -.107E-01 -.178E+01   0.386E-02 0.498E-02 -.146E-01
   -.957E+01 0.510E+01 -.205E+04   0.966E+01 -.508E+01 0.205E+04   -.866E-01 0.129E-02 0.159E+01   -.274E-02 -.141E-01 -.289E-02
   -.512E+01 -.709E+00 -.829E+02   0.507E+01 0.996E+00 0.832E+02   0.727E-01 -.284E+00 -.326E+00   -.194E-01 0.329E-02 0.156E-02
   -.744E+01 -.776E+01 -.202E+04   0.753E+01 0.767E+01 0.202E+04   -.617E-01 0.106E+00 0.193E+01   -.289E-01 -.122E-01 0.822E-02
   -.758E+01 -.781E+01 -.204E+04   0.772E+01 0.784E+01 0.204E+04   -.133E+00 -.136E-01 0.177E+01   -.190E-02 -.472E-02 -.110E-01
   -.369E+01 -.441E+01 -.731E+02   0.370E+01 0.424E+01 0.735E+02   0.675E-02 0.167E+00 -.385E+00   -.125E-01 0.107E-02 -.698E-02
   -.392E+01 -.188E+02 0.189E+04   0.377E+01 0.189E+02 -.189E+04   0.138E+00 -.683E-01 -.119E+01   0.908E-02 0.117E-01 -.308E-01
   -.337E+01 -.327E+01 -.203E+04   0.321E+01 0.333E+01 0.203E+04   0.174E+00 -.562E-01 0.169E+01   -.106E-01 -.661E-02 0.120E-01
   -.312E+01 -.158E+01 -.568E+02   0.301E+01 0.121E+01 0.572E+02   0.114E+00 0.364E+00 -.391E+00   -.296E-02 0.426E-03 0.487E-02
   0.133E+02 -.512E+01 -.205E+04   -.135E+02 0.534E+01 0.205E+04   0.187E+00 -.210E+00 0.171E+01   0.217E-01 -.612E-02 -.941E-02
   0.183E+00 -.113E+01 -.734E+02   -.110E+00 0.136E+01 0.734E+02   -.854E-01 -.234E+00 0.540E-02   0.130E-01 0.334E-02 -.119E-01
   -.521E+01 -.124E+01 0.190E+04   0.517E+01 0.154E+01 -.190E+04   0.265E-01 -.306E+00 -.156E+01   0.822E-02 0.578E-02 -.177E-01
   0.106E+02 0.387E+01 -.204E+04   -.108E+02 -.387E+01 0.204E+04   0.243E+00 0.301E-02 0.132E+01   -.941E-02 0.314E-03 0.244E-01
   0.311E+01 -.230E+01 -.509E+02   -.283E+01 0.197E+01 0.513E+02   -.266E+00 0.336E+00 -.406E+00   -.239E-01 -.150E-01 -.750E-02
   -.123E+01 0.607E+00 -.204E+04   0.128E+01 -.493E+00 0.204E+04   -.517E-01 -.114E+00 0.164E+01   0.456E-03 0.531E-02 0.176E-02
 -----------------------------------------------------------------------------------------------
   -.196E+00 -.258E+00 -.537E+01   -.249E-12 -.442E-12 -.432E-11   0.218E+00 0.267E+00 0.515E+01   -.363E-03 -.143E-02 0.179E+00
 
 
 POSITION                                       TOTAL-FORCE (eV/Angst)
 -----------------------------------------------------------------------------------
      1.39576      0.80362      9.67702        -0.002508     -0.001164     -0.005079
      6.88322      2.38495     14.75575        -0.004343      0.003171      0.002930
     10.99837      7.93334      9.60535        -0.001136      0.000165      0.007433
      9.64497      8.75416     12.30804        -0.004312      0.001376      0.002704
      6.86057      0.80058      9.79595         0.000676     -0.003524     -0.003332
     12.38590      8.75469     12.30084         0.002656      0.003460     -0.003157
      6.88091      8.74278     12.28027        -0.002646     -0.002407     -0.006028
      8.25508      7.94041      9.62270        -0.005263     -0.000946     -0.000775
      9.61750      0.80758      9.68920        -0.001728     -0.007154     -0.004064
      5.49751      6.32891     12.26117        -0.002002     -0.006300     -0.004633
      6.87412      5.52760      9.67423        -0.000619     -0.004710     -0.003181
      9.63329      5.53765      9.68945         0.000586     -0.003983     -0.005915
      2.74768     -0.00387     14.91660        -0.000159      0.001976     -0.001355
      5.48235      3.15324      9.84622        -0.001822      0.002975     -0.005179
     11.01647      3.18597      9.76900         0.003119      0.003950     -0.004524
     10.99225      1.62706     12.28924         0.003558     -0.000413     -0.003789
     13.73805      7.91656      9.71715         0.001313     -0.003555     -0.012134
     11.02532      6.33231     12.26713        -0.004732     -0.000566     -0.001915
      2.76952      1.62457     12.33171        -0.003532     -0.004609      0.004129
      2.74409      4.76925     14.76755         0.002001      0.000147      0.001576
      4.09158      5.52971      9.77280         0.001059     -0.003346     -0.005048
     15.11908      8.74373     12.26272         0.004079      0.000842     -0.000100
      5.49495      7.93141      9.56387        -0.002379     -0.000102     -0.002938
      8.25688      6.32632     12.25973         0.004949     -0.001356     -0.000867
      9.63927      2.39156     14.64876         0.000116      0.001245      0.002119
     12.37457      5.54487      9.89963        -0.002080     -0.006250      0.003464
      8.24737      1.61492     12.27573        -0.004829      0.005761      0.002501
      9.63192      7.13879     14.66223         0.001793     -0.000776      0.006677
     10.98098      4.76063     14.64479        -0.003038      0.002939     -0.001207
      8.26311     -0.00225     14.66671         0.004201      0.000599      0.009856
      8.25744      4.77266     14.63707         0.003241      0.002550      0.003850
      9.62701      3.96803     12.25758         0.003407      0.005257     -0.003294
      6.86993      7.13880     14.65947         0.003195      0.002159     -0.001327
      8.25165      3.17265      9.90873        -0.004433     -0.001005      0.004926
      5.50673     -0.00600     14.70410         0.001712      0.010627      0.000111
      5.52253      1.62667     12.31796         0.004181      0.006110     -0.004724
      5.50646      4.77220     14.64360        -0.000981     -0.002573      0.000278
      4.12593      2.38301     14.70418         0.006221      0.004819     -0.003530
      4.12865      3.98075     12.30625         0.006417     -0.004765     -0.003520
      4.11203      0.77856      9.93777        -0.002314     -0.001130      0.012565
      4.12502      7.15762     14.64801         0.003633      0.004666      0.005730
     13.76311      6.33698     12.29195         0.002378     -0.002921     -0.002809
      1.36129      2.38463     14.69711         0.000641      0.004631      0.005143
     12.39021      3.98655     12.30646         0.000717     -0.006167     -0.001746
      2.74472      3.16623      9.94499        -0.005603      0.001392      0.006859
     -0.01083      0.00030     14.66993         0.000848      0.000488      0.005337
      6.88793      3.95036     12.28024        -0.007883     -0.007419      0.001568
     12.37275      7.15630     14.66591         0.001649      0.005838      0.006411
 -----------------------------------------------------------------------------------
    total drift:                                0.020782      0.007367     -0.036357


--------------------------------------------------------------------------------------------------------



  FREE ENERGIE OF THE ION-ELECTRON SYSTEM (eV)
  ---------------------------------------------------
  free  energy   TOTEN  =      -191.68551329 eV

  energy  without entropy=     -191.47831653  energy(sigma->0) =     -191.58191491
 
 d Force = 0.3636098E-03[ 0.174E-03, 0.553E-03]  d Energy = 0.3793248E-03-0.157E-04
 d Force = 0.1726417E+02[ 0.173E+02, 0.172E+02]  d Ewald  = 0.1726417E+02-0.127E-05


--------------------------------------------------------------------------------------------------------


    POTLOK:  cpu time    0.0487: real time    0.0489


--------------------------------------------------------------------------------------------------------


 stress matrix after NEB project (eV)
      0.00000      0.00000      0.00000
      0.00000      0.00000      0.00000
      0.00000      0.00000      0.00000
  FORCES: max atom, RMS     0.012826    0.007099
  FORCE total and by dimension    0.049187    0.012565
  Stress total and by dimension    0.000000    0.000000
 Conjugate gradient step on ions:
 trial-energy change:   -0.000379  1 .order   -0.000364   -0.000553   -0.000174
  (g-gl).g = 0.172E-03      g.g   = 0.192E-03  gl.gl    = 0.408E-03
 g(Force)  = 0.192E-03   g(Stress)= 0.000E+00 ortho     =-0.814E-06
 gamma     =   0.42115
 trial     =   2.88246
 opt step  =   3.87559  (harmonic =   4.20796) maximal distance =0.00401682
 next E    =  -191.685544   (d E  =  -0.00041)


--------------------------------------------------------------------------------------------------------


  
 reached required accuracy - stopping structural energy minimisation
     LOOP+:  cpu time   46.2490: real time   46.6701
    4ORBIT:  cpu time    0.0000: real time    0.0000

 total amount of memory used by VASP on root node    84353. kBytes
========================================================================

   base      :      30000. kBytes
   nonlr-proj:       4285. kBytes
   fftplans  :       4447. kBytes
   grid      :       6721. kBytes
   one-center:        124. kBytes
   wavefun   :      38776. kBytes
 
  
  
 General timing and accounting informations for this job:
 ========================================================
  
                  Total CPU time used (sec):     2111.265
                            User time (sec):     2007.859
                          System time (sec):      103.406
                         Elapsed time (sec):     2139.712
  
                   Maximum memory used (kb):     1083588.
                   Average memory used (kb):           0.
  
                          Minor page faults:      1099869
                          Major page faults:            0
                 Voluntary context switches:        13095
