unknown system                          
           1
    11.002582    0.000000    0.000000
     5.501291    9.528515    0.000000
     0.000000    0.000000   24.491785
   Au   Pd
  24  24
Direct configuration=     1
   0.08333333  0.08333333  0.40830017
   0.50000000  0.25000000  0.59169983
   0.58333333  0.83333333  0.40830017
   0.41666667  0.91666667  0.50000000
   0.58333333  0.08333333  0.40830017
   0.66666667  0.91666667  0.50000000
   0.16666667  0.91666667  0.50000000
   0.33333333  0.83333333  0.40830017
   0.83333333  0.08333333  0.40830017
   0.16666667  0.66666667  0.50000000
   0.33333333  0.58333333  0.40830017
   0.58333333  0.58333333  0.40830017
   0.25000000  0.00000000  0.59169983
   0.33333333  0.33333333  0.40830017
   0.83333333  0.33333333  0.40830017
   0.91666667  0.16666667  0.50000000
   0.83333333  0.83333333  0.40830017
   0.66666667  0.66666667  0.50000000
   0.16666667  0.16666667  0.50000000
   0.00000000  0.50000000  0.59169983
   0.08333333  0.58333333  0.40830017
   0.91666667  0.91666667  0.50000000
   0.08333333  0.83333333  0.40830017
   0.41666667  0.66666667  0.50000000
   0.75000000  0.25000000  0.59169983
   0.83333333  0.58333333  0.40830017
   0.66666667  0.16666667  0.50000000
   0.50000000  0.75000000  0.59169983
   0.75000000  0.50000000  0.59169983
   0.75000000  0.00000000  0.59169983
   0.50000000  0.50000000  0.59169983
   0.66666667  0.41666667  0.50000000
   0.25000000  0.75000000  0.59169983
   0.58333333  0.33333333  0.40830017
   0.50000000  0.00000000  0.59169983
   0.41666667  0.16666667  0.50000000
   0.25000000  0.50000000  0.59169983
   0.25000000  0.25000000  0.59169983
   0.16666667  0.41666667  0.50000000
   0.33333333  0.08333333  0.40830017
   0.00000000  0.75000000  0.59169983
   0.91666667  0.66666667  0.50000000
   0.00000000  0.25000000  0.59169983
   0.91666667  0.41666667  0.50000000
   0.08333333  0.33333333  0.40830017
   0.00000000  0.00000000  0.59169983
   0.41666667  0.41666667  0.50000000
   0.75000000  0.75000000  0.59169983
Direct configuration=     2
   0.08402269  0.08429396  0.40567982
   0.49985550  0.25006158  0.59316522
   0.58340825  0.83333551  0.40566867
   0.41715235  0.91805749  0.50056566
   0.58221469  0.08479274  0.40640565
   0.66663016  0.91755502  0.50124419
   0.16623662  0.91633152  0.50097633
   0.33340246  0.83405596  0.40558741
   0.83191484  0.08453771  0.40600505
   0.16681002  0.66472505  0.50130231
   0.33449971  0.58181201  0.40604295
   0.58448953  0.58188366  0.40608037
   0.25006753 -0.00000033  0.59422793
   0.33344676  0.33256860  0.40679037
   0.83306812  0.33459015  0.40642683
   0.91453846  0.16877956  0.50123584
   0.83360666  0.83198031  0.40600414
   0.66925362  0.66438563  0.50086792
   0.16666309  0.16965402  0.50007398
  -0.00003119  0.50004453  0.59326814
   0.08233532  0.58213095  0.40641446
   0.91556976  0.91680183  0.50136904
   0.08328170  0.83330639  0.40555293
   0.41775681  0.66449550  0.50130428
   0.75035162  0.25027106  0.59259778
   0.83423604  0.58255269  0.40726944
   0.66569612  0.16812789  0.50031771
   0.50051638  0.74947487  0.59305719
   0.74961204  0.49970750  0.59258459
   0.75035640 -0.00032591  0.59281777
   0.50016812  0.50020219  0.59261045
   0.66651052  0.41588776  0.50054765
   0.24999075  0.74948712  0.59304526
   0.58330416  0.33329418  0.40745087
   0.50043808 -0.00020384  0.59289195
   0.41609736  0.16764985  0.50023155
   0.25004068  0.50017122  0.59256616
   0.25006668  0.25020743  0.59267511
   0.16679072  0.41615654  0.50024684
   0.33293954  0.08395812  0.40704034
  -0.00017884  0.75025654  0.59283433
   0.91692958  0.66554460  0.50039167
  -0.00072862  0.25040685  0.59284772
   0.91662613  0.41729021  0.50010556
   0.08315587  0.33373234  0.40735640
  -0.00053867 -0.00001995  0.59304833
   0.41765240  0.41561661  0.50034763
   0.74977346  0.75037478  0.59285821
Direct configuration=     3
   0.08514649  0.08585998  0.40140811
   0.49961993  0.25016196  0.59555410
   0.58353037  0.83333907  0.40137880
   0.41794412  0.92032482  0.50148779
   0.58039108  0.08717186  0.40331719
   0.66657066  0.91900322  0.50327249
   0.16553556  0.91578516  0.50256793
   0.33351515  0.83523398  0.40116505
   0.82960240  0.08650108  0.40226354
   0.16704370  0.66155981  0.50342535
   0.33640115  0.57933193  0.40236321
   0.58637437  0.57952039  0.40246163
   0.25017763 -0.00000086  0.59834924
   0.33363166  0.33132194  0.40432909
   0.83263576  0.33663902  0.40337292
   0.91106905  0.17222402  0.50325050
   0.83405224  0.82977461  0.40226115
   0.67347088  0.66066707  0.50228282
   0.16665725  0.17452401  0.50019458
  -0.00008204  0.50011711  0.59582481
   0.08070836  0.58017081  0.40334037
   0.91378157  0.91702219  0.50360086
   0.08319753  0.83326247  0.40107436
   0.41953395  0.66095604  0.50343052
   0.75092484  0.25071294  0.59406163
   0.83570765  0.58128008  0.40558914
   0.66411393  0.17050997  0.50083565
   0.50135817  0.74861880  0.59526996
   0.74897958  0.49923066  0.59402692
   0.75093741 -0.00085720  0.59464023
   0.50044220  0.50053181  0.59409495
   0.66625598  0.41461799  0.50144043
   0.24997568  0.74865102  0.59523858
   0.58325660  0.33323036  0.40606635
   0.50115224 -0.00053614  0.59483536
   0.41516928  0.16925264  0.50060902
   0.25010699  0.50045035  0.59397844
   0.25017539  0.25054559  0.59426502
   0.16699296  0.41532492  0.50064924
   0.33229758  0.08497666  0.40498656
  -0.00047039  0.75067476  0.59468380
   0.91735818  0.66371540  0.50103016
  -0.00191642  0.25107011  0.59471902
   0.91656006  0.41830671  0.50027765
   0.08286658  0.33438281  0.40581786
  -0.00141681 -0.00005246  0.59524665
   0.41925936  0.41390480  0.50091434
   0.74940414  0.75098576  0.59474662
Direct configuration=     4
   0.08562718  0.08652981  0.39958098
   0.49951917  0.25020490  0.59657589
   0.58358261  0.83334059  0.39954390
   0.41828278  0.92129462  0.50188222
   0.57961107  0.08818948  0.40199617
   0.66654520  0.91962266  0.50414004
   0.16523569  0.91555146  0.50324871
   0.33356335  0.83573786  0.39927349
   0.82861330  0.08734087  0.40066319
   0.16714366  0.66020595  0.50433343
   0.33721445  0.57827113  0.40078928
   0.58718057  0.57850955  0.40091380
   0.25022472 -0.00000109  0.60011205
   0.33371074  0.33078871  0.40327633
   0.83245083  0.33751538  0.40206667
   0.90958509  0.17369731  0.50411223
   0.83424282  0.82883117  0.40066016
   0.67527472  0.65907654  0.50288801
   0.16665475  0.17660704  0.50024617
  -0.00010379  0.50014816  0.59691837
   0.08001247  0.57933241  0.40202550
   0.91301671  0.91711644  0.50455547
   0.08316153  0.83324369  0.39915875
   0.42029409  0.65944212  0.50433997
   0.75117002  0.25090194  0.59468775
   0.83633709  0.58073574  0.40487042
   0.66343719  0.17152886  0.50105719
   0.50171823  0.74825263  0.59621642
   0.74870906  0.49902670  0.59464385
   0.75118592 -0.00108445  0.59541975
   0.50055943  0.50067280  0.59472991
   0.66614710  0.41407487  0.50182230
   0.24996923  0.74829340  0.59617672
   0.58323625  0.33320307  0.40547415
   0.50145770 -0.00067828  0.59566661
   0.41477231  0.16993819  0.50077048
   0.25013535  0.50056975  0.59458252
   0.25022189  0.25069022  0.59494507
   0.16707946  0.41496921  0.50082136
   0.33202300  0.08541231  0.40410811
  -0.00059509  0.75085364  0.59547487
   0.91754151  0.66293300  0.50130327
  -0.00242447  0.25135380  0.59551943
   0.91653179  0.41874149  0.50035126
   0.08274284  0.33466104  0.40515978
  -0.00179241 -0.00006637  0.59618693
   0.41994669  0.41317261  0.50115674
   0.74924618  0.75124709  0.59555434
Direct configuration=     5
   0.08434319  0.08676566  0.39835336
   0.49986369  0.25004427  0.59824487
   0.58385083  0.83304681  0.39815721
   0.41773446  0.91953419  0.50146778
   0.58069872  0.08619433  0.40085594
   0.66632274  0.91941351  0.50302790
   0.16559487  0.91658911  0.50262404
   0.33403974  0.83456709  0.39806880
   0.83019147  0.08643653  0.39949390
   0.16696956  0.66075718  0.50303225
   0.33589745  0.57959400  0.39959700
   0.58596634  0.58050523  0.39968656
   0.24996658  0.00034119  0.60208771
   0.33260082  0.33187590  0.40206641
   0.83382670  0.33569480  0.40082535
   0.91221799  0.17196826  0.50295214
   0.83348035  0.83029123  0.39949314
   0.67255207  0.66120473  0.50209203
   0.16551308  0.17357440  0.50021734
  -0.00028884  0.50012877  0.59864352
   0.08166022  0.57967213  0.40083078
   0.91384578  0.91719750  0.50320820
   0.08321025  0.83309383  0.39788978
   0.41986226  0.66164538  0.50322900
   0.75012463  0.25109372  0.59664068
   0.83485050  0.58140295  0.40408842
   0.66315614  0.17076044  0.50071509
   0.50174440  0.74875725  0.59756128
   0.74891367  0.49853742  0.59618815
   0.75057782  0.00005576  0.59756667
   0.50096604  0.49963469  0.59657971
   0.66597249  0.41483182  0.50119314
   0.24986830  0.74860187  0.59805988
   0.58341266  0.33338079  0.40483544
   0.50098201 -0.00032656  0.59741303
   0.41607024  0.17056886  0.50060013
   0.25076155  0.49954245  0.59620663
   0.25018611  0.25054502  0.59629434
   0.16712218  0.41684396  0.50060678
   0.33245428  0.08480991  0.40336327
  -0.00090162  0.75051597  0.59736691
   0.91821118  0.66345122  0.50109669
  -0.00160166  0.25128113  0.59690412
   0.91719107  0.41765348  0.50028948
   0.08274452  0.33415425  0.40415131
  -0.00158831  0.00012195  0.59808195
   0.41930599  0.41272362  0.50082257
   0.74955547  0.75092202  0.59722932
Direct configuration=     6
   0.08326973  0.08696285  0.39732703
   0.50015173  0.24990998  0.59964020
   0.58407507  0.83280120  0.39699788
   0.41727604  0.91806241  0.50112130
   0.58160803  0.08452632  0.39990267
   0.66613675  0.91923865  0.50209812
   0.16589515  0.91745661  0.50210179
   0.33443802  0.83358828  0.39706164
   0.83151088  0.08568047  0.39851634
   0.16682402  0.66121802  0.50194442
   0.33479640  0.58069997  0.39860021
   0.58495121  0.58217368  0.39866055
   0.24975076  0.00062734  0.60373943
   0.33167289  0.33278483  0.40105487
   0.83497697  0.33417273  0.39978757
   0.91441919  0.17052272  0.50198227
   0.83284290  0.83151189  0.39851747
   0.67027584  0.66298396  0.50142656
   0.16455861  0.17103901  0.50019325
  -0.00044355  0.50011255  0.60008581
   0.08303779  0.57995615  0.39983195
   0.91453892  0.91726528  0.50208184
   0.08325098  0.83296855  0.39682889
   0.41950124  0.66348738  0.50230019
   0.74925065  0.25125405  0.59827340
   0.83360766  0.58196076  0.40343463
   0.66292118  0.17011802  0.50042907
   0.50176628  0.74917913  0.59868562
   0.74908473  0.49812836  0.59747924
   0.75006944  0.00100902  0.59936157
   0.50130598  0.49876679  0.59812620
   0.66582651  0.41546466  0.50066714
   0.24978391  0.74885976  0.59963426
   0.58356014  0.33352937  0.40430145
   0.50058431 -0.00003251  0.59887310
   0.41715534  0.17109612  0.50045771
   0.25128507  0.49868360  0.59756444
   0.25015621  0.25042362  0.59742236
   0.16715789  0.41841131  0.50042739
   0.33281485  0.08430628  0.40274056
  -0.00115789  0.75023366  0.59894872
   0.91877106  0.66388448  0.50092399
  -0.00091376  0.25122037  0.59806176
   0.91774225  0.41674386  0.50023784
   0.08274592  0.33373056  0.40330818
  -0.00141767  0.00027939  0.59966625
   0.41877034  0.41234825  0.50054320
   0.74981405  0.75065025  0.59862967
Direct configuration=     7
   0.08414731  0.08547634  0.39661376
   0.50021737  0.24967557  0.60043613
   0.58384458  0.83293933  0.39619532
   0.41697448  0.91871202  0.50116703
   0.58166211  0.08458290  0.39937510
   0.66625026  0.91861420  0.50213536
   0.16614967  0.91653203  0.50212024
   0.33372190  0.83398534  0.39649931
   0.83186072  0.08517269  0.39796039
   0.16754904  0.66323911  0.50188790
   0.33479449  0.58119061  0.39802063
   0.58493456  0.58186212  0.39802815
   0.24983487  0.00047064  0.60470531
   0.33246298  0.33208977  0.40049066
   0.83402964  0.33474995  0.39919619
   0.91346177  0.17001289  0.50199161
   0.83335871  0.83146468  0.39799727
   0.67046725  0.66352544  0.50137232
   0.16629769  0.17031637  0.50037500
  -0.00054810  0.50009320  0.60075726
   0.08205043  0.58104562  0.39920202
   0.91490684  0.91741980  0.50201130
   0.08329066  0.83318942  0.39614688
   0.41821182  0.66355275  0.50224244
   0.74992020  0.25079846  0.59862628
   0.83371451  0.58218694  0.40326105
   0.66447530  0.16930856  0.50053665
   0.50169673  0.74915272  0.59908550
   0.74894624  0.49836939  0.59784551
   0.75039482  0.00065999  0.59977933
   0.50077934  0.49947329  0.59852482
   0.66630479  0.41542400  0.50058889
   0.24981400  0.74866632  0.59994159
   0.58355589  0.33356614  0.40403042
   0.50051656 -0.00018303  0.59926533
   0.41629665  0.17032929  0.50050806
   0.25112861  0.49918709  0.59804603
   0.25008130  0.25017061  0.59770026
   0.16695247  0.41701454  0.50050482
   0.33275125  0.08377441  0.40276132
  -0.00103420  0.75051724  0.59932011
   0.91792105  0.66455566  0.50103108
  -0.00091613  0.25093649  0.59855163
   0.91731323  0.41748900  0.50043268
   0.08292752  0.33377065  0.40304002
  -0.00149397  0.00028646  0.60007138
   0.41849807  0.41377125  0.50063119
   0.74952475  0.75086176  0.59898849
Direct configuration=     8
   0.08440748  0.08503565  0.39640230
   0.50023683  0.24960608  0.60067209
   0.58377625  0.83298029  0.39595739
   0.41688508  0.91890461  0.50118058
   0.58167814  0.08459968  0.39921869
   0.66628392  0.91842907  0.50214640
   0.16622512  0.91625792  0.50212570
   0.33350960  0.83410305  0.39633260
   0.83196444  0.08502215  0.39779557
   0.16776398  0.66383829  0.50187114
   0.33479392  0.58133606  0.39784880
   0.58492962  0.58176976  0.39784067
   0.24985980  0.00042418  0.60499166
   0.33269722  0.33188371  0.40032340
   0.83374879  0.33492107  0.39902087
   0.91317793  0.16986174  0.50199438
   0.83351164  0.83145068  0.39784304
   0.67052400  0.66368597  0.50135625
   0.16681327  0.17010214  0.50042888
  -0.00057909  0.50008747  0.60095633
   0.08175772  0.58136861  0.39901526
   0.91501591  0.91746561  0.50199039
   0.08330242  0.83325490  0.39594469
   0.41782955  0.66357213  0.50222531
   0.75011869  0.25066340  0.59873090
   0.83374618  0.58225399  0.40320959
   0.66493604  0.16906859  0.50056854
   0.50167611  0.74914489  0.59920404
   0.74890518  0.49844085  0.59795409
   0.75049128  0.00055651  0.59990318
   0.50062321  0.49968275  0.59864299
   0.66644658  0.41541194  0.50056569
   0.24982292  0.74860897  0.60003271
   0.58355463  0.33357704  0.40395006
   0.50049647 -0.00022766  0.59938161
   0.41604207  0.17010195  0.50052299
   0.25108223  0.49933635  0.59818881
   0.25005909  0.25009560  0.59778265
   0.16689156  0.41660045  0.50052777
   0.33273239  0.08361673  0.40276748
  -0.00099753  0.75060131  0.59943021
   0.91766906  0.66475464  0.50106283
  -0.00091684  0.25085233  0.59869685
   0.91718603  0.41770990  0.50049045
   0.08298136  0.33378253  0.40296053
  -0.00151660  0.00028855  0.60019148
   0.41841735  0.41419311  0.50065727
   0.74943899  0.75092446  0.59909487
Direct configuration=     9
   0.08459537  0.08489962  0.39597605
   0.50024371  0.24959476  0.60096938
   0.58359563  0.83300986  0.39537422
   0.41710186  0.91870601  0.50141488
   0.58171416  0.08482530  0.39900697
   0.66639154  0.91860485  0.50241578
   0.16612939  0.91669037  0.50236974
   0.33352778  0.83422640  0.39592060
   0.83179695  0.08512636  0.39740134
   0.16729322  0.66376140  0.50207223
   0.33488725  0.58111498  0.39743908
   0.58492740  0.58165690  0.39746192
   0.24990372  0.00009291  0.60560676
   0.33302281  0.33176479  0.40013312
   0.83361869  0.33502891  0.39873079
   0.91320725  0.17015146  0.50221490
   0.83355033  0.83140152  0.39754825
   0.67024181  0.66366574  0.50148674
   0.16651283  0.17018949  0.50062393
  -0.00052436  0.50016939  0.60125989
   0.08148996  0.58144107  0.39876660
   0.91488483  0.91716853  0.50226835
   0.08331867  0.83325638  0.39535891
   0.41845480  0.66325406  0.50241107
   0.75059488  0.25050634  0.59868381
   0.83395592  0.58230579  0.40322303
   0.66491907  0.16890342  0.50077449
   0.50151188  0.74905001  0.59919545
   0.74866811  0.49877535  0.59795996
   0.75084272 -0.00000555  0.59982051
   0.50036268  0.50019291  0.59858224
   0.66656541  0.41571106  0.50070699
   0.24982144  0.74863230  0.60008089
   0.58347484  0.33339953  0.40389698
   0.50065329 -0.00044997  0.59939180
   0.41620685  0.16991041  0.50063785
   0.25068759  0.49989677  0.59817665
   0.24998921  0.25004721  0.59786538
   0.16662854  0.41675959  0.50063373
   0.33262997  0.08337747  0.40288849
  -0.00082365  0.75078542  0.59932309
   0.91804384  0.66495856  0.50127408
  -0.00103731  0.25053941  0.59874591
   0.91717767  0.41759875  0.50070886
   0.08300251  0.33367722  0.40300118
  -0.00141788  0.00017258  0.60020591
   0.41842518  0.41434717  0.50086011
   0.74923166  0.75110721  0.59913111
Direct configuration=    10
   0.08475746  0.08478227  0.39560834
   0.50024965  0.24958500  0.60122585
   0.58343981  0.83303537  0.39487115
   0.41728888  0.91853468  0.50161699
   0.58174524  0.08501993  0.39882433
   0.66648438  0.91875649  0.50264817
   0.16604680  0.91706342  0.50258025
   0.33354347  0.83433281  0.39556519
   0.83165247  0.08521626  0.39706125
   0.16688711  0.66369507  0.50224569
   0.33496776  0.58092426  0.39708563
   0.58492548  0.58155954  0.39713519
   0.24994161 -0.00019286  0.60613739
   0.33330369  0.33166220  0.39996897
   0.83350647  0.33512193  0.39848055
   0.91323255  0.17040139  0.50240514
   0.83358370  0.83135911  0.39729394
   0.66999838  0.66364830  0.50159932
   0.16625365  0.17026484  0.50079220
  -0.00047715  0.50024006  0.60152176
   0.08125897  0.58150358  0.39855209
   0.91477175  0.91691226  0.50250813
   0.08333269  0.83325766  0.39485358
   0.41899417  0.66297968  0.50257132
   0.75100566  0.25037085  0.59864318
   0.83413686  0.58235047  0.40323462
   0.66490443  0.16876093  0.50095216
   0.50137020  0.74896817  0.59918804
   0.74846359  0.49906391  0.59796502
   0.75114589 -0.00049043  0.59974919
   0.50013794  0.50063301  0.59852984
   0.66666792  0.41596910  0.50082888
   0.24982016  0.74865243  0.60012245
   0.58340601  0.33324640  0.40385118
   0.50078858 -0.00064175  0.59940059
   0.41634899  0.16974517  0.50073694
   0.25034715  0.50038022  0.59816617
   0.24992893  0.25000546  0.59793675
   0.16640164  0.41689688  0.50072513
   0.33254161  0.08317106  0.40299288
  -0.00067366  0.75094425  0.59923069
   0.91836715  0.66513448  0.50145631
  -0.00114125  0.25026945  0.59878822
   0.91717046  0.41750286  0.50089728
   0.08302075  0.33358637  0.40303625
  -0.00133272  0.00007253  0.60021836
   0.41843193  0.41448007  0.50103508
   0.74905281  0.75126486  0.59916238
Direct configuration=    11
   0.08428349  0.08519307  0.39529987
   0.50026103  0.24978612  0.60138738
   0.58357851  0.83305013  0.39436717
   0.41733616  0.91840431  0.50177140
   0.58179183  0.08467888  0.39876949
   0.66637246  0.91872123  0.50267645
   0.16609078  0.91716118  0.50274872
   0.33373827  0.83395590  0.39517835
   0.83174177  0.08534177  0.39677050
   0.16718116  0.66339614  0.50218554
   0.33483007  0.58087523  0.39677471
   0.58492800  0.58159766  0.39683736
   0.25003279 -0.00037997  0.60676851
   0.33292434  0.33184982  0.39999709
   0.83380773  0.33489026  0.39837066
   0.91322250  0.17043004  0.50236302
   0.83315721  0.83161898  0.39710743
   0.67042260  0.66375806  0.50153698
   0.16601639  0.17034238  0.50093575
  -0.00053756  0.50025933  0.60171632
   0.08174418  0.58109060  0.39847434
   0.91488055  0.91721519  0.50253379
   0.08341780  0.83315300  0.39431681
   0.41870328  0.66323596  0.50250108
   0.75084257  0.25048030  0.59857373
   0.83396276  0.58242819  0.40345223
   0.66454578  0.16916980  0.50110372
   0.50117842  0.74908721  0.59922954
   0.74845868  0.49927028  0.59797894
   0.75120271 -0.00058609  0.59972757
   0.50020821  0.50040465  0.59850070
   0.66682802  0.41576739  0.50085065
   0.24976384  0.74882447  0.60012764
   0.58346871  0.33322776  0.40400119
   0.50069240 -0.00063347  0.59942896
   0.41644864  0.17008207  0.50083742
   0.25023711  0.50041937  0.59811623
   0.24988345  0.24996344  0.59799449
   0.16641170  0.41710066  0.50076039
   0.33266152  0.08318780  0.40327963
  -0.00060171  0.75088608  0.59922875
   0.91825487  0.66483962  0.50161662
  -0.00105579  0.25019989  0.59887722
   0.91711734  0.41775707  0.50105034
   0.08311523  0.33338171  0.40327102
  -0.00117594 -0.00006808  0.60023636
   0.41849551  0.41407770  0.50118874
   0.74913065  0.75110692  0.59917921
Direct configuration=    12
   0.08395043  0.08548175  0.39508310
   0.50026904  0.24992745  0.60150089
   0.58367598  0.83306050  0.39401300
   0.41736938  0.91831269  0.50187991
   0.58182457  0.08443921  0.39873096
   0.66629381  0.91869644  0.50269632
   0.16612168  0.91722987  0.50286710
   0.33387516  0.83369103  0.39490650
   0.83180453  0.08542996  0.39656618
   0.16738779  0.66318607  0.50214327
   0.33473330  0.58084078  0.39655623
   0.58492977  0.58162445  0.39662808
   0.25009686 -0.00051145  0.60721202
   0.33265777  0.33198168  0.40001685
   0.83401943  0.33472745  0.39829343
   0.91321544  0.17045018  0.50233343
   0.83285750  0.83180161  0.39697635
   0.67072070  0.66383520  0.50149317
   0.16584967  0.17039687  0.50103663
  -0.00058001  0.50027287  0.60185304
   0.08208515  0.58080039  0.39841970
   0.91495701  0.91742807  0.50255182
   0.08347761  0.83307945  0.39393960
   0.41849886  0.66341605  0.50245171
   0.75072796  0.25055721  0.59852493
   0.83384042  0.58248281  0.40360515
   0.66429375  0.16945713  0.50121022
   0.50104365  0.74917086  0.59925870
   0.74845524  0.49941530  0.59798872
   0.75124263 -0.00065331  0.59971238
   0.50025759  0.50024418  0.59848022
   0.66694052  0.41562565  0.50086595
   0.24972426  0.74894536  0.60013129
   0.58351277  0.33321466  0.40410661
   0.50062481 -0.00062764  0.59944890
   0.41651867  0.17031883  0.50090803
   0.25015978  0.50044688  0.59808113
   0.24985149  0.24993392  0.59803506
   0.16641878  0.41724387  0.50078517
   0.33274579  0.08319955  0.40348114
  -0.00055114  0.75084520  0.59922739
   0.91817596  0.66463241  0.50172928
  -0.00099574  0.25015100  0.59893976
   0.91708000  0.41793571  0.50115790
   0.08318162  0.33323789  0.40343600
  -0.00106577 -0.00016690  0.60024902
   0.41854018  0.41379494  0.50129672
   0.74918535  0.75099592  0.59919104
Direct configuration=    13
   0.08419109  0.08525216  0.39484051
   0.50020577  0.24993705  0.60167568
   0.58356246  0.83295721  0.39350756
   0.41713791  0.91850148  0.50192628
   0.58169387  0.08450937  0.39881580
   0.66637208  0.91881625  0.50254616
   0.16628880  0.91713572  0.50289655
   0.33376805  0.83375611  0.39450945
   0.83184191  0.08525600  0.39634533
   0.16756047  0.66334243  0.50187272
   0.33480986  0.58080598  0.39630281
   0.58504266  0.58149895  0.39640732
   0.25010118 -0.00033487  0.60788363
   0.33273763  0.33172829  0.40018562
   0.83398362  0.33497399  0.39831667
   0.91321491  0.17039883  0.50214465
   0.83320143  0.83161797  0.39692871
   0.67047285  0.66394176  0.50133551
   0.16603328  0.17032029  0.50120762
  -0.00053489  0.50012797  0.60203778
   0.08184749  0.58102740  0.39845089
   0.91503774  0.91757632  0.50230760
   0.08330934  0.83307115  0.39342255
   0.41848359  0.66339835  0.50220327
   0.75052913  0.25067822  0.59848721
   0.83382856  0.58243554  0.40387068
   0.66428417  0.16955610  0.50124912
   0.50103113  0.74918917  0.59929935
   0.74847052  0.49944291  0.59800195
   0.75106493 -0.00043198  0.59974343
   0.50034892  0.50004940  0.59844455
   0.66675017  0.41592677  0.50077512
   0.24974835  0.74888652  0.60013233
   0.58349903  0.33325496  0.40437252
   0.50045019 -0.00041629  0.59951886
   0.41636418  0.17049468  0.50102068
   0.25019465  0.50023530  0.59807034
   0.24986786  0.24984204  0.59810857
   0.16650464  0.41717666  0.50083179
   0.33277524  0.08293283  0.40391048
  -0.00056426  0.75068709  0.59924770
   0.91832787  0.66465341  0.50179935
  -0.00086548  0.25017027  0.59905612
   0.91712729  0.41792557  0.50129239
   0.08311799  0.33318991  0.40380110
  -0.00105360 -0.00011284  0.60031493
   0.41856480  0.41375510  0.50134554
   0.74927065  0.75086251  0.59923522
Direct configuration=    14
   0.08437912  0.08507277  0.39465098
   0.50015633  0.24994456  0.60181225
   0.58347377  0.83287651  0.39311266
   0.41695706  0.91864899  0.50196250
   0.58159175  0.08456418  0.39888209
   0.66643323  0.91890985  0.50242883
   0.16641937  0.91706216  0.50291956
   0.33368435  0.83380697  0.39419923
   0.83187111  0.08512008  0.39617278
   0.16769538  0.66346459  0.50166134
   0.33486967  0.58077878  0.39610481
   0.58513085  0.58140089  0.39623485
   0.25010455 -0.00019690  0.60840837
   0.33280003  0.33153032  0.40031748
   0.83395563  0.33516661  0.39833483
   0.91321449  0.17035872  0.50199716
   0.83347014  0.83147450  0.39689148
   0.67027920  0.66402501  0.50121233
   0.16617673  0.17026046  0.50134122
  -0.00049964  0.50001475  0.60218212
   0.08166181  0.58120476  0.39847527
   0.91510081  0.91769215  0.50211678
   0.08317787  0.83306467  0.39301858
   0.41847166  0.66338453  0.50200916
   0.75037378  0.25077277  0.59845773
   0.83381929  0.58239860  0.40407814
   0.66427668  0.16963342  0.50127951
   0.50102134  0.74920347  0.59933112
   0.74848247  0.49946449  0.59801228
   0.75092610 -0.00025905  0.59976770
   0.50042028  0.49989722  0.59841668
   0.66660144  0.41616204  0.50070415
   0.24976717  0.74884055  0.60013314
   0.58348829  0.33328645  0.40458028
   0.50031376 -0.00025117  0.59957352
   0.41624347  0.17063207  0.50110870
   0.25022189  0.50006999  0.59806192
   0.24988066  0.24977025  0.59816600
   0.16657172  0.41712414  0.50086821
   0.33279825  0.08272444  0.40424593
  -0.00057451  0.75056356  0.59926356
   0.91844656  0.66466982  0.50185410
  -0.00076371  0.25018532  0.59914703
   0.91716423  0.41791764  0.50139746
   0.08306829  0.33315243  0.40408635
  -0.00104408 -0.00007061  0.60036644
   0.41858403  0.41372398  0.50138368
   0.74933729  0.75075828  0.59926973
Direct configuration=    15
   0.08445146  0.08500376  0.39457806
   0.50013732  0.24994744  0.60186479
   0.58343965  0.83284546  0.39296073
   0.41688748  0.91870574  0.50197644
   0.58155246  0.08458527  0.39890759
   0.66645676  0.91894586  0.50238370
   0.16646960  0.91703386  0.50292841
   0.33365216  0.83382653  0.39407988
   0.83188235  0.08506778  0.39610640
   0.16774729  0.66351159  0.50158002
   0.33489269  0.58076832  0.39602863
   0.58516479  0.58136317  0.39616849
   0.25010585 -0.00014383  0.60861024
   0.33282404  0.33145416  0.40036821
   0.83394487  0.33524072  0.39834181
   0.91321433  0.17034328  0.50194041
   0.83357352  0.83141930  0.39687716
   0.67020470  0.66405704  0.50116494
   0.16623192  0.17023744  0.50139262
  -0.00048608  0.49997120  0.60223765
   0.08159038  0.58127300  0.39848465
   0.91512508  0.91773671  0.50204337
   0.08312729  0.83306217  0.39286316
   0.41846707  0.66337921  0.50193448
   0.75031401  0.25080915  0.59844639
   0.83381572  0.58238440  0.40415795
   0.66427380  0.16966316  0.50129120
   0.50101758  0.74920897  0.59934334
   0.74848706  0.49947279  0.59801626
   0.75087269 -0.00019253  0.59977703
   0.50044774  0.49983867  0.59840596
   0.66654422  0.41625255  0.50067685
   0.24977441  0.74882287  0.60013346
   0.58348416  0.33329857  0.40466021
   0.50026128 -0.00018764  0.59959455
   0.41619703  0.17068493  0.50114256
   0.25023237  0.50000639  0.59805867
   0.24988559  0.24974263  0.59818810
   0.16659753  0.41710394  0.50088222
   0.33280711  0.08264426  0.40437498
  -0.00057846  0.75051603  0.59926966
   0.91849222  0.66467613  0.50187516
  -0.00072455  0.25019112  0.59918201
   0.91717844  0.41791459  0.50143789
   0.08304916  0.33313801  0.40419610
  -0.00104042 -0.00005436  0.60038625
   0.41859143  0.41371201  0.50139836
   0.74936292  0.75071818  0.59928301
Direct configuration=    16
   0.08468392  0.08476015  0.39443167
   0.50006504  0.24975437  0.60203891
   0.58352294  0.83281593  0.39250204
   0.41714210  0.91852779  0.50211643
   0.58175569  0.08438192  0.39909368
   0.66642636  0.91889078  0.50225249
   0.16653811  0.91715132  0.50291861
   0.33343103  0.83382233  0.39367195
   0.83173001  0.08525121  0.39592892
   0.16753811  0.66388025  0.50135325
   0.33489955  0.58068005  0.39579995
   0.58497215  0.58151613  0.39597819
   0.25005725 -0.00013888  0.60920320
   0.33280998  0.33154713  0.40062536
   0.83401043  0.33488793  0.39844986
   0.91342746  0.17045640  0.50177983
   0.83329933  0.83129235  0.39691593
   0.66953656  0.66460877  0.50111979
   0.16599066  0.17003351  0.50174339
  -0.00039567  0.49986492  0.60237026
   0.08162121  0.58108351  0.39861149
   0.91526322  0.91751849  0.50180883
   0.08334129  0.83308854  0.39230506
   0.41861111  0.66342744  0.50166593
   0.75053032  0.25079446  0.59835302
   0.83383340  0.58257833  0.40432091
   0.66459033  0.16936350  0.50131778
   0.50103913  0.74915781  0.59921856
   0.74843490  0.49935864  0.59795743
   0.75091131 -0.00021689  0.59968269
   0.50030602  0.50020334  0.59829575
   0.66657539  0.41651864  0.50062232
   0.24989865  0.74859144  0.60000955
   0.58355830  0.33322475  0.40487989
   0.50043368 -0.00031574  0.59961149
   0.41636289  0.17044343  0.50139178
   0.25020145  0.50001007  0.59798856
   0.24993622  0.24971783  0.59835673
   0.16651169  0.41738286  0.50104711
   0.33282979  0.08220660  0.40473412
  -0.00060987  0.75062120  0.59911586
   0.91866488  0.66504127  0.50198166
  -0.00089452  0.25007559  0.59923729
   0.91718591  0.41771680  0.50170005
   0.08308141  0.33315964  0.40455086
  -0.00121898  0.00009442  0.60033914
   0.41841344  0.41420521  0.50141956
   0.74914641  0.75096446  0.59918286
Direct configuration=    17
   0.08471498  0.08472761  0.39441212
   0.50005538  0.24972857  0.60206218
   0.58353407  0.83281199  0.39244076
   0.41717612  0.91850401  0.50213513