  48  48   0   0
  0.5349325E+02  0.1100258E-08  0.1100258E-08  0.2449179E-08  0.3500000E-15
  1.000000000000000E-004
  CAR 
 unknown system                          
      6.34185177     -9.79219788  301     -1.10640359      1.00000000
     -9.792  0.0000E+00  0.0000E+00
     -9.738  0.0000E+00  0.0000E+00
     -9.685  0.0000E+00  0.0000E+00
     -9.631  0.0000E+00  0.0000E+00
     -9.577  0.0000E+00  0.0000E+00
     -9.523  0.0000E+00  0.0000E+00
     -9.470  0.0000E+00  0.0000E+00
     -9.416  0.0000E+00  0.0000E+00
     -9.362  0.4817E-17  0.2591E-18
     -9.308  0.2022E-14  0.1090E-15
     -9.254  0.4460E-12  0.2409E-13
     -9.201  0.5628E-10  0.3051E-11
     -9.147  0.4075E-08  0.2222E-09
     -9.093  0.1700E-06  0.9364E-08
     -9.039  0.4102E-05  0.2300E-06
     -8.985  0.5750E-04  0.3322E-05
     -8.932  0.4700E-03  0.2860E-04
     -8.878  0.2248E-02  0.1495E-03
     -8.824  0.6328E-02  0.4898E-03
     -8.770  0.1066E-01  0.1063E-02
     -8.717  0.1158E-01  0.1686E-02
     -8.663  0.1034E-01  0.2242E-02
     -8.609  0.1021E-01  0.2791E-02
     -8.555  0.9772E-02  0.3317E-02
     -8.501  0.7219E-02  0.3705E-02
     -8.448  0.3873E-02  0.3913E-02
     -8.394  0.1806E-02  0.4010E-02
     -8.340  0.1884E-02  0.4112E-02
     -8.286  0.3210E-02  0.4284E-02
     -8.233  0.3829E-02  0.4490E-02
     -8.179  0.3572E-02  0.4682E-02
     -8.125  0.4810E-02  0.4941E-02
     -8.071  0.8263E-02  0.5385E-02
     -8.017  0.1149E-01  0.6003E-02
     -7.964  0.1296E-01  0.6700E-02
     -7.910  0.1401E-01  0.7454E-02
     -7.856  0.1642E-01  0.8337E-02
     -7.802  0.1892E-01  0.9355E-02
     -7.749  0.1885E-01  0.1037E-01
     -7.695  0.1579E-01  0.1122E-01
     -7.641  0.1183E-01  0.1185E-01
     -7.587  0.1093E-01  0.1244E-01
     -7.533  0.1540E-01  0.1327E-01
     -7.480  0.2255E-01  0.1448E-01
     -7.426  0.2640E-01  0.1590E-01
     -7.372  0.2467E-01  0.1723E-01
     -7.318  0.2170E-01  0.1839E-01
     -7.265  0.2121E-01  0.1954E-01
     -7.211  0.2394E-01  0.2082E-01
     -7.157  0.3019E-01  0.2245E-01
     -7.103  0.3752E-01  0.2446E-01
     -7.049  0.4155E-01  0.2670E-01
     -6.996  0.4453E-01  0.2909E-01
     -6.942  0.5278E-01  0.3193E-01
     -6.888  0.6587E-01  0.3548E-01
     -6.834  0.7844E-01  0.3969E-01
     -6.781  0.8631E-01  0.4434E-01
     -6.727  0.8925E-01  0.4914E-01
     -6.673  0.9064E-01  0.5401E-01
     -6.619  0.9292E-01  0.5901E-01
     -6.565  0.9578E-01  0.6416E-01
     -6.512  0.9940E-01  0.6950E-01
     -6.458  0.1049E+00  0.7515E-01
     -6.404  0.1120E+00  0.8117E-01
     -6.350  0.1212E+00  0.8769E-01
     -6.296  0.1329E+00  0.9484E-01
     -6.243  0.1439E+00  0.1026E+00
     -6.189  0.1496E+00  0.1106E+00
     -6.135  0.1502E+00  0.1187E+00
     -6.081  0.1510E+00  0.1268E+00
     -6.028  0.1531E+00  0.1350E+00
     -5.974  0.1515E+00  0.1432E+00
     -5.920  0.1446E+00  0.1510E+00
     -5.866  0.1366E+00  0.1583E+00
     -5.812  0.1327E+00  0.1655E+00
     -5.759  0.1342E+00  0.1727E+00
     -5.705  0.1394E+00  0.1802E+00
     -5.651  0.1448E+00  0.1880E+00
     -5.597  0.1457E+00  0.1958E+00
     -5.544  0.1434E+00  0.2035E+00
     -5.490  0.1434E+00  0.2112E+00
     -5.436  0.1449E+00  0.2190E+00
     -5.382  0.1461E+00  0.2269E+00
     -5.328  0.1500E+00  0.2349E+00
     -5.275  0.1566E+00  0.2434E+00
     -5.221  0.1626E+00  0.2521E+00
     -5.167  0.1672E+00  0.2611E+00
     -5.113  0.1712E+00  0.2703E+00
     -5.060  0.1717E+00  0.2795E+00
     -5.006  0.1683E+00  0.2886E+00
     -4.952  0.1676E+00  0.2976E+00
     -4.898  0.1711E+00  0.3068E+00
     -4.844  0.1725E+00  0.3161E+00
     -4.791  0.1720E+00  0.3253E+00
     -4.737  0.1759E+00  0.3348E+00
     -4.683  0.1826E+00  0.3446E+00
     -4.629  0.1838E+00  0.3545E+00
     -4.576  0.1775E+00  0.3640E+00
     -4.522  0.1702E+00  0.3732E+00
     -4.468  0.1654E+00  0.3821E+00
     -4.414  0.1632E+00  0.3909E+00
     -4.360  0.1651E+00  0.3997E+00
     -4.307  0.1704E+00  0.4089E+00
     -4.253  0.1715E+00  0.4181E+00
     -4.199  0.1691E+00  0.4272E+00
     -4.145  0.1711E+00  0.4364E+00
     -4.092  0.1770E+00  0.4459E+00
     -4.038  0.1833E+00  0.4558E+00
     -3.984  0.1907E+00  0.4661E+00
     -3.930  0.1974E+00  0.4767E+00
     -3.876  0.2003E+00  0.4874E+00
     -3.823  0.2011E+00  0.4983E+00
     -3.769  0.2020E+00  0.5091E+00
     -3.715  0.2028E+00  0.5200E+00
     -3.661  0.2029E+00  0.5309E+00
     -3.607  0.2058E+00  0.5420E+00
     -3.554  0.2125E+00  0.5534E+00
     -3.500  0.2158E+00  0.5650E+00
     -3.446  0.2116E+00  0.5764E+00
     -3.392  0.2077E+00  0.5876E+00
     -3.339  0.2100E+00  0.5989E+00
     -3.285  0.2129E+00  0.6103E+00
     -3.231  0.2100E+00  0.6216E+00
     -3.177  0.2029E+00  0.6325E+00
     -3.123  0.1967E+00  0.6431E+00
     -3.070  0.1944E+00  0.6536E+00
     -3.016  0.1937E+00  0.6640E+00
     -2.962  0.1909E+00  0.6743E+00
     -2.908  0.1883E+00  0.6844E+00
     -2.855  0.1877E+00  0.6945E+00
     -2.801  0.1866E+00  0.7045E+00
     -2.747  0.1828E+00  0.7144E+00
     -2.693  0.1764E+00  0.7238E+00
     -2.639  0.1710E+00  0.7330E+00
     -2.586  0.1711E+00  0.7422E+00
     -2.532  0.1742E+00  0.7516E+00
     -2.478  0.1751E+00  0.7610E+00
     -2.424  0.1745E+00  0.7704E+00
     -2.371  0.1765E+00  0.7799E+00
     -2.317  0.1820E+00  0.7897E+00
     -2.263  0.1869E+00  0.7997E+00
     -2.209  0.1879E+00  0.8099E+00
     -2.155  0.1858E+00  0.8198E+00
     -2.102  0.1830E+00  0.8297E+00
     -2.048  0.1815E+00  0.8394E+00
     -1.994  0.1813E+00  0.8492E+00
     -1.940  0.1828E+00  0.8590E+00
     -1.887  0.1856E+00  0.8690E+00
     -1.833  0.1862E+00  0.8790E+00
     -1.779  0.1836E+00  0.8889E+00
     -1.725  0.1819E+00  0.8987E+00
     -1.671  0.1831E+00  0.9085E+00
     -1.618  0.1861E+00  0.9185E+00
     -1.564  0.1885E+00  0.9287E+00
     -1.510  0.1896E+00  0.9389E+00
     -1.456  0.1913E+00  0.9492E+00
     -1.402  0.1937E+00  0.9596E+00
     -1.349  0.1936E+00  0.9700E+00
     -1.295  0.1885E+00  0.9801E+00
     -1.241  0.1760E+00  0.9896E+00
     -1.187  0.1552E+00  0.9979E+00
     -1.134  0.1306E+00  0.1005E+01
     -1.080  0.1055E+00  0.1011E+01
     -1.026  0.7817E-01  0.1015E+01
     -0.972  0.5013E-01  0.1018E+01
     -0.918  0.2825E-01  0.1019E+01
     -0.865  0.1715E-01  0.1020E+01
     -0.811  0.1626E-01  0.1021E+01
     -0.757  0.2096E-01  0.1022E+01
     -0.703  0.2555E-01  0.1023E+01
     -0.650  0.2870E-01  0.1025E+01
     -0.596  0.3183E-01  0.1027E+01
     -0.542  0.3486E-01  0.1028E+01
     -0.488  0.3854E-01  0.1031E+01
     -0.434  0.4028E-01  0.1033E+01
     -0.381  0.3589E-01  0.1035E+01
     -0.327  0.3074E-01  0.1036E+01
     -0.273  0.3184E-01  0.1038E+01
     -0.219  0.3651E-01  0.1040E+01
     -0.166  0.3869E-01  0.1042E+01
     -0.112  0.3578E-01  0.1044E+01
     -0.058  0.2961E-01  0.1046E+01
     -0.004  0.2568E-01  0.1047E+01
      0.050  0.2741E-01  0.1048E+01
      0.103  0.3303E-01  0.1050E+01
      0.157  0.3850E-01  0.1052E+01
      0.211  0.4059E-01  0.1054E+01
      0.265  0.3853E-01  0.1057E+01
      0.318  0.3313E-01  0.1058E+01
      0.372  0.2873E-01  0.1060E+01
      0.426  0.2917E-01  0.1061E+01
      0.480  0.3147E-01  0.1063E+01
      0.534  0.3457E-01  0.1065E+01
      0.587  0.4010E-01  0.1067E+01
      0.641  0.4483E-01  0.1070E+01
      0.695  0.4560E-01  0.1072E+01
      0.749  0.4275E-01  0.1074E+01
      0.802  0.3706E-01  0.1076E+01
      0.856  0.3002E-01  0.1078E+01
      0.910  0.2537E-01  0.1079E+01
      0.964  0.2493E-01  0.1081E+01
      1.018  0.2560E-01  0.1082E+01
      1.071  0.2305E-01  0.1083E+01
      1.125  0.1687E-01  0.1084E+01
      1.179  0.1135E-01  0.1085E+01
      1.233  0.1033E-01  0.1085E+01
      1.287  0.1265E-01  0.1086E+01
      1.340  0.1643E-01  0.1087E+01
      1.394  0.2223E-01  0.1088E+01
      1.448  0.2916E-01  0.1090E+01
      1.502  0.3280E-01  0.1091E+01
      1.555  0.3004E-01  0.1093E+01
      1.609  0.2503E-01  0.1094E+01
      1.663  0.2416E-01  0.1096E+01
      1.717  0.2767E-01  0.1097E+01
      1.771  0.3297E-01  0.1099E+01
      1.824  0.3736E-01  0.1101E+01
      1.878  0.3732E-01  0.1103E+01
      1.932  0.3308E-01  0.1105E+01
      1.986  0.2782E-01  0.1106E+01
      2.039  0.2355E-01  0.1107E+01
      2.093  0.2232E-01  0.1109E+01
      2.147  0.2491E-01  0.1110E+01
      2.201  0.2816E-01  0.1112E+01
      2.255  0.3097E-01  0.1113E+01
      2.308  0.3662E-01  0.1115E+01
      2.362  0.4405E-01  0.1118E+01
      2.416  0.4831E-01  0.1120E+01
      2.470  0.4646E-01  0.1123E+01
      2.523  0.4080E-01  0.1125E+01
      2.577  0.3883E-01  0.1127E+01
      2.631  0.4371E-01  0.1129E+01
      2.685  0.4800E-01  0.1132E+01
      2.739  0.4353E-01  0.1134E+01
      2.792  0.3297E-01  0.1136E+01
      2.846  0.2461E-01  0.1137E+01
      2.900  0.2043E-01  0.1138E+01
      2.954  0.1630E-01  0.1139E+01
      3.007  0.1128E-01  0.1140E+01
      3.061  0.9259E-02  0.1140E+01
      3.115  0.1122E-01  0.1141E+01
      3.169  0.1402E-01  0.1142E+01
      3.223  0.1749E-01  0.1143E+01
      3.276  0.2300E-01  0.1144E+01
      3.330  0.2684E-01  0.1145E+01
      3.384  0.2536E-01  0.1147E+01
      3.438  0.2206E-01  0.1148E+01
      3.492  0.2334E-01  0.1149E+01
      3.545  0.3010E-01  0.1151E+01
      3.599  0.3601E-01  0.1153E+01
      3.653  0.3635E-01  0.1155E+01
      3.707  0.3400E-01  0.1156E+01
      3.760  0.3313E-01  0.1158E+01
      3.814  0.3136E-01  0.1160E+01
      3.868  0.2554E-01  0.1161E+01
      3.922  0.2098E-01  0.1162E+01
      3.976  0.2378E-01  0.1164E+01
      4.029  0.2922E-01  0.1165E+01
      4.083  0.2916E-01  0.1167E+01
      4.137  0.2506E-01  0.1168E+01
      4.191  0.2287E-01  0.1169E+01
      4.244  0.2211E-01  0.1171E+01
      4.298  0.1971E-01  0.1172E+01
      4.352  0.1834E-01  0.1173E+01
      4.406  0.2218E-01  0.1174E+01
      4.460  0.2904E-01  0.1175E+01
      4.513  0.3627E-01  0.1177E+01
      4.567  0.4649E-01  0.1180E+01
      4.621  0.5680E-01  0.1183E+01
      4.675  0.5643E-01  0.1186E+01
      4.728  0.4482E-01  0.1188E+01
      4.782  0.3710E-01  0.1190E+01
      4.836  0.4237E-01  0.1193E+01
      4.890  0.5230E-01  0.1195E+01
      4.944  0.5987E-01  0.1199E+01
      4.997  0.6748E-01  0.1202E+01
      5.051  0.7332E-01  0.1206E+01
      5.105  0.7188E-01  0.1210E+01
      5.159  0.6515E-01  0.1214E+01
      5.212  0.5874E-01  0.1217E+01
      5.266  0.5199E-01  0.1220E+01
      5.320  0.4088E-01  0.1222E+01
      5.374  0.2551E-01  0.1223E+01
      5.428  0.1143E-01  0.1224E+01
      5.481  0.3411E-02  0.1224E+01
      5.535  0.6435E-03  0.1224E+01
      5.589  0.7423E-04  0.1224E+01
      5.643  0.5123E-05  0.1224E+01
      5.696  0.2082E-06  0.1224E+01
      5.750  0.4930E-08  0.1224E+01
      5.804  0.6745E-10  0.1224E+01
      5.858  0.5298E-12  0.1224E+01
      5.912  0.2380E-14  0.1224E+01
      5.965  0.6881E-17  0.1224E+01
      6.019  0.0000E+00  0.1224E+01
      6.073  0.0000E+00  0.1224E+01
      6.127  0.0000E+00  0.1224E+01
      6.181  0.0000E+00  0.1224E+01
      6.234  0.0000E+00  0.1224E+01
      6.288  0.0000E+00  0.1224E+01
      6.342  0.0000E+00  0.1224E+01
