  48  48   0   0
  0.5349325E+02  0.1100258E-08  0.1100258E-08  0.2449179E-08  0.3500000E-15
  1.000000000000000E-004
  CAR 
 unknown system                          
      6.38395260     -9.74439271  301     -1.09028460      1.00000000
     -9.744  0.0000E+00  0.0000E+00
     -9.691  0.0000E+00  0.0000E+00
     -9.637  0.0000E+00  0.0000E+00
     -9.583  0.0000E+00  0.0000E+00
     -9.529  0.0000E+00  0.0000E+00
     -9.476  0.0000E+00  0.0000E+00
     -9.422  0.0000E+00  0.0000E+00
     -9.368  0.0000E+00  0.0000E+00
     -9.314  0.1239E-16  0.6661E-18
     -9.261  0.4504E-14  0.2428E-15
     -9.207  0.9771E-12  0.5277E-13
     -9.153  0.1202E-09  0.6514E-11
     -9.099  0.8399E-08  0.4581E-09
     -9.045  0.3341E-06  0.1842E-07
     -8.992  0.7584E-05  0.4262E-06
     -8.938  0.9846E-04  0.5719E-05
     -8.884  0.7328E-03  0.4512E-04
     -8.830  0.3135E-02  0.2136E-03
     -8.777  0.7732E-02  0.6293E-03
     -8.723  0.1112E-01  0.1227E-02
     -8.669  0.1003E-01  0.1767E-02
     -8.615  0.8233E-02  0.2209E-02
     -8.562  0.9844E-02  0.2738E-02
     -8.508  0.1113E-01  0.3337E-02
     -8.454  0.8008E-02  0.3767E-02
     -8.400  0.3378E-02  0.3949E-02
     -8.347  0.8336E-03  0.3994E-02
     -8.293  0.2147E-03  0.4005E-02
     -8.239  0.6687E-03  0.4041E-02
     -8.185  0.2677E-02  0.4185E-02
     -8.132  0.6808E-02  0.4551E-02
     -8.078  0.1169E-01  0.5179E-02
     -8.024  0.1581E-01  0.6029E-02
     -7.970  0.1984E-01  0.7096E-02
     -7.917  0.2253E-01  0.8307E-02
     -7.863  0.2095E-01  0.9434E-02
     -7.809  0.1698E-01  0.1035E-01
     -7.755  0.1375E-01  0.1109E-01
     -7.701  0.1095E-01  0.1167E-01
     -7.648  0.9616E-02  0.1219E-01
     -7.594  0.1245E-01  0.1286E-01
     -7.540  0.1789E-01  0.1382E-01
     -7.486  0.2164E-01  0.1499E-01
     -7.433  0.2284E-01  0.1621E-01
     -7.379  0.2295E-01  0.1745E-01
     -7.325  0.2223E-01  0.1864E-01
     -7.271  0.2093E-01  0.1977E-01
     -7.218  0.2010E-01  0.2085E-01
     -7.164  0.2147E-01  0.2200E-01
     -7.110  0.2815E-01  0.2352E-01
     -7.056  0.3995E-01  0.2566E-01
     -7.003  0.5076E-01  0.2839E-01
     -6.949  0.5708E-01  0.3146E-01
     -6.895  0.6294E-01  0.3485E-01
     -6.841  0.7216E-01  0.3873E-01
     -6.788  0.8270E-01  0.4317E-01
     -6.734  0.9200E-01  0.4812E-01
     -6.680  0.1006E+00  0.5352E-01
     -6.626  0.1075E+00  0.5930E-01
     -6.572  0.1097E+00  0.6520E-01
     -6.519  0.1064E+00  0.7092E-01
     -6.465  0.1004E+00  0.7632E-01
     -6.411  0.9951E-01  0.8167E-01
     -6.357  0.1105E+00  0.8761E-01
     -6.304  0.1285E+00  0.9452E-01
     -6.250  0.1416E+00  0.1021E+00
     -6.196  0.1461E+00  0.1100E+00
     -6.142  0.1477E+00  0.1179E+00
     -6.089  0.1502E+00  0.1260E+00
     -6.035  0.1543E+00  0.1343E+00
     -5.981  0.1603E+00  0.1429E+00
     -5.927  0.1630E+00  0.1517E+00
     -5.874  0.1589E+00  0.1602E+00
     -5.820  0.1525E+00  0.1684E+00
     -5.766  0.1476E+00  0.1764E+00
     -5.712  0.1435E+00  0.1841E+00
     -5.659  0.1400E+00  0.1916E+00
     -5.605  0.1378E+00  0.1990E+00
     -5.551  0.1373E+00  0.2064E+00
     -5.497  0.1378E+00  0.2138E+00
     -5.444  0.1402E+00  0.2213E+00
     -5.390  0.1437E+00  0.2291E+00
     -5.336  0.1471E+00  0.2370E+00
     -5.282  0.1519E+00  0.2451E+00
     -5.228  0.1573E+00  0.2536E+00
     -5.175  0.1593E+00  0.2622E+00
     -5.121  0.1563E+00  0.2706E+00
     -5.067  0.1511E+00  0.2787E+00
     -5.013  0.1497E+00  0.2867E+00
     -4.960  0.1556E+00  0.2951E+00
     -4.906  0.1645E+00  0.3039E+00
     -4.852  0.1714E+00  0.3132E+00
     -4.798  0.1760E+00  0.3226E+00
     -4.745  0.1789E+00  0.3322E+00
     -4.691  0.1806E+00  0.3419E+00
     -4.637  0.1808E+00  0.3517E+00
     -4.583  0.1785E+00  0.3613E+00
     -4.530  0.1763E+00  0.3707E+00
     -4.476  0.1766E+00  0.3802E+00
     -4.422  0.1758E+00  0.3897E+00
     -4.368  0.1719E+00  0.3989E+00
     -4.315  0.1699E+00  0.4081E+00
     -4.261  0.1733E+00  0.4174E+00
     -4.207  0.1778E+00  0.4269E+00
     -4.153  0.1789E+00  0.4366E+00
     -4.099  0.1785E+00  0.4462E+00
     -4.046  0.1805E+00  0.4559E+00
     -3.992  0.1853E+00  0.4658E+00
     -3.938  0.1923E+00  0.4762E+00
     -3.884  0.1984E+00  0.4868E+00
     -3.831  0.1992E+00  0.4975E+00
     -3.777  0.1943E+00  0.5080E+00
     -3.723  0.1885E+00  0.5181E+00
     -3.669  0.1860E+00  0.5281E+00
     -3.616  0.1867E+00  0.5381E+00
     -3.562  0.1877E+00  0.5482E+00
     -3.508  0.1884E+00  0.5584E+00
     -3.454  0.1897E+00  0.5686E+00
     -3.401  0.1924E+00  0.5789E+00
     -3.347  0.1970E+00  0.5895E+00
     -3.293  0.2002E+00  0.6003E+00
     -3.239  0.1975E+00  0.6109E+00
     -3.186  0.1909E+00  0.6211E+00
     -3.132  0.1858E+00  0.6311E+00
     -3.078  0.1803E+00  0.6408E+00
     -3.024  0.1738E+00  0.6502E+00
     -2.970  0.1704E+00  0.6593E+00
     -2.917  0.1696E+00  0.6684E+00
     -2.863  0.1717E+00  0.6777E+00
     -2.809  0.1791E+00  0.6873E+00
     -2.755  0.1877E+00  0.6974E+00
     -2.702  0.1927E+00  0.7078E+00
     -2.648  0.1935E+00  0.7182E+00
     -2.594  0.1915E+00  0.7285E+00
     -2.540  0.1886E+00  0.7386E+00
     -2.487  0.1845E+00  0.7485E+00
     -2.433  0.1779E+00  0.7581E+00
     -2.379  0.1713E+00  0.7673E+00
     -2.325  0.1701E+00  0.7764E+00
     -2.272  0.1753E+00  0.7859E+00
     -2.218  0.1827E+00  0.7957E+00
     -2.164  0.1872E+00  0.8058E+00
     -2.110  0.1870E+00  0.8158E+00
     -2.057  0.1853E+00  0.8258E+00
     -2.003  0.1873E+00  0.8358E+00
     -1.949  0.1941E+00  0.8463E+00
     -1.895  0.2030E+00  0.8572E+00
     -1.842  0.2094E+00  0.8684E+00
     -1.788  0.2111E+00  0.8798E+00
     -1.734  0.2092E+00  0.8910E+00
     -1.680  0.2069E+00  0.9022E+00
     -1.626  0.2069E+00  0.9133E+00
     -1.573  0.2081E+00  0.9245E+00
     -1.519  0.2080E+00  0.9357E+00
     -1.465  0.2070E+00  0.9468E+00
     -1.411  0.2048E+00  0.9578E+00
     -1.358  0.1993E+00  0.9685E+00
     -1.304  0.1875E+00  0.9786E+00
     -1.250  0.1703E+00  0.9877E+00
     -1.196  0.1501E+00  0.9958E+00
     -1.143  0.1271E+00  0.1003E+01
     -1.089  0.1021E+00  0.1008E+01
     -1.035  0.7901E-01  0.1012E+01
     -0.981  0.5910E-01  0.1016E+01
     -0.928  0.4178E-01  0.1018E+01
     -0.874  0.2797E-01  0.1019E+01
     -0.820  0.1956E-01  0.1020E+01
     -0.766  0.1684E-01  0.1021E+01
     -0.713  0.1722E-01  0.1022E+01
     -0.659  0.1811E-01  0.1023E+01
     -0.605  0.1981E-01  0.1024E+01
     -0.551  0.2514E-01  0.1026E+01
     -0.497  0.3515E-01  0.1027E+01
     -0.444  0.4583E-01  0.1030E+01
     -0.390  0.4894E-01  0.1033E+01
     -0.336  0.4180E-01  0.1035E+01
     -0.282  0.3550E-01  0.1037E+01
     -0.229  0.3856E-01  0.1039E+01
     -0.175  0.4267E-01  0.1041E+01
     -0.121  0.3877E-01  0.1043E+01
     -0.067  0.2996E-01  0.1045E+01
     -0.014  0.2349E-01  0.1046E+01
      0.040  0.2261E-01  0.1047E+01
      0.094  0.2471E-01  0.1049E+01
      0.148  0.2765E-01  0.1050E+01
      0.201  0.3189E-01  0.1052E+01
      0.255  0.3468E-01  0.1054E+01
      0.309  0.3444E-01  0.1056E+01
      0.363  0.3388E-01  0.1057E+01
      0.416  0.3498E-01  0.1059E+01
      0.470  0.3758E-01  0.1061E+01
      0.524  0.4011E-01  0.1063E+01
      0.578  0.4239E-01  0.1066E+01
      0.632  0.4645E-01  0.1068E+01
      0.685  0.5080E-01  0.1071E+01
      0.739  0.4901E-01  0.1074E+01
      0.793  0.3992E-01  0.1076E+01
      0.847  0.3001E-01  0.1077E+01
      0.900  0.2423E-01  0.1079E+01
      0.954  0.2216E-01  0.1080E+01
      1.008  0.2162E-01  0.1081E+01
      1.062  0.2148E-01  0.1082E+01
      1.115  0.2019E-01  0.1083E+01
      1.169  0.1753E-01  0.1084E+01
      1.223  0.1563E-01  0.1085E+01
      1.277  0.1484E-01  0.1086E+01
      1.330  0.1474E-01  0.1087E+01
      1.384  0.1591E-01  0.1087E+01
      1.438  0.1929E-01  0.1088E+01
      1.492  0.2582E-01  0.1090E+01
      1.545  0.3167E-01  0.1092E+01
      1.599  0.3091E-01  0.1093E+01
      1.653  0.2658E-01  0.1095E+01
      1.707  0.2675E-01  0.1096E+01
      1.760  0.3334E-01  0.1098E+01
      1.814  0.3999E-01  0.1100E+01
      1.868  0.3732E-01  0.1102E+01
      1.922  0.2497E-01  0.1103E+01
      1.976  0.1426E-01  0.1104E+01
      2.029  0.1271E-01  0.1105E+01
      2.083  0.1700E-01  0.1106E+01
      2.137  0.2328E-01  0.1107E+01
      2.191  0.3102E-01  0.1109E+01
      2.244  0.3833E-01  0.1111E+01
      2.298  0.4491E-01  0.1113E+01
      2.352  0.5105E-01  0.1116E+01
      2.406  0.5379E-01  0.1119E+01
      2.459  0.5098E-01  0.1121E+01
      2.513  0.4487E-01  0.1124E+01
      2.567  0.4040E-01  0.1126E+01
      2.621  0.4110E-01  0.1128E+01
      2.674  0.4628E-01  0.1131E+01
      2.728  0.4868E-01  0.1133E+01
      2.782  0.4141E-01  0.1136E+01
      2.836  0.2812E-01  0.1137E+01
      2.889  0.1796E-01  0.1138E+01
      2.943  0.1408E-01  0.1139E+01
      2.997  0.1211E-01  0.1140E+01
      3.051  0.9723E-02  0.1140E+01
      3.105  0.1007E-01  0.1141E+01
      3.158  0.1427E-01  0.1141E+01
      3.212  0.1991E-01  0.1142E+01
      3.266  0.2450E-01  0.1144E+01
      3.320  0.2555E-01  0.1145E+01
      3.373  0.2223E-01  0.1146E+01
      3.427  0.1718E-01  0.1147E+01
      3.481  0.1448E-01  0.1148E+01
      3.535  0.1679E-01  0.1149E+01
      3.588  0.2373E-01  0.1150E+01
      3.642  0.3280E-01  0.1152E+01
      3.696  0.3986E-01  0.1154E+01
      3.750  0.4195E-01  0.1156E+01
      3.803  0.3961E-01  0.1158E+01
      3.857  0.3331E-01  0.1160E+01
      3.911  0.2564E-01  0.1162E+01
      3.965  0.2329E-01  0.1163E+01
      4.018  0.2744E-01  0.1164E+01
      4.072  0.3007E-01  0.1166E+01
      4.126  0.2665E-01  0.1167E+01
      4.180  0.2247E-01  0.1169E+01
      4.234  0.2165E-01  0.1170E+01
      4.287  0.2089E-01  0.1171E+01
      4.341  0.1821E-01  0.1172E+01
      4.395  0.1780E-01  0.1173E+01
      4.449  0.2242E-01  0.1174E+01
      4.502  0.3098E-01  0.1176E+01
      4.556  0.4257E-01  0.1178E+01
      4.610  0.5442E-01  0.1181E+01
      4.664  0.5936E-01  0.1184E+01
      4.717  0.5326E-01  0.1187E+01
      4.771  0.4399E-01  0.1189E+01
      4.825  0.4220E-01  0.1192E+01
      4.879  0.4678E-01  0.1194E+01
      4.932  0.5058E-01  0.1197E+01
      4.986  0.5550E-01  0.1200E+01
      5.040  0.6611E-01  0.1203E+01
      5.094  0.7521E-01  0.1207E+01
      5.147  0.7407E-01  0.1211E+01
      5.201  0.6596E-01  0.1215E+01
      5.255  0.5714E-01  0.1218E+01
      5.309  0.4658E-01  0.1221E+01
      5.362  0.3281E-01  0.1222E+01
      5.416  0.1922E-01  0.1223E+01
      5.470  0.8881E-02  0.1224E+01
      5.524  0.2908E-02  0.1224E+01
      5.578  0.6109E-03  0.1224E+01
      5.631  0.7765E-04  0.1224E+01
      5.685  0.5803E-05  0.1224E+01
      5.739  0.2513E-06  0.1224E+01
      5.793  0.6260E-08  0.1224E+01
      5.846  0.8919E-10  0.1224E+01
      5.900  0.7242E-12  0.1224E+01
      5.954  0.3340E-14  0.1224E+01
      6.008  0.9637E-17  0.1224E+01
      6.061  0.0000E+00  0.1224E+01
      6.115  0.0000E+00  0.1224E+01
      6.169  0.0000E+00  0.1224E+01
      6.223  0.0000E+00  0.1224E+01
      6.276  0.0000E+00  0.1224E+01
      6.330  0.0000E+00  0.1224E+01
      6.384  0.0000E+00  0.1224E+01
