 vasp.5.4.1 24Jun15 (build Mar 14 2019 10:18:33) complex                        
  
 executed on INTEL-19.0.2+OPENMPI date 2023.01.31  00:48:19
 running on   36 total cores
 distrk:  each k-point on   36 cores,    1 groups
 distr:  one band on NCORES_PER_BAND=   6 cores,    6 groups


--------------------------------------------------------------------------------------------------------


 INCAR:
 POTCAR:    PAW_PBE Au 04Oct2007                  
 POTCAR:    PAW_PBE Pd 04Jan2005                  
 POTCAR:    PAW_PBE Au 04Oct2007                  
  local pseudopotential read in
  partial core-charges read in
  partial kinetic energy density read in
  atomic valenz-charges read in
  non local Contribution for L=           2  read in
    real space projection operators read in
  non local Contribution for L=           2  read in
    real space projection operators read in
  non local Contribution for L=           0  read in
    real space projection operators read in
  non local Contribution for L=           0  read in
    real space projection operators read in
  non local Contribution for L=           1  read in
    real space projection operators read in
  non local Contribution for L=           1  read in
    real space projection operators read in
    PAW grid and wavefunctions read in
 
   number of l-projection  operators is LMAX  =           6
   number of lm-projection operators is LMMAX =          18
 
 POTCAR:    PAW_PBE Pd 04Jan2005                  
  local pseudopotential read in
  partial core-charges read in
  partial kinetic energy density read in
  atomic valenz-charges read in
  non local Contribution for L=           2  read in
    real space projection operators read in
  non local Contribution for L=           2  read in
    real space projection operators read in
  non local Contribution for L=           0  read in
    real space projection operators read in
  non local Contribution for L=           0  read in
    real space projection operators read in
  non local Contribution for L=           1  read in
    real space projection operators read in
  non local Contribution for L=           1  read in
    real space projection operators read in
    PAW grid and wavefunctions read in
 
   number of l-projection  operators is LMAX  =           6
   number of lm-projection operators is LMMAX =          18
 
 Optimization of the real space projectors (new method)

 maximal supplied QI-value         = 15.12
 optimisation between [QCUT,QGAM] = [ 10.13, 20.41] = [ 28.73,116.64] Ry 
 Optimized for a Real-space Cutoff    1.51 Angstroem

   l    n(q)    QCUT    max X(q) W(low)/X(q) W(high)/X(q)  e(spline) 
   2      8    10.129    60.898    0.46E-03    0.46E-03    0.14E-06
   2      8    10.129    58.894    0.47E-03    0.47E-03    0.14E-06
   0      9    10.129   109.617    0.16E-03    0.11E-03    0.54E-07
   0      9    10.129    75.026    0.15E-03    0.11E-03    0.52E-07
   1      9    10.129    16.344    0.96E-04    0.15E-03    0.14E-06
   1      9    10.129    10.160    0.81E-04    0.12E-03    0.11E-06
 Optimization of the real space projectors (new method)

 maximal supplied QI-value         = 14.36
 optimisation between [QCUT,QGAM] = [ 10.20, 20.39] = [ 29.12,116.47] Ry 
 Optimized for a Real-space Cutoff    1.51 Angstroem

   l    n(q)    QCUT    max X(q) W(low)/X(q) W(high)/X(q)  e(spline) 
   2      8    10.197    59.108    0.26E-03    0.14E-03    0.96E-07
   2      8    10.197    58.101    0.27E-03    0.14E-03    0.98E-07
   0      9    10.197   102.235    0.54E-04    0.60E-05    0.72E-07
   0      9    10.197    58.388    0.52E-04    0.60E-05    0.68E-07
   1      9    10.197    22.191    0.18E-03    0.25E-03    0.79E-07
   1      9    10.197    15.590    0.15E-03    0.21E-03    0.69E-07
  PAW_PBE Au 04Oct2007                  :
 energy of atom  1       EATOM= -926.0867
 kinetic energy error for atom=    0.0062 (will be added to EATOM!!)
  PAW_PBE Pd 04Jan2005                  :
 energy of atom  2       EATOM= -809.7530
 kinetic energy error for atom=    0.0091 (will be added to EATOM!!)
 
 
 POSCAR: Au Pd                                   
  positions in cartesian coordinates
  No initial velocities read in
 exchange correlation table for  LEXCH =        8
   RHO(1)=    0.500       N(1)  =     2000
   RHO(2)=  100.500       N(2)  =     4000

 VTST: version 3.2, (02/03/18)

 CHAIN: initializing optimizer
 
 OPT: Using VASP Conjugate-Gradient optimizer
 CHAIN: Read ICHAIN            0
 
 POSCAR: Au Pd                                   
  positions in cartesian coordinates
  No initial velocities read in
 


--------------------------------------------------------------------------------------------------------


 ion  position               nearest neighbor table
   1  0.333  0.333  0.408-  38 2.75  26 2.75  28 2.75  37 2.75   2 2.75  22 2.75  32 2.75  20 2.75
                            14 2.75
   2  0.083  0.583  0.408-  17 2.75   4 2.75   8 2.75   1 2.75  32 2.75  26 2.75   6 2.75  14 2.75
                            30 2.75
   3  0.667  0.417  0.500-  22 2.75   9 2.75  23 2.75   5 2.75  11 2.75  40 2.75  41 2.75  31 2.75
                            38 2.75  46 2.75  45 2.75  44 2.75
   4  0.833  0.833  0.408-  34 2.75   6 2.75   2 2.75  37 2.75  42 2.75  19 2.75   8 2.75  30 2.75
                            47 2.75
   5  0.917  0.167  0.500-  42 2.75  29 2.75   9 2.75  31 2.75  34 2.75  35 2.75   3 2.75  41 2.75
                            12 2.75  45 2.75  36 2.75  13 2.75
   6  0.833  0.583  0.408-  30 2.75  19 2.75   4 2.75  32 2.75  45 2.75   2 2.75  46 2.75  31 2.75
                            40 2.75
   7  0.000  0.500  0.592-  30 2.75  14 2.75  10 2.75  15 2.75  13 2.75  48 2.75  44 2.75  25 2.75
                            31 2.75
   8  0.083  0.833  0.408-  35 2.75  26 2.75   2 2.75  36 2.75  42 2.75  33 2.75   4 2.75  17 2.75
                            34 2.75
   9  0.750  0.250  0.592-   3 2.75   5 2.75  16 2.75  23 2.75  29 2.75  44 2.75  13 2.75  24 2.75
                            41 2.75
  10  0.000  0.750  0.592-  34 2.75  17 2.75   7 2.75  25 2.75  29 2.75  16 2.75  39 2.75  48 2.75
                            30 2.75
  11  0.417  0.667  0.500-  26 2.75  23 2.75  39 2.75  18 2.75  35 2.75  38 2.75   3 2.75  17 2.75
                            40 2.75  33 2.75  43 2.75  46 2.75
  12  0.167  0.167  0.500-  36 2.75  27 2.75  13 2.75  14 2.75  31 2.75  35 2.75  18 2.75   5 2.75
                            20 2.75  32 2.75  15 2.75  28 2.75
  13  0.000  0.250  0.592-  31 2.75  12 2.75  27 2.75  29 2.75   7 2.75  44 2.75   9 2.75  15 2.75
                             5 2.75
  14  0.167  0.417  0.500-  32 2.75  15 2.75   7 2.75  17 2.75  20 2.75  30 2.75  12 2.75  31 2.75
                            38 2.75   2 2.75   1 2.75  25 2.75
  15  0.250  0.250  0.592-  14 2.75  20 2.75   7 2.75  21 2.75  25 2.75  27 2.75  13 2.75  24 2.75
                            12 2.75
  16  0.750  0.000  0.592-  41 2.75  34 2.75  24 2.75   9 2.75  10 2.75  48 2.75  29 2.75  21 2.75
                            47 2.75
  17  0.167  0.667  0.500-   2 2.75  25 2.75  10 2.75  14 2.75  34 2.75  35 2.75  38 2.75  30 2.75
                            11 2.75   8 2.75  26 2.75  39 2.75
  18  0.417  0.917  0.500-  33 2.75  43 2.75  27 2.75  11 2.75  12 2.75  40 2.75  20 2.75  35 2.75
                            47 2.75  28 2.75  21 2.75  19 2.75
  19  0.583  0.833  0.408-  47 2.75  28 2.75  37 2.75  46 2.75   6 2.75  33 2.75   4 2.75  40 2.75
                            18 2.75
  20  0.417  0.167  0.500-  28 2.75  21 2.75  15 2.75  14 2.75  18 2.75  38 2.75  47 2.75  41 2.75
                            12 2.75   1 2.75  37 2.75  24 2.75
  21  0.500  0.000  0.592-  20 2.75  47 2.75  24 2.75  43 2.75  15 2.75  48 2.75  27 2.75  16 2.75
                            18 2.75
  22  0.583  0.333  0.408-   3 2.75  26 2.75  37 2.75  42 2.75  46 2.75  45 2.75   1 2.75  41 2.75
                            38 2.75
  23  0.500  0.500  0.592-  11 2.75   3 2.75   9 2.75  24 2.75  39 2.75  43 2.75  25 2.75  44 2.75
                            38 2.75
  24  0.500  0.250  0.592-  38 2.75  41 2.75  23 2.75  25 2.75  16 2.75  21 2.75   9 2.75  15 2.75
                            20 2.75
  25  0.250  0.500  0.592-  17 2.75  38 2.75  10 2.75  24 2.75  15 2.75  39 2.75  23 2.75   7 2.75
                            14 2.75
  26  0.333  0.583  0.408-  11 2.75   8 2.75   1 2.75  22 2.75  33 2.75   2 2.75  46 2.75  38 2.75
                            17 2.75
  27  0.250  0.000  0.592-  12 2.75  18 2.75  15 2.75  13 2.75  39 2.75  43 2.75  21 2.75  29 2.75
                            35 2.75
  28  0.333  0.083  0.408-  20 2.75  19 2.75   1 2.75  32 2.75  33 2.75  36 2.75  37 2.75  18 2.75
                            12 2.75
  29  0.000  0.000  0.592-   5 2.75  35 2.75  10 2.75  13 2.75   9 2.75  39 2.75  16 2.75  27 2.75
                            34 2.75
  30  0.917  0.667  0.500-   6 2.75   7 2.75  48 2.75  31 2.75  34 2.75  47 2.75  14 2.75  17 2.75
                            40 2.75   4 2.75  10 2.75   2 2.75
  31  0.917  0.417  0.500-  45 2.75  13 2.75  44 2.75  30 2.75  40 2.75  12 2.75   5 2.75   3 2.75
                            14 2.75   6 2.75  32 2.75   7 2.75
  32  0.083  0.333  0.408-  14 2.75   6 2.75   2 2.75  28 2.75  36 2.75   1 2.75  45 2.75  12 2.75
                            31 2.75
  33  0.333  0.833  0.408-  18 2.75  26 2.75  28 2.75  36 2.75  46 2.75   8 2.75  19 2.75  11 2.75
                            35 2.75
  34  0.917  0.917  0.500-   4 2.75  10 2.75  16 2.75   5 2.75  17 2.75  30 2.75  41 2.75  35 2.75
                            47 2.75  42 2.75  29 2.75   8 2.75
  35  0.167  0.917  0.500-   8 2.75  39 2.75  29 2.75  12 2.75  17 2.75   5 2.75  11 2.75  34 2.75
                            18 2.75  36 2.75  33 2.75  27 2.75
  36  0.083  0.083  0.408-  12 2.75   8 2.75  32 2.75  33 2.75  45 2.75  42 2.75  28 2.75  35 2.75
                             5 2.75
  37  0.583  0.083  0.408-  41 2.75   4 2.75  19 2.75  22 2.75   1 2.75  28 2.75  42 2.75  47 2.75
                            20 2.75
  38  0.417  0.417  0.500-   1 2.75  24 2.75  25 2.75  20 2.75  11 2.75  17 2.75  41 2.75  14 2.75
                             3 2.75  26 2.75  22 2.75  23 2.75
  39  0.250  0.750  0.592-  35 2.75  11 2.75  25 2.75  27 2.75  29 2.75  23 2.75  10 2.75  43 2.75
                            17 2.75
  40  0.667  0.667  0.500-  46 2.75  44 2.75  43 2.75   3 2.75  18 2.75  31 2.75  47 2.75  30 2.75
                            11 2.75  19 2.75   6 2.75  48 2.75
  41  0.667  0.167  0.500-  37 2.75  16 2.75  24 2.75  34 2.75   3 2.75  38 2.75  47 2.75  20 2.75
                             5 2.75  22 2.75  42 2.75   9 2.75
  42  0.833  0.083  0.408-   5 2.75   4 2.75   8 2.75  22 2.75  45 2.75  37 2.75  36 2.75  34 2.75
                            41 2.75
  43  0.500  0.750  0.592-  18 2.75  40 2.75  23 2.75  27 2.75  21 2.75  44 2.75  39 2.75  48 2.75
                            11 2.75
  44  0.750  0.500  0.592-  40 2.75  31 2.75   9 2.75  13 2.75  43 2.75  48 2.75   7 2.75  23 2.75
                             3 2.75
  45  0.833  0.333  0.408-  31 2.75   6 2.75  36 2.75  42 2.75  46 2.75  32 2.75  22 2.75   5 2.75
                             3 2.75
  46  0.583  0.583  0.408-  40 2.75  22 2.75  33 2.75  19 2.75  45 2.75  26 2.75   6 2.75   3 2.75
                            11 2.75
  47  0.667  0.917  0.500-  19 2.75  48 2.75  21 2.75  30 2.75  40 2.75  41 2.75  20 2.75  34 2.75
                            18 2.75  37 2.75   4 2.75  16 2.75
  48  0.750  0.750  0.592-  47 2.75  30 2.75  21 2.75   7 2.75  44 2.75  16 2.75  10 2.75  43 2.75
                            40 2.75
 
  LATTYP: Found a hexagonal cell.
 ALAT       =    11.0025815153
 C/A-ratio  =     2.2260035120
  
  Lattice vectors:
  
 A1 = (   5.5012907576,  -9.5285150994,   0.0000000000)
 A2 = ( -11.0025815153,   0.0000000000,   0.0000000000)
 A3 = (   0.0000000000,   0.0000000000, -24.4917850943)


Analysis of symmetry for initial positions (statically):
=====================================================================
 Subroutine PRICEL returns:
 Original cell was already a primitive cell.
 

 Routine SETGRP: Setting up the symmetry group for a 
 hexagonal supercell.


 Subroutine GETGRP returns: Found  1 space group operations
 (whereof  1 operations were pure point group operations)
 out of a pool of 24 trial point group operations.


The static configuration has the point symmetry C_1 .


Analysis of symmetry for dynamics (positions and initial velocities):
=====================================================================
 Subroutine PRICEL returns:
 Original cell was already a primitive cell.
 

 Routine SETGRP: Setting up the symmetry group for a 
 hexagonal supercell.


 Subroutine GETGRP returns: Found  1 space group operations
 (whereof  1 operations were pure point group operations)
 out of a pool of 24 trial point group operations.


The dynamic configuration has the point symmetry C_1 .


Analysis of constrained symmetry for selective dynamics:
=====================================================================
 Subroutine PRICEL returns:
 Original cell was already a primitive cell.
 

 Routine SETGRP: Setting up the symmetry group for a 
 hexagonal supercell.


 Subroutine GETGRP returns: Found  1 space group operations
 (whereof  1 operations were pure point group operations)
 out of a pool of 24 trial point group operations.


The constrained configuration has the point symmetry C_1 .
 
 
 KPOINTS: Automatic mesh                          

Automatic generation of k-mesh.
Space group operators:
 irot       det(A)        alpha          n_x          n_y          n_z        tau_x        tau_y        tau_z
    1     1.000000     0.000000     1.000000     0.000000     0.000000     0.000000     0.000000     0.000000
 
 Subroutine IBZKPT returns following result:
 ===========================================
 
 Found      6 irreducible k-points:
 
 Following reciprocal coordinates:
            Coordinates               Weight
  0.250000  0.250000  0.000000     16.000000
  0.000000  0.250000  0.000000     16.000000
 -0.250000  0.000000  0.000000     16.000000
 -0.250000  0.250000  0.000000     16.000000
  0.500000 -0.250000  0.000000     16.000000
 -0.250000  0.500000  0.000000     16.000000
 
 Following cartesian coordinates:
            Coordinates               Weight
  0.022722  0.013119  0.000000     16.000000
  0.000000  0.026237  0.000000     16.000000
 -0.022722  0.013119  0.000000     16.000000
 -0.022722  0.039356  0.000000     16.000000
  0.045444 -0.052474  0.000000     16.000000
 -0.022722  0.065593  0.000000     16.000000
 


--------------------------------------------------------------------------------------------------------




 Dimension of arrays:
   k-points           NKPTS =      6   k-points in BZ     NKDIM =      6   number of bands    NBANDS=    306
   number of dos      NEDOS =    301   number of ions     NIONS =     48
   non local maximal  LDIM  =      6   non local SUM 2l+1 LMDIM =     18
   total plane-waves  NPLWV = 349920
   max r-space proj   IRMAX =   2009   max aug-charges    IRDMAX=   8532
   dimension x,y,z NGX =    54 NGY =   54 NGZ =  120
   dimension x,y,z NGXF=   108 NGYF=  108 NGZF=  240
   support grid    NGXF=   108 NGYF=  108 NGZF=  240
   ions per type =              24  24
 NGX,Y,Z   is equivalent  to a cutoff of   8.16,  8.16,  8.15 a.u.
 NGXF,Y,Z  is equivalent  to a cutoff of  16.32, 16.32, 16.29 a.u.


 I would recommend the setting:
   dimension x,y,z NGX =    54 NGY =   54 NGZ =  120
 SYSTEM =  unknown system                          
 POSCAR =  Au Pd                                   

 Startparameter for this run:
   NWRITE =      1    write-flag & timer
   PREC   = normal    normal or accurate (medium, high low for compatibility)
   ISTART =      0    job   : 0-new  1-cont  2-samecut
   ICHARG =      2    charge: 1-file 2-atom 10-const
   ISPIN  =      1    spin polarized calculation?
   LNONCOLLINEAR =      F non collinear calculations
   LSORBIT =      F    spin-orbit coupling
   INIWAV =      1    electr: 0-lowe 1-rand  2-diag
   LASPH  =      F    aspherical Exc in radial PAW
   METAGGA=      F    non-selfconsistent MetaGGA calc.

 Electronic Relaxation 1
   ENCUT  =  400.0 eV  29.40 Ry    5.42 a.u.  17.94 17.94 39.94*2*pi/ulx,y,z
   ENINI  =  400.0     initial cutoff
   ENAUG  =  416.2 eV  augmentation charge cutoff
   NELM   =    500;   NELMIN=  2; NELMDL= -5     # of ELM steps 
   EDIFF  = 0.1E-05   stopping-criterion for ELM
   LREAL  =      T    real-space projection
   NLSPLINE    = F    spline interpolate recip. space projectors
   LCOMPAT=      F    compatible to vasp.4.4
   GGA_COMPAT  = T    GGA compatible to vasp.4.4-vasp.4.6
   LMAXPAW     = -100 max onsite density
   LMAXMIX     =    2 max onsite mixed and CHGCAR
   VOSKOWN=      1    Vosko Wilk Nusair interpolation
   ROPT   =   -0.00050  -0.00050
 Ionic relaxation
   EDIFFG = -.2E-01   stopping-criterion for IOM
   NSW    =    500    number of steps for IOM
   NBLOCK =      1;   KBLOCK =    500    inner block; outer block 
   IBRION =      2    ionic relax: 0-MD 1-quasi-New 2-CG
   NFREE  =      2    steps in history (QN), initial steepest desc. (CG)
   ISIF   =      0    stress and relaxation
   IWAVPR =     11    prediction:  0-non 1-charg 2-wave 3-comb
   ISYM   =      2    0-nonsym 1-usesym 2-fastsym
   LCORR  =      T    Harris-Foulkes like correction to forces

   POTIM  = 0.3500    time-step for ionic-motion
   TEIN   =    0.0    initial temperature
   TEBEG  =    0.0;   TEEND  =   0.0 temperature during run
   SMASS  =  -3.00    Nose mass-parameter (am)
   estimated Nose-frequenzy (Omega)   =  0.10E-29 period in steps =****** mass=  -0.277E-26a.u.
   SCALEE = 1.0000    scale energy and forces
   NPACO  =    256;   APACO  = 16.0  distance and # of slots for P.C.
   PSTRESS=    0.0 pullay stress

  Mass of Ions in am
   POMASS = 196.97106.42
  Ionic Valenz
   ZVAL   =  11.00 10.00
  Atomic Wigner-Seitz radii
   RWIGS  =  -1.00 -1.00
  virtual crystal weights 
   VCA    =   1.00  1.00
   NELECT =     504.0000    total number of electrons
   NUPDOWN=      -1.0000    fix difference up-down

 DOS related values:
   EMIN   =  10.00;   EMAX   =-10.00  energy-range for DOS
   EFERMI =   0.00
   ISMEAR =     0;   SIGMA  =   0.10  broadening in eV -4-tet -1-fermi 0-gaus

 Electronic relaxation 2 (details)
   IALGO  =     68    algorithm
   LDIAG  =      T    sub-space diagonalisation (order eigenvalues)
   LSUBROT=      F    optimize rotation matrix (better conditioning)
   TURBO    =      0    0=normal 1=particle mesh
   IRESTART =      0    0=no restart 2=restart with 2 vectors
   NREBOOT  =      0    no. of reboots
   NMIN     =      0    reboot dimension
   EREF     =   0.00    reference energy to select bands
   IMIX   =      4    mixing-type and parameters
     AMIX     =   0.40;   BMIX     =  1.00
     AMIX_MAG =   1.60;   BMIX_MAG =  1.00
     AMIN     =   0.10
     WC   =   100.;   INIMIX=   1;  MIXPRE=   1;  MAXMIX= -45

 Intra band minimization:
   WEIMIN = 0.0010     energy-eigenvalue tresh-hold
   EBREAK =  0.82E-09  absolut break condition
   DEPER  =   0.30     relativ break condition  

   TIME   =   0.40     timestep for ELM

  volume/ion in A,a.u.               =      53.49       360.99
  Fermi-wavevector in a.u.,A,eV,Ry     =   0.951418  1.797920 12.315955  0.905197
  Thomas-Fermi vector in A             =   2.079887
 
 Write flags
   LWAVE  =      F    write WAVECAR
   LCHARG =      F    write CHGCAR
   LVTOT  =      F    write LOCPOT, total local potential
   LVHAR  =      F    write LOCPOT, Hartree potential only
   LELF   =      F    write electronic localiz. function (ELF)
   LORBIT =      0    0 simple, 1 ext, 2 COOP (PROOUT)


 Dipole corrections
   LMONO  =      F    monopole corrections only (constant potential shift)
   LDIPOL =      T    correct potential (dipole corrections)
   IDIPOL =      3    1-x, 2-y, 3-z, 4-all directions 
   EPSILON=  1.0000000 bulk dielectric constant

 Exchange correlation treatment:
   GGA     =    PE    GGA type
   LEXCH   =     8    internal setting for exchange type
   VOSKOWN=      1    Vosko Wilk Nusair interpolation
   LHFCALC =     F    Hartree Fock is set to
   LHFONE  =     F    Hartree Fock one center treatment
   AEXX    =    0.0000 exact exchange contribution

 Linear response parameters
   LEPSILON=     F    determine dielectric tensor
   LRPA    =     F    only Hartree local field effects (RPA)
   LNABLA  =     F    use nabla operator in PAW spheres
   LVEL    =     F    velocity operator in full k-point grid
   LINTERFAST=   F  fast interpolation
   KINTER  =     0    interpolate to denser k-point grid
   CSHIFT  =0.1000    complex shift for real part using Kramers Kronig
   OMEGAMAX=  -1.0    maximum frequency
   DEG_THRESHOLD= 0.2000000E-02 threshold for treating states as degnerate
   RTIME   =    0.100 relaxation time in fs

 Orbital magnetization related:
   ORBITALMAG=     F  switch on orbital magnetization
   LCHIMAG   =     F  perturbation theory with respect to B field
   DQ        =  0.001000  dq finite difference perturbation B field



--------------------------------------------------------------------------------------------------------


 conjugate gradient relaxation of ions
   using selective dynamics as specified on POSCAR
   WARNING: If single coordinates had been selected the selection of coordinates
            is made according to the corresponding   d i r e c t   coordinates!
            Don't support selection of single cartesian coordinates -- sorry ...
  !
 charge density and potential will be updated during run
 non-spin polarized calculation
 RMM-DIIS sequential band-by-band and
  variant of blocked Davidson during initial phase
 perform sub-space diagonalisation
    before iterative eigenvector-optimisation
 modified Broyden-mixing scheme, WC =      100.0
 initial mixing is a Kerker type mixing with AMIX =  0.4000 and BMIX =      1.0000
 Hartree-type preconditioning will be used
 using additional bands           54
 real space projection scheme for non local part
 use partial core corrections
 calculate Harris-corrections to forces 
   (improved forces if not selfconsistent)
 use gradient corrections 
 use of overlap-Matrix (Vanderbilt PP)
 Gauss-broadening in eV      SIGMA  =   0.10


--------------------------------------------------------------------------------------------------------


  energy-cutoff  :      400.00
  volume of cell :     2567.68
      direct lattice vectors                 reciprocal lattice vectors
    11.002581515  0.000000000  0.000000000     0.090887761 -0.052474073  0.000000000
     5.501290758  9.528515099  0.000000000     0.000000000  0.104948147  0.000000000
     0.000000000  0.000000000 24.491785094     0.000000000  0.000000000  0.040830017

  length of vectors
    11.002581515 11.002581515 24.491785094     0.104948147  0.104948147  0.040830017


 
 k-points in units of 2pi/SCALE and weight: Automatic mesh                          
   0.02272194  0.01311852  0.00000000       0.167
   0.00000000  0.02623704  0.00000000       0.167
  -0.02272194  0.01311852  0.00000000       0.167
  -0.02272194  0.03935555  0.00000000       0.167
   0.04544388 -0.05247407  0.00000000       0.167
  -0.02272194  0.06559259  0.00000000       0.167
 
 k-points in reciprocal lattice and weights: Automatic mesh                          
   0.25000000  0.25000000  0.00000000       0.167
   0.00000000  0.25000000  0.00000000       0.167
  -0.25000000  0.00000000  0.00000000       0.167
  -0.25000000  0.25000000  0.00000000       0.167
   0.50000000 -0.25000000  0.00000000       0.167
  -0.25000000  0.50000000  0.00000000       0.167
 
 position of ions in fractional coordinates (direct lattice) 
   0.33333333  0.33333333  0.40830017
   0.08333333  0.58333333  0.40830017
   0.66666667  0.41666667  0.50000000
   0.83333333  0.83333333  0.40830017
   0.91666667  0.16666667  0.50000000
   0.83333333  0.58333333  0.40830017
   0.00000000  0.50000000  0.59169983
   0.08333333  0.83333333  0.40830017
   0.75000000  0.25000000  0.59169983
   0.00000000  0.75000000  0.59169983
   0.41666667  0.66666667  0.50000000
   0.16666667  0.16666667  0.50000000
   0.00000000  0.25000000  0.59169983
   0.16666667  0.41666667  0.50000000
   0.25000000  0.25000000  0.59169983
   0.75000000  0.00000000  0.59169983
   0.16666667  0.66666667  0.50000000
   0.41666667  0.91666667  0.50000000
   0.58333333  0.83333333  0.40830017
   0.41666667  0.16666667  0.50000000
   0.50000000  0.00000000  0.59169983
   0.58333333  0.33333333  0.40830017
   0.50000000  0.50000000  0.59169983
   0.50000000  0.25000000  0.59169983
   0.25000000  0.50000000  0.59169983
   0.33333333  0.58333333  0.40830017
   0.25000000  0.00000000  0.59169983
   0.33333333  0.08333333  0.40830017
   0.00000000  0.00000000  0.59169983
   0.91666667  0.66666667  0.50000000
   0.91666667  0.41666667  0.50000000
   0.08333333  0.33333333  0.40830017
   0.33333333  0.83333333  0.40830017
   0.91666667  0.91666667  0.50000000
   0.16666667  0.91666667  0.50000000
   0.08333333  0.08333333  0.40830017
   0.58333333  0.08333333  0.40830017
   0.41666667  0.41666667  0.50000000
   0.25000000  0.75000000  0.59169983
   0.66666667  0.66666667  0.50000000
   0.66666667  0.16666667  0.50000000
   0.83333333  0.08333333  0.40830017
   0.50000000  0.75000000  0.59169983
   0.75000000  0.50000000  0.59169983
   0.83333333  0.33333333  0.40830017
   0.58333333  0.58333333  0.40830017
   0.66666667  0.91666667  0.50000000
   0.75000000  0.75000000  0.59169983
 
 position of ions in cartesian coordinates  (Angst):
   5.50129076  3.17617170 10.00000000
   4.12596807  5.55830047 10.00000000
   9.62725883  3.97021462 12.24589255
  13.75322689  7.94042925 10.00000000
  11.00258152  1.58808585 12.24589255
  12.37790420  5.55830047 10.00000000
   2.75064538  4.76425755 14.49178509
   5.50129076  7.94042925 10.00000000
   9.62725883  2.38212877 14.49178509
   4.12596807  7.14638632 14.49178509
   8.25193614  6.35234340 12.24589255
   2.75064538  1.58808585 12.24589255
   1.37532269  2.38212877 14.49178509
   4.12596807  3.97021462 12.24589255
   4.12596807  2.38212877 14.49178509
   8.25193614  0.00000000 14.49178509
   5.50129076  6.35234340 12.24589255
   9.62725883  8.73447217 12.24589255
  11.00258152  7.94042925 10.00000000
   5.50129076  1.58808585 12.24589255
   5.50129076  0.00000000 14.49178509
   8.25193614  3.17617170 10.00000000
   8.25193614  4.76425755 14.49178509
   6.87661345  2.38212877 14.49178509
   5.50129076  4.76425755 14.49178509
   6.87661345  5.55830047 10.00000000
   2.75064538  0.00000000 14.49178509
   4.12596807  0.79404292 10.00000000
   0.00000000  0.00000000 14.49178509
  13.75322689  6.35234340 12.24589255
  12.37790420  3.97021462 12.24589255
   2.75064538  3.17617170 10.00000000
   8.25193614  7.94042925 10.00000000
  15.12854958  8.73447217 12.24589255
   6.87661345  8.73447217 12.24589255
   1.37532269  0.79404292 10.00000000
   6.87661345  0.79404292 10.00000000
   6.87661345  3.97021462 12.24589255
   6.87661345  7.14638632 14.49178509
  11.00258152  6.35234340 12.24589255
   8.25193614  1.58808585 12.24589255
   9.62725883  0.79404292 10.00000000
   9.62725883  7.14638632 14.49178509
  11.00258152  4.76425755 14.49178509
  11.00258152  3.17617170 10.00000000
   9.62725883  5.55830047 10.00000000
  12.37790420  8.73447217 12.24589255
  12.37790420  7.14638632 14.49178509
 


--------------------------------------------------------------------------------------------------------


 k-point  1 :   0.2500 0.2500 0.0000  plane waves:   46635
 k-point  2 :   0.0000 0.2500 0.0000  plane waves:   46635
 k-point  3 :  -0.2500 0.0000 0.0000  plane waves:   46635
 k-point  4 :  -0.2500 0.2500 0.0000  plane waves:   46644
 k-point  5 :   0.5000-0.2500 0.0000  plane waves:   46644
 k-point  6 :  -0.2500 0.5000 0.0000  plane waves:   46644

 maximum and minimum number of plane-waves per node :      7818     7732

 maximum number of plane-waves:     46644
 maximum index in each direction: 
   IXMAX=   18   IYMAX=   18   IZMAX=   39
   IXMIN=  -18   IYMIN=  -18   IZMIN=  -39

 WARNING: aliasing errors must be expected set NGX to  74 to avoid them
 WARNING: aliasing errors must be expected set NGY to  74 to avoid them
 WARNING: aliasing errors must be expected set NGZ to 158 to avoid them
 aliasing errors are usually negligible using standard VASP settings
 and one can safely disregard these warnings

 real space projection operators:
  total allocation   :      12803.06 KBytes
  max/ min on nodes  :       2145.66       2127.94


 parallel 3D FFT for wavefunctions:
    minimum data exchange during FFTs selected (reduces bandwidth)
 parallel 3D FFT for charge:
    minimum data exchange during FFTs selected (reduces bandwidth)


 total amount of memory used by VASP on root node    84353. kBytes
========================================================================

   base      :      30000. kBytes
   nonlr-proj:       4285. kBytes
   fftplans  :       4447. kBytes
   grid      :       6721. kBytes
   one-center:        124. kBytes
   wavefun   :      38776. kBytes
 
     INWAV:  cpu time    0.0000: real time    0.0000
 Broyden mixing: mesh for mixing (old mesh)
   NGX = 35   NGY = 35   NGZ = 79
  (NGX  =108   NGY  =108   NGZ  =240)
  gives a total of  96775 points

 initial charge density was supplied:
 charge density of overlapping atoms calculated
 number of electron     504.0000000 magnetization 
 keeping initial charge density in first step


--------------------------------------------------------------------------------------------------------


 Maximum index for non-local projection operator          355
 Maximum index for augmentation-charges          437 (set IRDMAX)


--------------------------------------------------------------------------------------------------------


 First call to EWALD:  gamma=   0.129
 Maximum number of real-space cells 4x 4x 2
 Maximum number of reciprocal cells 2x 2x 5

 FEWALD executed in parallel
    FEWALD:  cpu time    0.0026: real time    0.0027


----------------------------------------- Iteration    1(   1)  ---------------------------------------


    POTLOK:  cpu time    0.0469: real time    0.0471
    SETDIJ:  cpu time    0.0059: real time    0.0060
     EDDAV:  cpu time    6.8942: real time    6.9162
       DOS:  cpu time    0.0014: real time    0.0014
    --------------------------------------------
      LOOP:  cpu time    6.9515: real time    6.9793

 eigenvalue-minimisations  :  3672
 total energy-change (2. order) : 0.3200145E+04  (-0.1897777E+05)
 number of electron     504.0000000 magnetization 
 augmentation part      504.0000000 magnetization 

 DIPCOR: dipole corrections for dipol
 direction  3 min pos     1,
 dipolmoment           0.000000      0.000000     -0.000001 electrons x Angstroem
 Tr[quadrupol]    -10302.542284

 energy correction for charged system         0.000000 eV
 dipol+quadrupol energy correction           -0.000000 eV
 added-field ion interaction          0.000000 eV  (added to PSCEN)


 Free energy of the ion-electron system (eV)
  ---------------------------------------------------
  alpha Z        PSCENC =       805.86936475
  Ewald energy   TEWEN  =    200161.99311913
  -Hartree energ DENC   =   -242576.12852584
  -exchange      EXHF   =         0.00000000
  -V(xc)+E(xc)   XCENC  =      -327.62814201
  PAW double counting   =     40340.05962942   -38292.62782345
  entropy T*S    EENTRO =        -0.13789019
  eigenvalues    EBANDS =      1428.95958465
  atomic energy  EATOM  =     41659.78587232
  Solvation  Ediel_sol  =         0.00000000
  ---------------------------------------------------
  free energy    TOTEN  =      3200.14518878 eV

  energy without entropy =     3200.28307897  energy(sigma->0) =     3200.21413388


--------------------------------------------------------------------------------------------------------




----------------------------------------- Iteration    1(   2)  ---------------------------------------


     EDDAV:  cpu time    8.0326: real time    8.0576
       DOS:  cpu time    0.0016: real time    0.0016
    --------------------------------------------
      LOOP:  cpu time    8.0348: real time    8.0729

 eigenvalue-minimisations  :  4380
 total energy-change (2. order) :-0.3184660E+04  (-0.2930583E+04)
 number of electron     504.0000000 magnetization 
 augmentation part      504.0000000 magnetization 

 DIPCOR: dipole corrections for dipol
 direction  3 min pos     1,
 dipolmoment           0.000000      0.000000     -0.000001 electrons x Angstroem
 Tr[quadrupol]    -10302.542284

 energy correction for charged system         0.000000 eV
 dipol+quadrupol energy correction           -0.000000 eV
 added-field ion interaction          0.000000 eV  (added to PSCEN)


 Free energy of the ion-electron system (eV)
  ---------------------------------------------------
  alpha Z        PSCENC =       805.86936475
  Ewald energy   TEWEN  =    200161.99311913
  -Hartree energ DENC   =   -242576.12852584
  -exchange      EXHF   =         0.00000000
  -V(xc)+E(xc)   XCENC  =      -327.62814201
  PAW double counting   =     40340.05962942   -38292.62782345
  entropy T*S    EENTRO =        -0.12128393
  eigenvalues    EBANDS =     -1755.71739837
  atomic energy  EATOM  =     41659.78587232
  Solvation  Ediel_sol  =         0.00000000
  ---------------------------------------------------
  free energy    TOTEN  =        15.48481202 eV

  energy without entropy =       15.60609595  energy(sigma->0) =       15.54545399


--------------------------------------------------------------------------------------------------------




----------------------------------------- Iteration    1(   3)  ---------------------------------------


     EDDAV:  cpu time    7.9869: real time    8.0862
       DOS:  cpu time    0.0016: real time    0.0016
    --------------------------------------------
      LOOP:  cpu time    7.9889: real time    8.0929

 eigenvalue-minimisations  :  4140
 total energy-change (2. order) :-0.2160014E+03  (-0.2007074E+03)
 number of electron     504.0000000 magnetization 
 augmentation part      504.0000000 magnetization 

 DIPCOR: dipole corrections for dipol
 direction  3 min pos     1,
 dipolmoment           0.000000      0.000000     -0.000001 electrons x Angstroem
 Tr[quadrupol]    -10302.542284

 energy correction for charged system         0.000000 eV
 dipol+quadrupol energy correction           -0.000000 eV
 added-field ion interaction          0.000000 eV  (added to PSCEN)


 Free energy of the ion-electron system (eV)
  ---------------------------------------------------
  alpha Z        PSCENC =       805.86936475
  Ewald energy   TEWEN  =    200161.99311913
  -Hartree energ DENC   =   -242576.12852584
  -exchange      EXHF   =         0.00000000
  -V(xc)+E(xc)   XCENC  =      -327.62814201
  PAW double counting   =     40340.05962942   -38292.62782345
  entropy T*S    EENTRO =        -0.20214222
  eigenvalues    EBANDS =     -1971.63789555
  atomic energy  EATOM  =     41659.78587232
  Solvation  Ediel_sol  =         0.00000000
  ---------------------------------------------------
  free energy    TOTEN  =      -200.51654344 eV

  energy without entropy =     -200.31440122  energy(sigma->0) =     -200.41547233


--------------------------------------------------------------------------------------------------------




----------------------------------------- Iteration    1(   4)  ---------------------------------------


     EDDAV:  cpu time    8.0810: real time    8.1058
       DOS:  cpu time    0.0015: real time    0.0015
    --------------------------------------------
      LOOP:  cpu time    8.0831: real time    8.1111

 eigenvalue-minimisations  :  4200
 total energy-change (2. order) :-0.5801756E+01  (-0.5733170E+01)
 number of electron     504.0000000 magnetization 
 augmentation part      504.0000000 magnetization 

 DIPCOR: dipole corrections for dipol
 direction  3 min pos     1,
 dipolmoment           0.000000      0.000000     -0.000001 electrons x Angstroem
 Tr[quadrupol]    -10302.542284

 energy correction for charged system         0.000000 eV
 dipol+quadrupol energy correction           -0.000000 eV
 added-field ion interaction          0.000000 eV  (added to PSCEN)


 Free energy of the ion-electron system (eV)
  ---------------------------------------------------
  alpha Z        PSCENC =       805.86936475
  Ewald energy   TEWEN  =    200161.99311913
  -Hartree energ DENC   =   -242576.12852584
  -exchange      EXHF   =         0.00000000
  -V(xc)+E(xc)   XCENC  =      -327.62814201
  PAW double counting   =     40340.05962942   -38292.62782345
  entropy T*S    EENTRO =        -0.20776223
  eigenvalues    EBANDS =     -1977.43403159
  atomic energy  EATOM  =     41659.78587232
  Solvation  Ediel_sol  =         0.00000000
  ---------------------------------------------------
  free energy    TOTEN  =      -206.31829949 eV

  energy without entropy =     -206.11053726  energy(sigma->0) =     -206.21441838


--------------------------------------------------------------------------------------------------------




----------------------------------------- Iteration    1(   5)  ---------------------------------------


     EDDAV:  cpu time    8.4101: real time    8.4353
       DOS:  cpu time    0.0015: real time    0.0015
    CHARGE:  cpu time    0.2386: real time    0.2392
    MIXING:  cpu time    0.0024: real time    0.0025
    --------------------------------------------
      LOOP:  cpu time    8.6533: real time    8.6823

 eigenvalue-minimisations  :  4440
 total energy-change (2. order) :-0.1928928E+00  (-0.1923545E+00)
 number of electron     503.9998405 magnetization 
 augmentation part      191.2876366 magnetization 

 DIPCOR: dipole corrections for dipol
 direction  3 min pos     1,
 dipolmoment           0.000000      0.000000     -0.000001 electrons x Angstroem
 Tr[quadrupol]    -10302.542284

 energy correction for charged system         0.000000 eV
 dipol+quadrupol energy correction           -0.000000 eV
 added-field ion interaction          0.000000 eV  (added to PSCEN)


 Broyden mixing:
  rms(total) = 0.62335E+01    rms(broyden)= 0.62335E+01
  rms(prec ) = 0.63531E+01
  weight for this iteration     100.00

 Free energy of the ion-electron system (eV)
  ---------------------------------------------------
  alpha Z        PSCENC =       805.86936475
  Ewald energy   TEWEN  =    200161.99311913
  -Hartree energ DENC   =   -242576.12852584
  -exchange      EXHF   =         0.00000000
  -V(xc)+E(xc)   XCENC  =      -327.62814201
  PAW double counting   =     40340.05962942   -38292.62782345
  entropy T*S    EENTRO =        -0.20725353
  eigenvalues    EBANDS =     -1977.62743309
  atomic energy  EATOM  =     41659.78587232
  Solvation  Ediel_sol  =         0.00000000
  ---------------------------------------------------
  free energy    TOTEN  =      -206.51119230 eV

  energy without entropy =     -206.30393877  energy(sigma->0) =     -206.40756553


--------------------------------------------------------------------------------------------------------




----------------------------------------- Iteration    1(   6)  ---------------------------------------


    POTLOK:  cpu time    0.0427: real time    0.0429
    SETDIJ:  cpu time    0.0060: real time    0.0062
    EDDIAG:  cpu time    1.2339: real time    1.2381
  RMM-DIIS:  cpu time    3.3887: real time    3.4274
    ORTHCH:  cpu time    0.2962: real time    0.2969
       DOS:  cpu time    0.0015: real time    0.0015
    CHARGE:  cpu time    0.2401: real time    0.2407
    MIXING:  cpu time    0.0020: real time    0.0020
    --------------------------------------------
      LOOP:  cpu time    5.2118: real time    5.2593

 eigenvalue-minimisations  :  3678
 total energy-change (2. order) : 0.6610907E+01  (-0.9401814E+01)
 number of electron     503.9998427 magnetization 
 augmentation part      191.9969253 magnetization 

 DIPCOR: dipole corrections for dipol
 direction  3 min pos     1,
 dipolmoment           0.000000      0.000000     -0.672251 electrons x Angstroem
 Tr[quadrupol]    -10303.958006

 energy correction for charged system         0.000000 eV
 dipol+quadrupol energy correction           -0.015925 eV
 added-field ion interaction          0.212806 eV  (added to PSCEN)


 Broyden mixing:
  rms(total) = 0.52849E+01    rms(broyden)= 0.52848E+01
  rms(prec ) = 0.54849E+01
  weight for this iteration     100.00

 eigenvalues of (default mixing * dielectric matrix)
  average eigenvalue GAMMA=   0.8107
  0.8107

 Free energy of the ion-electron system (eV)
  ---------------------------------------------------
  alpha Z        PSCENC =       806.06624558
  Ewald energy   TEWEN  =    200161.99311913
  -Hartree energ DENC   =   -242327.18844120
  -exchange      EXHF   =         0.00000000
  -V(xc)+E(xc)   XCENC  =      -340.20711686
  PAW double counting   =     43918.77090225   -41930.64970197
  entropy T*S    EENTRO =        -0.26508299
  eigenvalues    EBANDS =     -2148.20608152
  atomic energy  EATOM  =     41659.78587232
  Solvation  Ediel_sol  =         0.00000000
  ---------------------------------------------------
  free energy    TOTEN  =      -199.90028528 eV

  energy without entropy =     -199.63520228  energy(sigma->0) =     -199.76774378


--------------------------------------------------------------------------------------------------------




----------------------------------------- Iteration    1(   7)  ---------------------------------------


    POTLOK:  cpu time    0.0423: real time    0.0425
    SETDIJ:  cpu time    0.0054: real time    0.0061
    EDDIAG:  cpu time    1.2360: real time    1.2416
  RMM-DIIS:  cpu time    3.4677: real time    3.4770
    ORTHCH:  cpu time    0.2936: real time    0.2944
       DOS:  cpu time    0.0014: real time    0.0014
    CHARGE:  cpu time    0.2374: real time    0.2382
    MIXING:  cpu time    0.0021: real time    0.0021
    --------------------------------------------
      LOOP:  cpu time    5.2865: real time    5.3065

 eigenvalue-minimisations  :  3684
 total energy-change (2. order) :-0.1120357E+02  (-0.5537351E+01)
 number of electron     503.9998371 magnetization 
 augmentation part      195.4219972 magnetization 

 DIPCOR: dipole corrections for dipol
 direction  3 min pos     1,
 dipolmoment           0.000000      0.000000      1.288342 electrons x Angstroem
 Tr[quadrupol]    -10302.709568

 energy correction for charged system         0.000000 eV
 dipol+quadrupol energy correction           -0.058488 eV
 added-field ion interaction         -0.407834 eV  (added to PSCEN)


 Broyden mixing:
  rms(total) = 0.45153E+01    rms(broyden)= 0.45150E+01
  rms(prec ) = 0.53363E+01
  weight for this iteration     100.00

 eigenvalues of (default mixing * dielectric matrix)
  average eigenvalue GAMMA=   0.9349
  1.4943  0.3755

 Free energy of the ion-electron system (eV)
  ---------------------------------------------------
  alpha Z        PSCENC =       805.40304272
  Ewald energy   TEWEN  =    200161.99311913
  -Hartree energ DENC   =   -242175.61965136
  -exchange      EXHF   =         0.00000000
  -V(xc)+E(xc)   XCENC  =      -342.65612796
  PAW double counting   =     45485.78062004   -43525.09631152
  entropy T*S    EENTRO =        -0.23379282
  eigenvalues    EBANDS =     -2280.46062766
  atomic energy  EATOM  =     41659.78587232
  Solvation  Ediel_sol  =         0.00000000
  ---------------------------------------------------
  free energy    TOTEN  =      -211.10385711 eV

  energy without entropy =     -210.87006429  energy(sigma->0) =     -210.98696070


--------------------------------------------------------------------------------------------------------




----------------------------------------- Iteration    1(   8)  ---------------------------------------


    POTLOK:  cpu time    0.0418: real time    0.0419
    SETDIJ:  cpu time    0.0059: real time    0.0065
    EDDIAG:  cpu time    1.2495: real time    1.2529
  RMM-DIIS:  cpu time    3.4120: real time    3.4214
    ORTHCH:  cpu time    0.2920: real time    0.2930
       DOS:  cpu time    0.0015: real time    0.0015
    CHARGE:  cpu time    0.2382: real time    0.2388
    MIXING:  cpu time    0.0021: real time    0.0021
    --------------------------------------------
      LOOP:  cpu time    5.2436: real time    5.2621

 eigenvalue-minimisations  :  3673
 total energy-change (2. order) :-0.1406424E+02  (-0.9360820E+01)
 number of electron     503.9998357 magnetization 
 augmentation part      196.0538017 magnetization 

 DIPCOR: dipole corrections for dipol
 direction  3 min pos     1,
 dipolmoment           0.000000      0.000000     -1.933330 electrons x Angstroem
 Tr[quadrupol]    -10304.074139

 energy correction for charged system         0.000000 eV
 dipol+quadrupol energy correction           -0.131709 eV
 added-field ion interaction          0.612009 eV  (added to PSCEN)


 Broyden mixing:
  rms(total) = 0.45395E+01    rms(broyden)= 0.45391E+01
  rms(prec ) = 0.55189E+01
  weight for this iteration     100.00

 eigenvalues of (default mixing * dielectric matrix)
  average eigenvalue GAMMA=   0.9348
  2.1013  0.4688  0.2342

 Free energy of the ion-electron system (eV)
  ---------------------------------------------------
  alpha Z        PSCENC =       806.34966465
  Ewald energy   TEWEN  =    200161.99311913
  -Hartree energ DENC   =   -242151.21601145
  -exchange      EXHF   =         0.00000000
  -V(xc)+E(xc)   XCENC  =      -344.77213460
  PAW double counting   =     47091.57551753   -45156.21733128
  entropy T*S    EENTRO =        -0.27787591
  eigenvalues    EBANDS =     -2292.38891485
  atomic energy  EATOM  =     41659.78587232
  Solvation  Ediel_sol  =         0.00000000
  ---------------------------------------------------
  free energy    TOTEN  =      -225.16809447 eV

  energy without entropy =     -224.89021856  energy(sigma->0) =     -225.02915652


--------------------------------------------------------------------------------------------------------




----------------------------------------- Iteration    1(   9)  ---------------------------------------


    POTLOK:  cpu time    0.0416: real time    0.0417
    SETDIJ:  cpu time    0.0061: real time    0.0062
    EDDIAG:  cpu time    1.2333: real time    1.2500
  RMM-DIIS:  cpu time    3.3613: real time    3.4458
    ORTHCH:  cpu time    0.2915: real time    0.2922
       DOS:  cpu time    0.0015: real time    0.0015
    CHARGE:  cpu time    0.2394: real time    0.2400
    MIXING:  cpu time    0.0022: real time    0.0022
    --------------------------------------------
      LOOP:  cpu time    5.1776: real time    5.2831

 eigenvalue-minimisations  :  3679
 total energy-change (2. order) : 0.1044999E+02  (-0.5007730E+01)
 number of electron     503.9998341 magnetization 
 augmentation part      198.3194069 magnetization 

 DIPCOR: dipole corrections for dipol
 direction  3 min pos     1,
 dipolmoment           0.000000      0.000000      0.253598 electrons x Angstroem
 Tr[quadrupol]    -10305.413284

 energy correction for charged system         0.000000 eV
 dipol+quadrupol energy correction           -0.002266 eV
 added-field ion interaction         -0.080278 eV  (added to PSCEN)


 Broyden mixing:
  rms(total) = 0.38297E+01    rms(broyden)= 0.38294E+01
  rms(prec ) = 0.42195E+01
  weight for this iteration     100.00

 eigenvalues of (default mixing * dielectric matrix)
  average eigenvalue GAMMA=   0.8158
  2.2532  0.4607  0.2747  0.2747

 Free energy of the ion-electron system (eV)
  ---------------------------------------------------
  alpha Z        PSCENC =       805.78681984
  Ewald energy   TEWEN  =    200161.99311913
  -Hartree energ DENC   =   -242153.83926306
  -exchange      EXHF   =         0.00000000
  -V(xc)+E(xc)   XCENC  =      -346.64298485
  PAW double counting   =     48583.24890217   -46671.16958466
  entropy T*S    EENTRO =        -0.21307876
  eigenvalues    EBANDS =     -2253.66790378
  atomic energy  EATOM  =     41659.78587232
  Solvation  Ediel_sol  =         0.00000000
  ---------------------------------------------------
  free energy    TOTEN  =      -214.71810164 eV

  energy without entropy =     -214.50502288  energy(sigma->0) =     -214.61156226


--------------------------------------------------------------------------------------------------------




----------------------------------------- Iteration    1(  10)  ---------------------------------------


    POTLOK:  cpu time    0.0420: real time    0.0431
    SETDIJ:  cpu time    0.0055: real time    0.0055
    EDDIAG:  cpu time    1.2243: real time    1.2290
  RMM-DIIS:  cpu time    3.4530: real time    3.4622
    ORTHCH:  cpu time    0.2917: real time    0.2924
       DOS:  cpu time    0.0014: real time    0.0014
    CHARGE:  cpu time    0.2376: real time    0.2384
    MIXING:  cpu time    0.0023: real time    0.0023
    --------------------------------------------
      LOOP:  cpu time    5.2584: real time    5.2772

 eigenvalue-minimisations  :  3682
 total energy-change (2. order) : 0.1553433E+02  (-0.1787315E+01)
 number of electron     503.9998335 magnetization 
 augmentation part      199.2349008 magnetization 

 DIPCOR: dipole corrections for dipol
 direction  3 min pos     1,
 dipolmoment           0.000000      0.000000     -0.401602 electrons x Angstroem
 Tr[quadrupol]    -10303.823217

 energy correction for charged system         0.000000 eV
 dipol+quadrupol energy correction           -0.005683 eV
 added-field ion interaction          0.127130 eV  (added to PSCEN)


 Broyden mixing:
  rms(total) = 0.22587E+01    rms(broyden)= 0.22585E+01
  rms(prec ) = 0.26302E+01
  weight for this iteration     100.00

 eigenvalues of (default mixing * dielectric matrix)
  average eigenvalue GAMMA=   0.7592
  2.3102  0.4267  0.4267  0.4090  0.2234

 Free energy of the ion-electron system (eV)
  ---------------------------------------------------
  alpha Z        PSCENC =       805.99081113
  Ewald energy   TEWEN  =    200161.99311913
  -Hartree energ DENC   =   -242110.29149682
  -exchange      EXHF   =         0.00000000
  -V(xc)+E(xc)   XCENC  =      -346.38865936
  PAW double counting   =     49062.31224630   -47155.30224281
  entropy T*S    EENTRO =        -0.17157821
  eigenvalues    EBANDS =     -2277.11184662
  atomic energy  EATOM  =     41659.78587232
  Solvation  Ediel_sol  =         0.00000000
  ---------------------------------------------------
  free energy    TOTEN  =      -199.18377494 eV

  energy without entropy =     -199.01219673  energy(sigma->0) =     -199.09798584


--------------------------------------------------------------------------------------------------------




----------------------------------------- Iteration    1(  11)  ---------------------------------------


    POTLOK:  cpu time    0.0412: real time    0.0417
    SETDIJ:  cpu time    0.0055: real time    0.0055
    EDDIAG:  cpu time    1.2278: real time    1.2321
  RMM-DIIS:  cpu time    3.4143: real time    3.4255
    ORTHCH:  cpu time    0.2898: real time    0.2908
       DOS:  cpu time    0.0014: real time    0.0015
    CHARGE:  cpu time    0.2343: real time    0.2351
    MIXING:  cpu time    0.0025: real time    0.0025
    --------------------------------------------
      LOOP:  cpu time    5.2176: real time    5.2379

 eigenvalue-minimisations  :  3680
 total energy-change (2. order) : 0.4955227E+01  (-0.1330194E+01)
 number of electron     503.9998341 magnetization 
 augmentation part      198.7384900 magnetization 

 DIPCOR: dipole corrections for dipol
 direction  3 min pos     1,
 dipolmoment           0.000000      0.000000     -0.122838 electrons x Angstroem
 Tr[quadrupol]    -10305.053154

 energy correction for charged system         0.000000 eV
 dipol+quadrupol energy correction           -0.000532 eV
 added-field ion interaction          0.038885 eV  (added to PSCEN)


 Broyden mixing:
  rms(total) = 0.15955E+01    rms(broyden)= 0.15953E+01
  rms(prec ) = 0.18325E+01
  weight for this iteration     100.00

 eigenvalues of (default mixing * dielectric matrix)
  average eigenvalue GAMMA=   0.7158
  2.2311  0.5906  0.5906  0.3894  0.2737  0.2195

 Free energy of the ion-electron system (eV)
  ---------------------------------------------------
  alpha Z        PSCENC =       805.90771783
  Ewald energy   TEWEN  =    200161.99311913
  -Hartree energ DENC   =   -242175.84313243
  -exchange      EXHF   =         0.00000000
  -V(xc)+E(xc)   XCENC  =      -345.93752716
  PAW double counting   =     49233.51982532   -47325.12504177
  entropy T*S    EENTRO =        -0.20376052
  eigenvalues    EBANDS =     -2208.32562110
  atomic energy  EATOM  =     41659.78587232
  Solvation  Ediel_sol  =         0.00000000
  ---------------------------------------------------
  free energy    TOTEN  =      -194.22854839 eV

  energy without entropy =     -194.02478787  energy(sigma->0) =     -194.12666813


--------------------------------------------------------------------------------------------------------




----------------------------------------- Iteration    1(  12)  ---------------------------------------


    POTLOK:  cpu time    0.0413: real time    0.0414
    SETDIJ:  cpu time    0.0054: real time    0.0054
    EDDIAG:  cpu time    1.2324: real time    1.2370
  RMM-DIIS:  cpu time    3.4772: real time    3.4868
    ORTHCH:  cpu time    0.2914: real time    0.2922
       DOS:  cpu time    0.0015: real time    0.0016
    CHARGE:  cpu time    0.2357: real time    0.2363
    MIXING:  cpu time    0.0025: real time    0.0025
    --------------------------------------------
      LOOP:  cpu time    5.2882: real time    5.3064

 eigenvalue-minimisations  :  3681
 total energy-change (2. order) : 0.3926784E+01  (-0.6516194E+00)
 number of electron     503.9998357 magnetization 
 augmentation part      197.7219980 magnetization 

 DIPCOR: dipole corrections for dipol
 direction  3 min pos     1,
 dipolmoment           0.000000      0.000000     -0.138735 electrons x Angstroem
 Tr[quadrupol]    -10305.026547

 energy correction for charged system         0.000000 eV
 dipol+quadrupol energy correction           -0.000678 eV
 added-field ion interaction          0.043918 eV  (added to PSCEN)


 Broyden mixing:
  rms(total) = 0.11676E+01    rms(broyden)= 0.11674E+01
  rms(prec ) = 0.13239E+01
  weight for this iteration     100.00

 eigenvalues of (default mixing * dielectric matrix)
  average eigenvalue GAMMA=   0.6594
  2.2465  0.5229  0.5229  0.3856  0.3639  0.3639  0.2100

 Free energy of the ion-electron system (eV)
  ---------------------------------------------------
  alpha Z        PSCENC =       805.91260374
  Ewald energy   TEWEN  =    200161.99311913
  -Hartree energ DENC   =   -242214.82340129
  -exchange      EXHF   =         0.00000000
  -V(xc)+E(xc)   XCENC  =      -344.83644983
  PAW double counting   =     49240.68927680   -47327.15278891
  entropy T*S    EENTRO =        -0.21920487
  eigenvalues    EBANDS =     -2171.65079129
  atomic energy  EATOM  =     41659.78587232
  Solvation  Ediel_sol  =         0.00000000
  ---------------------------------------------------
  free energy    TOTEN  =      -190.30176421 eV

  energy without entropy =     -190.08255933  energy(sigma->0) =     -190.19216177


--------------------------------------------------------------------------------------------------------




----------------------------------------- Iteration    1(  13)  ---------------------------------------


    POTLOK:  cpu time    0.0410: real time    0.0411
    SETDIJ:  cpu time    0.0054: real time    0.0054
    EDDIAG:  cpu time    1.2304: real time    1.2348
  RMM-DIIS:  cpu time    3.4039: real time    3.4169
    ORTHCH:  cpu time    0.2900: real time    0.2908
       DOS:  cpu time    0.0014: real time    0.0014
    CHARGE:  cpu time    0.2379: real time    0.2388
    MIXING:  cpu time    0.0029: real time    0.0029
    --------------------------------------------
      LOOP:  cpu time    5.2136: real time    5.2346

 eigenvalue-minimisations  :  3681
 total energy-change (2. order) : 0.9147498E+00  (-0.2344955E+00)
 number of electron     503.9998358 magnetization 
 augmentation part      197.5248213 magnetization 

 DIPCOR: dipole corrections for dipol
 direction  3 min pos     1,
 dipolmoment           0.000000      0.000000     -0.103989 electrons x Angstroem
 Tr[quadrupol]    -10305.252185

 energy correction for charged system         0.000000 eV
 dipol+quadrupol energy correction           -0.000381 eV
 added-field ion interaction          0.032918 eV  (added to PSCEN)


 Broyden mixing:
  rms(total) = 0.76388E+00    rms(broyden)= 0.76370E+00
  rms(prec ) = 0.84914E+00
  weight for this iteration     100.00

 eigenvalues of (default mixing * dielectric matrix)
  average eigenvalue GAMMA=   0.6697
  2.2824  0.6531  0.6531  0.6845  0.3188  0.3188  0.2368  0.2106

 Free energy of the ion-electron system (eV)
  ---------------------------------------------------
  alpha Z        PSCENC =       805.90190173
  Ewald energy   TEWEN  =    200161.99311913
  -Hartree energ DENC   =   -242229.04025067
  -exchange      EXHF   =         0.00000000
  -V(xc)+E(xc)   XCENC  =      -344.59036014
  PAW double counting   =     49276.17338341   -47361.55458187
  entropy T*S    EENTRO =        -0.23811243
  eigenvalues    EBANDS =     -2157.81798591
  atomic energy  EATOM  =     41659.78587232
  Solvation  Ediel_sol  =         0.00000000
  ---------------------------------------------------
  free energy    TOTEN  =      -189.38701444 eV

  energy without entropy =     -189.14890201  energy(sigma->0) =     -189.26795822


--------------------------------------------------------------------------------------------------------




----------------------------------------- Iteration    1(  14)  ---------------------------------------


    POTLOK:  cpu time    0.0417: real time    0.0419
    SETDIJ:  cpu time    0.0055: real time    0.0055
    EDDIAG:  cpu time    1.2243: real time    1.2280
  RMM-DIIS:  cpu time    3.4432: real time    3.4531
    ORTHCH:  cpu time    0.2900: real time    0.2907
       DOS:  cpu time    0.0015: real time    0.0015
    CHARGE:  cpu time    0.2376: real time    0.2384
    MIXING:  cpu time    0.0030: real time    0.0030
    --------------------------------------------
      LOOP:  cpu time    5.2473: real time    5.2660

 eigenvalue-minimisations  :  3679
 total energy-change (2. order) : 0.1479418E+00  (-0.1159915E+00)
 number of electron     503.9998358 magnetization 
 augmentation part      197.5440843 magnetization 

 DIPCOR: dipole corrections for dipol
 direction  3 min pos     1,
 dipolmoment           0.000000      0.000000     -0.055890 electrons x Angstroem
 Tr[quadrupol]    -10305.563888

 energy correction for charged system         0.000000 eV
 dipol+quadrupol energy correction           -0.000110 eV
 added-field ion interaction          0.017692 eV  (added to PSCEN)


 Broyden mixing:
  rms(total) = 0.62019E+00    rms(broyden)= 0.62006E+00
  rms(prec ) = 0.66963E+00
  weight for this iteration     100.00

 eigenvalues of (default mixing * dielectric matrix)
  average eigenvalue GAMMA=   0.6726
  2.2703  0.8128  0.8128  0.7225  0.3583  0.3583  0.2061  0.2560  0.2560

 Free energy of the ion-electron system (eV)
  ---------------------------------------------------
  alpha Z        PSCENC =       805.88694651
  Ewald energy   TEWEN  =    200161.99311913
  -Hartree energ DENC   =   -242242.25907819
  -exchange      EXHF   =         0.00000000
  -V(xc)+E(xc)   XCENC  =      -344.47714590
  PAW double counting   =     49321.75815208   -47406.54339661
  entropy T*S    EENTRO =        -0.23692514
  eigenvalues    EBANDS =     -2145.14661688
  atomic energy  EATOM  =     41659.78587232
  Solvation  Ediel_sol  =         0.00000000
  ---------------------------------------------------
  free energy    TOTEN  =      -189.23907268 eV

  energy without entropy =     -189.00214754  energy(sigma->0) =     -189.12061011


--------------------------------------------------------------------------------------------------------




----------------------------------------- Iteration    1(  15)  ---------------------------------------


    POTLOK:  cpu time    0.0415: real time    0.0416
    SETDIJ:  cpu time    0.0056: real time    0.0056
    EDDIAG:  cpu time    1.2277: real time    1.2323
  RMM-DIIS:  cpu time    3.4509: real time    3.4616
    ORTHCH:  cpu time    0.2901: real time    0.2912
       DOS:  cpu time    0.0015: real time    0.0015
    CHARGE:  cpu time    0.2353: real time    0.2358
    MIXING:  cpu time    0.0031: real time    0.0031
    --------------------------------------------
      LOOP:  cpu time    5.2565: real time    5.2768

 eigenvalue-minimisations  :  3681
 total energy-change (2. order) : 0.3201752E-01  (-0.2981591E-01)
 number of electron     503.9998359 magnetization 
 augmentation part      197.4905230 magnetization 

 DIPCOR: dipole corrections for dipol
 direction  3 min pos     1,
 dipolmoment           0.000000      0.000000     -0.025080 electrons x Angstroem
 Tr[quadrupol]    -10305.696537

 energy correction for charged system         0.000000 eV
 dipol+quadrupol energy correction           -0.000022 eV
 added-field ion interaction          0.007939 eV  (added to PSCEN)


 Broyden mixing:
  rms(total) = 0.56560E+00    rms(broyden)= 0.56555E+00
  rms(prec ) = 0.63189E+00
  weight for this iteration     100.00

 eigenvalues of (default mixing * dielectric matrix)
  average eigenvalue GAMMA=   0.6894
  2.2473  1.0447  1.0447  0.6846  0.4306  0.4306  0.2830  0.2830  0.2094  0.2360

 Free energy of the ion-electron system (eV)
  ---------------------------------------------------
  alpha Z        PSCENC =       805.87728151
  Ewald energy   TEWEN  =    200161.99311913
  -Hartree energ DENC   =   -242250.98521541
  -exchange      EXHF   =         0.00000000
  -V(xc)+E(xc)   XCENC  =      -344.31617030
  PAW double counting   =     49323.56890399   -47407.21697842
  entropy T*S    EENTRO =        -0.22682639
  eigenvalues    EBANDS =     -2137.68704157
  atomic energy  EATOM  =     41659.78587232
  Solvation  Ediel_sol  =         0.00000000
  ---------------------------------------------------
  free energy    TOTEN  =      -189.20705515 eV

  energy without entropy =     -188.98022876  energy(sigma->0) =     -189.09364196


--------------------------------------------------------------------------------------------------------




----------------------------------------- Iteration    1(  16)  ---------------------------------------


    POTLOK:  cpu time    0.0412: real time    0.0413
    SETDIJ:  cpu time    0.0056: real time    0.0056
    EDDIAG:  cpu time    1.2316: real time    1.2349
  RMM-DIIS:  cpu time    3.3709: real time    3.4287
    ORTHCH:  cpu time    0.2809: real time    0.3036
       DOS:  cpu time    0.0016: real time    0.0041
    CHARGE:  cpu time    0.2434: real time    0.2619
    MIXING:  cpu time    0.0030: real time    0.0030
    --------------------------------------------
      LOOP:  cpu time    5.1789: real time    5.2855

 eigenvalue-minimisations  :  3682
 total energy-change (2. order) : 0.1838411E+00  (-0.2443580E-01)
 number of electron     503.9998359 magnetization 
 augmentation part      197.4614424 magnetization 

 DIPCOR: dipole corrections for dipol
 direction  3 min pos     1,
 dipolmoment           0.000000      0.000000     -0.020159 electrons x Angstroem
 Tr[quadrupol]    -10305.970441

 energy correction for charged system         0.000000 eV
 dipol+quadrupol energy correction           -0.000014 eV
 added-field ion interaction          0.006381 eV  (added to PSCEN)


 Broyden mixing:
  rms(total) = 0.41980E+00    rms(broyden)= 0.41974E+00
  rms(prec ) = 0.46707E+00
  weight for this iteration     100.00

 eigenvalues of (default mixing * dielectric matrix)
  average eigenvalue GAMMA=   0.7177
  2.2318  1.3514  1.3514  0.6220  0.4926  0.4926  0.3337  0.3337  0.2082  0.2388
  0.2388

 Free energy of the ion-electron system (eV)
  ---------------------------------------------------
  alpha Z        PSCENC =       805.87573142
  Ewald energy   TEWEN  =    200161.99311913
  -Hartree energ DENC   =   -242264.76769539
  -exchange      EXHF   =         0.00000000
  -V(xc)+E(xc)   XCENC  =      -344.16060898
  PAW double counting   =     49319.02500526   -47401.33254496
  entropy T*S    EENTRO =        -0.23968738
  eigenvalues    EBANDS =     -2125.20240543
  atomic energy  EATOM  =     41659.78587232
  Solvation  Ediel_sol  =         0.00000000
  ---------------------------------------------------
  free energy    TOTEN  =      -189.02321400 eV

  energy without entropy =     -188.78352662  energy(sigma->0) =     -188.90337031


--------------------------------------------------------------------------------------------------------




----------------------------------------- Iteration    1(  17)  ---------------------------------------


    POTLOK:  cpu time    0.0410: real time    0.0411
    SETDIJ:  cpu time    0.0054: real time    0.0055
    EDDIAG:  cpu time    1.2328: real time    1.2361
  RMM-DIIS:  cpu time    3.4342: real time    3.4668
    ORTHCH:  cpu time    0.2861: real time    0.2921
       DOS:  cpu time    0.0016: real time    0.0015
    CHARGE:  cpu time    0.2344: real time    0.2376
    MIXING:  cpu time    0.0032: real time    0.0033
    --------------------------------------------
      LOOP:  cpu time    5.2394: real time    5.2867

 eigenvalue-minimisations  :  3680
 total energy-change (2. order) : 0.5887820E-01  (-0.2436157E-01)
 number of electron     503.9998361 magnetization 
 augmentation part      197.3558632 magnetization 

 DIPCOR: dipole corrections for dipol
 direction  3 min pos     1,
 dipolmoment           0.000000      0.000000     -0.050578 electrons x Angstroem
 Tr[quadrupol]    -10306.329610

 energy correction for charged system         0.000000 eV
 dipol+quadrupol energy correction           -0.000090 eV
 added-field ion interaction          0.016011 eV  (added to PSCEN)


 Broyden mixing:
  rms(total) = 0.34433E+00    rms(broyden)= 0.34427E+00
  rms(prec ) = 0.40365E+00
  weight for this iteration     100.00

 eigenvalues of (default mixing * dielectric matrix)
  average eigenvalue GAMMA=   0.7278
  2.1913  1.5782  1.5782  0.5852  0.5852  0.4834  0.3999  0.3999  0.2583  0.2583
  0.2076  0.2076

 Free energy of the ion-electron system (eV)
  ---------------------------------------------------
  alpha Z        PSCENC =       805.88528496
  Ewald energy   TEWEN  =    200161.99311913
  -Hartree energ DENC   =   -242283.58241046
  -exchange      EXHF   =         0.00000000
  -V(xc)+E(xc)   XCENC  =      -343.92842816
  PAW double counting   =     49327.38043691   -47407.95404667
  entropy T*S    EENTRO =        -0.23959848
  eigenvalues    EBANDS =     -2108.30456536
  atomic energy  EATOM  =     41659.78587232
  Solvation  Ediel_sol  =         0.00000000
  ---------------------------------------------------
  free energy    TOTEN  =      -188.96433581 eV

  energy without entropy =     -188.72473733  energy(sigma->0) =     -188.84453657


--------------------------------------------------------------------------------------------------------




----------------------------------------- Iteration    1(  18)  ---------------------------------------


    POTLOK:  cpu time    0.0409: real time    0.0416
    SETDIJ:  cpu time    0.0053: real time    0.0055
    EDDIAG:  cpu time    1.2220: real time    1.2289
  RMM-DIIS:  cpu time    3.4189: real time    3.4281
    ORTHCH:  cpu time    0.2902: real time    0.2914
       DOS:  cpu time    0.0015: real time    0.0015
    CHARGE:  cpu time    0.2365: real time    0.2373
    MIXING:  cpu time    0.0034: real time    0.0034
    --------------------------------------------
      LOOP:  cpu time    5.2195: real time    5.2410

 eigenvalue-minimisations  :  3679
 total energy-change (2. order) : 0.1459177E+00  (-0.1089589E-01)
 number of electron     503.9998362 magnetization 
 augmentation part      197.2347967 magnetization 

 DIPCOR: dipole corrections for dipol
 direction  3 min pos     1,
 dipolmoment           0.000000      0.000000     -0.062687 electrons x Angstroem
 Tr[quadrupol]    -10306.576141

 energy correction for charged system         0.000000 eV
 dipol+quadrupol energy correction           -0.000138 eV
 added-field ion interaction          0.019844 eV  (added to PSCEN)


 Broyden mixing:
  rms(total) = 0.16058E+00    rms(broyden)= 0.16054E+00
  rms(prec ) = 0.18885E+00
  weight for this iteration     100.00

 eigenvalues of (default mixing * dielectric matrix)
  average eigenvalue GAMMA=   0.7245
  2.2305  1.6415  1.6415  0.6322  0.6322  0.5576  0.4141  0.4141  0.2831  0.2831
  0.2648  0.2068  0.2168

 Free energy of the ion-electron system (eV)
  ---------------------------------------------------
  alpha Z        PSCENC =       805.88906975
  Ewald energy   TEWEN  =    200161.99311913
  -Hartree energ DENC   =   -242298.33640378
  -exchange      EXHF   =         0.00000000
  -V(xc)+E(xc)   XCENC  =      -343.70524752
  PAW double counting   =     49337.84309008   -47416.98257881
  entropy T*S    EENTRO =        -0.24490283
  eigenvalues    EBANDS =     -2095.06043643
  atomic energy  EATOM  =     41659.78587232
  Solvation  Ediel_sol  =         0.00000000
  ---------------------------------------------------
  free energy    TOTEN  =      -188.81841809 eV

  energy without entropy =     -188.57351526  energy(sigma->0) =     -188.69596667


--------------------------------------------------------------------------------------------------------




----------------------------------------- Iteration    1(  19)  ---------------------------------------


    POTLOK:  cpu time    0.0413: real time    0.0415
    SETDIJ:  cpu time    0.0060: real time    0.0062
    EDDIAG:  cpu time    1.2313: real time    1.2366
  RMM-DIIS:  cpu time    3.4119: real time    3.4216
    ORTHCH:  cpu time    0.2905: real time    0.2915
       DOS:  cpu time    0.0016: real time    0.0016
    CHARGE:  cpu time    0.2343: real time    0.2349
    MIXING:  cpu time    0.0036: real time    0.0036
    --------------------------------------------
      LOOP:  cpu time    5.2213: real time    5.2411

 eigenvalue-minimisations  :  3683
 total energy-change (2. order) : 0.2372844E-01  (-0.4841864E-02)
 number of electron     503.9998363 magnetization 
 augmentation part      197.1695861 magnetization 

 DIPCOR: dipole corrections for dipol
 direction  3 min pos     1,
 dipolmoment           0.000000      0.000000     -0.042275 electrons x Angstroem
 Tr[quadrupol]    -10306.770989

 energy correction for charged system         0.000000 eV
 dipol+quadrupol energy correction           -0.000063 eV
 added-field ion interaction          0.013382 eV  (added to PSCEN)


 Broyden mixing:
  rms(total) = 0.11764E+00    rms(broyden)= 0.11762E+00
  rms(prec ) = 0.13681E+00
  weight for this iteration     100.00

 eigenvalues of (default mixing * dielectric matrix)
  average eigenvalue GAMMA=   0.7136
  2.2574  1.6416  1.6416  0.6942  0.6942  0.6028  0.4473  0.4473  0.3190  0.3190
  0.2544  0.2544  0.2084  0.2084

 Free energy of the ion-electron system (eV)
  ---------------------------------------------------
  alpha Z        PSCENC =       805.88268367
  Ewald energy   TEWEN  =    200161.99311913
  -Hartree energ DENC   =   -242307.66846988
  -exchange      EXHF   =         0.00000000
  -V(xc)+E(xc)   XCENC  =      -343.60611134
  PAW double counting   =     49348.95063743   -47427.50271952
  entropy T*S    EENTRO =        -0.24963041
  eigenvalues    EBANDS =     -2086.38007104
  atomic energy  EATOM  =     41659.78587232
  Solvation  Ediel_sol  =         0.00000000
  ---------------------------------------------------
  free energy    TOTEN  =      -188.79468964 eV

  energy without entropy =     -188.54505923  energy(sigma->0) =     -188.66987444


--------------------------------------------------------------------------------------------------------




----------------------------------------- Iteration    1(  20)  ---------------------------------------


    POTLOK:  cpu time    0.0415: real time    0.0416
    SETDIJ:  cpu time    0.0052: real time    0.0055
    EDDIAG:  cpu time    1.2344: real time    1.2397
  RMM-DIIS:  cpu time    3.4408: real time    3.4506
    ORTHCH:  cpu time    0.2896: real time    0.2904
       DOS:  cpu time    0.0015: real time    0.0015
    CHARGE:  cpu time    0.2383: real time    0.2389
    MIXING:  cpu time    0.0038: real time    0.0038
    --------------------------------------------
      LOOP:  cpu time    5.2558: real time    5.2757

 eigenvalue-minimisations  :  3681
 total energy-change (2. order) : 0.1290806E-01  (-0.1212540E-02)
 number of electron     503.9998363 magnetization 
 augmentation part      197.1426521 magnetization 

 DIPCOR: dipole corrections for dipol
 direction  3 min pos     1,
 dipolmoment           0.000000      0.000000     -0.023635 electrons x Angstroem
 Tr[quadrupol]    -10306.861579

 energy correction for charged system         0.000000 eV
 dipol+quadrupol energy correction           -0.000020 eV
 added-field ion interaction          0.007482 eV  (added to PSCEN)


 Broyden mixing:
  rms(total) = 0.66832E-01    rms(broyden)= 0.66815E-01
  rms(prec ) = 0.75396E-01
  weight for this iteration     100.00

 eigenvalues of (default mixing * dielectric matrix)
  average eigenvalue GAMMA=   0.7037
  2.2725  1.6330  1.6330  0.7741  0.7741  0.5951  0.4789  0.4789  0.3597  0.3597
  0.2617  0.2617  0.2544  0.2078  0.2113

 Free energy of the ion-electron system (eV)
  ---------------------------------------------------
  alpha Z        PSCENC =       805.87682644
  Ewald energy   TEWEN  =    200161.99311913
  -Hartree energ DENC   =   -242312.01328548
  -exchange      EXHF   =         0.00000000
  -V(xc)+E(xc)   XCENC  =      -343.56367695
  PAW double counting   =     49354.25943873   -47432.61179953
  entropy T*S    EENTRO =        -0.25148057
  eigenvalues    EBANDS =     -2082.25679568
  atomic energy  EATOM  =     41659.78587232
  Solvation  Ediel_sol  =         0.00000000
  ---------------------------------------------------
  free energy    TOTEN  =      -188.78178158 eV

  energy without entropy =     -188.53030102  energy(sigma->0) =     -188.65604130


--------------------------------------------------------------------------------------------------------




----------------------------------------- Iteration    1(  21)  ---------------------------------------


    POTLOK:  cpu time    0.0416: real time    0.0417
    SETDIJ:  cpu time    0.0055: real time    0.0055
    EDDIAG:  cpu time    1.2305: real time    1.2346
  RMM-DIIS:  cpu time    3.4303: real time    3.4428
    ORTHCH:  cpu time    0.2895: real time    0.2902
       DOS:  cpu time    0.0015: real time    0.0015
    CHARGE:  cpu time    0.2384: real time    0.2390
    MIXING:  cpu time    0.0040: real time    0.0040
    --------------------------------------------
      LOOP:  cpu time    5.2419: real time    5.2626

 eigenvalue-minimisations  :  3682
 total energy-change (2. order) : 0.2506612E-02  (-0.3351416E-03)
 number of electron     503.9998363 magnetization 
 augmentation part      197.1280702 magnetization 

 DIPCOR: dipole corrections for dipol
 direction  3 min pos     1,
 dipolmoment           0.000000      0.000000     -0.022629 electrons x Angstroem
 Tr[quadrupol]    -10306.931680

 energy correction for charged system         0.000000 eV
 dipol+quadrupol energy correction           -0.000018 eV
 added-field ion interaction          0.007163 eV  (added to PSCEN)


 Broyden mixing:
  rms(total) = 0.55940E-01    rms(broyden)= 0.55932E-01
  rms(prec ) = 0.63519E-01
  weight for this iteration     100.00

 eigenvalues of (default mixing * dielectric matrix)
  average eigenvalue GAMMA=   0.7117
  2.3083  1.6842  1.6842  0.8956  0.8956  0.6147  0.5316  0.5316  0.4006  0.4006
  0.2725  0.2725  0.2573  0.2232  0.2076  0.2076

 Free energy of the ion-electron system (eV)
  ---------------------------------------------------
  alpha Z        PSCENC =       805.87650953
  Ewald energy   TEWEN  =    200161.99311913
  -Hartree energ DENC   =   -242314.98609884
  -exchange      EXHF   =         0.00000000
  -V(xc)+E(xc)   XCENC  =      -343.54216586
  PAW double counting   =     49357.50265601   -47435.77257194
  entropy T*S    EENTRO =        -0.25030157
  eigenvalues    EBANDS =     -2079.38629374
  atomic energy  EATOM  =     41659.78587232
  Solvation  Ediel_sol  =         0.00000000
  ---------------------------------------------------
  free energy    TOTEN  =      -188.77927497 eV

  energy without entropy =     -188.52897340  energy(sigma->0) =     -188.65412418


--------------------------------------------------------------------------------------------------------




----------------------------------------- Iteration    1(  22)  ---------------------------------------


    POTLOK:  cpu time    0.0412: real time    0.0415
    SETDIJ:  cpu time    0.0056: real time    0.0056
    EDDIAG:  cpu time    1.2239: real time    1.2271
  RMM-DIIS:  cpu time    3.4316: real time    3.4465
    ORTHCH:  cpu time    0.2896: real time    0.2902
       DOS:  cpu time    0.0015: real time    0.0015
    CHARGE:  cpu time    0.2371: real time    0.2379
    MIXING:  cpu time    0.0039: real time    0.0039
    --------------------------------------------
      LOOP:  cpu time    5.2351: real time    5.2569

 eigenvalue-minimisations  :  3681
 total energy-change (2. order) : 0.2307314E-02  (-0.2495348E-03)
 number of electron     503.9998363 magnetization 
 augmentation part      197.1120938 magnetization 

 DIPCOR: dipole corrections for dipol
 direction  3 min pos     1,
 dipolmoment           0.000000      0.000000     -0.021768 electrons x Angstroem
 Tr[quadrupol]    -10307.049637

 energy correction for charged system         0.000000 eV
 dipol+quadrupol energy correction           -0.000017 eV
 added-field ion interaction          0.006891 eV  (added to PSCEN)


 Broyden mixing:
  rms(total) = 0.41833E-01    rms(broyden)= 0.41828E-01
  rms(prec ) = 0.47970E-01
  weight for this iteration     100.00

 eigenvalues of (default mixing * dielectric matrix)
  average eigenvalue GAMMA=   0.7343
  2.3193  1.8249  1.8249  1.0162  1.0162  0.6672  0.6070  0.6070  0.4295  0.4295
  0.3039  0.3039  0.2560  0.2560  0.2109  0.2056  0.2056

 Free energy of the ion-electron system (eV)
  ---------------------------------------------------
  alpha Z        PSCENC =       805.87623829
  Ewald energy   TEWEN  =    200161.99311913
  -Hartree energ DENC   =   -242319.80785889
  -exchange      EXHF   =         0.00000000
  -V(xc)+E(xc)   XCENC  =      -343.51454390
  PAW double counting   =     49362.62233861   -47440.80879386
  entropy T*S    EENTRO =        -0.25180854
  eigenvalues    EBANDS =     -2074.67153080
  atomic energy  EATOM  =     41659.78587232
  Solvation  Ediel_sol  =         0.00000000
  ---------------------------------------------------
  free energy    TOTEN  =      -188.77696766 eV

  energy without entropy =     -188.52515912  energy(sigma->0) =     -188.65106339


--------------------------------------------------------------------------------------------------------




----------------------------------------- Iteration    1(  23)  ---------------------------------------


    POTLOK:  cpu time    0.0414: real time    0.0415
    SETDIJ:  cpu time    0.0055: real time    0.0055
    EDDIAG:  cpu time    1.2273: real time    1.2315
  RMM-DIIS:  cpu time    3.4054: real time    3.4164
[...]
    275       1.7353      0.00000
    276       1.8335      0.00000
    277       2.1602      0.00000
    278       2.2279      0.00000
    279       2.3254      0.00000
    280       2.3974      0.00000
    281       2.4439      0.00000
    282       2.5524      0.00000
    283       2.7313      0.00000
    284       2.9442      0.00000
    285       3.1934      0.00000
    286       3.2246      0.00000
    287       3.5503      0.00000
    288       3.6470      0.00000
    289       3.7776      0.00000
    290       3.9951      0.00000
    291       4.1072      0.00000
    292       4.1876      0.00000
    293       4.4925      0.00000
    294       4.5442      0.00000
    295       4.5842      0.00000
    296       4.6302      0.00000
    297       4.6652      0.00000
    298       4.8380      0.00000
    299       4.9040      0.00000
    300       4.9529      0.00000
    301       5.0408      0.00000
    302       5.0543      0.00000
    303       5.0689      0.00000
    304       5.1312      0.00000
    305       5.1556      0.00000
    306       5.2513      0.00000


--------------------------------------------------------------------------------------------------------


 soft charge-density along one line, spin component           1
         0         1         2         3         4         5         6         7         8         9
 total charge-density along one line
 
 pseudopotential strength for first ion, spin component:           1
 -8.044   0.000  -0.003  -0.001   0.000  -8.191   0.000  -0.003
  0.000  -7.965   0.000   0.003  -0.003   0.000  -8.113   0.000
 -0.003   0.000  -7.962  -0.000   0.002  -0.003   0.000  -8.110
 -0.001   0.003  -0.000  -7.968   0.001  -0.001   0.003  -0.000
  0.000  -0.003   0.002   0.001  -8.041   0.000  -0.003   0.002
 -8.191   0.000  -0.003  -0.001   0.000  -8.321   0.000  -0.003
  0.000  -8.113   0.000   0.003  -0.003   0.000  -8.245   0.000
 -0.003   0.000  -8.110  -0.000   0.002  -0.003   0.000  -8.243
 -0.001   0.003  -0.000  -8.116   0.001  -0.001   0.003  -0.000
  0.000  -0.003   0.002   0.001  -8.188   0.000  -0.003   0.002
 -0.002  -0.001  -0.024  -0.000   0.001  -0.002  -0.001  -0.024
 -0.003  -0.001  -0.035  -0.000   0.002  -0.003  -0.001  -0.035
 -0.001  -0.002  -0.001  -0.000  -0.001  -0.001  -0.001  -0.001
 -0.000   0.000  -0.003  -0.001  -0.000  -0.000   0.000  -0.003
  0.001  -0.000  -0.000  -0.002   0.000   0.001  -0.000  -0.000
 -0.001  -0.001  -0.001  -0.000  -0.001  -0.001  -0.001  -0.001
 -0.000   0.001  -0.003  -0.001  -0.000  -0.000   0.001  -0.003
  0.001  -0.000  -0.000  -0.001   0.000   0.001  -0.000  -0.000
 total augmentation occupancy for first ion, spin component:           1
  4.138  -0.001   0.076   0.038   0.118  -2.353  -0.004  -0.084  -0.065  -0.113   0.123  -0.064   0.051   0.003  -0.052  -0.002
 -0.001   4.287  -0.073  -0.033   0.083  -0.003  -2.017   0.067   0.037  -0.115   0.054  -0.026  -0.164   0.020  -0.000   0.007
  0.076  -0.073   4.430  -0.069  -0.079  -0.084   0.067  -2.330   0.058   0.077   0.914  -0.081   0.035  -0.242   0.019  -0.003
  0.038  -0.033  -0.069   4.165  -0.005  -0.065   0.037   0.058  -1.909   0.012   0.027  -0.029   0.001   0.014  -0.149  -0.000
  0.118   0.083  -0.079  -0.005   4.432  -0.113  -0.116   0.076   0.013  -2.598  -0.056   0.015  -0.011   0.010  -0.083  -0.001
 -2.353  -0.003  -0.084  -0.065  -0.113   2.441   0.006   0.089   0.085   0.108  -0.108   0.060  -0.043  -0.002   0.047   0.002
 -0.004  -2.017   0.067   0.037  -0.116   0.006   1.718  -0.062  -0.040   0.139  -0.048   0.025   0.147  -0.018   0.001  -0.006
 -0.084   0.067  -2.330   0.058   0.076   0.089  -0.062   2.172  -0.049  -0.074  -0.858   0.102  -0.030   0.245  -0.015   0.002
 -0.065   0.037   0.058  -1.909   0.013   0.085  -0.040  -0.049   1.623  -0.017  -0.021   0.024  -0.000  -0.009   0.134   0.000
 -0.113  -0.115   0.077   0.012  -2.598   0.108   0.139  -0.074  -0.017   2.650   0.045  -0.014   0.011  -0.008   0.071   0.000
  0.123   0.054   0.914   0.027  -0.056  -0.108  -0.048  -0.858  -0.021   0.045   2.415  -0.499   0.011   0.115   0.008  -0.001
 -0.064  -0.026  -0.081  -0.029   0.015   0.060   0.025   0.102   0.024  -0.014  -0.499   0.148  -0.008  -0.059  -0.005   0.000
  0.051  -0.164   0.035   0.001  -0.011  -0.043   0.147  -0.030  -0.000   0.011   0.011  -0.008   0.190  -0.003  -0.004  -0.006
  0.003   0.020  -0.242   0.014   0.010  -0.002  -0.018   0.245  -0.009  -0.008   0.115  -0.059  -0.003   0.098   0.000   0.000
 -0.052  -0.000   0.019  -0.149  -0.083   0.047   0.001  -0.015   0.134   0.071   0.008  -0.005  -0.004   0.000   0.193   0.000
 -0.002   0.007  -0.003  -0.000  -0.001   0.002  -0.006   0.002   0.000   0.000  -0.001   0.000  -0.006   0.000   0.000   0.000
 -0.000  -0.000   0.005  -0.001  -0.000   0.000   0.001  -0.008   0.001   0.000  -0.007   0.003   0.000  -0.003   0.000  -0.000
  0.003  -0.000  -0.002   0.006   0.004  -0.002   0.000   0.001  -0.006  -0.003  -0.000   0.000   0.000   0.000  -0.006  -0.000


------------------------ aborting loop because EDIFF is reached ----------------------------------------


    CHARGE:  cpu time    0.2302: real time    0.2311
    FORLOC:  cpu time    0.0165: real time    0.0165
    FORNL :  cpu time    1.3266: real time    1.3308
    FORCOR:  cpu time    0.0581: real time    0.0582
    FORHAR:  cpu time    0.0246: real time    0.0246
    MIXING:  cpu time    0.0027: real time    0.0027
    OFIELD:  cpu time    0.0000: real time    0.0000

 VOLUME and BASIS-vectors are now :
 -----------------------------------------------------------------------------
  energy-cutoff  :      400.00
  volume of cell :     2567.68
      direct lattice vectors                 reciprocal lattice vectors
    11.002581515  0.000000000  0.000000000     0.090887761 -0.052474073  0.000000000
     5.501290758  9.528515099  0.000000000     0.000000000  0.104948147  0.000000000
     0.000000000  0.000000000 24.491785094     0.000000000  0.000000000  0.040830017

  length of vectors
    11.002581515 11.002581515 24.491785094     0.104948147  0.104948147  0.040830017


 FORCES acting on ions
    electron-ion (+dipol)            ewald-force                    non-local-force                 convergence-correction
 -----------------------------------------------------------------------------------------------
   0.345E+01 0.976E+01 0.222E+04   -.348E+01 -.995E+01 -.222E+04   -.942E-02 0.115E+00 0.234E+00   -.535E-02 -.815E-02 -.870E-04
   -.248E+01 0.136E+02 0.222E+04   0.253E+01 -.140E+02 -.222E+04   -.165E-01 0.134E+00 -.357E-01   -.902E-02 0.178E-02 0.947E-02
   0.658E+01 0.918E+01 0.166E+02   -.607E+01 -.894E+01 -.170E+02   -.509E+00 -.231E+00 0.413E+00   0.187E-02 0.138E-02 0.573E-02
   0.596E+00 -.211E+02 0.222E+04   -.522E+00 0.224E+02 -.222E+04   -.708E-01 -.839E+00 -.642E+00   -.995E-03 0.408E-02 0.120E-01
   -.402E+00 -.771E+01 0.496E+02   0.152E+00 0.708E+01 -.506E+02   0.256E+00 0.632E+00 0.994E+00   -.389E-02 -.942E-02 -.693E-02
   0.103E+02 0.239E+02 0.222E+04   -.108E+02 -.249E+02 -.222E+04   0.334E+00 0.611E+00 -.467E+00   0.153E-01 0.524E-02 0.644E-02
   0.102E+02 -.114E+02 -.225E+04   -.109E+02 0.120E+02 0.225E+04   0.679E+00 -.581E+00 0.283E+00   0.459E-02 0.330E-02 -.196E-01
   -.174E+02 -.158E+02 0.223E+04   0.183E+02 0.164E+02 -.223E+04   -.645E+00 -.434E+00 -.323E+00   -.204E-01 0.370E-02 0.302E-02
   -.620E+01 0.967E+00 -.225E+04   0.660E+01 -.114E+01 0.225E+04   -.420E+00 0.164E+00 0.251E-01   0.118E-01 0.155E-01 0.887E-02
   -.703E+01 -.805E+01 -.225E+04   0.744E+01 0.830E+01 0.225E+04   -.391E+00 -.230E+00 0.395E+00   -.162E-01 -.266E-01 -.163E-01
   0.488E+00 0.639E+01 0.484E+02   -.502E+00 -.623E+01 -.490E+02   0.581E-02 -.164E+00 0.627E+00   0.105E-01 0.350E-03 0.199E-01
   -.241E+01 -.105E+02 0.295E+02   0.191E+01 0.104E+02 -.305E+02   0.491E+00 0.851E-01 0.105E+01   0.498E-02 0.122E-01 0.433E-03
   0.101E+02 0.748E+01 -.225E+04   -.103E+02 -.791E+01 0.226E+04   0.252E+00 0.425E+00 -.152E+00   -.486E-03 0.356E-02 -.120E-02
   0.617E+01 0.116E+02 -.414E+02   -.640E+01 -.113E+02 0.416E+02   0.239E+00 -.353E+00 -.196E+00   -.136E-01 0.137E-01 -.102E-01
   0.434E+01 0.512E+01 -.231E+04   -.425E+01 -.527E+01 0.231E+04   -.929E-01 0.160E+00 -.263E+00   0.707E-02 -.521E-02 -.196E-01
   -.694E+01 0.734E+01 -.220E+04   0.714E+01 -.767E+01 0.220E+04   -.182E+00 0.340E+00 0.405E+00   -.230E-01 -.522E-02 -.156E-01
   0.416E+01 -.555E+00 -.168E+02   -.391E+01 0.625E+00 0.175E+02   -.223E+00 -.722E-01 -.631E+00   -.268E-01 0.367E-02 -.107E-01
   -.627E+01 -.926E+01 0.166E+02   0.605E+01 0.888E+01 -.165E+02   0.205E+00 0.376E+00 -.112E+00   0.187E-01 0.243E-02 0.540E-02
   0.152E+02 -.121E+02 0.223E+04   -.159E+02 0.124E+02 -.223E+04   0.409E+00 -.165E+00 -.301E+00   0.191E-01 0.131E-01 0.600E-02
   0.203E+01 -.105E+01 0.172E+00   -.814E+00 0.798E+00 -.126E+01   -.121E+01 0.260E+00 0.110E+01   0.582E-02 -.908E-02 -.871E-02
   0.398E+01 0.193E+02 -.227E+04   -.441E+01 -.204E+02 0.227E+04   0.419E+00 0.108E+01 -.528E-01   0.745E-02 -.639E-02 -.534E-02
   -.733E+01 0.383E+01 0.223E+04   0.752E+01 -.389E+01 -.223E+04   -.937E-01 0.374E-01 -.366E+00   -.374E-02 -.155E-01 -.508E-02
   -.650E+01 -.174E+02 -.226E+04   0.628E+01 0.182E+02 0.226E+04   0.205E+00 -.752E+00 -.268E-01   0.224E-01 0.171E-02 0.957E-02
   -.719E+01 -.164E+01 -.222E+04   0.699E+01 0.240E+01 0.222E+04   0.198E+00 -.744E+00 0.397E+00   -.685E-02 -.102E-01 -.557E-02
   -.950E+01 -.139E+02 -.199E+04   0.977E+01 0.138E+02 0.199E+04   -.274E+00 0.115E+00 0.148E+01   -.546E-02 -.602E-02 0.203E-02
   -.138E+02 -.135E+01 0.203E+04   0.143E+02 0.145E+01 -.203E+04   -.265E+00 -.192E-01 -.146E+01   -.128E-01 -.630E-02 -.273E-02
   0.116E+02 0.170E+02 -.196E+04   -.120E+02 -.173E+02 0.196E+04   0.380E+00 0.336E+00 0.131E+01   0.102E-01 -.296E-02 0.202E-02
   0.120E+02 -.156E+01 0.204E+04   -.123E+02 0.148E+01 -.204E+04   0.135E+00 0.356E-01 -.137E+01   0.110E-01 0.835E-02 0.590E-03
   -.807E+01 0.968E+01 -.195E+04   0.857E+01 -.100E+02 0.194E+04   -.506E+00 0.340E+00 0.161E+01   0.153E-01 0.531E-02 -.824E-02
   -.119E+01 0.528E+00 -.261E+02   0.368E+00 -.223E+00 0.267E+02   0.826E+00 -.310E+00 -.504E+00   -.276E-02 0.399E-02 -.867E-02
   -.510E+01 0.915E+01 0.134E+02   0.494E+01 -.864E+01 -.138E+02   0.164E+00 -.503E+00 0.413E+00   0.135E-01 0.746E-02 0.108E-01
   0.126E+02 0.185E+02 0.203E+04   -.131E+02 -.188E+02 -.203E+04   0.328E+00 0.126E+00 -.165E+01   0.556E-02 0.265E-02 0.236E-02
   0.170E+01 -.783E+01 0.204E+04   -.194E+01 0.789E+01 -.204E+04   0.199E+00 -.377E-01 -.152E+01   0.204E-02 0.797E-02 -.201E-02
   0.460E+01 -.267E+01 0.108E+02   -.477E+01 0.309E+01 -.107E+02   0.185E+00 -.412E+00 -.328E-01   -.155E-02 -.640E-02 -.186E-01
   -.970E+00 -.508E+01 0.416E+02   0.787E+00 0.521E+01 -.412E+02   0.187E+00 -.143E+00 -.425E+00   -.171E-01 0.103E-01 0.151E-02
   -.745E+01 -.844E+01 0.205E+04   0.755E+01 0.838E+01 -.204E+04   -.159E-02 0.131E+00 -.169E+01   -.499E-02 0.725E-02 -.122E-02
   -.275E+01 -.177E+01 0.203E+04   0.301E+01 0.152E+01 -.202E+04   -.182E+00 0.196E+00 -.178E+01   0.575E-03 -.557E-02 0.184E-02
   -.571E+01 0.813E+01 -.145E+02   0.565E+01 -.819E+01 0.146E+02   0.742E-01 0.627E-01 -.740E-01   -.876E-02 -.663E-02 -.190E-03
   -.616E+01 -.913E+01 -.199E+04   0.628E+01 0.964E+01 0.199E+04   -.138E+00 -.494E+00 0.164E+01   0.103E-01 -.797E-02 -.115E-01
   -.202E+01 0.427E+00 0.217E+02   0.255E+01 -.599E+00 -.208E+02   -.539E+00 0.165E+00 -.852E+00   0.122E-01 0.861E-02 0.102E-02
   0.175E+01 -.246E+01 0.140E+02   -.195E+01 0.192E+01 -.148E+02   0.208E+00 0.541E+00 0.827E+00   -.132E-01 -.716E-02 -.622E-02
   -.213E+01 -.983E+01 0.203E+04   0.206E+01 0.993E+01 -.203E+04   0.742E-01 -.289E-01 -.173E+01   -.647E-02 -.693E-02 -.114E-02
   0.231E+01 0.494E+01 -.198E+04   -.218E+01 -.489E+01 0.198E+04   -.147E+00 -.356E-01 0.149E+01   0.123E-01 -.135E-01 0.207E-03
   0.423E+01 -.124E+02 -.196E+04   -.388E+01 0.129E+02 0.195E+04   -.352E+00 -.517E+00 0.163E+01   0.820E-03 0.545E-02 0.541E-02
   -.934E+01 0.885E+01 0.204E+04   0.965E+01 -.900E+01 -.204E+04   -.193E+00 0.541E-01 -.157E+01   0.278E-02 -.665E-02 -.157E-02
   0.644E+01 0.264E+01 0.204E+04   -.656E+01 -.250E+01 -.204E+04   0.133E-01 -.120E+00 -.162E+01   0.723E-02 -.464E-02 -.622E-03
   0.104E+01 -.833E+01 0.249E+01   -.501E+00 0.812E+01 -.247E+01   -.546E+00 0.211E+00 -.131E-01   0.710E-03 -.604E-02 -.974E-02
   0.852E+01 0.321E+01 -.196E+04   -.905E+01 -.345E+01 0.196E+04   0.534E+00 0.245E+00 0.206E+01   -.302E-03 -.856E-02 -.184E-01
 -----------------------------------------------------------------------------------------------
   -.366E-02 0.250E+00 0.155E+01   -.707E-12 -.378E-12 -.227E-12   -.123E-01 -.209E+00 -.149E+01   0.305E-01 -.380E-01 -.101E+00
 
 
 POSITION                                       TOTAL-FORCE (eV/Angst)
 -----------------------------------------------------------------------------------
      5.50129      3.17617     10.00000        -0.043322     -0.086223     -0.243429
      4.12597      5.55830     10.00000         0.025676     -0.193109     -0.227294
      9.64601      3.97125     12.42336        -0.006573      0.004670     -0.002096
     13.75323      7.94043     10.00000         0.001678      0.370007     -0.065352
     10.99190      1.57276     12.38642         0.001868     -0.010493      0.002659
     12.37790      5.55830     10.00000        -0.178628     -0.390879     -0.103410
      2.72221      4.78770     14.96680        -0.003863      0.010387      0.011824
      5.50129      7.94043     10.00000         0.295998      0.228255     -0.231607
      9.63383      2.39376     14.96690         0.000389      0.004103      0.001249
      4.13574      7.16210     14.93774         0.000221     -0.007261      0.009788
      8.25866      6.34651     12.39353         0.002188     -0.003932      0.004999
      2.73789      1.58278     12.40730        -0.006392      0.001682     -0.001663
      1.36656      2.37747     14.98847        -0.008858     -0.000530      0.001878
      4.11646      3.96286     12.49562        -0.007919     -0.005634     -0.004947
      4.11379      2.37700     15.08977        -0.001414      0.006836      0.006069
      8.25170     -0.00748     14.90005        -0.009403      0.003679      0.006319
      5.50262      6.35434     12.47322         0.004564      0.002321     -0.008000
      9.63326      8.71978     12.43013         0.005214     -0.008278      0.000733
     11.00258      7.94043     10.00000        -0.222222      0.152779     -0.223026
      5.53776      1.56687     12.43515         0.008643     -0.003468      0.001736
      5.47783     -0.02913     14.99949        -0.001307      0.005309      0.006285
      8.25194      3.17617     10.00000         0.095916     -0.033751     -0.127910
      8.23995      4.80989     14.96306        -0.001043      0.010033      0.003525
      6.86649      2.40205     14.95354        -0.006515     -0.002880      0.003496
      5.49530      4.77916     14.86127        -0.006820      0.012930      0.003575
      6.87661      5.55830     10.00000         0.182709      0.077061      0.161900
      2.73439     -0.00952     14.80885        -0.009892      0.004091      0.001650
      4.12597      0.79404     10.00000        -0.144517     -0.034463      0.116548
      0.01659      0.00510     14.78373         0.012323      0.004553     -0.007442
     13.73918      6.35337     12.48288        -0.003194     -0.000678      0.005401
     12.37976      3.98275     12.43108         0.011095      0.011153     -0.004314
      2.75065      3.17617     10.00000        -0.116326     -0.155714      0.238998
      8.25194      7.94043     10.00000        -0.038198      0.030298      0.039758
     15.11059      8.73365     12.43525         0.006128      0.002778      0.002406
      6.86127      8.73108     12.40156        -0.013244      0.002293      0.002765
      1.37532      0.79404     10.00000         0.091653      0.071513      0.021696
      6.87661      0.79404     10.00000         0.077902     -0.057445      0.223432
      6.88840      3.96017     12.46782         0.003833      0.000408     -0.008037
      6.88680      7.18458     14.81456        -0.005247      0.003447     -0.001928
     11.03087      6.34809     12.42371         0.003787      0.001571      0.000903
      8.25817      1.56848     12.42777        -0.000462     -0.006069     -0.000570
      9.62726      0.79404     10.00000        -0.010604      0.059755      0.168725
      9.62100      7.15176     14.80765         0.001379     -0.002562     -0.004861
     10.99707      4.78852     14.79940        -0.005297      0.008265     -0.007330
     11.00258      3.17617     10.00000         0.118938     -0.103616      0.143395
      9.62726      5.55830     10.00000        -0.096869      0.016970      0.081502
     12.40728      8.72348     12.44390        -0.002813      0.000180      0.003034
     12.34440      7.14315     14.79476        -0.001163     -0.000344     -0.003034
 -----------------------------------------------------------------------------------
    total drift:                                0.014577      0.002459     -0.039178


--------------------------------------------------------------------------------------------------------



  FREE ENERGIE OF THE ION-ELECTRON SYSTEM (eV)
  ---------------------------------------------------
  free  energy   TOTEN  =      -192.26560904 eV

  energy  without entropy=     -192.03902656  energy(sigma->0) =     -192.15231780
 
 d Force = 0.2997908E-03[-0.108E-04, 0.610E-03]  d Energy = 0.2637701E-03 0.360E-04
 d Force = 0.4053682E+02[ 0.405E+02, 0.405E+02]  d Ewald  = 0.4053682E+02-0.237E-05


--------------------------------------------------------------------------------------------------------


    POTLOK:  cpu time    0.0487: real time    0.0498


--------------------------------------------------------------------------------------------------------


 stress matrix after NEB project (eV)
      0.00000      0.00000      0.00000
      0.00000      0.00000      0.00000
      0.00000      0.00000      0.00000
  FORCES: max atom, RMS     0.016313    0.008123
  FORCE total and by dimension    0.056281    0.013244
  Stress total and by dimension    0.000000    0.000000
 Conjugate gradient step on ions:
 trial-energy change:   -0.000264  1 .order   -0.000300   -0.000610    0.000011
  (g-gl).g = 0.226E-03      g.g   = 0.216E-03  gl.gl    = 0.547E-03
 g(Force)  = 0.216E-03   g(Stress)= 0.000E+00 ortho     =-0.103E-04
 gamma     =   0.41365
 trial     =   2.88008
 opt step  =   2.80449  (harmonic =   2.83010) maximal distance =0.00284247
 next E    =  -192.265609   (d E  =  -0.00026)


--------------------------------------------------------------------------------------------------------


  
 reached required accuracy - stopping structural energy minimisation
     LOOP+:  cpu time   44.5323: real time   44.8250
    4ORBIT:  cpu time    0.0000: real time    0.0000

 total amount of memory used by VASP on root node    84353. kBytes
========================================================================

   base      :      30000. kBytes
   nonlr-proj:       4285. kBytes
   fftplans  :       4447. kBytes
   grid      :       6721. kBytes
   one-center:        124. kBytes
   wavefun   :      38776. kBytes
 
  
  
 General timing and accounting informations for this job:
 ========================================================
  
                  Total CPU time used (sec):     1444.929
                            User time (sec):     1372.951
                          System time (sec):       71.978
                         Elapsed time (sec):     1454.358
  
                   Maximum memory used (kb):      811704.
                   Average memory used (kb):           0.
  
                          Minor page faults:       686195
                          Major page faults:            0
                 Voluntary context switches:        10553
