  48  48   0   0
  0.5349325E+02  0.1100258E-08  0.1100258E-08  0.2449179E-08  0.3500000E-15
  1.000000000000000E-004
  CAR 
 unknown system                          
      6.32775303     -9.76807171  301     -1.09802303      1.00000000
     -9.768  0.0000E+00  0.0000E+00
     -9.714  0.0000E+00  0.0000E+00
     -9.661  0.0000E+00  0.0000E+00
     -9.607  0.0000E+00  0.0000E+00
     -9.553  0.0000E+00  0.0000E+00
     -9.500  0.0000E+00  0.0000E+00
     -9.446  0.0000E+00  0.0000E+00
     -9.393  0.0000E+00  0.0000E+00
     -9.339  0.7587E-17  0.4071E-18
     -9.285  0.2950E-14  0.1587E-15
     -9.232  0.6564E-12  0.3537E-13
     -9.178  0.8312E-10  0.4495E-11
     -9.124  0.6002E-08  0.3265E-09
     -9.071  0.2476E-06  0.1361E-07
     -9.017  0.5848E-05  0.3274E-06
     -8.963  0.7926E-04  0.4580E-05
     -8.910  0.6181E-03  0.3774E-04
     -8.856  0.2782E-02  0.1870E-03
     -8.802  0.7279E-02  0.5775E-03
     -8.749  0.1137E-01  0.1188E-02
     -8.695  0.1194E-01  0.1828E-02
     -8.641  0.1152E-01  0.2447E-02
     -8.588  0.1198E-01  0.3089E-02
     -8.534  0.9896E-02  0.3620E-02
     -8.480  0.5160E-02  0.3897E-02
     -8.427  0.1594E-02  0.3983E-02
     -8.373  0.2885E-03  0.3998E-02
     -8.319  0.4160E-04  0.4001E-02
     -8.266  0.1124E-03  0.4007E-02
     -8.212  0.6359E-03  0.4041E-02
     -8.158  0.2251E-02  0.4161E-02
     -8.105  0.5265E-02  0.4444E-02
     -8.051  0.8989E-02  0.4926E-02
     -7.998  0.1261E-01  0.5603E-02
     -7.944  0.1645E-01  0.6485E-02
     -7.890  0.2038E-01  0.7579E-02
     -7.837  0.2122E-01  0.8717E-02
     -7.783  0.1800E-01  0.9683E-02
     -7.729  0.1501E-01  0.1049E-01
     -7.676  0.1389E-01  0.1123E-01
     -7.622  0.1368E-01  0.1197E-01
     -7.568  0.1664E-01  0.1286E-01
     -7.515  0.2236E-01  0.1406E-01
     -7.461  0.2461E-01  0.1538E-01
     -7.407  0.2170E-01  0.1654E-01
     -7.354  0.1828E-01  0.1753E-01
     -7.300  0.1813E-01  0.1850E-01
     -7.246  0.2070E-01  0.1961E-01
     -7.193  0.2201E-01  0.2079E-01
     -7.139  0.2222E-01  0.2198E-01
     -7.085  0.2718E-01  0.2344E-01
     -7.032  0.3836E-01  0.2550E-01
     -6.978  0.5054E-01  0.2821E-01
     -6.924  0.6189E-01  0.3153E-01
     -6.871  0.7502E-01  0.3556E-01
     -6.817  0.8681E-01  0.4021E-01
     -6.764  0.9113E-01  0.4510E-01
     -6.710  0.8887E-01  0.4987E-01
     -6.656  0.8699E-01  0.5454E-01
     -6.603  0.8874E-01  0.5930E-01
     -6.549  0.9128E-01  0.6420E-01
     -6.495  0.9489E-01  0.6929E-01
     -6.442  0.1029E+00  0.7481E-01
     -6.388  0.1130E+00  0.8087E-01
     -6.334  0.1223E+00  0.8743E-01
     -6.281  0.1340E+00  0.9462E-01
     -6.227  0.1490E+00  0.1026E+00
     -6.173  0.1597E+00  0.1112E+00
     -6.120  0.1608E+00  0.1198E+00
     -6.066  0.1562E+00  0.1282E+00
     -6.012  0.1513E+00  0.1363E+00
     -5.959  0.1469E+00  0.1442E+00
     -5.905  0.1433E+00  0.1519E+00
     -5.851  0.1413E+00  0.1595E+00
     -5.798  0.1398E+00  0.1670E+00
     -5.744  0.1393E+00  0.1744E+00
     -5.690  0.1428E+00  0.1821E+00
     -5.637  0.1475E+00  0.1900E+00
     -5.583  0.1470E+00  0.1979E+00
     -5.530  0.1419E+00  0.2055E+00
     -5.476  0.1385E+00  0.2129E+00
     -5.422  0.1427E+00  0.2206E+00
     -5.369  0.1534E+00  0.2288E+00
     -5.315  0.1635E+00  0.2376E+00
     -5.261  0.1695E+00  0.2467E+00
     -5.208  0.1734E+00  0.2560E+00
     -5.154  0.1757E+00  0.2654E+00
     -5.100  0.1731E+00  0.2747E+00
     -5.047  0.1661E+00  0.2836E+00
     -4.993  0.1617E+00  0.2923E+00
     -4.939  0.1633E+00  0.3011E+00
     -4.886  0.1672E+00  0.3100E+00
     -4.832  0.1704E+00  0.3192E+00
     -4.778  0.1731E+00  0.3285E+00
     -4.725  0.1756E+00  0.3379E+00
     -4.671  0.1778E+00  0.3474E+00
     -4.617  0.1792E+00  0.3570E+00
     -4.564  0.1793E+00  0.3667E+00
     -4.510  0.1756E+00  0.3761E+00
     -4.456  0.1667E+00  0.3850E+00
     -4.403  0.1583E+00  0.3935E+00
     -4.349  0.1572E+00  0.4020E+00
     -4.295  0.1632E+00  0.4107E+00
     -4.242  0.1702E+00  0.4198E+00
     -4.188  0.1755E+00  0.4293E+00
     -4.135  0.1795E+00  0.4389E+00
     -4.081  0.1814E+00  0.4486E+00
     -4.027  0.1815E+00  0.4584E+00
     -3.974  0.1824E+00  0.4682E+00
     -3.920  0.1853E+00  0.4781E+00
     -3.866  0.1897E+00  0.4883E+00
     -3.813  0.1967E+00  0.4988E+00
     -3.759  0.2054E+00  0.5098E+00
     -3.705  0.2109E+00  0.5212E+00
     -3.652  0.2138E+00  0.5326E+00
     -3.598  0.2190E+00  0.5444E+00
     -3.544  0.2244E+00  0.5564E+00
     -3.491  0.2253E+00  0.5685E+00
     -3.437  0.2216E+00  0.5804E+00
     -3.383  0.2139E+00  0.5919E+00
     -3.330  0.2027E+00  0.6028E+00
     -3.276  0.1930E+00  0.6131E+00
     -3.222  0.1895E+00  0.6233E+00
     -3.169  0.1888E+00  0.6334E+00
     -3.115  0.1872E+00  0.6434E+00
     -3.061  0.1842E+00  0.6533E+00
     -3.008  0.1793E+00  0.6630E+00
     -2.954  0.1733E+00  0.6723E+00
     -2.901  0.1693E+00  0.6813E+00
     -2.847  0.1694E+00  0.6904E+00
     -2.793  0.1725E+00  0.6997E+00
     -2.740  0.1767E+00  0.7092E+00
     -2.686  0.1810E+00  0.7189E+00
     -2.632  0.1839E+00  0.7287E+00
     -2.579  0.1844E+00  0.7386E+00
     -2.525  0.1849E+00  0.7486E+00
     -2.471  0.1884E+00  0.7587E+00
     -2.418  0.1917E+00  0.7689E+00
     -2.364  0.1891E+00  0.7791E+00
     -2.310  0.1826E+00  0.7889E+00
     -2.257  0.1800E+00  0.7985E+00
     -2.203  0.1832E+00  0.8084E+00
     -2.149  0.1870E+00  0.8184E+00
     -2.096  0.1886E+00  0.8285E+00
     -2.042  0.1909E+00  0.8388E+00
     -1.988  0.1949E+00  0.8492E+00
     -1.935  0.1975E+00  0.8598E+00
     -1.881  0.1957E+00  0.8703E+00
     -1.827  0.1905E+00  0.8805E+00
     -1.774  0.1868E+00  0.8906E+00
     -1.720  0.1874E+00  0.9006E+00
     -1.667  0.1914E+00  0.9109E+00
     -1.613  0.1934E+00  0.9213E+00
     -1.559  0.1903E+00  0.9315E+00
     -1.506  0.1859E+00  0.9415E+00
     -1.452  0.1827E+00  0.9513E+00
     -1.398  0.1799E+00  0.9609E+00
     -1.345  0.1791E+00  0.9705E+00
     -1.291  0.1787E+00  0.9801E+00
     -1.237  0.1708E+00  0.9893E+00
     -1.184  0.1524E+00  0.9974E+00
     -1.130  0.1302E+00  0.1004E+01
     -1.076  0.1068E+00  0.1010E+01
     -1.023  0.7952E-01  0.1014E+01
     -0.969  0.5178E-01  0.1017E+01
     -0.915  0.3314E-01  0.1019E+01
     -0.862  0.2592E-01  0.1020E+01
     -0.808  0.2203E-01  0.1022E+01
     -0.754  0.1683E-01  0.1022E+01
     -0.701  0.1547E-01  0.1023E+01
     -0.647  0.2207E-01  0.1024E+01
     -0.593  0.3298E-01  0.1026E+01
     -0.540  0.4194E-01  0.1028E+01
     -0.486  0.4514E-01  0.1031E+01
     -0.432  0.4157E-01  0.1033E+01
     -0.379  0.3263E-01  0.1035E+01
     -0.325  0.2581E-01  0.1036E+01
     -0.272  0.3024E-01  0.1038E+01
     -0.218  0.4123E-01  0.1040E+01
     -0.164  0.4435E-01  0.1042E+01
     -0.111  0.3585E-01  0.1044E+01
     -0.057  0.2454E-01  0.1046E+01
     -0.003  0.1962E-01  0.1047E+01
      0.050  0.2324E-01  0.1048E+01
      0.104  0.3078E-01  0.1050E+01
      0.158  0.3547E-01  0.1052E+01
      0.211  0.3544E-01  0.1053E+01
      0.265  0.3488E-01  0.1055E+01
      0.319  0.3578E-01  0.1057E+01
      0.372  0.3709E-01  0.1059E+01
      0.426  0.3924E-01  0.1061E+01
      0.480  0.4159E-01  0.1064E+01
      0.533  0.4125E-01  0.1066E+01
      0.587  0.3864E-01  0.1068E+01
      0.641  0.3817E-01  0.1070E+01
      0.694  0.4035E-01  0.1072E+01
      0.748  0.4065E-01  0.1074E+01
      0.802  0.3662E-01  0.1076E+01
      0.855  0.3017E-01  0.1078E+01
      0.909  0.2524E-01  0.1079E+01
      0.962  0.2340E-01  0.1080E+01
      1.016  0.2193E-01  0.1082E+01
      1.070  0.1929E-01  0.1083E+01
      1.123  0.1794E-01  0.1084E+01
      1.177  0.1834E-01  0.1085E+01
      1.231  0.1774E-01  0.1086E+01
      1.284  0.1564E-01  0.1086E+01
      1.338  0.1418E-01  0.1087E+01
      1.392  0.1532E-01  0.1088E+01
      1.445  0.2054E-01  0.1089E+01
      1.499  0.2891E-01  0.1091E+01
      1.553  0.3507E-01  0.1093E+01
      1.606  0.3492E-01  0.1094E+01
      1.660  0.3080E-01  0.1096E+01
      1.714  0.2870E-01  0.1098E+01
      1.767  0.3154E-01  0.1099E+01
      1.821  0.3563E-01  0.1101E+01
      1.875  0.3485E-01  0.1103E+01
      1.928  0.2840E-01  0.1105E+01
      1.982  0.2173E-01  0.1106E+01
      2.036  0.1927E-01  0.1107E+01
      2.089  0.1977E-01  0.1108E+01
      2.143  0.2066E-01  0.1109E+01
      2.196  0.2393E-01  0.1110E+01
      2.250  0.3233E-01  0.1112E+01
      2.304  0.4355E-01  0.1114E+01
      2.357  0.5203E-01  0.1117E+01
      2.411  0.5439E-01  0.1120E+01
      2.465  0.5102E-01  0.1123E+01
      2.518  0.4494E-01  0.1125E+01
      2.572  0.4036E-01  0.1127E+01
      2.626  0.3874E-01  0.1129E+01
      2.679  0.3862E-01  0.1132E+01
      2.733  0.3840E-01  0.1134E+01
      2.787  0.3513E-01  0.1135E+01
      2.840  0.2755E-01  0.1137E+01
      2.894  0.1996E-01  0.1138E+01
      2.948  0.1606E-01  0.1139E+01
      3.001  0.1365E-01  0.1140E+01
      3.055  0.1103E-01  0.1140E+01
      3.109  0.1085E-01  0.1141E+01
      3.162  0.1457E-01  0.1142E+01
      3.216  0.2038E-01  0.1143E+01
      3.270  0.2481E-01  0.1144E+01
      3.323  0.2479E-01  0.1145E+01
      3.377  0.2237E-01  0.1147E+01
      3.431  0.2283E-01  0.1148E+01
      3.484  0.2671E-01  0.1149E+01
      3.538  0.3065E-01  0.1151E+01
      3.591  0.3273E-01  0.1153E+01
      3.645  0.3357E-01  0.1154E+01
      3.699  0.3375E-01  0.1156E+01
      3.752  0.3298E-01  0.1158E+01
      3.806  0.3011E-01  0.1160E+01
      3.860  0.2481E-01  0.1161E+01
      3.913  0.2069E-01  0.1162E+01
      3.967  0.2279E-01  0.1163E+01
      4.021  0.2905E-01  0.1165E+01
      4.074  0.3152E-01  0.1166E+01
      4.128  0.2865E-01  0.1168E+01
      4.182  0.2525E-01  0.1169E+01
      4.235  0.2267E-01  0.1171E+01
      4.289  0.1935E-01  0.1172E+01
      4.343  0.1813E-01  0.1173E+01
      4.396  0.2188E-01  0.1174E+01
      4.450  0.2666E-01  0.1175E+01
      4.504  0.3081E-01  0.1177E+01
      4.557  0.3872E-01  0.1179E+01
      4.611  0.4958E-01  0.1182E+01
      4.665  0.5634E-01  0.1185E+01
      4.718  0.5503E-01  0.1188E+01
      4.772  0.4812E-01  0.1190E+01
      4.825  0.4343E-01  0.1192E+01
      4.879  0.4626E-01  0.1195E+01
      4.933  0.5290E-01  0.1198E+01
      4.986  0.6070E-01  0.1201E+01
      5.040  0.7049E-01  0.1205E+01
      5.094  0.7535E-01  0.1209E+01
      5.147  0.6954E-01  0.1213E+01
      5.201  0.6061E-01  0.1216E+01
      5.255  0.5497E-01  0.1219E+01
      5.308  0.4667E-01  0.1221E+01
      5.362  0.3084E-01  0.1223E+01
      5.416  0.1414E-01  0.1224E+01
      5.469  0.4237E-02  0.1224E+01
      5.523  0.7974E-03  0.1224E+01
      5.577  0.9161E-04  0.1224E+01
      5.630  0.6288E-05  0.1224E+01
      5.684  0.2539E-06  0.1224E+01
      5.738  0.5961E-08  0.1224E+01
      5.791  0.8081E-10  0.1224E+01
      5.845  0.6289E-12  0.1224E+01
      5.899  0.2798E-14  0.1224E+01
      5.952  0.6898E-17  0.1224E+01
      6.006  0.0000E+00  0.1224E+01
      6.059  0.0000E+00  0.1224E+01
      6.113  0.0000E+00  0.1224E+01
      6.167  0.0000E+00  0.1224E+01
      6.220  0.0000E+00  0.1224E+01
      6.274  0.0000E+00  0.1224E+01
      6.328  0.0000E+00  0.1224E+01
