 vasp.5.4.1 24Jun15 (build Mar 14 2019 10:18:33) complex                        
  
 executed on INTEL-19.0.2+OPENMPI date 2022.07.15  15:18:56
 running on   36 total cores
 distrk:  each k-point on   36 cores,    1 groups
 distr:  one band on NCORES_PER_BAND=   6 cores,    6 groups


--------------------------------------------------------------------------------------------------------


 INCAR:
 POTCAR:    PAW_PBE Au 04Oct2007                  
 POTCAR:    PAW_PBE Pd 04Jan2005                  
 POTCAR:    PAW_PBE Au 04Oct2007                  
  local pseudopotential read in
  partial core-charges read in
  partial kinetic energy density read in
  atomic valenz-charges read in
  non local Contribution for L=           2  read in
    real space projection operators read in
  non local Contribution for L=           2  read in
    real space projection operators read in
  non local Contribution for L=           0  read in
    real space projection operators read in
  non local Contribution for L=           0  read in
    real space projection operators read in
  non local Contribution for L=           1  read in
    real space projection operators read in
  non local Contribution for L=           1  read in
    real space projection operators read in
    PAW grid and wavefunctions read in
 
   number of l-projection  operators is LMAX  =           6
   number of lm-projection operators is LMMAX =          18
 
 POTCAR:    PAW_PBE Pd 04Jan2005                  
  local pseudopotential read in
  partial core-charges read in
  partial kinetic energy density read in
  atomic valenz-charges read in
  non local Contribution for L=           2  read in
    real space projection operators read in
  non local Contribution for L=           2  read in
    real space projection operators read in
  non local Contribution for L=           0  read in
    real space projection operators read in
  non local Contribution for L=           0  read in
    real space projection operators read in
  non local Contribution for L=           1  read in
    real space projection operators read in
  non local Contribution for L=           1  read in
    real space projection operators read in
    PAW grid and wavefunctions read in
 
   number of l-projection  operators is LMAX  =           6
   number of lm-projection operators is LMMAX =          18
 
 Optimization of the real space projectors (new method)

 maximal supplied QI-value         = 15.12
 optimisation between [QCUT,QGAM] = [ 10.13, 20.41] = [ 28.73,116.64] Ry 
 Optimized for a Real-space Cutoff    1.51 Angstroem

   l    n(q)    QCUT    max X(q) W(low)/X(q) W(high)/X(q)  e(spline) 
   2      8    10.129    60.898    0.46E-03    0.46E-03    0.14E-06
   2      8    10.129    58.894    0.47E-03    0.47E-03    0.14E-06
   0      9    10.129   109.617    0.16E-03    0.11E-03    0.54E-07
   0      9    10.129    75.026    0.15E-03    0.11E-03    0.52E-07
   1      9    10.129    16.344    0.96E-04    0.15E-03    0.14E-06
   1      9    10.129    10.160    0.81E-04    0.12E-03    0.11E-06
 Optimization of the real space projectors (new method)

 maximal supplied QI-value         = 14.36
 optimisation between [QCUT,QGAM] = [ 10.20, 20.39] = [ 29.12,116.47] Ry 
 Optimized for a Real-space Cutoff    1.51 Angstroem

   l    n(q)    QCUT    max X(q) W(low)/X(q) W(high)/X(q)  e(spline) 
   2      8    10.197    59.108    0.26E-03    0.14E-03    0.96E-07
   2      8    10.197    58.101    0.27E-03    0.14E-03    0.98E-07
   0      9    10.197   102.235    0.54E-04    0.60E-05    0.72E-07
   0      9    10.197    58.388    0.52E-04    0.60E-05    0.68E-07
   1      9    10.197    22.191    0.18E-03    0.25E-03    0.79E-07
   1      9    10.197    15.590    0.15E-03    0.21E-03    0.69E-07
  PAW_PBE Au 04Oct2007                  :
 energy of atom  1       EATOM= -926.0867
 kinetic energy error for atom=    0.0062 (will be added to EATOM!!)
  PAW_PBE Pd 04Jan2005                  :
 energy of atom  2       EATOM= -809.7530
 kinetic energy error for atom=    0.0091 (will be added to EATOM!!)
 
 
 POSCAR: Au Pd                                   
  positions in cartesian coordinates
  No initial velocities read in
 exchange correlation table for  LEXCH =        8
   RHO(1)=    0.500       N(1)  =     2000
   RHO(2)=  100.500       N(2)  =     4000

 VTST: version 3.2, (02/03/18)

 CHAIN: initializing optimizer
 
 OPT: Using VASP Conjugate-Gradient optimizer
 CHAIN: Read ICHAIN            0
 
 POSCAR: Au Pd                                   
  positions in cartesian coordinates
  No initial velocities read in
 


--------------------------------------------------------------------------------------------------------


 ion  position               nearest neighbor table
   1  0.083  0.083  0.408-  18 2.75  12 2.75  23 2.75  24 2.75  32 2.75  19 2.75   6 2.75  11 2.75
                            30 2.75
   2  0.750  0.500  0.592-   3 2.75  28 2.75  16 2.75  17 2.75   4 2.75  29 2.75  35 2.75  38 2.75
                             5 2.75
   3  0.667  0.667  0.500-   8 2.75   2 2.75  29 2.75   5 2.75  28 2.75   7 2.75  43 2.75  37 2.75
                            48 2.75  47 2.75  16 2.75  27 2.75
   4  0.750  0.250  0.592-   5 2.75  30 2.75  20 2.75  26 2.75   2 2.75  35 2.75   9 2.75  17 2.75
                            25 2.75
   5  0.667  0.417  0.500-  39 2.75   4 2.75  35 2.75  30 2.75   3 2.75  25 2.75  48 2.75  10 2.75
                            28 2.75   8 2.75  32 2.75   2 2.75
   6  0.833  0.083  0.408-  30 2.75  23 2.75  31 2.75  32 2.75  39 2.75   1 2.75  42 2.75  22 2.75
                            25 2.75
   7  0.417  0.917  0.500-  12 2.75  29 2.75  36 2.75   3 2.75  18 2.75  41 2.75  48 2.75  43 2.75
                            11 2.75  19 2.75  47 2.75  40 2.75
   8  0.583  0.583  0.408-   3 2.75  12 2.75  32 2.75  39 2.75  47 2.75  27 2.75  14 2.75   5 2.75
                            48 2.75
   9  0.500  0.250  0.592-  10 2.75  25 2.75  26 2.75  35 2.75  40 2.75  44 2.75   4 2.75  45 2.75
                            41 2.75
  10  0.417  0.417  0.500-  34 2.75   9 2.75  44 2.75  13 2.75  41 2.75  25 2.75  48 2.75  46 2.75
                             5 2.75  14 2.75  35 2.75  39 2.75
  11  0.167  0.917  0.500-  23 2.75  15 2.75  20 2.75  13 2.75  18 2.75  30 2.75  48 2.75  22 2.75
                             7 2.75   1 2.75  36 2.75  12 2.75
  12  0.333  0.833  0.408-   7 2.75   1 2.75   8 2.75  14 2.75  19 2.75  23 2.75  47 2.75  48 2.75
                            11 2.75
  13  0.167  0.667  0.500-  33 2.75  44 2.75  21 2.75  22 2.75  11 2.75  10 2.75  46 2.75  37 2.75
                            48 2.75  23 2.75  14 2.75  15 2.75
  14  0.333  0.583  0.408-  48 2.75  23 2.75  34 2.75  39 2.75  12 2.75  33 2.75   8 2.75  10 2.75
                            13 2.75
  15  0.250  0.750  0.592-  11 2.75  48 2.75  35 2.75  36 2.75  44 2.75  20 2.75  21 2.75  29 2.75
                            13 2.75
  16  0.750  0.750  0.592-  43 2.75  37 2.75   2 2.75  38 2.75  40 2.75  26 2.75  21 2.75  29 2.75
                             3 2.75
  17  0.000  0.250  0.592-  28 2.75  18 2.75  20 2.75   2 2.75  36 2.75  38 2.75   4 2.75  45 2.75
                            30 2.75
  18  0.167  0.167  0.500-   1 2.75  36 2.75  17 2.75   7 2.75  28 2.75  11 2.75  46 2.75  41 2.75
                            30 2.75  24 2.75  45 2.75  19 2.75
  19  0.333  0.083  0.408-  41 2.75  24 2.75  34 2.75  12 2.75  47 2.75  42 2.75   1 2.75   7 2.75
                            18 2.75
  20  0.000  0.000  0.592-  30 2.75  11 2.75  15 2.75  17 2.75  21 2.75   4 2.75  26 2.75  36 2.75
                            22 2.75
  21  0.000  0.750  0.592-  22 2.75  13 2.75  20 2.75  26 2.75  38 2.75  44 2.75  16 2.75  15 2.75
                            37 2.75
  22  0.917  0.917  0.500-  31 2.75  21 2.75  26 2.75  13 2.75  30 2.75  25 2.75  37 2.75  11 2.75
                            43 2.75   6 2.75  20 2.75  23 2.75
  23  0.083  0.833  0.408-  11 2.75   6 2.75   1 2.75  14 2.75  33 2.75  31 2.75  12 2.75  13 2.75
                            22 2.75
  24  0.083  0.333  0.408-  46 2.75  19 2.75  27 2.75  33 2.75   1 2.75  34 2.75  32 2.75  18 2.75
                            28 2.75
  25  0.667  0.167  0.500-  42 2.75  26 2.75   9 2.75  22 2.75   5 2.75  10 2.75  43 2.75  30 2.75
                            41 2.75  39 2.75   6 2.75   4 2.75
  26  0.750  0.000  0.592-  25 2.75  22 2.75  16 2.75  21 2.75   4 2.75   9 2.75  20 2.75  40 2.75
                            43 2.75
  27  0.833  0.583  0.408-  37 2.75  31 2.75  32 2.75  24 2.75  47 2.75   8 2.75  33 2.75  28 2.75
                             3 2.75
  28  0.917  0.417  0.500-  32 2.75  17 2.75   2 2.75  18 2.75  30 2.75   3 2.75  37 2.75   5 2.75
                            46 2.75  27 2.75  38 2.75  24 2.75
  29  0.500  0.750  0.592-   7 2.75   3 2.75   2 2.75  35 2.75  36 2.75  40 2.75  16 2.75  15 2.75
                            48 2.75
  30  0.917  0.167  0.500-   6 2.75  20 2.75   4 2.75  11 2.75   5 2.75  22 2.75  28 2.75  25 2.75
                            18 2.75  32 2.75   1 2.75  17 2.75
  31  0.833  0.833  0.408-  22 2.75   6 2.75  27 2.75  33 2.75  42 2.75  23 2.75  47 2.75  37 2.75
                            43 2.75
  32  0.833  0.333  0.408-  28 2.75   6 2.75   8 2.75  27 2.75   1 2.75  24 2.75  39 2.75  30 2.75
                             5 2.75
  33  0.083  0.583  0.408-  13 2.75  23 2.75  24 2.75  31 2.75  34 2.75  14 2.75  27 2.75  46 2.75
                            37 2.75
  34  0.333  0.333  0.408-  10 2.75  14 2.75  19 2.75  33 2.75  42 2.75  39 2.75  24 2.75  41 2.75
                            46 2.75
  35  0.500  0.500  0.592-  48 2.75   5 2.75   9 2.75  15 2.75  29 2.75   4 2.75  44 2.75   2 2.75
                            10 2.75
  36  0.250  0.000  0.592-  18 2.75   7 2.75  17 2.75  15 2.75  29 2.75  45 2.75  40 2.75  20 2.75
                            11 2.75
  37  0.917  0.667  0.500-  27 2.75  38 2.75  16 2.75  28 2.75  22 2.75  43 2.75  46 2.75  13 2.75
                             3 2.75  31 2.75  33 2.75  21 2.75
  38  0.000  0.500  0.592-  37 2.75  46 2.75  21 2.75  16 2.75  45 2.75  17 2.75   2 2.75  44 2.75
                            28 2.75
  39  0.583  0.333  0.408-   5 2.75   6 2.75   8 2.75  14 2.75  42 2.75  34 2.75  32 2.75  25 2.75
                            10 2.75
  40  0.500  0.000  0.592-  41 2.75  43 2.75  29 2.75   9 2.75  16 2.75  45 2.75  36 2.75  26 2.75
                             7 2.75
  41  0.417  0.167  0.500-  19 2.75  40 2.75  45 2.75  10 2.75  43 2.75   7 2.75  46 2.75  18 2.75
                            25 2.75  34 2.75  42 2.75   9 2.75
  42  0.583  0.083  0.408-  25 2.75  31 2.75  34 2.75  39 2.75  47 2.75  19 2.75   6 2.75  43 2.75
                            41 2.75
  43  0.667  0.917  0.500-  47 2.75  16 2.75  40 2.75  37 2.75   3 2.75  41 2.75  25 2.75  22 2.75
                             7 2.75  42 2.75  31 2.75  26 2.75
  44  0.250  0.500  0.592-  13 2.75  10 2.75   9 2.75  15 2.75  21 2.75  45 2.75  38 2.75  35 2.75
                            46 2.75
  45  0.250  0.250  0.592-  46 2.75  41 2.75  40 2.75  36 2.75  44 2.75  38 2.75   9 2.75  17 2.75
                            18 2.75
  46  0.167  0.417  0.500-  24 2.75  45 2.75  38 2.75  37 2.75  18 2.75  41 2.75  13 2.75  10 2.75
                            28 2.75  33 2.75  44 2.75  34 2.75
  47  0.583  0.833  0.408-  43 2.75  19 2.75  27 2.75  42 2.75   8 2.75  12 2.75  31 2.75   3 2.75
                             7 2.75
  48  0.417  0.667  0.500-  14 2.75  35 2.75  15 2.75  11 2.75   5 2.75   7 2.75  10 2.75  13 2.75
                             3 2.75  12 2.75  29 2.75   8 2.75
 
  LATTYP: Found a hexagonal cell.
 ALAT       =    11.0025815153
 C/A-ratio  =     2.2260035120
  
  Lattice vectors:
  
 A1 = (   5.5012907576,  -9.5285150994,   0.0000000000)
 A2 = ( -11.0025815153,   0.0000000000,   0.0000000000)
 A3 = (   0.0000000000,   0.0000000000, -24.4917850943)


Analysis of symmetry for initial positions (statically):
=====================================================================
 Subroutine PRICEL returns:
 Original cell was already a primitive cell.
 

 Routine SETGRP: Setting up the symmetry group for a 
 hexagonal supercell.


 Subroutine GETGRP returns: Found  1 space group operations
 (whereof  1 operations were pure point group operations)
 out of a pool of 24 trial point group operations.


The static configuration has the point symmetry C_1 .


Analysis of symmetry for dynamics (positions and initial velocities):
=====================================================================
 Subroutine PRICEL returns:
 Original cell was already a primitive cell.
 

 Routine SETGRP: Setting up the symmetry group for a 
 hexagonal supercell.


 Subroutine GETGRP returns: Found  1 space group operations
 (whereof  1 operations were pure point group operations)
 out of a pool of 24 trial point group operations.


The dynamic configuration has the point symmetry C_1 .
 
 
 KPOINTS: Automatic mesh                          

Automatic generation of k-mesh.
Space group operators:
 irot       det(A)        alpha          n_x          n_y          n_z        tau_x        tau_y        tau_z
    1     1.000000     0.000000     1.000000     0.000000     0.000000     0.000000     0.000000     0.000000
 
 Subroutine IBZKPT returns following result:
 ===========================================
 
 Found      6 irreducible k-points:
 
 Following reciprocal coordinates:
            Coordinates               Weight
  0.250000  0.250000  0.000000     16.000000
  0.000000  0.250000  0.000000     16.000000
 -0.250000  0.000000  0.000000     16.000000
 -0.250000  0.250000  0.000000     16.000000
  0.500000 -0.250000  0.000000     16.000000
 -0.250000  0.500000  0.000000     16.000000
 
 Following cartesian coordinates:
            Coordinates               Weight
  0.022722  0.013119  0.000000     16.000000
  0.000000  0.026237  0.000000     16.000000
 -0.022722  0.013119  0.000000     16.000000
 -0.022722  0.039356  0.000000     16.000000
  0.045444 -0.052474  0.000000     16.000000
 -0.022722  0.065593  0.000000     16.000000
 


--------------------------------------------------------------------------------------------------------




 Dimension of arrays:
   k-points           NKPTS =      6   k-points in BZ     NKDIM =      6   number of bands    NBANDS=    306
   number of dos      NEDOS =    301   number of ions     NIONS =     48
   non local maximal  LDIM  =      6   non local SUM 2l+1 LMDIM =     18
   total plane-waves  NPLWV = 349920
   max r-space proj   IRMAX =   2009   max aug-charges    IRDMAX=   8532
   dimension x,y,z NGX =    54 NGY =   54 NGZ =  120
   dimension x,y,z NGXF=   108 NGYF=  108 NGZF=  240
   support grid    NGXF=   108 NGYF=  108 NGZF=  240
   ions per type =              24  24
 NGX,Y,Z   is equivalent  to a cutoff of   8.16,  8.16,  8.15 a.u.
 NGXF,Y,Z  is equivalent  to a cutoff of  16.32, 16.32, 16.29 a.u.


 I would recommend the setting:
   dimension x,y,z NGX =    54 NGY =   54 NGZ =  120
 SYSTEM =  unknown system                          
 POSCAR =  Au Pd                                   

 Startparameter for this run:
   NWRITE =      1    write-flag & timer
   PREC   = normal    normal or accurate (medium, high low for compatibility)
   ISTART =      0    job   : 0-new  1-cont  2-samecut
   ICHARG =      2    charge: 1-file 2-atom 10-const
   ISPIN  =      1    spin polarized calculation?
   LNONCOLLINEAR =      F non collinear calculations
   LSORBIT =      F    spin-orbit coupling
   INIWAV =      1    electr: 0-lowe 1-rand  2-diag
   LASPH  =      F    aspherical Exc in radial PAW
   METAGGA=      F    non-selfconsistent MetaGGA calc.

 Electronic Relaxation 1
   ENCUT  =  400.0 eV  29.40 Ry    5.42 a.u.  17.94 17.94 39.94*2*pi/ulx,y,z
   ENINI  =  400.0     initial cutoff
   ENAUG  =  416.2 eV  augmentation charge cutoff
   NELM   =    500;   NELMIN=  2; NELMDL= -5     # of ELM steps 
   EDIFF  = 0.1E-05   stopping-criterion for ELM
   LREAL  =      T    real-space projection
   NLSPLINE    = F    spline interpolate recip. space projectors
   LCOMPAT=      F    compatible to vasp.4.4
   GGA_COMPAT  = T    GGA compatible to vasp.4.4-vasp.4.6
   LMAXPAW     = -100 max onsite density
   LMAXMIX     =    2 max onsite mixed and CHGCAR
   VOSKOWN=      1    Vosko Wilk Nusair interpolation
   ROPT   =   -0.00050  -0.00050
 Ionic relaxation
   EDIFFG = -.2E-01   stopping-criterion for IOM
   NSW    =    500    number of steps for IOM
   NBLOCK =      1;   KBLOCK =    500    inner block; outer block 
   IBRION =      2    ionic relax: 0-MD 1-quasi-New 2-CG
   NFREE  =      2    steps in history (QN), initial steepest desc. (CG)
   ISIF   =      0    stress and relaxation
   IWAVPR =     11    prediction:  0-non 1-charg 2-wave 3-comb
   ISYM   =      2    0-nonsym 1-usesym 2-fastsym
   LCORR  =      T    Harris-Foulkes like correction to forces

   POTIM  = 0.3500    time-step for ionic-motion
   TEIN   =    0.0    initial temperature
   TEBEG  =    0.0;   TEEND  =   0.0 temperature during run
   SMASS  =  -3.00    Nose mass-parameter (am)
   estimated Nose-frequenzy (Omega)   =  0.10E-29 period in steps =****** mass=  -0.277E-26a.u.
   SCALEE = 1.0000    scale energy and forces
   NPACO  =    256;   APACO  = 16.0  distance and # of slots for P.C.
   PSTRESS=    0.0 pullay stress

  Mass of Ions in am
   POMASS = 196.97106.42
  Ionic Valenz
   ZVAL   =  11.00 10.00
  Atomic Wigner-Seitz radii
   RWIGS  =  -1.00 -1.00
  virtual crystal weights 
   VCA    =   1.00  1.00
   NELECT =     504.0000    total number of electrons
   NUPDOWN=      -1.0000    fix difference up-down

 DOS related values:
   EMIN   =  10.00;   EMAX   =-10.00  energy-range for DOS
   EFERMI =   0.00
   ISMEAR =     0;   SIGMA  =   0.10  broadening in eV -4-tet -1-fermi 0-gaus

 Electronic relaxation 2 (details)
   IALGO  =     68    algorithm
   LDIAG  =      T    sub-space diagonalisation (order eigenvalues)
   LSUBROT=      F    optimize rotation matrix (better conditioning)
   TURBO    =      0    0=normal 1=particle mesh
   IRESTART =      0    0=no restart 2=restart with 2 vectors
   NREBOOT  =      0    no. of reboots
   NMIN     =      0    reboot dimension
   EREF     =   0.00    reference energy to select bands
   IMIX   =      4    mixing-type and parameters
     AMIX     =   0.40;   BMIX     =  1.00
     AMIX_MAG =   1.60;   BMIX_MAG =  1.00
     AMIN     =   0.10
     WC   =   100.;   INIMIX=   1;  MIXPRE=   1;  MAXMIX= -45

 Intra band minimization:
   WEIMIN = 0.0010     energy-eigenvalue tresh-hold
   EBREAK =  0.82E-09  absolut break condition
   DEPER  =   0.30     relativ break condition  

   TIME   =   0.40     timestep for ELM

  volume/ion in A,a.u.               =      53.49       360.99
  Fermi-wavevector in a.u.,A,eV,Ry     =   0.951418  1.797920 12.315955  0.905197
  Thomas-Fermi vector in A             =   2.079887
 
 Write flags
   LWAVE  =      F    write WAVECAR
   LCHARG =      F    write CHGCAR
   LVTOT  =      F    write LOCPOT, total local potential
   LVHAR  =      F    write LOCPOT, Hartree potential only
   LELF   =      F    write electronic localiz. function (ELF)
   LORBIT =      0    0 simple, 1 ext, 2 COOP (PROOUT)


 Dipole corrections
   LMONO  =      F    monopole corrections only (constant potential shift)
   LDIPOL =      T    correct potential (dipole corrections)
   IDIPOL =      3    1-x, 2-y, 3-z, 4-all directions 
   EPSILON=  1.0000000 bulk dielectric constant

 Exchange correlation treatment:
   GGA     =    PE    GGA type
   LEXCH   =     8    internal setting for exchange type
   VOSKOWN=      1    Vosko Wilk Nusair interpolation
   LHFCALC =     F    Hartree Fock is set to
   LHFONE  =     F    Hartree Fock one center treatment
   AEXX    =    0.0000 exact exchange contribution

 Linear response parameters
   LEPSILON=     F    determine dielectric tensor
   LRPA    =     F    only Hartree local field effects (RPA)
   LNABLA  =     F    use nabla operator in PAW spheres
   LVEL    =     F    velocity operator in full k-point grid
   LINTERFAST=   F  fast interpolation
   KINTER  =     0    interpolate to denser k-point grid
   CSHIFT  =0.1000    complex shift for real part using Kramers Kronig
   OMEGAMAX=  -1.0    maximum frequency
   DEG_THRESHOLD= 0.2000000E-02 threshold for treating states as degnerate
   RTIME   =    0.100 relaxation time in fs

 Orbital magnetization related:
   ORBITALMAG=     F  switch on orbital magnetization
   LCHIMAG   =     F  perturbation theory with respect to B field
   DQ        =  0.001000  dq finite difference perturbation B field



--------------------------------------------------------------------------------------------------------


 conjugate gradient relaxation of ions
 charge density and potential will be updated during run
 non-spin polarized calculation
 RMM-DIIS sequential band-by-band and
  variant of blocked Davidson during initial phase
 perform sub-space diagonalisation
    before iterative eigenvector-optimisation
 modified Broyden-mixing scheme, WC =      100.0
 initial mixing is a Kerker type mixing with AMIX =  0.4000 and BMIX =      1.0000
 Hartree-type preconditioning will be used
 using additional bands           54
 real space projection scheme for non local part
 use partial core corrections
 calculate Harris-corrections to forces 
   (improved forces if not selfconsistent)
 use gradient corrections 
 use of overlap-Matrix (Vanderbilt PP)
 Gauss-broadening in eV      SIGMA  =   0.10


--------------------------------------------------------------------------------------------------------


  energy-cutoff  :      400.00
  volume of cell :     2567.68
      direct lattice vectors                 reciprocal lattice vectors
    11.002581515  0.000000000  0.000000000     0.090887761 -0.052474073  0.000000000
     5.501290758  9.528515099  0.000000000     0.000000000  0.104948147  0.000000000
     0.000000000  0.000000000 24.491785094     0.000000000  0.000000000  0.040830017

  length of vectors
    11.002581515 11.002581515 24.491785094     0.104948147  0.104948147  0.040830017


 
 k-points in units of 2pi/SCALE and weight: Automatic mesh                          
   0.02272194  0.01311852  0.00000000       0.167
   0.00000000  0.02623704  0.00000000       0.167
  -0.02272194  0.01311852  0.00000000       0.167
  -0.02272194  0.03935555  0.00000000       0.167
   0.04544388 -0.05247407  0.00000000       0.167
  -0.02272194  0.06559259  0.00000000       0.167
 
 k-points in reciprocal lattice and weights: Automatic mesh                          
   0.25000000  0.25000000  0.00000000       0.167
   0.00000000  0.25000000  0.00000000       0.167
  -0.25000000  0.00000000  0.00000000       0.167
  -0.25000000  0.25000000  0.00000000       0.167
   0.50000000 -0.25000000  0.00000000       0.167
  -0.25000000  0.50000000  0.00000000       0.167
 
 position of ions in fractional coordinates (direct lattice) 
   0.08333333  0.08333333  0.40830017
   0.75000000  0.50000000  0.59169983
   0.66666667  0.66666667  0.50000000
   0.75000000  0.25000000  0.59169983
   0.66666667  0.41666667  0.50000000
   0.83333333  0.08333333  0.40830017
   0.41666667  0.91666667  0.50000000
   0.58333333  0.58333333  0.40830017
   0.50000000  0.25000000  0.59169983
   0.41666667  0.41666667  0.50000000
   0.16666667  0.91666667  0.50000000
   0.33333333  0.83333333  0.40830017
   0.16666667  0.66666667  0.50000000
   0.33333333  0.58333333  0.40830017
   0.25000000  0.75000000  0.59169983
   0.75000000  0.75000000  0.59169983
   0.00000000  0.25000000  0.59169983
   0.16666667  0.16666667  0.50000000
   0.33333333  0.08333333  0.40830017
   0.00000000  0.00000000  0.59169983
   0.00000000  0.75000000  0.59169983
   0.91666667  0.91666667  0.50000000
   0.08333333  0.83333333  0.40830017
   0.08333333  0.33333333  0.40830017
   0.66666667  0.16666667  0.50000000
   0.75000000  0.00000000  0.59169983
   0.83333333  0.58333333  0.40830017
   0.91666667  0.41666667  0.50000000
   0.50000000  0.75000000  0.59169983
   0.91666667  0.16666667  0.50000000
   0.83333333  0.83333333  0.40830017
   0.83333333  0.33333333  0.40830017
   0.08333333  0.58333333  0.40830017
   0.33333333  0.33333333  0.40830017
   0.50000000  0.50000000  0.59169983
   0.25000000  0.00000000  0.59169983
   0.91666667  0.66666667  0.50000000
   0.00000000  0.50000000  0.59169983
   0.58333333  0.33333333  0.40830017
   0.50000000  0.00000000  0.59169983
   0.41666667  0.16666667  0.50000000
   0.58333333  0.08333333  0.40830017
   0.66666667  0.91666667  0.50000000
   0.25000000  0.50000000  0.59169983
   0.25000000  0.25000000  0.59169983
   0.16666667  0.41666667  0.50000000
   0.58333333  0.83333333  0.40830017
   0.41666667  0.66666667  0.50000000
 
 position of ions in cartesian coordinates  (Angst):
   1.37532269  0.79404292 10.00000000
  11.00258152  4.76425755 14.49178509
  11.00258152  6.35234340 12.24589255
   9.62725883  2.38212877 14.49178509
   9.62725883  3.97021462 12.24589255
   9.62725883  0.79404292 10.00000000
   9.62725883  8.73447217 12.24589255
   9.62725883  5.55830047 10.00000000
   6.87661345  2.38212877 14.49178509
   6.87661345  3.97021462 12.24589255
   6.87661345  8.73447217 12.24589255
   8.25193614  7.94042925 10.00000000
   5.50129076  6.35234340 12.24589255
   6.87661345  5.55830047 10.00000000
   6.87661345  7.14638632 14.49178509
  12.37790420  7.14638632 14.49178509
   1.37532269  2.38212877 14.49178509
   2.75064538  1.58808585 12.24589255
   4.12596807  0.79404292 10.00000000
   0.00000000  0.00000000 14.49178509
   4.12596807  7.14638632 14.49178509
  15.12854958  8.73447217 12.24589255
   5.50129076  7.94042925 10.00000000
   2.75064538  3.17617170 10.00000000
   8.25193614  1.58808585 12.24589255
   8.25193614  0.00000000 14.49178509
  12.37790420  5.55830047 10.00000000
  12.37790420  3.97021462 12.24589255
   9.62725883  7.14638632 14.49178509
  11.00258152  1.58808585 12.24589255
  13.75322689  7.94042925 10.00000000
  11.00258152  3.17617170 10.00000000
   4.12596807  5.55830047 10.00000000
   5.50129076  3.17617170 10.00000000
   8.25193614  4.76425755 14.49178509
   2.75064538  0.00000000 14.49178509
  13.75322689  6.35234340 12.24589255
   2.75064538  4.76425755 14.49178509
   8.25193614  3.17617170 10.00000000
   5.50129076  0.00000000 14.49178509
   5.50129076  1.58808585 12.24589255
   6.87661345  0.79404292 10.00000000
  12.37790420  8.73447217 12.24589255
   5.50129076  4.76425755 14.49178509
   4.12596807  2.38212877 14.49178509
   4.12596807  3.97021462 12.24589255
  11.00258152  7.94042925 10.00000000
   8.25193614  6.35234340 12.24589255
 


--------------------------------------------------------------------------------------------------------


 k-point  1 :   0.2500 0.2500 0.0000  plane waves:   46635
 k-point  2 :   0.0000 0.2500 0.0000  plane waves:   46635
 k-point  3 :  -0.2500 0.0000 0.0000  plane waves:   46635
 k-point  4 :  -0.2500 0.2500 0.0000  plane waves:   46644
 k-point  5 :   0.5000-0.2500 0.0000  plane waves:   46644
 k-point  6 :  -0.2500 0.5000 0.0000  plane waves:   46644

 maximum and minimum number of plane-waves per node :      7818     7732

 maximum number of plane-waves:     46644
 maximum index in each direction: 
   IXMAX=   18   IYMAX=   18   IZMAX=   39
   IXMIN=  -18   IYMIN=  -18   IZMIN=  -39

 WARNING: aliasing errors must be expected set NGX to  74 to avoid them
 WARNING: aliasing errors must be expected set NGY to  74 to avoid them
 WARNING: aliasing errors must be expected set NGZ to 158 to avoid them
 aliasing errors are usually negligible using standard VASP settings
 and one can safely disregard these warnings

 real space projection operators:
  total allocation   :      12803.06 KBytes
  max/ min on nodes  :       2145.66       2127.94


 parallel 3D FFT for wavefunctions:
    minimum data exchange during FFTs selected (reduces bandwidth)
 parallel 3D FFT for charge:
    minimum data exchange during FFTs selected (reduces bandwidth)


 total amount of memory used by VASP on root node    84353. kBytes
========================================================================

   base      :      30000. kBytes
   nonlr-proj:       4285. kBytes
   fftplans  :       4447. kBytes
   grid      :       6721. kBytes
   one-center:        124. kBytes
   wavefun   :      38776. kBytes
 
     INWAV:  cpu time    0.0000: real time    0.0000
 Broyden mixing: mesh for mixing (old mesh)
   NGX = 35   NGY = 35   NGZ = 79
  (NGX  =108   NGY  =108   NGZ  =240)
  gives a total of  96775 points

 initial charge density was supplied:
 charge density of overlapping atoms calculated
 number of electron     504.0000000 magnetization 
 keeping initial charge density in first step


--------------------------------------------------------------------------------------------------------


 Maximum index for non-local projection operator          355
 Maximum index for augmentation-charges          437 (set IRDMAX)


--------------------------------------------------------------------------------------------------------


 First call to EWALD:  gamma=   0.129
 Maximum number of real-space cells 4x 4x 2
 Maximum number of reciprocal cells 2x 2x 5

 FEWALD executed in parallel
    FEWALD:  cpu time    0.0026: real time    0.0026


----------------------------------------- Iteration    1(   1)  ---------------------------------------


    POTLOK:  cpu time    0.0468: real time    0.0471
    SETDIJ:  cpu time    0.0062: real time    0.0063
     EDDAV:  cpu time    6.8869: real time    6.9371
       DOS:  cpu time    0.0015: real time    0.0015
    --------------------------------------------
      LOOP:  cpu time    6.9442: real time    6.9969

 eigenvalue-minimisations  :  3672
 total energy-change (2. order) : 0.3201020E+04  (-0.1898285E+05)
 number of electron     504.0000000 magnetization 
 augmentation part      504.0000000 magnetization 

 DIPCOR: dipole corrections for dipol
 direction  3 min pos     1,
 dipolmoment           0.000000      0.000000      0.000000 electrons x Angstroem
 Tr[quadrupol]    -10203.342961

 energy correction for charged system         0.000000 eV
 dipol+quadrupol energy correction           -0.000000 eV
 added-field ion interaction          0.000000 eV  (added to PSCEN)


 Free energy of the ion-electron system (eV)
  ---------------------------------------------------
  alpha Z        PSCENC =       805.86936429
  Ewald energy   TEWEN  =    200171.10048147
  -Hartree energ DENC   =   -242585.74818323
  -exchange      EXHF   =         0.00000000
  -V(xc)+E(xc)   XCENC  =      -327.62680109
  PAW double counting   =     40340.05962942   -38292.62782345
  entropy T*S    EENTRO =        -0.12717875
  eigenvalues    EBANDS =      1430.33469756
  atomic energy  EATOM  =     41659.78587232
  Solvation  Ediel_sol  =         0.00000000
  ---------------------------------------------------
  free energy    TOTEN  =      3201.02005855 eV

  energy without entropy =     3201.14723730  energy(sigma->0) =     3201.08364793


--------------------------------------------------------------------------------------------------------




----------------------------------------- Iteration    1(   2)  ---------------------------------------


     EDDAV:  cpu time    7.9533: real time    8.0155
       DOS:  cpu time    0.0015: real time    0.0015
    --------------------------------------------
      LOOP:  cpu time    7.9553: real time    8.0194

 eigenvalue-minimisations  :  4392
 total energy-change (2. order) :-0.3186958E+04  (-0.2934227E+04)
 number of electron     504.0000000 magnetization 
 augmentation part      504.0000000 magnetization 

 DIPCOR: dipole corrections for dipol
 direction  3 min pos     1,
 dipolmoment           0.000000      0.000000      0.000000 electrons x Angstroem
 Tr[quadrupol]    -10203.342961

 energy correction for charged system         0.000000 eV
 dipol+quadrupol energy correction           -0.000000 eV
 added-field ion interaction          0.000000 eV  (added to PSCEN)


 Free energy of the ion-electron system (eV)
  ---------------------------------------------------
  alpha Z        PSCENC =       805.86936429
  Ewald energy   TEWEN  =    200171.10048147
  -Hartree energ DENC   =   -242585.74818323
  -exchange      EXHF   =         0.00000000
  -V(xc)+E(xc)   XCENC  =      -327.62680109
  PAW double counting   =     40340.05962942   -38292.62782345
  entropy T*S    EENTRO =        -0.13126580
  eigenvalues    EBANDS =     -1756.61882692
  atomic energy  EATOM  =     41659.78587232
  Solvation  Ediel_sol  =         0.00000000
  ---------------------------------------------------
  free energy    TOTEN  =        14.06244702 eV

  energy without entropy =       14.19371282  energy(sigma->0) =       14.12807992


--------------------------------------------------------------------------------------------------------




----------------------------------------- Iteration    1(   3)  ---------------------------------------


     EDDAV:  cpu time    7.8677: real time    7.8880
       DOS:  cpu time    0.0016: real time    0.0016
    --------------------------------------------
      LOOP:  cpu time    7.8705: real time    7.8939

 eigenvalue-minimisations  :  4128
 total energy-change (2. order) :-0.2149598E+03  (-0.1999752E+03)
 number of electron     504.0000000 magnetization 
 augmentation part      504.0000000 magnetization 

 DIPCOR: dipole corrections for dipol
 direction  3 min pos     1,
 dipolmoment           0.000000      0.000000      0.000000 electrons x Angstroem
 Tr[quadrupol]    -10203.342961

 energy correction for charged system         0.000000 eV
 dipol+quadrupol energy correction           -0.000000 eV
 added-field ion interaction          0.000000 eV  (added to PSCEN)


 Free energy of the ion-electron system (eV)
  ---------------------------------------------------
  alpha Z        PSCENC =       805.86936429
  Ewald energy   TEWEN  =    200171.10048147
  -Hartree energ DENC   =   -242585.74818323
  -exchange      EXHF   =         0.00000000
  -V(xc)+E(xc)   XCENC  =      -327.62680109
  PAW double counting   =     40340.05962942   -38292.62782345
  entropy T*S    EENTRO =        -0.19902607
  eigenvalues    EBANDS =     -1971.51090004
  atomic energy  EATOM  =     41659.78587232
  Solvation  Ediel_sol  =         0.00000000
  ---------------------------------------------------
  free energy    TOTEN  =      -200.89738637 eV

  energy without entropy =     -200.69836030  energy(sigma->0) =     -200.79787333


--------------------------------------------------------------------------------------------------------




----------------------------------------- Iteration    1(   4)  ---------------------------------------


     EDDAV:  cpu time    8.1170: real time    8.1397
       DOS:  cpu time    0.0016: real time    0.0016
    --------------------------------------------
      LOOP:  cpu time    8.1196: real time    8.1452

 eigenvalue-minimisations  :  4296
 total energy-change (2. order) :-0.5792355E+01  (-0.5729546E+01)
 number of electron     504.0000000 magnetization 
 augmentation part      504.0000000 magnetization 

 DIPCOR: dipole corrections for dipol
 direction  3 min pos     1,
 dipolmoment           0.000000      0.000000      0.000000 electrons x Angstroem
 Tr[quadrupol]    -10203.342961

 energy correction for charged system         0.000000 eV
 dipol+quadrupol energy correction           -0.000000 eV
 added-field ion interaction          0.000000 eV  (added to PSCEN)


 Free energy of the ion-electron system (eV)
  ---------------------------------------------------
  alpha Z        PSCENC =       805.86936429
  Ewald energy   TEWEN  =    200171.10048147
  -Hartree energ DENC   =   -242585.74818323
  -exchange      EXHF   =         0.00000000
  -V(xc)+E(xc)   XCENC  =      -327.62680109
  PAW double counting   =     40340.05962942   -38292.62782345
  entropy T*S    EENTRO =        -0.20830184
  eigenvalues    EBANDS =     -1977.29397947
  atomic energy  EATOM  =     41659.78587232
  Solvation  Ediel_sol  =         0.00000000
  ---------------------------------------------------
  free energy    TOTEN  =      -206.68974156 eV

  energy without entropy =     -206.48143973  energy(sigma->0) =     -206.58559064


--------------------------------------------------------------------------------------------------------




----------------------------------------- Iteration    1(   5)  ---------------------------------------


     EDDAV:  cpu time    8.3790: real time    8.4014
       DOS:  cpu time    0.0016: real time    0.0016
    CHARGE:  cpu time    0.2406: real time    0.2411
    MIXING:  cpu time    0.0021: real time    0.0022
    --------------------------------------------
      LOOP:  cpu time    8.6241: real time    8.6573

 eigenvalue-minimisations  :  4476
 total energy-change (2. order) :-0.1769584E+00  (-0.1763744E+00)
 number of electron     503.9998404 magnetization 
 augmentation part      191.3011802 magnetization 

 DIPCOR: dipole corrections for dipol
 direction  3 min pos     1,
 dipolmoment           0.000000      0.000000      0.000000 electrons x Angstroem
 Tr[quadrupol]    -10203.342961

 energy correction for charged system         0.000000 eV
 dipol+quadrupol energy correction           -0.000000 eV
 added-field ion interaction          0.000000 eV  (added to PSCEN)


 Broyden mixing:
  rms(total) = 0.62442E+01    rms(broyden)= 0.62442E+01
  rms(prec ) = 0.63804E+01
  weight for this iteration     100.00

 Free energy of the ion-electron system (eV)
  ---------------------------------------------------
  alpha Z        PSCENC =       805.86936429
  Ewald energy   TEWEN  =    200171.10048147
  -Hartree energ DENC   =   -242585.74818323
  -exchange      EXHF   =         0.00000000
  -V(xc)+E(xc)   XCENC  =      -327.62680109
  PAW double counting   =     40340.05962942   -38292.62782345
  entropy T*S    EENTRO =        -0.20810830
  eigenvalues    EBANDS =     -1977.47113141
  atomic energy  EATOM  =     41659.78587232
  Solvation  Ediel_sol  =         0.00000000
  ---------------------------------------------------
  free energy    TOTEN  =      -206.86669997 eV

  energy without entropy =     -206.65859167  energy(sigma->0) =     -206.76264582


--------------------------------------------------------------------------------------------------------




----------------------------------------- Iteration    1(   6)  ---------------------------------------


    POTLOK:  cpu time    0.0425: real time    0.0426
    SETDIJ:  cpu time    0.0060: real time    0.0064
    EDDIAG:  cpu time    1.2231: real time    1.2269
  RMM-DIIS:  cpu time    3.4048: real time    3.4131
    ORTHCH:  cpu time    0.2867: real time    0.2874
       DOS:  cpu time    0.0015: real time    0.0015
    CHARGE:  cpu time    0.2396: real time    0.2402
    MIXING:  cpu time    0.0019: real time    0.0019
    --------------------------------------------
      LOOP:  cpu time    5.2068: real time    5.2229

 eigenvalue-minimisations  :  3679
 total energy-change (2. order) : 0.6345220E+01  (-0.9782200E+01)
 number of electron     503.9998420 magnetization 
 augmentation part      191.6088827 magnetization 

 DIPCOR: dipole corrections for dipol
 direction  3 min pos     1,
 dipolmoment           0.000000      0.000000      0.002997 electrons x Angstroem
 Tr[quadrupol]    -10204.711584

 energy correction for charged system         0.000000 eV
 dipol+quadrupol energy correction           -0.000000 eV
 added-field ion interaction          0.000000 eV  (added to PSCEN)


 Broyden mixing:
  rms(total) = 0.55321E+01    rms(broyden)= 0.55320E+01
  rms(prec ) = 0.57205E+01
  weight for this iteration     100.00

 eigenvalues of (default mixing * dielectric matrix)
  average eigenvalue GAMMA=   0.7224
  0.7224

 Free energy of the ion-electron system (eV)
  ---------------------------------------------------
  alpha Z        PSCENC =       805.86936397
  Ewald energy   TEWEN  =    200171.10048147
  -Hartree energ DENC   =   -242333.11932514
  -exchange      EXHF   =         0.00000000
  -V(xc)+E(xc)   XCENC  =      -340.19612092
  PAW double counting   =     43918.92013221   -41930.82994136
  entropy T*S    EENTRO =        -0.27023208
  eigenvalues    EBANDS =     -2151.78171024
  atomic energy  EATOM  =     41659.78587232
  Solvation  Ediel_sol  =         0.00000000
  ---------------------------------------------------
  free energy    TOTEN  =      -200.52147977 eV

  energy without entropy =     -200.25124769  energy(sigma->0) =     -200.38636373


--------------------------------------------------------------------------------------------------------




----------------------------------------- Iteration    1(   7)  ---------------------------------------


    POTLOK:  cpu time    0.0429: real time    0.0430
    SETDIJ:  cpu time    0.0056: real time    0.0056
    EDDIAG:  cpu time    1.2231: real time    1.2270
  RMM-DIIS:  cpu time    3.3370: real time    3.4304
    ORTHCH:  cpu time    0.2886: real time    0.2893
       DOS:  cpu time    0.0015: real time    0.0015
    CHARGE:  cpu time    0.2372: real time    0.2378
    MIXING:  cpu time    0.0021: real time    0.0021
    --------------------------------------------
      LOOP:  cpu time    5.1387: real time    5.2392

 eigenvalue-minimisations  :  3683
 total energy-change (2. order) : 0.1245117E+01  (-0.4874572E+01)
 number of electron     503.9998361 magnetization 
 augmentation part      197.0103607 magnetization 

 DIPCOR: dipole corrections for dipol
 direction  3 min pos     1,
 dipolmoment           0.000000      0.000000      0.267684 electrons x Angstroem
 Tr[quadrupol]    -10203.314546

 energy correction for charged system         0.000000 eV
 dipol+quadrupol energy correction           -0.002525 eV
 added-field ion interaction          0.000000 eV  (added to PSCEN)


 Broyden mixing:
  rms(total) = 0.37473E+01    rms(broyden)= 0.37470E+01
  rms(prec ) = 0.40246E+01
  weight for this iteration     100.00

 eigenvalues of (default mixing * dielectric matrix)
  average eigenvalue GAMMA=   1.0473
  1.6775  0.4170

 Free energy of the ion-electron system (eV)
  ---------------------------------------------------
  alpha Z        PSCENC =       805.86683937
  Ewald energy   TEWEN  =    200171.10048147
  -Hartree energ DENC   =   -242180.92132773
  -exchange      EXHF   =         0.00000000
  -V(xc)+E(xc)   XCENC  =      -342.49571736
  PAW double counting   =     45363.73119547   -43401.59149471
  entropy T*S    EENTRO =        -0.17606456
  eigenvalues    EBANDS =     -2274.57614699
  atomic energy  EATOM  =     41659.78587232
  Solvation  Ediel_sol  =         0.00000000
  ---------------------------------------------------
  free energy    TOTEN  =      -199.27636273 eV

  energy without entropy =     -199.10029816  energy(sigma->0) =     -199.18833044


--------------------------------------------------------------------------------------------------------




----------------------------------------- Iteration    1(   8)  ---------------------------------------


    POTLOK:  cpu time    0.0426: real time    0.0428
    SETDIJ:  cpu time    0.0060: real time    0.0063
    EDDIAG:  cpu time    1.2272: real time    1.2315
  RMM-DIIS:  cpu time    3.3409: real time    3.3492
    ORTHCH:  cpu time    0.2860: real time    0.2868
       DOS:  cpu time    0.0015: real time    0.0015
    CHARGE:  cpu time    0.2391: real time    0.2398
    MIXING:  cpu time    0.0021: real time    0.0021
    --------------------------------------------
      LOOP:  cpu time    5.1460: real time    5.1640

 eigenvalue-minimisations  :  3678
 total energy-change (2. order) :-0.1315590E+02  (-0.7126907E+01)
 number of electron     503.9998362 magnetization 
 augmentation part      196.5698513 magnetization 

 DIPCOR: dipole corrections for dipol
 direction  3 min pos     1,
 dipolmoment           0.000000      0.000000     -1.289511 electrons x Angstroem
 Tr[quadrupol]    -10205.179000

 energy correction for charged system         0.000000 eV
 dipol+quadrupol energy correction           -0.058594 eV
 added-field ion interaction         -0.000000 eV  (added to PSCEN)


 Broyden mixing:
  rms(total) = 0.37107E+01    rms(broyden)= 0.37104E+01
  rms(prec ) = 0.43996E+01
  weight for this iteration     100.00

 eigenvalues of (default mixing * dielectric matrix)
  average eigenvalue GAMMA=   0.9948
  2.1817  0.4779  0.3248

 Free energy of the ion-electron system (eV)
  ---------------------------------------------------
  alpha Z        PSCENC =       805.81077027
  Ewald energy   TEWEN  =    200171.10048147
  -Hartree energ DENC   =   -242187.22700142
  -exchange      EXHF   =         0.00000000
  -V(xc)+E(xc)   XCENC  =      -344.35463460
  PAW double counting   =     47667.61963726   -45735.40638773
  entropy T*S    EENTRO =        -0.21733935
  eigenvalues    EBANDS =     -2249.54366348
  atomic energy  EATOM  =     41659.78587232
  Solvation  Ediel_sol  =         0.00000000
  ---------------------------------------------------
  free energy    TOTEN  =      -212.43226527 eV

  energy without entropy =     -212.21492592  energy(sigma->0) =     -212.32359559


--------------------------------------------------------------------------------------------------------




----------------------------------------- Iteration    1(   9)  ---------------------------------------


    POTLOK:  cpu time    0.0425: real time    0.0427
    SETDIJ:  cpu time    0.0062: real time    0.0063
    EDDIAG:  cpu time    1.2119: real time    1.2160
  RMM-DIIS:  cpu time    3.3984: real time    3.4263
    ORTHCH:  cpu time    0.2862: real time    0.2869
       DOS:  cpu time    0.0015: real time    0.0015
    CHARGE:  cpu time    0.2397: real time    0.2403
    MIXING:  cpu time    0.0022: real time    0.0022
    --------------------------------------------
      LOOP:  cpu time    5.1894: real time    5.2262

 eigenvalue-minimisations  :  3677
 total energy-change (2. order) : 0.1375172E+01  (-0.3319463E+01)
 number of electron     503.9998355 magnetization 
 augmentation part      196.5056806 magnetization 

 DIPCOR: dipole corrections for dipol
 direction  3 min pos     1,
 dipolmoment           0.000000      0.000000      1.112665 electrons x Angstroem
 Tr[quadrupol]    -10206.325021

 energy correction for charged system         0.000000 eV
 dipol+quadrupol energy correction           -0.043625 eV
 added-field ion interaction          0.000000 eV  (added to PSCEN)


 Broyden mixing:
  rms(total) = 0.37070E+01    rms(broyden)= 0.37067E+01
  rms(prec ) = 0.45244E+01
  weight for this iteration     100.00

 eigenvalues of (default mixing * dielectric matrix)
  average eigenvalue GAMMA=   0.8393
  2.2917  0.4900  0.2879  0.2879

 Free energy of the ion-electron system (eV)
  ---------------------------------------------------
  alpha Z        PSCENC =       805.82573967
  Ewald energy   TEWEN  =    200171.10048147
  -Hartree energ DENC   =   -242206.33701932
  -exchange      EXHF   =         0.00000000
  -V(xc)+E(xc)   XCENC  =      -345.38922266
  PAW double counting   =     48862.40468670   -46946.11335248
  entropy T*S    EENTRO =        -0.19346906
  eigenvalues    EBANDS =     -2212.14080980
  atomic energy  EATOM  =     41659.78587232
  Solvation  Ediel_sol  =         0.00000000
  ---------------------------------------------------
  free energy    TOTEN  =      -211.05709315 eV

  energy without entropy =     -210.86362409  energy(sigma->0) =     -210.96035862


--------------------------------------------------------------------------------------------------------




----------------------------------------- Iteration    1(  10)  ---------------------------------------


    POTLOK:  cpu time    0.0412: real time    0.0414
    SETDIJ:  cpu time    0.0063: real time    0.0063
    EDDIAG:  cpu time    1.2173: real time    1.2211
  RMM-DIIS:  cpu time    3.3830: real time    3.3912
    ORTHCH:  cpu time    0.2858: real time    0.2865
       DOS:  cpu time    0.0015: real time    0.0015
    CHARGE:  cpu time    0.2363: real time    0.2369
    MIXING:  cpu time    0.0022: real time    0.0022
    --------------------------------------------
      LOOP:  cpu time    5.1743: real time    5.1906

 eigenvalue-minimisations  :  3681
 total energy-change (2. order) : 0.1586291E+02  (-0.1893571E+01)
 number of electron     503.9998340 magnetization 
 augmentation part      198.7702207 magnetization 

 DIPCOR: dipole corrections for dipol
 direction  3 min pos     1,
 dipolmoment           0.000000      0.000000     -0.250708 electrons x Angstroem
 Tr[quadrupol]    -10206.262020

 energy correction for charged system         0.000000 eV
 dipol+quadrupol energy correction           -0.002215 eV
 added-field ion interaction          0.000000 eV  (added to PSCEN)


 Broyden mixing:
  rms(total) = 0.18559E+01    rms(broyden)= 0.18556E+01
  rms(prec ) = 0.20933E+01
  weight for this iteration     100.00

 eigenvalues of (default mixing * dielectric matrix)
  average eigenvalue GAMMA=   0.7535
  2.2674  0.4630  0.4630  0.3650  0.2088

 Free energy of the ion-electron system (eV)
  ---------------------------------------------------
  alpha Z        PSCENC =       805.86714947
  Ewald energy   TEWEN  =    200171.10048147
  -Hartree energ DENC   =   -242204.10171773
  -exchange      EXHF   =         0.00000000
  -V(xc)+E(xc)   XCENC  =      -345.56716657
  PAW double counting   =     49175.28422052   -47263.37933117
  entropy T*S    EENTRO =        -0.19732964
  eigenvalues    EBANDS =     -2193.98636561
  atomic energy  EATOM  =     41659.78587232
  Solvation  Ediel_sol  =         0.00000000
  ---------------------------------------------------
  free energy    TOTEN  =      -195.19418693 eV

  energy without entropy =     -194.99685730  energy(sigma->0) =     -195.09552211


--------------------------------------------------------------------------------------------------------




----------------------------------------- Iteration    1(  11)  ---------------------------------------


    POTLOK:  cpu time    0.0410: real time    0.0411
    SETDIJ:  cpu time    0.0051: real time    0.0053
    EDDIAG:  cpu time    1.2136: real time    1.2175
  RMM-DIIS:  cpu time    3.3867: real time    3.3950
    ORTHCH:  cpu time    0.2857: real time    0.2864
       DOS:  cpu time    0.0015: real time    0.0015
    CHARGE:  cpu time    0.2359: real time    0.2365
    MIXING:  cpu time    0.0025: real time    0.0025
    --------------------------------------------
      LOOP:  cpu time    5.1729: real time    5.1878

 eigenvalue-minimisations  :  3681
 total energy-change (2. order) : 0.5106926E+01  (-0.9023202E+00)
 number of electron     503.9998348 magnetization 
 augmentation part      198.4385539 magnetization 

 DIPCOR: dipole corrections for dipol
 direction  3 min pos     1,
 dipolmoment           0.000000      0.000000     -0.092023 electrons x Angstroem
 Tr[quadrupol]    -10205.567779

 energy correction for charged system         0.000000 eV
 dipol+quadrupol energy correction           -0.000298 eV
 added-field ion interaction          0.000000 eV  (added to PSCEN)


 Broyden mixing:
  rms(total) = 0.10433E+01    rms(broyden)= 0.10430E+01
  rms(prec ) = 0.12036E+01
  weight for this iteration     100.00

 eigenvalues of (default mixing * dielectric matrix)
  average eigenvalue GAMMA=   0.7309
  2.2715  0.6320  0.6320  0.3383  0.2559  0.2559

 Free energy of the ion-electron system (eV)
  ---------------------------------------------------
  alpha Z        PSCENC =       805.86906589
  Ewald energy   TEWEN  =    200171.10048147
  -Hartree energ DENC   =   -242202.21693344
  -exchange      EXHF   =         0.00000000
  -V(xc)+E(xc)   XCENC  =      -344.91906291
  PAW double counting   =     49229.97807697   -47316.04135060
  entropy T*S    EENTRO =        -0.20306831
  eigenvalues    EBANDS =     -2193.44034234
  atomic energy  EATOM  =     41659.78587232
  Solvation  Ediel_sol  =         0.00000000
  ---------------------------------------------------
  free energy    TOTEN  =      -190.08726095 eV

  energy without entropy =     -189.88419264  energy(sigma->0) =     -189.98572680


--------------------------------------------------------------------------------------------------------




----------------------------------------- Iteration    1(  12)  ---------------------------------------


    POTLOK:  cpu time    0.0412: real time    0.0413
    SETDIJ:  cpu time    0.0053: real time    0.0053
    EDDIAG:  cpu time    1.2179: real time    1.2209
  RMM-DIIS:  cpu time    3.3861: real time    3.3944
    ORTHCH:  cpu time    0.2861: real time    0.2868
       DOS:  cpu time    0.0015: real time    0.0015
    CHARGE:  cpu time    0.2348: real time    0.2354
    MIXING:  cpu time    0.0025: real time    0.0025
    --------------------------------------------
      LOOP:  cpu time    5.1763: real time    5.1902

 eigenvalue-minimisations  :  3680
 total energy-change (2. order) : 0.1350632E+01  (-0.3320783E+00)
 number of electron     503.9998360 magnetization 
 augmentation part      197.4228965 magnetization 

 DIPCOR: dipole corrections for dipol
 direction  3 min pos     1,
 dipolmoment           0.000000      0.000000     -0.058511 electrons x Angstroem
 Tr[quadrupol]    -10206.474665

 energy correction for charged system         0.000000 eV
 dipol+quadrupol energy correction           -0.000121 eV
 added-field ion interaction          0.000000 eV  (added to PSCEN)


 Broyden mixing:
  rms(total) = 0.60480E+00    rms(broyden)= 0.60461E+00
  rms(prec ) = 0.66759E+00
  weight for this iteration     100.00

 eigenvalues of (default mixing * dielectric matrix)
  average eigenvalue GAMMA=   0.7229
  2.2634  0.8139  0.5774  0.5774  0.3463  0.2409  0.2409

 Free energy of the ion-electron system (eV)
  ---------------------------------------------------
  alpha Z        PSCENC =       805.86924365
  Ewald energy   TEWEN  =    200171.10048147
  -Hartree energ DENC   =   -242257.03006543
  -exchange      EXHF   =         0.00000000
  -V(xc)+E(xc)   XCENC  =      -344.33525513
  PAW double counting   =     49310.08980450   -47393.38070368
  entropy T*S    EENTRO =        -0.24986263
  eigenvalues    EBANDS =     -2140.58614398
  atomic energy  EATOM  =     41659.78587232
  Solvation  Ediel_sol  =         0.00000000
  ---------------------------------------------------
  free energy    TOTEN  =      -188.73662891 eV

  energy without entropy =     -188.48676628  energy(sigma->0) =     -188.61169759


--------------------------------------------------------------------------------------------------------




----------------------------------------- Iteration    1(  13)  ---------------------------------------


    POTLOK:  cpu time    0.0406: real time    0.0407
    SETDIJ:  cpu time    0.0055: real time    0.0055
    EDDIAG:  cpu time    1.2107: real time    1.2138
  RMM-DIIS:  cpu time    3.3536: real time    3.3618
    ORTHCH:  cpu time    0.3002: real time    0.3031
       DOS:  cpu time    0.0015: real time    0.0015
    CHARGE:  cpu time    0.2380: real time    0.2387
    MIXING:  cpu time    0.0027: real time    0.0027
    --------------------------------------------
      LOOP:  cpu time    5.1535: real time    5.1707

 eigenvalue-minimisations  :  3680
 total energy-change (2. order) :-0.1607451E-01  (-0.7575706E-01)
 number of electron     503.9998359 magnetization 
 augmentation part      197.2021826 magnetization 

 DIPCOR: dipole corrections for dipol
 direction  3 min pos     1,
 dipolmoment           0.000000      0.000000      0.047033 electrons x Angstroem
 Tr[quadrupol]    -10206.713661

 energy correction for charged system         0.000000 eV
 dipol+quadrupol energy correction           -0.000078 eV
 added-field ion interaction         -0.000000 eV  (added to PSCEN)


 Broyden mixing:
  rms(total) = 0.66843E+00    rms(broyden)= 0.66833E+00
  rms(prec ) = 0.73745E+00
  weight for this iteration     100.00

 eigenvalues of (default mixing * dielectric matrix)
  average eigenvalue GAMMA=   0.7112
  2.2615  0.8723  0.7394  0.7394  0.2945  0.2945  0.2439  0.2439

 Free energy of the ion-electron system (eV)
  ---------------------------------------------------
  alpha Z        PSCENC =       805.86928634
  Ewald energy   TEWEN  =    200171.10048147
  -Hartree energ DENC   =   -242271.92831880
  -exchange      EXHF   =         0.00000000
  -V(xc)+E(xc)   XCENC  =      -344.12859085
  PAW double counting   =     49336.48817300   -47418.83303691
  entropy T*S    EENTRO =        -0.24868494
  eigenvalues    EBANDS =     -2126.85788505
  atomic energy  EATOM  =     41659.78587232
  Solvation  Ediel_sol  =         0.00000000
  ---------------------------------------------------
  free energy    TOTEN  =      -188.75270342 eV

  energy without entropy =     -188.50401847  energy(sigma->0) =     -188.62836094


--------------------------------------------------------------------------------------------------------




----------------------------------------- Iteration    1(  14)  ---------------------------------------


    POTLOK:  cpu time    0.0419: real time    0.0421
    SETDIJ:  cpu time    0.0062: real time    0.0062
    EDDIAG:  cpu time    1.2219: real time    1.2260
  RMM-DIIS:  cpu time    3.3934: real time    3.4052
    ORTHCH:  cpu time    0.2862: real time    0.2869
       DOS:  cpu time    0.0015: real time    0.0015
    CHARGE:  cpu time    0.2366: real time    0.2372
    MIXING:  cpu time    0.0030: real time    0.0030
    --------------------------------------------
      LOOP:  cpu time    5.1913: real time    5.2123

 eigenvalue-minimisations  :  3678
 total energy-change (2. order) : 0.9270108E-01  (-0.6034515E-01)
 number of electron     503.9998359 magnetization 
 augmentation part      197.2526927 magnetization 

 DIPCOR: dipole corrections for dipol
 direction  3 min pos     1,
 dipolmoment           0.000000      0.000000      0.033628 electrons x Angstroem
 Tr[quadrupol]    -10206.773599

 energy correction for charged system         0.000000 eV
 dipol+quadrupol energy correction           -0.000040 eV
 added-field ion interaction         -0.000000 eV  (added to PSCEN)


 Broyden mixing:
  rms(total) = 0.48366E+00    rms(broyden)= 0.48355E+00
  rms(prec ) = 0.54418E+00
  weight for this iteration     100.00

 eigenvalues of (default mixing * dielectric matrix)
  average eigenvalue GAMMA=   0.7019
  2.2403  0.9137  0.9137  0.8226  0.3730  0.3730  0.2411  0.2411  0.1988

 Free energy of the ion-electron system (eV)
  ---------------------------------------------------
  alpha Z        PSCENC =       805.86932444
  Ewald energy   TEWEN  =    200171.10048147
  -Hartree energ DENC   =   -242274.63864588
  -exchange      EXHF   =         0.00000000
  -V(xc)+E(xc)   XCENC  =      -344.03782416
  PAW double counting   =     49347.08647895   -47428.96777013
  entropy T*S    EENTRO =        -0.25814183
  eigenvalues    EBANDS =     -2124.59977751
  atomic energy  EATOM  =     41659.78587232
  Solvation  Ediel_sol  =         0.00000000
  ---------------------------------------------------
  free energy    TOTEN  =      -188.66000234 eV

  energy without entropy =     -188.40186050  energy(sigma->0) =     -188.53093142


--------------------------------------------------------------------------------------------------------




----------------------------------------- Iteration    1(  15)  ---------------------------------------


    POTLOK:  cpu time    0.0416: real time    0.0418
    SETDIJ:  cpu time    0.0061: real time    0.0064
    EDDIAG:  cpu time    1.1976: real time    1.2747
  RMM-DIIS:  cpu time    3.4360: real time    3.4462
    ORTHCH:  cpu time    0.2855: real time    0.2862
       DOS:  cpu time    0.0015: real time    0.0015
    CHARGE:  cpu time    0.2353: real time    0.2359
    MIXING:  cpu time    0.0030: real time    0.0031
    --------------------------------------------
      LOOP:  cpu time    5.2074: real time    5.2994

 eigenvalue-minimisations  :  3678
 total energy-change (2. order) : 0.4514159E-01  (-0.2578861E-01)
 number of electron     503.9998359 magnetization 
 augmentation part      197.2223348 magnetization 

 DIPCOR: dipole corrections for dipol
 direction  3 min pos     1,
 dipolmoment           0.000000      0.000000      0.008647 electrons x Angstroem
 Tr[quadrupol]    -10206.932961

 energy correction for charged system         0.000000 eV
 dipol+quadrupol energy correction           -0.000003 eV
 added-field ion interaction          0.000000 eV  (added to PSCEN)


 Broyden mixing:
  rms(total) = 0.40165E+00    rms(broyden)= 0.40159E+00
  rms(prec ) = 0.46324E+00
  weight for this iteration     100.00

 eigenvalues of (default mixing * dielectric matrix)
  average eigenvalue GAMMA=   0.6899
  2.1770  1.1154  1.1154  0.6889  0.4522  0.4522  0.2424  0.2424  0.2069  0.2069

 Free energy of the ion-electron system (eV)
  ---------------------------------------------------
  alpha Z        PSCENC =       805.86936165
  Ewald energy   TEWEN  =    200171.10048147
  -Hartree energ DENC   =   -242283.18725072
  -exchange      EXHF   =         0.00000000
  -V(xc)+E(xc)   XCENC  =      -343.90809879
  PAW double counting   =     49349.09572269   -47430.10294669
  entropy T*S    EENTRO =        -0.27266354
  eigenvalues    EBANDS =     -2116.99533914
  atomic energy  EATOM  =     41659.78587232
  Solvation  Ediel_sol  =         0.00000000
  ---------------------------------------------------
  free energy    TOTEN  =      -188.61486074 eV

  energy without entropy =     -188.34219720  energy(sigma->0) =     -188.47852897


--------------------------------------------------------------------------------------------------------




----------------------------------------- Iteration    1(  16)  ---------------------------------------


    POTLOK:  cpu time    0.0421: real time    0.0423
    SETDIJ:  cpu time    0.0056: real time    0.0056
    EDDIAG:  cpu time    1.2130: real time    1.2159
  RMM-DIIS:  cpu time    3.3841: real time    3.3925
    ORTHCH:  cpu time    0.2848: real time    0.2855
       DOS:  cpu time    0.0015: real time    0.0015
    CHARGE:  cpu time    0.2347: real time    0.2353
    MIXING:  cpu time    0.0031: real time    0.0031
    --------------------------------------------
      LOOP:  cpu time    5.1697: real time    5.1856

 eigenvalue-minimisations  :  3680
 total energy-change (2. order) : 0.1134022E+00  (-0.1310428E-01)
 number of electron     503.9998361 magnetization 
 augmentation part      197.1408918 magnetization 

 DIPCOR: dipole corrections for dipol
 direction  3 min pos     1,
 dipolmoment           0.000000      0.000000      0.010238 electrons x Angstroem
 Tr[quadrupol]    -10207.124978

 energy correction for charged system         0.000000 eV
 dipol+quadrupol energy correction           -0.000004 eV
 added-field ion interaction          0.000000 eV  (added to PSCEN)


 Broyden mixing:
  rms(total) = 0.29386E+00    rms(broyden)= 0.29381E+00
  rms(prec ) = 0.33238E+00
  weight for this iteration     100.00

 eigenvalues of (default mixing * dielectric matrix)
  average eigenvalue GAMMA=   0.7036
  2.0651  1.4326  1.4326  0.5789  0.5789  0.4241  0.2897  0.2897  0.2373  0.2373
  0.1733

 Free energy of the ion-electron system (eV)
  ---------------------------------------------------
  alpha Z        PSCENC =       805.86936059
  Ewald energy   TEWEN  =    200171.10048147
  -Hartree energ DENC   =   -242294.54160398
  -exchange      EXHF   =         0.00000000
  -V(xc)+E(xc)   XCENC  =      -343.72888134
  PAW double counting   =     49348.56532762   -47428.37474352
  entropy T*S    EENTRO =        -0.26645439
  eigenvalues    EBANDS =     -2106.91081736
  atomic energy  EATOM  =     41659.78587232
  Solvation  Ediel_sol  =         0.00000000
  ---------------------------------------------------
  free energy    TOTEN  =      -188.50145859 eV

  energy without entropy =     -188.23500420  energy(sigma->0) =     -188.36823139


--------------------------------------------------------------------------------------------------------




----------------------------------------- Iteration    1(  17)  ---------------------------------------


    POTLOK:  cpu time    0.0411: real time    0.0412
    SETDIJ:  cpu time    0.0055: real time    0.0055
    EDDIAG:  cpu time    1.2075: real time    1.2104
  RMM-DIIS:  cpu time    3.4413: real time    3.4515
    ORTHCH:  cpu time    0.2846: real time    0.2853
       DOS:  cpu time    0.0015: real time    0.0015
    CHARGE:  cpu time    0.2372: real time    0.2378
    MIXING:  cpu time    0.0032: real time    0.0032
    --------------------------------------------
      LOOP:  cpu time    5.2226: real time    5.2389

 eigenvalue-minimisations  :  3679
 total energy-change (2. order) : 0.5292601E-01  (-0.9990801E-02)
 number of electron     503.9998362 magnetization 
 augmentation part      197.0957873 magnetization 

 DIPCOR: dipole corrections for dipol
 direction  3 min pos     1,
 dipolmoment           0.000000      0.000000      0.005197 electrons x Angstroem
 Tr[quadrupol]    -10207.351951

 energy correction for charged system         0.000000 eV
 dipol+quadrupol energy correction           -0.000001 eV
 added-field ion interaction          0.000000 eV  (added to PSCEN)


 Broyden mixing:
  rms(total) = 0.22375E+00    rms(broyden)= 0.22371E+00
  rms(prec ) = 0.25893E+00
  weight for this iteration     100.00

 eigenvalues of (default mixing * dielectric matrix)
  average eigenvalue GAMMA=   0.7224
  2.0476  1.8837  1.4460  0.5810  0.5810  0.5451  0.3553  0.3553  0.2461  0.2461
  0.2102  0.1720

 Free energy of the ion-electron system (eV)
  ---------------------------------------------------
  alpha Z        PSCENC =       805.86936333
  Ewald energy   TEWEN  =    200171.10048147
  -Hartree energ DENC   =   -242305.79059146
  -exchange      EXHF   =         0.00000000
  -V(xc)+E(xc)   XCENC  =      -343.59643080
  PAW double counting   =     49354.52404370   -47433.38522335
  entropy T*S    EENTRO =        -0.27521940
  eigenvalues    EBANDS =     -2096.68082841
  atomic energy  EATOM  =     41659.78587232
  Solvation  Ediel_sol  =         0.00000000
  ---------------------------------------------------
  free energy    TOTEN  =      -188.44853258 eV

  energy without entropy =     -188.17331319  energy(sigma->0) =     -188.31092289


--------------------------------------------------------------------------------------------------------




----------------------------------------- Iteration    1(  18)  ---------------------------------------


    POTLOK:  cpu time    0.0411: real time    0.0412
    SETDIJ:  cpu time    0.0054: real time    0.0054
    EDDIAG:  cpu time    1.2138: real time    1.2168
  RMM-DIIS:  cpu time    3.4045: real time    3.4130
    ORTHCH:  cpu time    0.2849: real time    0.2856
       DOS:  cpu time    0.0016: real time    0.0016
    CHARGE:  cpu time    0.2369: real time    0.2375
    MIXING:  cpu time    0.0033: real time    0.0034
    --------------------------------------------
      LOOP:  cpu time    5.1922: real time    5.2070

 eigenvalue-minimisations  :  3679
 total energy-change (2. order) : 0.2530458E-01  (-0.4870496E-02)
 number of electron     503.9998362 magnetization 
 augmentation part      197.1098143 magnetization 

 DIPCOR: dipole corrections for dipol
 direction  3 min pos     1,
 dipolmoment           0.000000      0.000000     -0.005625 electrons x Angstroem
 Tr[quadrupol]    -10207.561831

 energy correction for charged system         0.000000 eV
 dipol+quadrupol energy correction           -0.000001 eV
 added-field ion interaction          0.000000 eV  (added to PSCEN)


 Broyden mixing:
  rms(total) = 0.17460E+00    rms(broyden)= 0.17455E+00
  rms(prec ) = 0.20483E+00
  weight for this iteration     100.00

 eigenvalues of (default mixing * dielectric matrix)
  average eigenvalue GAMMA=   0.6968
  2.1593  1.8640  1.4275  0.6052  0.6052  0.6112  0.3605  0.3605  0.2480  0.2480
  0.2020  0.2020  0.1653

 Free energy of the ion-electron system (eV)
  ---------------------------------------------------
  alpha Z        PSCENC =       805.86936317
  Ewald energy   TEWEN  =    200171.10048147
  -Hartree energ DENC   =   -242313.78604295
  -exchange      EXHF   =         0.00000000
  -V(xc)+E(xc)   XCENC  =      -343.56172200
  PAW double counting   =     49370.19782959   -47448.78052900
  entropy T*S    EENTRO =        -0.26799384
  eigenvalues    EBANDS =     -2088.98048677
  atomic energy  EATOM  =     41659.78587232
  Solvation  Ediel_sol  =         0.00000000
  ---------------------------------------------------
  free energy    TOTEN  =      -188.42322800 eV

  energy without entropy =     -188.15523416  energy(sigma->0) =     -188.28923108


--------------------------------------------------------------------------------------------------------




----------------------------------------- Iteration    1(  19)  ---------------------------------------


    POTLOK:  cpu time    0.0411: real time    0.0412
    SETDIJ:  cpu time    0.0055: real time    0.0055
    EDDIAG:  cpu time    1.2099: real time    1.2128
  RMM-DIIS:  cpu time    3.3824: real time    3.3926
    ORTHCH:  cpu time    0.2841: real time    0.2848
       DOS:  cpu time    0.0015: real time    0.0015
    CHARGE:  cpu time    0.2345: real time    0.2351
    MIXING:  cpu time    0.0035: real time    0.0035
    --------------------------------------------
      LOOP:  cpu time    5.1632: real time    5.1793

 eigenvalue-minimisations  :  3682
 total energy-change (2. order) : 0.2529136E-01  (-0.1171197E-02)
 number of electron     503.9998361 magnetization 
 augmentation part      197.1159928 magnetization 

 DIPCOR: dipole corrections for dipol
 direction  3 min pos     1,
 dipolmoment           0.000000      0.000000      0.004022 electrons x Angstroem
 Tr[quadrupol]    -10207.631800

 energy correction for charged system         0.000000 eV
 dipol+quadrupol energy correction           -0.000001 eV
 added-field ion interaction         -0.000000 eV  (added to PSCEN)


 Broyden mixing:
  rms(total) = 0.87469E-01    rms(broyden)= 0.87446E-01
  rms(prec ) = 0.10185E+00
  weight for this iteration     100.00

 eigenvalues of (default mixing * dielectric matrix)
  average eigenvalue GAMMA=   0.7007
  2.1250  2.1250  1.3186  0.6841  0.6841  0.5383  0.5383  0.3912  0.2569  0.2569
  0.2616  0.2616  0.1999  0.1687

 Free energy of the ion-electron system (eV)
  ---------------------------------------------------
  alpha Z        PSCENC =       805.86936372
  Ewald energy   TEWEN  =    200171.10048147
  -Hartree energ DENC   =   -242316.45856950
  -exchange      EXHF   =         0.00000000
  -V(xc)+E(xc)   XCENC  =      -343.55856285
  PAW double counting   =     49376.00470788   -47454.57739131
  entropy T*S    EENTRO =        -0.27411082
  eigenvalues    EBANDS =     -2086.28972754
  atomic energy  EATOM  =     41659.78587232
  Solvation  Ediel_sol  =         0.00000000
  ---------------------------------------------------
  free energy    TOTEN  =      -188.39793664 eV

  energy without entropy =     -188.12382582  energy(sigma->0) =     -188.26088123


--------------------------------------------------------------------------------------------------------




----------------------------------------- Iteration    1(  20)  ---------------------------------------


    POTLOK:  cpu time    0.0411: real time    0.0412
    SETDIJ:  cpu time    0.0054: real time    0.0054
    EDDIAG:  cpu time    1.2126: real time    1.2188
  RMM-DIIS:  cpu time    3.3941: real time    3.4072
    ORTHCH:  cpu time    0.2845: real time    0.2851
       DOS:  cpu time    0.0014: real time    0.0014
    CHARGE:  cpu time    0.2324: real time    0.2352
    MIXING:  cpu time    0.0038: real time    0.0038
    --------------------------------------------
      LOOP:  cpu time    5.1759: real time    5.2006

 eigenvalue-minimisations  :  3679
 total energy-change (2. order) : 0.4654919E-02  (-0.5257715E-03)
 number of electron     503.9998362 magnetization 
 augmentation part      197.0933682 magnetization 

 DIPCOR: dipole corrections for dipol
 direction  3 min pos     1,
 dipolmoment           0.000000      0.000000      0.004063 electrons x Angstroem
 Tr[quadrupol]    -10207.727082

 energy correction for charged system         0.000000 eV
 dipol+quadrupol energy correction           -0.000001 eV
 added-field ion interaction          0.000000 eV  (added to PSCEN)


 Broyden mixing:
  rms(total) = 0.63090E-01    rms(broyden)= 0.63084E-01
  rms(prec ) = 0.72518E-01
  weight for this iteration     100.00

 eigenvalues of (default mixing * dielectric matrix)
  average eigenvalue GAMMA=   0.7239
  2.2443  2.2443  1.2600  0.8932  0.8932  0.6047  0.6047  0.3950  0.3175  0.3175
  0.2506  0.2506  0.2220  0.1926  0.1679

 Free energy of the ion-electron system (eV)
  ---------------------------------------------------
  alpha Z        PSCENC =       805.86936370
  Ewald energy   TEWEN  =    200171.10048147
  -Hartree energ DENC   =   -242320.59911337
  -exchange      EXHF   =         0.00000000
  -V(xc)+E(xc)   XCENC  =      -343.53385498
  PAW double counting   =     49379.40022214   -47457.84427377
  entropy T*S    EENTRO =        -0.27479972
  eigenvalues    EBANDS =     -2082.29717953
  atomic energy  EATOM  =     41659.78587232
  Solvation  Ediel_sol  =         0.00000000
  ---------------------------------------------------
  free energy    TOTEN  =      -188.39328172 eV

  energy without entropy =     -188.11848200  energy(sigma->0) =     -188.25588186


--------------------------------------------------------------------------------------------------------




----------------------------------------- Iteration    1(  21)  ---------------------------------------


    POTLOK:  cpu time    0.0412: real time    0.0420
    SETDIJ:  cpu time    0.0046: real time    0.0054
    EDDIAG:  cpu time    1.2028: real time    1.2114
  RMM-DIIS:  cpu time    3.3929: real time    3.4012
    ORTHCH:  cpu time    0.2841: real time    0.2848
       DOS:  cpu time    0.0014: real time    0.0014
    CHARGE:  cpu time    0.2367: real time    0.2373
    MIXING:  cpu time    0.0039: real time    0.0039
    --------------------------------------------
      LOOP:  cpu time    5.1683: real time    5.1917

 eigenvalue-minimisations  :  3681
 total energy-change (2. order) : 0.3297234E-02  (-0.3799174E-03)
 number of electron     503.9998362 magnetization 
 augmentation part      197.0616003 magnetization 

 DIPCOR: dipole corrections for dipol
 direction  3 min pos     1,
 dipolmoment           0.000000      0.000000      0.009300 electrons x Angstroem
 Tr[quadrupol]    -10207.872855

 energy correction for charged system         0.000000 eV
 dipol+quadrupol energy correction           -0.000003 eV
 added-field ion interaction         -0.000000 eV  (added to PSCEN)


 Broyden mixing:
  rms(total) = 0.38662E-01    rms(broyden)= 0.38651E-01
  rms(prec ) = 0.44185E-01
  weight for this iteration     100.00

 eigenvalues of (default mixing * dielectric matrix)
  average eigenvalue GAMMA=   0.7309
  2.2775  2.2775  1.2167  1.0439  1.0439  0.5906  0.5906  0.5829  0.3534  0.3534
  0.2506  0.2506  0.2764  0.2237  0.1947  0.1678

 Free energy of the ion-electron system (eV)
  ---------------------------------------------------
  alpha Z        PSCENC =       805.86936124
  Ewald energy   TEWEN  =    200171.10048147
  -Hartree energ DENC   =   -242326.72600194
  -exchange      EXHF   =         0.00000000
  -V(xc)+E(xc)   XCENC  =      -343.50092396
  PAW double counting   =     49383.11489648   -47461.41345917
  entropy T*S    EENTRO =        -0.27521810
  eigenvalues    EBANDS =     -2076.34499283
  atomic energy  EATOM  =     41659.78587232
  Solvation  Ediel_sol  =         0.00000000
  ---------------------------------------------------
  free energy    TOTEN  =      -188.38998449 eV

  energy without entropy =     -188.11476638  energy(sigma->0) =     -188.25237544


--------------------------------------------------------------------------------------------------------




----------------------------------------- Iteration    1(  22)  ---------------------------------------


    POTLOK:  cpu time    0.0417: real time    0.0423
    SETDIJ:  cpu time    0.0045: real time    0.0053
    EDDIAG:  cpu time    1.2134: real time    1.2171
  RMM-DIIS:  cpu time    3.3573: real time    3.3680
    ORTHCH:  cpu time    0.2849: real time    0.2857
       DOS:  cpu time    0.0015: real time    0.0015
    CHARGE:  cpu time    0.2371: real time    0.2379
    MIXING:  cpu time    0.0041: real time    0.0041
    --------------------------------------------
      LOOP:  cpu time    5.1452: real time    5.1653

 eigenvalue-minimisations  :  3681
 total energy-change (2. order) : 0.8009330E-03  (-0.1305958E-03)
 number of electron     503.9998362 magnetization 
 augmentation part      197.0503953 magnetization 

 DIPCOR: dipole corrections for dipol
 direction  3 min pos     1,
 dipolmoment           0.000000      0.000000      0.008175 electrons x Angstroem
 Tr[quadrupol]    -10207.963946

 energy correction for charged system         0.000000 eV
 dipol+quadrupol energy correction           -0.000002 eV
 added-field ion interaction          0.000000 eV  (added to PSCEN)


 Broyden mixing:
  rms(total) = 0.29014E-01    rms(broyden)= 0.29011E-01
  rms(prec ) = 0.33056E-01
  weight for this iteration     100.00

 eigenvalues of (default mixing * dielectric matrix)
  average eigenvalue GAMMA=   0.7483
  2.1607  2.1607  1.7067  1.3700  0.8358  0.8358  0.6114  0.6114  0.3785  0.3785
  0.2936  0.2936  0.2506  0.2506  0.2222  0.1937  0.1678

 Free energy of the ion-electron system (eV)
  ---------------------------------------------------
  alpha Z        PSCENC =       805.86936193
  Ewald energy   TEWEN  =    200171.10048147
  -Hartree energ DENC   =   -242330.41201272
  -exchange      EXHF   =         0.00000000
  -V(xc)+E(xc)   XCENC  =      -343.48462004
  PAW double counting   =     49384.39159767   -47462.65461940
  entropy T*S    EENTRO =        -0.27568556
  eigenvalues    EBANDS =     -2072.70955924
  atomic energy  EATOM  =     41659.78587232
  Solvation  Ediel_sol  =         0.00000000
  ---------------------------------------------------
  free energy    TOTEN  =      -188.38918355 eV

  energy without entropy =     -188.11349800  energy(sigma->0) =     -188.25134078


--------------------------------------------------------------------------------------------------------




----------------------------------------- Iteration    1(  23)  ---------------------------------------


    POTLOK:  cpu time    0.0423: real time    0.0425
    SETDIJ:  cpu time    0.0051: real time    0.0055
    EDDIAG:  cpu time    1.1980: real time    1.2723
  RMM-DIIS:  cpu time    3.3943: real time    3.4081
    ORTHCH:  cpu time    0.2849: real time    0.2856
       DOS:  cpu time    0.0015: real time    0.0015
    CHARGE:  cpu time    0.2340: real time    0.2346
    MIXING:  cpu time    0.0044: real time    0.0044
    --------------------------------------------
      LOOP:  cpu time    5.1652: real time    5.2581

 eigenvalue-minimisations  :  3680
 total energy-change (2. order) : 0.5597694E-03  (-0.9700457E-04)
 number of electron     503.9998362 magnetization 
 augmentation part      197.0490815 magnetization 

 DIPCOR: dipole corrections for dipol
 direction  3 min pos     1,
 dipolmoment           0.000000      0.000000      0.006120 electrons x Angstroem
 Tr[quadrupol]    -10208.069375

 energy correction for charged system         0.000000 eV
 dipol+quadrupol energy correction           -0.000001 eV
[...]
    275       1.6684      0.00000
    276       1.8270      0.00000
    277       2.0282      0.00000
    278       2.2291      0.00000
    279       2.2886      0.00000
    280       2.3658      0.00000
    281       2.4593      0.00000
    282       2.6078      0.00000
    283       2.7323      0.00000
    284       2.9505      0.00000
    285       3.0763      0.00000
    286       3.2942      0.00000
    287       3.4949      0.00000
    288       3.5293      0.00000
    289       3.7898      0.00000
    290       3.9920      0.00000
    291       4.0445      0.00000
    292       4.2076      0.00000
    293       4.4559      0.00000
    294       4.5407      0.00000
    295       4.5888      0.00000
    296       4.6324      0.00000
    297       4.7181      0.00000
    298       4.7714      0.00000
    299       4.8611      0.00000
    300       4.9133      0.00000
    301       4.9536      0.00000
    302       5.0376      0.00000
    303       5.0552      0.00000
    304       5.0801      0.00000
    305       5.1852      0.00000
    306       5.2387      0.00000


--------------------------------------------------------------------------------------------------------


 soft charge-density along one line, spin component           1
         0         1         2         3         4         5         6         7         8         9
 total charge-density along one line
 
 pseudopotential strength for first ion, spin component:           1
 -8.068   0.003   0.002  -0.007  -0.000  -8.214   0.003   0.002
  0.003  -7.994   0.000  -0.002   0.003   0.003  -8.142   0.000
  0.002   0.000  -7.989  -0.001   0.000   0.002   0.000  -8.137
 -0.007  -0.002  -0.001  -7.992   0.001  -0.006  -0.002  -0.001
 -0.000   0.003   0.000   0.001  -8.067  -0.000   0.003   0.000
 -8.214   0.003   0.002  -0.006  -0.000  -8.344   0.003   0.002
  0.003  -8.142   0.000  -0.002   0.003   0.003  -8.274   0.000
  0.002   0.000  -8.137  -0.001   0.000   0.002   0.000  -8.269
 -0.006  -0.002  -0.001  -8.140   0.001  -0.006  -0.002  -0.001
 -0.000   0.003   0.000   0.001  -8.214  -0.000   0.003   0.000
  0.001   0.003  -0.025  -0.001   0.000   0.001   0.003  -0.025
  0.001   0.004  -0.037  -0.002   0.000   0.001   0.004  -0.036
  0.002  -0.003   0.002   0.000   0.003   0.002  -0.002   0.002
  0.000  -0.003  -0.005   0.002  -0.000   0.000  -0.003  -0.004
 -0.003   0.000  -0.001  -0.003   0.002  -0.003   0.000  -0.001
  0.003  -0.002   0.002   0.000   0.004   0.003  -0.002   0.002
  0.000  -0.004  -0.005   0.003  -0.000   0.000  -0.003  -0.005
 -0.003   0.000  -0.001  -0.002   0.002  -0.003   0.000  -0.001
 total augmentation occupancy for first ion, spin component:           1
  4.380   0.041  -0.079   0.038  -0.120  -2.537  -0.010   0.077  -0.089   0.108  -0.094   0.058  -0.040  -0.002  -0.008   0.004
  0.041   3.997  -0.017   0.028   0.081  -0.011  -1.734   0.041  -0.032  -0.070  -0.086  -0.000  -0.136   0.008   0.001   0.005
 -0.079  -0.017   4.366   0.036  -0.059   0.077   0.041  -2.246  -0.059   0.058   1.078  -0.154  -0.012  -0.210   0.003   0.002
  0.038   0.028   0.036   3.982  -0.024  -0.088  -0.032  -0.059  -1.704   0.031   0.029   0.016  -0.001  -0.011  -0.125   0.000
 -0.120   0.081  -0.059  -0.024   4.496   0.108  -0.070   0.058   0.031  -2.642  -0.032   0.017  -0.023   0.005   0.030   0.004
 -2.537  -0.011   0.077  -0.088   0.108   2.581  -0.013  -0.075   0.125  -0.097   0.084  -0.053   0.031   0.001   0.010  -0.002
 -0.010  -1.734   0.041  -0.032  -0.070  -0.013   1.443  -0.060   0.036   0.061   0.075  -0.002   0.126  -0.006  -0.001  -0.005
  0.077   0.041  -2.246  -0.059   0.058  -0.075  -0.060   2.068   0.077  -0.056  -1.006   0.177   0.007   0.213   0.001  -0.001
 -0.089  -0.032  -0.059  -1.704   0.031   0.125   0.036   0.077   1.402  -0.035  -0.028  -0.012  -0.000   0.011   0.116  -0.000
  0.108  -0.070   0.058   0.031  -2.642  -0.097   0.061  -0.056  -0.035   2.676   0.028  -0.016   0.018  -0.004  -0.027  -0.002
 -0.094  -0.086   1.078   0.029  -0.032   0.084   0.075  -1.006  -0.028   0.028   2.396  -0.521  -0.005   0.103   0.002   0.000
  0.058  -0.000  -0.154   0.016   0.017  -0.053  -0.002   0.177  -0.012  -0.016  -0.521   0.160   0.011  -0.050  -0.007  -0.000
 -0.040  -0.136  -0.012  -0.001  -0.023   0.031   0.126   0.007  -0.000   0.018  -0.005   0.011   0.186   0.006   0.002  -0.006
 -0.002   0.008  -0.210  -0.011   0.005   0.001  -0.006   0.213   0.011  -0.004   0.103  -0.050   0.006   0.085  -0.004  -0.000
 -0.008   0.001   0.003  -0.125   0.030   0.010  -0.001   0.001   0.116  -0.027   0.002  -0.007   0.002  -0.004   0.187  -0.000
  0.004   0.005   0.002   0.000   0.004  -0.002  -0.005  -0.001  -0.000  -0.002   0.000  -0.000  -0.006  -0.000  -0.000   0.000
  0.000  -0.004   0.001   0.003  -0.000  -0.000   0.001  -0.006  -0.001   0.000  -0.007   0.002  -0.000  -0.003   0.000   0.000
 -0.003   0.000  -0.001   0.004   0.001   0.000  -0.000  -0.000  -0.005   0.001  -0.000   0.000  -0.000   0.000  -0.006   0.000


------------------------ aborting loop because EDIFF is reached ----------------------------------------


    CHARGE:  cpu time    0.2309: real time    0.2316
    FORLOC:  cpu time    0.0164: real time    0.0165
    FORNL :  cpu time    1.3148: real time    1.3191
    FORCOR:  cpu time    0.0579: real time    0.0592
    FORHAR:  cpu time    0.0266: real time    0.0266
    MIXING:  cpu time    0.0032: real time    0.0033
    OFIELD:  cpu time    0.0000: real time    0.0000

 VOLUME and BASIS-vectors are now :
 -----------------------------------------------------------------------------
  energy-cutoff  :      400.00
  volume of cell :     2567.68
      direct lattice vectors                 reciprocal lattice vectors
    11.002581515  0.000000000  0.000000000     0.090887761 -0.052474073  0.000000000
     5.501290758  9.528515099  0.000000000     0.000000000  0.104948147  0.000000000
     0.000000000  0.000000000 24.491785094     0.000000000  0.000000000  0.040830017

  length of vectors
    11.002581515 11.002581515 24.491785094     0.104948147  0.104948147  0.040830017


 FORCES acting on ions
    electron-ion (+dipol)            ewald-force                    non-local-force                 convergence-correction
 -----------------------------------------------------------------------------------------------
   0.180E+02 -.208E+02 0.226E+04   -.184E+02 0.213E+02 -.226E+04   0.376E+00 -.492E+00 0.809E-01   0.222E-02 -.190E-02 0.213E-03
   0.718E+01 -.109E+02 -.231E+04   -.737E+01 0.113E+02 0.231E+04   0.184E+00 -.386E+00 0.109E+00   0.194E-03 0.233E-03 0.256E-02
   0.534E+01 0.900E+01 -.918E+01   -.483E+01 -.884E+01 0.867E+01   -.506E+00 -.167E+00 0.505E+00   -.246E-02 0.137E-02 0.115E-02
   0.823E+01 -.231E+01 -.227E+04   -.892E+01 0.198E+01 0.227E+04   0.696E+00 0.330E+00 0.297E+00   -.810E-03 -.981E-05 0.272E-02
   -.557E+01 -.468E+01 -.314E+02   0.570E+01 0.413E+01 0.308E+02   -.111E+00 0.560E+00 0.533E+00   -.278E-02 0.193E-02 0.221E-02
   0.192E+02 -.864E+01 0.221E+04   -.199E+02 0.942E+01 -.221E+04   0.702E+00 -.777E+00 -.672E-01   -.264E-02 -.233E-02 -.362E-02
   0.131E+02 -.570E+00 0.770E+02   -.125E+02 0.374E+00 -.760E+02   -.607E+00 0.198E+00 -.105E+01   -.626E-03 0.270E-02 0.300E-02
   -.251E+02 0.220E+02 0.229E+04   0.256E+02 -.222E+02 -.229E+04   -.493E+00 0.190E+00 -.128E-01   -.840E-03 0.221E-02 -.105E-02
   0.202E+02 -.379E+00 -.227E+04   -.206E+02 0.731E-01 0.227E+04   0.439E+00 0.305E+00 0.190E+00   -.350E-02 -.383E-03 0.112E-02
   -.318E+01 -.484E+01 0.420E+00   0.295E+01 0.452E+01 -.532E+00   0.231E+00 0.312E+00 0.118E+00   -.491E-02 -.766E-03 0.844E-03
   0.716E+01 0.463E+01 0.525E+02   -.698E+01 -.453E+01 -.519E+02   -.185E+00 -.105E+00 -.526E+00   0.215E-02 -.153E-02 0.235E-02
   -.725E+01 0.205E+01 0.231E+04   0.780E+01 -.220E+01 -.231E+04   -.551E+00 0.154E+00 -.590E-01   -.229E-03 0.102E-03 -.253E-03
   -.119E+02 -.162E+02 0.221E+01   0.114E+02 0.154E+02 -.233E+01   0.482E+00 0.728E+00 0.118E+00   0.906E-03 -.302E-02 0.359E-03
   0.117E+02 0.236E+02 0.230E+04   -.119E+02 -.243E+02 -.230E+04   0.218E+00 0.672E+00 -.616E-01   -.394E-02 -.646E-03 0.627E-03
   -.222E+02 0.203E+01 -.223E+04   0.232E+02 -.272E+01 0.223E+04   -.101E+01 0.691E+00 -.188E+00   -.284E-03 -.165E-03 0.171E-02
   0.160E+02 -.106E+02 -.228E+04   -.160E+02 0.113E+02 0.228E+04   -.415E-01 -.627E+00 0.228E+00   -.705E-03 0.167E-02 0.367E-02
   -.238E+02 0.889E+01 -.225E+04   0.246E+02 -.860E+01 0.225E+04   -.841E+00 -.291E+00 0.231E+00   0.384E-02 -.859E-03 0.134E-02
   0.825E+01 0.312E+01 0.445E+02   -.814E+01 -.242E+01 -.432E+02   -.104E+00 -.708E+00 -.121E+01   0.578E-02 -.380E-03 0.279E-02
   -.233E+02 -.133E+02 0.231E+04   0.245E+02 0.132E+02 -.231E+04   -.121E+01 0.811E-01 0.232E-01   0.220E-02 0.155E-02 0.177E-02
   -.166E+02 0.585E+01 -.227E+04   0.165E+02 -.543E+01 0.227E+04   0.103E+00 -.417E+00 0.411E-01   0.817E-03 -.380E-03 0.236E-02
   -.690E+01 0.860E+01 -.230E+04   0.637E+01 -.931E+01 0.230E+04   0.526E+00 0.708E+00 -.786E-01   0.104E-02 -.689E-03 0.161E-02
   -.195E+02 -.650E+00 -.302E+02   0.183E+02 0.108E+01 0.302E+02   0.113E+01 -.426E+00 -.421E-01   0.112E-02 -.137E-02 -.756E-03
   0.318E+02 0.221E+01 0.229E+04   -.324E+02 -.271E+01 -.229E+04   0.678E+00 0.508E+00 0.215E+00   -.914E-03 -.310E-02 -.884E-03
   0.701E+01 -.250E+02 0.226E+04   -.697E+01 0.260E+02 -.225E+04   -.518E-01 -.998E+00 -.355E+00   0.513E-02 0.155E-02 -.914E-03
   -.625E+01 -.152E+01 -.358E+02   0.595E+01 0.104E+01 0.353E+02   0.305E+00 0.473E+00 0.501E+00   -.365E-02 0.896E-03 0.925E-03
   0.143E+02 -.293E+01 -.199E+04   -.148E+02 0.310E+01 0.199E+04   0.453E+00 -.162E+00 0.176E+01   -.165E-02 0.427E-03 0.261E-02
   -.987E+01 -.127E+01 0.195E+04   0.100E+02 0.152E+01 -.195E+04   -.180E+00 -.254E+00 -.172E+01   0.274E-02 0.198E-02 -.219E-02
   0.465E+01 0.496E+01 -.376E+02   -.426E+01 -.476E+01 0.372E+02   -.400E+00 -.191E+00 0.416E+00   0.318E-02 -.707E-03 0.186E-02
   0.143E+02 -.132E+02 -.194E+04   -.145E+02 0.132E+02 0.194E+04   0.282E+00 0.703E-02 0.132E+01   0.176E-03 0.204E-02 0.501E-03
   -.290E+01 0.717E+01 -.378E+02   0.275E+01 -.672E+01 0.373E+02   0.148E+00 -.445E+00 0.534E+00   0.161E-02 -.152E-02 0.267E-02
   0.103E+02 0.383E+01 0.194E+04   -.109E+02 -.421E+01 -.194E+04   0.599E+00 0.377E+00 -.173E+01   0.705E-04 -.107E-02 -.215E-02
   0.139E+01 -.491E+01 0.192E+04   -.143E+01 0.507E+01 -.192E+04   0.409E-01 -.157E+00 -.172E+01   0.718E-03 0.581E-03 -.169E-02
   0.210E+02 -.791E+00 0.195E+04   -.213E+02 0.702E+00 -.195E+04   0.361E+00 0.887E-01 -.152E+01   0.143E-02 -.158E-02 -.512E-03
   -.386E+01 0.223E+01 0.198E+04   0.408E+01 -.236E+01 -.198E+04   -.211E+00 0.137E+00 -.173E+01   -.192E-02 0.449E-03 0.195E-02
   0.930E+01 -.170E+02 -.197E+04   -.934E+01 0.174E+02 0.197E+04   0.492E-01 -.394E+00 0.153E+01   -.233E-02 -.854E-03 0.672E-03
   -.166E+02 0.402E+01 -.196E+04   0.171E+02 -.412E+01 0.195E+04   -.532E+00 0.945E-01 0.136E+01   0.274E-02 0.214E-02 0.393E-03
   -.200E+00 -.275E+01 -.654E+02   0.725E-01 0.224E+01 0.645E+02   0.116E+00 0.511E+00 0.823E+00   0.285E-02 -.114E-02 -.720E-03
   -.117E+02 0.107E+02 -.198E+04   0.121E+02 -.110E+02 0.197E+04   -.380E+00 0.260E+00 0.192E+01   0.287E-02 -.246E-02 0.166E-02
   -.438E+01 0.162E+02 0.197E+04   0.415E+01 -.167E+02 -.197E+04   0.233E+00 0.448E+00 -.160E+01   -.419E-02 -.467E-03 -.135E-03
   0.175E+02 -.414E+01 -.196E+04   -.174E+02 0.428E+01 0.196E+04   -.123E+00 -.140E+00 0.178E+01   -.207E-02 0.291E-02 0.120E-02
   0.286E+01 -.935E-01 0.171E+02   -.247E+01 0.353E-01 -.172E+02   -.385E+00 0.566E-01 0.876E-01   -.255E-02 0.251E-02 0.113E-02
   -.152E+02 0.166E+01 0.195E+04   0.150E+02 -.162E+01 -.195E+04   0.176E+00 -.360E-01 -.187E+01   -.203E-02 0.852E-03 -.149E-03
   -.980E+00 0.408E+00 -.254E+02   0.121E+01 0.509E-01 0.250E+02   -.231E+00 -.456E+00 0.392E+00   -.204E-02 0.216E-02 0.498E-03
   -.131E+01 0.998E+01 -.199E+04   0.107E+01 -.102E+02 0.199E+04   0.232E+00 0.267E+00 0.152E+01   -.618E-03 -.224E-02 -.122E-03
   -.504E+01 0.102E+02 -.196E+04   0.523E+01 -.996E+01 0.196E+04   -.200E+00 -.242E+00 0.176E+01   0.107E-02 -.100E-02 -.343E-03
   0.219E+01 0.303E+01 0.125E+02   -.246E+01 -.285E+01 -.121E+02   0.263E+00 -.178E+00 -.395E+00   0.389E-02 -.243E-02 0.113E-03
   -.328E+02 0.592E+01 0.200E+04   0.334E+02 -.571E+01 -.200E+04   -.581E+00 -.216E+00 -.163E+01   0.748E-03 0.123E-02 -.749E-03
   0.529E+01 -.476E+01 0.884E+02   -.521E+01 0.476E+01 -.874E+02   -.783E-01 0.110E-02 -.974E+00   -.145E-02 0.564E-03 0.110E-02
 -----------------------------------------------------------------------------------------------
   -.405E-01 0.908E-01 0.158E+00   -.568E-13 0.393E-12 0.387E-11   0.144E-01 -.106E+00 -.161E+00   0.330E-03 -.969E-03 0.334E-01
 
 
 POSITION                                       TOTAL-FORCE (eV/Angst)
 -----------------------------------------------------------------------------------
      1.36765      0.82602      9.66363         0.002011      0.006056     -0.009727
     11.00368      4.77698     14.85093        -0.002860     -0.009292     -0.001919
     11.01892      6.34606     12.25351        -0.001336     -0.007597     -0.006182
      9.60879      2.37288     14.80459         0.004998      0.002136      0.000397
      9.63114      3.95335     12.28028         0.009048      0.010385     -0.001753
      9.60127      0.82025      9.79428         0.005044      0.000033      0.003864
      9.64015      8.73529     12.16978         0.000277      0.005989     -0.002223
      9.66369      5.54831      9.66931         0.007760     -0.001302      0.001918
      6.84720      2.36635     14.76232        -0.013053     -0.001355     -0.000838
      6.85720      3.95613     12.24515        -0.003348     -0.006930      0.006007
      6.86974      8.73413     12.19703         0.001343     -0.004926      0.000034
      8.27788      7.93947      9.57828         0.002457      0.007706      0.007520
      5.48032      6.33670     12.24619         0.003576      0.001487      0.000618
      6.86868      5.53770      9.64116         0.000860     -0.007020      0.001009
      6.91103      7.11630     14.72794         0.008743     -0.002455      0.003711
     12.37005      7.16480     14.80337         0.002256     -0.001115     -0.006344
      1.40415      2.38047     14.76505        -0.004275     -0.001333      0.010735
      2.74704      1.61328     12.21413         0.009713     -0.001465      0.004699
      4.17005      0.81565      9.63171         0.006191      0.000214      0.002615
      0.01225     -0.01060     14.80743         0.002228     -0.000854     -0.000249
      4.12321      7.11979     14.84192        -0.005593     -0.005368      0.005889
     15.09587      8.74244     12.28501         0.001216     -0.000221      0.001550
      5.46903      7.93884      9.64343        -0.000087      0.002050     -0.000256
      2.75582      3.23028      9.73489        -0.003651      0.002711      0.004662
      8.23759      1.57598     12.29089        -0.007185     -0.001787     -0.001221
      8.23145     -0.00454     14.67206        -0.004465     -0.000549      0.000548
     12.39614      5.58566      9.93094         0.000834     -0.005631      0.002804
     12.38684      3.96992     12.29380        -0.006792      0.006470     -0.003293
      9.62113      7.14252     14.56818        -0.011990      0.001233     -0.007185
     10.99342      1.59028     12.29806        -0.003102      0.005115     -0.000120
     13.73458      7.93204      9.93805         0.005329     -0.000359     -0.001087
     11.00624      3.19355      9.93641         0.001653      0.003975     -0.003765
      4.11853      5.57426      9.90359         0.004279     -0.001388     -0.003771
      5.51528      3.18301      9.86499         0.006179      0.005996      0.002387
      8.24857      4.76323     14.62256        -0.001350      0.005453      0.002888
      2.77894     -0.01034     14.57789        -0.003072     -0.005213     -0.001850
     13.74805      6.34234     12.32597        -0.008160     -0.004706     -0.000695
      2.77113      4.74687     14.63798        -0.001991     -0.000957     -0.006970
      8.24590      3.17258      9.88733         0.002954      0.000317     -0.000425
      5.47984     -0.00291     14.58271        -0.003543      0.002167     -0.009062
      5.50874      1.58615     12.22487         0.003788      0.001250      0.003311
      6.87886      0.79768      9.91745         0.000840     -0.001476     -0.003845
     12.37983      8.73418     12.27647        -0.006536      0.005602     -0.000841
      5.49343      4.74418     14.63984        -0.001361      0.000436     -0.006411
      4.12915      2.38222     14.58435        -0.003407     -0.003151      0.002200
      4.09985      3.96868     12.23732         0.002412     -0.002751      0.004814
     11.04093      7.95552      9.83646        -0.000823      0.000984     -0.000803
      8.24595      6.34341     12.14334         0.001987      0.001438      0.006652
 -----------------------------------------------------------------------------------
    total drift:                               -0.025769     -0.016039      0.029525


--------------------------------------------------------------------------------------------------------



  FREE ENERGIE OF THE ION-ELECTRON SYSTEM (eV)
  ---------------------------------------------------
  free  energy   TOTEN  =      -192.22283503 eV

  energy  without entropy=     -191.96134991  energy(sigma->0) =     -192.09209247
 
 d Force = 0.3693615E-03[-0.233E-05, 0.741E-03]  d Energy = 0.3791232E-03-0.976E-05
 d Force =-0.2447314E+02[-0.245E+02,-0.245E+02]  d Ewald  =-0.2447314E+02 0.208E-05


--------------------------------------------------------------------------------------------------------


    POTLOK:  cpu time    0.0485: real time    0.0496


--------------------------------------------------------------------------------------------------------


 stress matrix after NEB project (eV)
      0.00000      0.00000      0.00000
      0.00000      0.00000      0.00000
      0.00000      0.00000      0.00000
  FORCES: max atom, RMS     0.014032    0.007920
  FORCE total and by dimension    0.054870    0.013053
  Stress total and by dimension    0.000000    0.000000
 Conjugate gradient step on ions:
 trial-energy change:   -0.000379  1 .order   -0.000369   -0.000741    0.000002
  (g-gl).g = 0.189E-03      g.g   = 0.201E-03  gl.gl    = 0.573E-03
 g(Force)  = 0.201E-03   g(Stress)= 0.000E+00 ortho     = 0.158E-04
 gamma     =   0.32944
 trial     =   3.58769
 opt step  =   3.57725  (harmonic =   3.57643) maximal distance =0.00324311
 next E    =  -192.222835   (d E  =  -0.00038)


--------------------------------------------------------------------------------------------------------


  
 reached required accuracy - stopping structural energy minimisation
     LOOP+:  cpu time   60.7480: real time   61.0665
    4ORBIT:  cpu time    0.0000: real time    0.0000

 total amount of memory used by VASP on root node    84353. kBytes
========================================================================

   base      :      30000. kBytes
   nonlr-proj:       4285. kBytes
   fftplans  :       4447. kBytes
   grid      :       6721. kBytes
   one-center:        124. kBytes
   wavefun   :      38776. kBytes
 
  
  
 General timing and accounting informations for this job:
 ========================================================
  
                  Total CPU time used (sec):     1802.944
                            User time (sec):     1716.322
                          System time (sec):       86.622
                         Elapsed time (sec):     1813.746
  
                   Maximum memory used (kb):      956812.
                   Average memory used (kb):           0.
  
                          Minor page faults:       897442
                          Major page faults:            0
                 Voluntary context switches:        11919
