  48  48   0   0
  0.5349325E+02  0.1100258E-08  0.1100258E-08  0.2449179E-08  0.3500000E-15
  1.000000000000000E-004
  CAR 
 unknown system                          
      6.35188208    -10.01172957  301     -1.09976541      1.00000000
    -10.012  0.0000E+00  0.0000E+00
     -9.957  0.0000E+00  0.0000E+00
     -9.903  0.0000E+00  0.0000E+00
     -9.848  0.0000E+00  0.0000E+00
     -9.794  0.0000E+00  0.0000E+00
     -9.739  0.0000E+00  0.0000E+00
     -9.684  0.0000E+00  0.0000E+00
     -9.630  0.0000E+00  0.0000E+00
     -9.575  0.1153E-16  0.6291E-18
     -9.521  0.4616E-14  0.2524E-15
     -9.466  0.1031E-11  0.5649E-13
     -9.412  0.1295E-09  0.7119E-11
     -9.357  0.9163E-08  0.5069E-09
     -9.303  0.3665E-06  0.2050E-07
     -9.248  0.8307E-05  0.4736E-06
     -9.194  0.1070E-03  0.6312E-05
     -9.139  0.7862E-03  0.4919E-04
     -9.084  0.3301E-02  0.2293E-03
     -9.030  0.7959E-02  0.6634E-03
     -8.975  0.1122E-01  0.1275E-02
     -8.921  0.1026E-01  0.1835E-02
     -8.866  0.8968E-02  0.2324E-02
     -8.812  0.1021E-01  0.2881E-02
     -8.757  0.1020E-01  0.3437E-02
     -8.703  0.6730E-02  0.3805E-02
     -8.648  0.2771E-02  0.3956E-02
     -8.594  0.7245E-03  0.3995E-02
     -8.539  0.3140E-03  0.4012E-02
     -8.484  0.9648E-03  0.4065E-02
     -8.430  0.2522E-02  0.4202E-02
     -8.375  0.4043E-02  0.4423E-02
     -8.321  0.4894E-02  0.4690E-02
     -8.266  0.6656E-02  0.5053E-02
     -8.212  0.1037E-01  0.5619E-02
     -8.157  0.1515E-01  0.6445E-02
     -8.103  0.1908E-01  0.7486E-02
     -8.048  0.1855E-01  0.8498E-02
     -7.994  0.1333E-01  0.9225E-02
     -7.939  0.8019E-02  0.9662E-02
     -7.884  0.5251E-02  0.9948E-02
     -7.830  0.5853E-02  0.1027E-01
     -7.775  0.9512E-02  0.1079E-01
     -7.721  0.1204E-01  0.1144E-01
     -7.666  0.1125E-01  0.1206E-01
     -7.612  0.1094E-01  0.1265E-01
     -7.557  0.1345E-01  0.1339E-01
     -7.503  0.1763E-01  0.1435E-01
     -7.448  0.2396E-01  0.1566E-01
     -7.394  0.3385E-01  0.1750E-01
     -7.339  0.4387E-01  0.1989E-01
     -7.284  0.4917E-01  0.2258E-01
     -7.230  0.5214E-01  0.2542E-01
     -7.175  0.5571E-01  0.2846E-01
     -7.121  0.5573E-01  0.3150E-01
     -7.066  0.4931E-01  0.3419E-01
     -7.012  0.4241E-01  0.3650E-01
     -6.957  0.4255E-01  0.3882E-01
     -6.903  0.4976E-01  0.4154E-01
     -6.848  0.5788E-01  0.4469E-01
     -6.794  0.6238E-01  0.4810E-01
     -6.739  0.6455E-01  0.5162E-01
     -6.684  0.6839E-01  0.5535E-01
     -6.630  0.7578E-01  0.5948E-01
     -6.575  0.8550E-01  0.6415E-01
     -6.521  0.9756E-01  0.6947E-01
     -6.466  0.1121E+00  0.7558E-01
     -6.412  0.1271E+00  0.8252E-01
     -6.357  0.1393E+00  0.9012E-01
     -6.303  0.1456E+00  0.9806E-01
     -6.248  0.1505E+00  0.1063E+00
     -6.194  0.1605E+00  0.1150E+00
     -6.139  0.1716E+00  0.1244E+00
     -6.084  0.1733E+00  0.1338E+00
     -6.030  0.1656E+00  0.1429E+00
     -5.975  0.1584E+00  0.1515E+00
     -5.921  0.1558E+00  0.1600E+00
     -5.866  0.1522E+00  0.1683E+00
     -5.812  0.1451E+00  0.1762E+00
     -5.757  0.1399E+00  0.1838E+00
     -5.703  0.1380E+00  0.1914E+00
     -5.648  0.1349E+00  0.1987E+00
     -5.594  0.1295E+00  0.2058E+00
     -5.539  0.1256E+00  0.2126E+00
     -5.484  0.1250E+00  0.2195E+00
     -5.430  0.1276E+00  0.2264E+00
     -5.375  0.1312E+00  0.2336E+00
     -5.321  0.1374E+00  0.2411E+00
     -5.266  0.1503E+00  0.2493E+00
     -5.212  0.1655E+00  0.2583E+00
     -5.157  0.1746E+00  0.2678E+00
     -5.103  0.1780E+00  0.2775E+00
     -5.048  0.1814E+00  0.2874E+00
     -4.994  0.1843E+00  0.2975E+00
     -4.939  0.1832E+00  0.3075E+00
     -4.884  0.1755E+00  0.3170E+00
     -4.830  0.1643E+00  0.3260E+00
     -4.775  0.1572E+00  0.3346E+00
     -4.721  0.1571E+00  0.3431E+00
     -4.666  0.1605E+00  0.3519E+00
     -4.612  0.1638E+00  0.3608E+00
     -4.557  0.1661E+00  0.3699E+00
     -4.503  0.1679E+00  0.3791E+00
     -4.448  0.1690E+00  0.3883E+00
     -4.394  0.1683E+00  0.3975E+00
     -4.339  0.1655E+00  0.4065E+00
     -4.284  0.1619E+00  0.4153E+00
     -4.230  0.1593E+00  0.4240E+00
     -4.175  0.1589E+00  0.4327E+00
     -4.121  0.1621E+00  0.4415E+00
     -4.066  0.1684E+00  0.4507E+00
     -4.012  0.1749E+00  0.4602E+00
     -3.957  0.1802E+00  0.4701E+00
     -3.903  0.1843E+00  0.4801E+00
     -3.848  0.1876E+00  0.4904E+00
     -3.794  0.1895E+00  0.5007E+00
     -3.739  0.1899E+00  0.5111E+00
     -3.684  0.1932E+00  0.5216E+00
     -3.630  0.2030E+00  0.5327E+00
     -3.575  0.2131E+00  0.5443E+00
     -3.521  0.2157E+00  0.5561E+00
     -3.466  0.2131E+00  0.5677E+00
     -3.412  0.2079E+00  0.5790E+00
     -3.357  0.1997E+00  0.5899E+00
     -3.303  0.1904E+00  0.6003E+00
     -3.248  0.1815E+00  0.6102E+00
     -3.194  0.1744E+00  0.6197E+00
     -3.139  0.1732E+00  0.6292E+00
     -3.084  0.1775E+00  0.6388E+00
     -3.030  0.1803E+00  0.6487E+00
     -2.975  0.1783E+00  0.6584E+00
     -2.921  0.1758E+00  0.6680E+00
     -2.866  0.1763E+00  0.6776E+00
     -2.812  0.1801E+00  0.6874E+00
     -2.757  0.1859E+00  0.6976E+00
     -2.703  0.1920E+00  0.7080E+00
     -2.648  0.1973E+00  0.7188E+00
     -2.594  0.1999E+00  0.7297E+00
     -2.539  0.1990E+00  0.7406E+00
     -2.484  0.1961E+00  0.7513E+00
     -2.430  0.1932E+00  0.7618E+00
     -2.375  0.1901E+00  0.7722E+00
     -2.321  0.1863E+00  0.7823E+00
     -2.266  0.1838E+00  0.7924E+00
     -2.212  0.1844E+00  0.8024E+00
     -2.157  0.1871E+00  0.8126E+00
     -2.103  0.1899E+00  0.8230E+00
     -2.048  0.1911E+00  0.8334E+00
     -1.994  0.1910E+00  0.8438E+00
     -1.939  0.1929E+00  0.8543E+00
     -1.884  0.1986E+00  0.8652E+00
     -1.830  0.2064E+00  0.8764E+00
     -1.775  0.2141E+00  0.8881E+00
     -1.721  0.2185E+00  0.9000E+00
     -1.666  0.2182E+00  0.9119E+00
     -1.612  0.2156E+00  0.9237E+00
     -1.557  0.2128E+00  0.9353E+00
     -1.503  0.2076E+00  0.9466E+00
     -1.448  0.2003E+00  0.9575E+00
     -1.394  0.1920E+00  0.9680E+00
     -1.339  0.1803E+00  0.9779E+00
     -1.284  0.1642E+00  0.9868E+00
     -1.230  0.1433E+00  0.9946E+00
     -1.175  0.1182E+00  0.1001E+01
     -1.121  0.9520E-01  0.1006E+01
     -1.066  0.7709E-01  0.1010E+01
     -1.012  0.6008E-01  0.1014E+01
     -0.957  0.4400E-01  0.1016E+01
     -0.903  0.3119E-01  0.1018E+01
     -0.848  0.2355E-01  0.1019E+01
     -0.794  0.2073E-01  0.1020E+01
     -0.739  0.2133E-01  0.1021E+01
     -0.684  0.2557E-01  0.1023E+01
     -0.630  0.3313E-01  0.1025E+01
     -0.575  0.4064E-01  0.1027E+01
     -0.521  0.4524E-01  0.1029E+01
     -0.466  0.4637E-01  0.1032E+01
     -0.412  0.4446E-01  0.1034E+01
     -0.357  0.4345E-01  0.1037E+01
     -0.303  0.4552E-01  0.1039E+01
     -0.248  0.4445E-01  0.1042E+01
     -0.194  0.3508E-01  0.1043E+01
     -0.139  0.2267E-01  0.1045E+01
     -0.084  0.1600E-01  0.1046E+01
     -0.030  0.1615E-01  0.1046E+01
      0.025  0.1719E-01  0.1047E+01
      0.079  0.1770E-01  0.1048E+01
      0.134  0.2145E-01  0.1050E+01
      0.188  0.2528E-01  0.1051E+01
      0.243  0.2517E-01  0.1052E+01
      0.297  0.2650E-01  0.1054E+01
      0.352  0.3285E-01  0.1056E+01
      0.406  0.4024E-01  0.1058E+01
      0.461  0.4666E-01  0.1060E+01
      0.516  0.5288E-01  0.1063E+01
      0.570  0.5715E-01  0.1066E+01
      0.625  0.5735E-01  0.1069E+01
      0.679  0.5458E-01  0.1072E+01
      0.734  0.4986E-01  0.1075E+01
      0.788  0.4253E-01  0.1077E+01
      0.843  0.3332E-01  0.1079E+01
      0.897  0.2447E-01  0.1081E+01
      0.952  0.1770E-01  0.1082E+01
      1.006  0.1470E-01  0.1082E+01
      1.061  0.1623E-01  0.1083E+01
      1.116  0.1817E-01  0.1084E+01
      1.170  0.1714E-01  0.1085E+01
      1.225  0.1500E-01  0.1086E+01
      1.279  0.1378E-01  0.1087E+01
      1.334  0.1294E-01  0.1087E+01
      1.388  0.1203E-01  0.1088E+01
      1.443  0.1380E-01  0.1089E+01
      1.497  0.2050E-01  0.1090E+01
      1.552  0.2970E-01  0.1092E+01
      1.606  0.3565E-01  0.1093E+01
      1.661  0.3532E-01  0.1095E+01
      1.716  0.3235E-01  0.1097E+01
      1.770  0.3086E-01  0.1099E+01
      1.825  0.3026E-01  0.1101E+01
      1.879  0.2872E-01  0.1102E+01
      1.934  0.2636E-01  0.1104E+01
      1.988  0.2562E-01  0.1105E+01
      2.043  0.2805E-01  0.1106E+01
      2.097  0.3267E-01  0.1108E+01
      2.152  0.3843E-01  0.1110E+01
      2.206  0.4369E-01  0.1113E+01
      2.261  0.4781E-01  0.1115E+01
      2.316  0.4935E-01  0.1118E+01
      2.370  0.4595E-01  0.1121E+01
      2.425  0.4045E-01  0.1123E+01
      2.479  0.3829E-01  0.1125E+01
      2.534  0.4028E-01  0.1127E+01
      2.588  0.4375E-01  0.1129E+01
      2.643  0.4533E-01  0.1132E+01
      2.697  0.4136E-01  0.1134E+01
      2.752  0.3254E-01  0.1136E+01
      2.806  0.2238E-01  0.1137E+01
      2.861  0.1402E-01  0.1138E+01
      2.916  0.1107E-01  0.1138E+01
      2.970  0.1171E-01  0.1139E+01
      3.025  0.9806E-02  0.1140E+01
      3.079  0.6072E-02  0.1140E+01
      3.134  0.6643E-02  0.1140E+01
      3.188  0.1349E-01  0.1141E+01
      3.243  0.2151E-01  0.1142E+01
      3.297  0.2399E-01  0.1144E+01
      3.352  0.2153E-01  0.1145E+01
      3.406  0.2094E-01  0.1146E+01
      3.461  0.2585E-01  0.1147E+01
      3.516  0.3366E-01  0.1149E+01
      3.570  0.4067E-01  0.1151E+01
      3.625  0.4471E-01  0.1154E+01
      3.679  0.4323E-01  0.1156E+01
      3.734  0.3606E-01  0.1158E+01
      3.788  0.2789E-01  0.1160E+01
      3.843  0.2322E-01  0.1161E+01
      3.897  0.2234E-01  0.1162E+01
      3.952  0.2467E-01  0.1163E+01
      4.006  0.2863E-01  0.1165E+01
      4.061  0.2888E-01  0.1167E+01
      4.116  0.2494E-01  0.1168E+01
      4.170  0.2336E-01  0.1169E+01
      4.225  0.2306E-01  0.1171E+01
      4.279  0.1782E-01  0.1171E+01
      4.334  0.1214E-01  0.1172E+01
      4.388  0.1493E-01  0.1173E+01
      4.443  0.2489E-01  0.1174E+01
      4.497  0.3459E-01  0.1176E+01
      4.552  0.4304E-01  0.1179E+01
      4.606  0.5103E-01  0.1181E+01
      4.661  0.5355E-01  0.1184E+01
      4.716  0.5008E-01  0.1187E+01
      4.770  0.4792E-01  0.1190E+01
      4.825  0.5089E-01  0.1192E+01
      4.879  0.5540E-01  0.1195E+01
      4.934  0.5805E-01  0.1199E+01
      4.988  0.6077E-01  0.1202E+01
      5.043  0.6521E-01  0.1205E+01
      5.097  0.6912E-01  0.1209E+01
      5.152  0.6821E-01  0.1213E+01
      5.206  0.6116E-01  0.1216E+01
      5.261  0.5161E-01  0.1219E+01
      5.316  0.4132E-01  0.1221E+01
      5.370  0.2837E-01  0.1223E+01
      5.425  0.1450E-01  0.1224E+01
      5.479  0.4973E-02  0.1224E+01
      5.534  0.1071E-02  0.1224E+01
      5.588  0.1388E-03  0.1224E+01
      5.643  0.1054E-04  0.1224E+01
      5.697  0.4613E-06  0.1224E+01
      5.752  0.1150E-07  0.1224E+01
      5.806  0.1622E-09  0.1224E+01
      5.861  0.1287E-11  0.1224E+01
      5.916  0.5732E-14  0.1224E+01
      5.970  0.1493E-16  0.1224E+01
      6.025  0.0000E+00  0.1224E+01
      6.079  0.0000E+00  0.1224E+01
      6.134  0.0000E+00  0.1224E+01
      6.188  0.0000E+00  0.1224E+01
      6.243  0.0000E+00  0.1224E+01
      6.297  0.0000E+00  0.1224E+01
      6.352  0.0000E+00  0.1224E+01
