unknown system                          
           1
    11.002582    0.000000    0.000000
     5.501291    9.528515    0.000000
     0.000000    0.000000   24.491785
   Au   Pd
  24  24
Direct configuration=     1
   0.83333333  0.33333333  0.40830017
   0.83333333  0.08333333  0.40830017
   0.58333333  0.08333333  0.40830017
   0.66666667  0.91666667  0.50000000
   0.16666667  0.91666667  0.50000000
   0.33333333  0.83333333  0.40830017
   0.25000000  0.50000000  0.59169983
   0.16666667  0.66666667  0.50000000
   0.66666667  0.16666667  0.50000000
   0.16666667  0.41666667  0.50000000
   0.50000000  0.50000000  0.59169983
   0.66666667  0.41666667  0.50000000
   0.16666667  0.16666667  0.50000000
   0.58333333  0.58333333  0.40830017
   0.00000000  0.75000000  0.59169983
   0.91666667  0.16666667  0.50000000
   0.83333333  0.83333333  0.40830017
   0.75000000  0.50000000  0.59169983
   0.33333333  0.08333333  0.40830017
   0.00000000  0.25000000  0.59169983
   0.91666667  0.41666667  0.50000000
   0.91666667  0.66666667  0.50000000
   0.66666667  0.66666667  0.50000000
   0.08333333  0.58333333  0.40830017
   0.75000000  0.00000000  0.59169983
   0.83333333  0.58333333  0.40830017
   0.75000000  0.25000000  0.59169983
   0.50000000  0.75000000  0.59169983
   0.41666667  0.91666667  0.50000000
   0.58333333  0.83333333  0.40830017
   0.08333333  0.08333333  0.40830017
   0.25000000  0.75000000  0.59169983
   0.50000000  0.25000000  0.59169983
   0.41666667  0.41666667  0.50000000
   0.58333333  0.33333333  0.40830017
   0.50000000  0.00000000  0.59169983
   0.41666667  0.16666667  0.50000000
   0.33333333  0.58333333  0.40830017
   0.25000000  0.25000000  0.59169983
   0.33333333  0.33333333  0.40830017
   0.25000000  0.00000000  0.59169983
   0.91666667  0.91666667  0.50000000
   0.08333333  0.83333333  0.40830017
   0.00000000  0.50000000  0.59169983
   0.08333333  0.33333333  0.40830017
   0.00000000  0.00000000  0.59169983
   0.41666667  0.66666667  0.50000000
   0.75000000  0.75000000  0.59169983
Direct configuration=     2
   0.83408690  0.33334069  0.40573878
   0.83439318  0.08273008  0.40601163
   0.58193995  0.08438552  0.40614848
   0.66539032  0.91718524  0.50081610
   0.16694877  0.91597083  0.50037564
   0.33310072  0.83312784  0.40645773
   0.25072011  0.49884599  0.59386333
   0.16835689  0.66747837  0.49962727
   0.66527885  0.16736274  0.50081022
   0.16861355  0.41460933  0.49993812
   0.49942703  0.50029921  0.59362624
   0.66460215  0.41641027  0.50000733
   0.16860104  0.16573651  0.50002833
   0.58264585  0.58364547  0.40616469
  -0.00108513  0.75137396  0.59388647
   0.91712306  0.16474433  0.50038213
   0.83372193  0.83290206  0.40604507
   0.74984895  0.50083419  0.59426016
   0.33309703  0.08386085  0.40640204
   0.00073595  0.24921741  0.59426266
   0.91761100  0.41737916  0.49964436
   0.91578314  0.66694652  0.50034431
   0.66481100  0.66888777  0.50007643
   0.08414847  0.58257719  0.40586736
   0.74988286  0.00038048  0.59284209
   0.83341554  0.58321690  0.40683344
   0.75004920  0.24891631  0.59314109
   0.49924788  0.75095325  0.59266189
   0.41711029  0.91645671  0.50059497
   0.58322099  0.83313946  0.40709749
   0.08329964  0.08336291  0.40679697
   0.25037583  0.75100640  0.59286020
   0.50014611  0.24923384  0.59264675
   0.41688009  0.41618235  0.49955385
   0.58194364  0.33408820  0.40711793
   0.49965700  0.00031264  0.59255808
   0.41645960  0.16701102  0.50054114
   0.33371807  0.58256240  0.40733529
   0.25102678  0.24914839  0.59286275
   0.33361837  0.33365910  0.40731906
   0.25099856 -0.00077006  0.59277653
   0.91695258  0.91689907  0.50032932
   0.08340582  0.83355299  0.40705311
  -0.00001555  0.49995403  0.59321296
   0.08334131  0.33329963  0.40686128
  -0.00023876 -0.00007876  0.59290855
   0.41611841  0.66711332  0.50022081
   0.74948500  0.75054790  0.59308957
Direct configuration=     3
   0.83634762  0.33336278  0.39805460
   0.83757272  0.08092031  0.39914602
   0.57775978  0.08754209  0.39969342
   0.66156129  0.91874096  0.50326441
   0.16779506  0.91388332  0.50150257
   0.33240288  0.83251137  0.40093039
   0.25288044  0.49538395  0.60035383
   0.17342757  0.66991349  0.49850909
   0.66111542  0.16945095  0.50324090
   0.17445421  0.40843731  0.49975247
   0.49770813  0.50119684  0.59940545
   0.65840861  0.41564109  0.50002933
   0.17440416  0.16294603  0.50011331
   0.58058340  0.58458187  0.39975825
  -0.00434050  0.75549585  0.60044639
   0.91849224  0.15897734  0.50152850
   0.83488774  0.83160825  0.39927979
   0.74939580  0.50333677  0.60194115
   0.33238813  0.08544341  0.40070764
   0.00294380  0.24686966  0.60195116
   0.92044402  0.41951664  0.49857743
   0.91313255  0.66778608  0.50137723
   0.65924402  0.67555108  0.50030572
   0.08659388  0.58030876  0.39856892
   0.74953145  0.00152191  0.59626887
   0.83366217  0.58286759  0.40243325
   0.75019681  0.24566525  0.59746488
   0.49699152  0.75381300  0.59554805
   0.41844115  0.91582685  0.50237987
   0.58288397  0.83255784  0.40348945
   0.08319854  0.08345163  0.40228739
   0.25150331  0.75402562  0.59634133
   0.50058442  0.24693536  0.59548749
   0.41752035  0.41472940  0.49821540
   0.57777457  0.33635278  0.40357122
   0.49862798  0.00125055  0.59513282
   0.41583842  0.16804409  0.50216458
   0.33487229  0.58024961  0.40444067
   0.25410714  0.24659354  0.59635153
   0.33447347  0.33463640  0.40437575
   0.25399423 -0.00308026  0.59600663
   0.91781033  0.91759627  0.50131726
   0.08362330  0.83421194  0.40331192
  -0.00006221  0.49981610  0.59775236
   0.08336523  0.33319853  0.40254460
  -0.00095502 -0.00031505  0.59653470
   0.41447363  0.66845329  0.50088323
   0.74794002  0.75219159  0.59725881
Direct configuration=     4
   0.83523995  0.33337460  0.39649066
   0.83557730  0.08211720  0.39755128
   0.57985261  0.08642127  0.39833884
   0.66325167  0.92062734  0.50232609
   0.16871644  0.91626746  0.50103876
   0.33179543  0.83331716  0.39956780
   0.25140108  0.49682316  0.60177681
   0.17065883  0.66659049  0.49886713
   0.66280909  0.16668329  0.50220411
   0.17276751  0.41321294  0.49987452
   0.49841705  0.50088720  0.60110639
   0.66196540  0.41708224  0.50007620
   0.17212464  0.16186836  0.49999586
   0.58169660  0.58373628  0.39823518
  -0.00265442  0.75384876  0.60203435
   0.91758920  0.16323009  0.50122148
   0.83405625  0.83203036  0.39794692
   0.74937489  0.50259855  0.60344146
   0.33205224  0.08505789  0.39914687
   0.00283684  0.24709739  0.60368127
   0.91798736  0.41731609  0.49885884
   0.91601481  0.66875154  0.50122407
   0.66070398  0.67045225  0.50014578
   0.08638222  0.58045877  0.39697636
   0.74912728  0.00150110  0.59777430
   0.83331943  0.58339176  0.40141579
   0.75038909  0.24698051  0.59890467
   0.49797833  0.75302867  0.59693490
   0.41575483  0.91722923  0.50158130
   0.58294790  0.83334190  0.40256662
   0.08382089  0.08342691  0.40150687
   0.25061861  0.75357629  0.59784561
   0.50040581  0.24728334  0.59712002
   0.41494624  0.41639260  0.49880657
   0.57998745  0.33504726  0.40234950
   0.49860853  0.00138335  0.59694558
   0.41785817  0.16613750  0.50155078
   0.33439942  0.58096936  0.40317471
   0.25335091  0.24641087  0.59788681
   0.33359074  0.33475697  0.40318104
   0.25326601 -0.00215329  0.59731445
   0.91619574  0.91552376  0.50090537
   0.08404744  0.83354353  0.40223124
   0.00061203  0.49956135  0.59876405
   0.08385999  0.33304202  0.40132053
  -0.00040833 -0.00015482  0.59819005
   0.41708669  0.66757704  0.50067670
   0.74761980  0.75235211  0.59892549
Direct configuration=     5
   0.83501591  0.33337699  0.39617433
   0.83517370  0.08235929  0.39722872
   0.58027592  0.08619456  0.39806486
   0.66359358  0.92100889  0.50213630
   0.16890280  0.91674969  0.50094494
   0.33167256  0.83348014  0.39929220
   0.25110185  0.49711427  0.60206463
   0.17009881  0.66591836  0.49893956
   0.66315166  0.16612348  0.50199440
   0.17242634  0.41417889  0.49989920
   0.49856044  0.50082457  0.60145043
   0.66268482  0.41737374  0.50008568
   0.17166356  0.16165039  0.49997210
   0.58192176  0.58356525  0.39792712
  -0.00231339  0.75351561  0.60235554
   0.91740655  0.16409027  0.50115938
   0.83388807  0.83211574  0.39767733
   0.74937066  0.50244924  0.60374492
   0.33198430  0.08497992  0.39883118
   0.00281521  0.24714345  0.60403121
   0.91749047  0.41687100  0.49891576
   0.91659780  0.66894682  0.50119309
   0.66099928  0.66942094  0.50011343
   0.08633941  0.58048911  0.39665424
   0.74904554  0.00149689  0.59807880
   0.83325010  0.58349779  0.40121000
   0.75042798  0.24724654  0.59919589
   0.49817793  0.75287003  0.59721542
   0.41521148  0.91751289  0.50141978
   0.58296083  0.83350049  0.40237996
   0.08394677  0.08342191  0.40134900
   0.25043967  0.75348541  0.59814988
   0.50036969  0.24735373  0.59745022
   0.41442559  0.41672901  0.49892614
   0.58043504  0.33478320  0.40210239
   0.49860459  0.00141021  0.59731224
   0.41826670  0.16575186  0.50142663
   0.33430377  0.58111494  0.40291865
   0.25319796  0.24637392  0.59819734
   0.33341219  0.33478135  0.40293939
   0.25311872 -0.00196579  0.59757898
   0.91586917  0.91510456  0.50082205
   0.08413323  0.83340833  0.40201266
   0.00074841  0.49950982  0.59896869
   0.08396006  0.33301036  0.40107294
  -0.00029775 -0.00012241  0.59852487
   0.41761522  0.66739980  0.50063493
   0.74755503  0.75238457  0.59926260
Direct configuration=     6
   0.83462704  0.33323613  0.39568835
   0.83450949  0.08288652  0.39680918
   0.58120967  0.08553020  0.39761034
   0.66443793  0.91850067  0.50152368
   0.16799670  0.91534027  0.50068933
   0.33194083  0.83335208  0.39884095
   0.25053611  0.49801695  0.60257119
   0.16901341  0.66674371  0.49931025
   0.66456251  0.16729279  0.50128962
   0.17014382  0.41463887  0.50006315
   0.49892492  0.50048839  0.60195147
   0.66395913  0.41653999  0.50018883
   0.16980681  0.16474411  0.49995382
   0.58232673  0.58339072  0.39740291
  -0.00141778  0.75260020  0.60288555
   0.91616861  0.16525661  0.50100546
   0.83367046  0.83219752  0.39736526
   0.74981681  0.50172177  0.60418673
   0.33228793  0.08484544  0.39828232
   0.00238911  0.24778003  0.60460002
   0.91732866  0.41639730  0.49918010
   0.91653094  0.66812235  0.50107293
   0.66330793  0.66859151  0.50013271
   0.08546800  0.58108530  0.39605038
   0.74907177  0.00140445  0.59869161
   0.83328524  0.58367257  0.40120172
   0.75042480  0.24816053  0.59946592
   0.49884291  0.75232834  0.59764620
   0.41639194  0.91706687  0.50080956
   0.58296594  0.83382541  0.40234060
   0.08343098  0.08362824  0.40123039
   0.24991053  0.75294969  0.59844156
   0.50028009  0.24800117  0.59797801
   0.41588675  0.41681633  0.49952051
   0.58164870  0.33415262  0.40195075
   0.49907742  0.00093551  0.59805831
   0.41716849  0.16583900  0.50093569
   0.33416730  0.58175353  0.40255433
   0.25240491  0.24672042  0.59853047
   0.33329537  0.33432737  0.40250563
   0.25255136 -0.00151221  0.59817160
   0.91655107  0.91549885  0.50052970
   0.08406052  0.83313487  0.40190321
   0.00066797  0.49934007  0.59898541
   0.08384796  0.33322586  0.40096721
  -0.00007451  0.00005351  0.59887702
   0.41699456  0.66705845  0.50046750
   0.74760216  0.75231911  0.59958256
Direct configuration=     7
   0.83458296  0.33322016  0.39563326
   0.83443420  0.08294628  0.39676162
   0.58131552  0.08545489  0.39755882
   0.66453364  0.91821634  0.50145424
   0.16789399  0.91518050  0.50066036
   0.33197125  0.83333756  0.39878980
   0.25047198  0.49811928  0.60262861
   0.16889037  0.66683728  0.49935227
   0.66472244  0.16742535  0.50120972
   0.16988507  0.41469102  0.50008173
   0.49896623  0.50045028  0.60200827
   0.66410358  0.41644548  0.50020053
   0.16959633  0.16509481  0.49995174
   0.58237264  0.58337094  0.39734349
  -0.00131626  0.75249643  0.60294563
   0.91602828  0.16538882  0.50098801
   0.83364579  0.83220679  0.39732988
   0.74986739  0.50163930  0.60423681
   0.33232235  0.08483020  0.39822010
   0.00234081  0.24785219  0.60466450
   0.91731031  0.41634361  0.49921007
   0.91652336  0.66802889  0.50105931
   0.66356964  0.66849748  0.50013490
   0.08536922  0.58115288  0.39598193
   0.74907474  0.00139397  0.59876108
   0.83328922  0.58369239  0.40120078
   0.75042444  0.24826414  0.59949653
   0.49891829  0.75226694  0.59769503
   0.41652576  0.91701631  0.50074038
   0.58296652  0.83386224  0.40233614
   0.08337251  0.08365163  0.40121695
   0.24985055  0.75288896  0.59847463
   0.50026994  0.24807456  0.59803784
   0.41605238  0.41682623  0.49958789
   0.58178628  0.33408114  0.40193356
   0.49913102  0.00088170  0.59814289
   0.41704400  0.16584887  0.50088003
   0.33415183  0.58182593  0.40251303
   0.25231501  0.24675970  0.59856823
   0.33328213  0.33427591  0.40245645
   0.25248704 -0.00146080  0.59823878
   0.91662836  0.91554355  0.50049656
   0.08405228  0.83310387  0.40189080
   0.00065885  0.49932082  0.59898730
   0.08383526  0.33325029  0.40095523
  -0.00004920  0.00007345  0.59891694
   0.41692420  0.66701975  0.50044852
   0.74760750  0.75231168  0.59961883
Direct configuration=     8
   0.83469619  0.33331063  0.39536538
   0.83476182  0.08269373  0.39654077
   0.58130631  0.08542831  0.39739032
   0.66464365  0.91811055  0.50139607
   0.16754943  0.91545967  0.50065341
   0.33216891  0.83327634  0.39864522
   0.25056381  0.49806868  0.60281808
   0.16900060  0.66668103  0.49949846
   0.66457734  0.16713084  0.50108742
   0.16987426  0.41474958  0.50010986
   0.49897202  0.50052728  0.60219007
   0.66377682  0.41695541  0.50026258
   0.16938255  0.16509977  0.50002921
   0.58245083  0.58346473  0.39719664
  -0.00156733  0.75258199  0.60312973
   0.91661884  0.16458949  0.50098330
   0.83377985  0.83219498  0.39724222
   0.75002985  0.50159656  0.60444329
   0.33236760  0.08486475  0.39801997
   0.00217121  0.24799084  0.60494996
   0.91709304  0.41661101  0.49933983
   0.91638890  0.66763575  0.50103380
   0.66390978  0.66830968  0.50024537
   0.08522396  0.58130904  0.39574396
   0.74911413  0.00144029  0.59869663
   0.83331652  0.58356089  0.40132543
   0.75045796  0.24831319  0.59950441
   0.49899849  0.75207540  0.59764132
   0.41647055  0.91688509  0.50056760
   0.58294375  0.83375054  0.40235752
   0.08302846  0.08373324  0.40134652
   0.24999449  0.75276305  0.59847694
   0.50032473  0.24818879  0.59797157
   0.41636600  0.41667461  0.49990344
   0.58162454  0.33425528  0.40200085
   0.49944462  0.00067796  0.59820744
   0.41700747  0.16610998  0.50071721
   0.33415418  0.58172823  0.40255475
   0.25231079  0.24692806  0.59855784
   0.33340554  0.33428292  0.40249403
   0.25237447 -0.00152722  0.59819741
   0.91654752  0.91625859  0.50045577
   0.08381253  0.83314859  0.40191685
   0.00038527  0.49940926  0.59891950
   0.08354881  0.33343537  0.40101652
  -0.00016747  0.00022511  0.59884152
   0.41690398  0.66683443  0.50038943
   0.74789242  0.75220768  0.59962454
Direct configuration=     9
   0.83477378  0.33337263  0.39518181
   0.83498634  0.08252066  0.39638943
   0.58130000  0.08541010  0.39727486
   0.66471904  0.91803805  0.50135620
   0.16731330  0.91565099  0.50064864
   0.33230436  0.83323439  0.39854613
   0.25062675  0.49803400  0.60294792
   0.16907613  0.66657396  0.49959864
   0.66447791  0.16692902  0.50100360
   0.16986685  0.41478972  0.50012914
   0.49897598  0.50058004  0.60231467
   0.66355289  0.41730485  0.50030511
   0.16923605  0.16510316  0.50008229
   0.58250441  0.58352901  0.39709601
  -0.00173940  0.75264063  0.60325589
   0.91702354  0.16404171  0.50098008
   0.83387172  0.83218689  0.39718215
   0.75014118  0.50156727  0.60458479
   0.33239861  0.08488842  0.39788283
   0.00205499  0.24808586  0.60514559
   0.91694415  0.41679427  0.49942876
   0.91629676  0.66736633  0.50101632
   0.66414288  0.66818098  0.50032108
   0.08512442  0.58141605  0.39558088
   0.74914112  0.00147203  0.59865246
   0.83333524  0.58347077  0.40141086
   0.75048093  0.24834680  0.59950981
   0.49905345  0.75194414  0.59760451
   0.41643272  0.91679517  0.50044919
   0.58292815  0.83367400  0.40237217
   0.08279268  0.08378917  0.40143532
   0.25009313  0.75267677  0.59847853
   0.50036228  0.24826707  0.59792616
   0.41658092  0.41657070  0.50011968
   0.58151371  0.33437462  0.40204696
   0.49965953  0.00053834  0.59825168
   0.41698244  0.16628892  0.50060563
   0.33415579  0.58166129  0.40258334
   0.25230791  0.24704344  0.59855072
   0.33349011  0.33428772  0.40251978
   0.25229732 -0.00157273  0.59816907
   0.91649212  0.91674860  0.50042782
   0.08364824  0.83317924  0.40193470
   0.00019780  0.49946987  0.59887303
   0.08335251  0.33356220  0.40105852
  -0.00024851  0.00032905  0.59878983
   0.41689012  0.66670744  0.50034894
   0.74808766  0.75213640  0.59962845
Direct configuration=    10
   0.83477183  0.33344787  0.39481880
   0.83503083  0.08252859  0.39605970
   0.58133612  0.08540331  0.39702498
   0.66472856  0.91807870  0.50132236
   0.16773547  0.91539149  0.50064032
   0.33223008  0.83325881  0.39840843
   0.25058555  0.49800473  0.60323132
   0.16898475  0.66648219  0.49977963
   0.66438466  0.16683189  0.50085449
   0.17019336  0.41475032  0.50012426
   0.49906913  0.50068529  0.60258285
   0.66361903  0.41723432  0.50038134
   0.16935387  0.16499756  0.50019670
   0.58258353  0.58357845  0.39691825
  -0.00196232  0.75281319  0.60344060
   0.91684461  0.16427650  0.50098015
   0.83390347  0.83210441  0.39709204
   0.75015740  0.50160367  0.60491010
   0.33216811  0.08505721  0.39764348
   0.00206105  0.24808472  0.60554176
   0.91682293  0.41638741  0.49958685
   0.91644223  0.66759248  0.50095766
   0.66378960  0.66837732  0.50049564
   0.08517461  0.58142763  0.39530481
   0.74916500  0.00160274  0.59847941
   0.83333151  0.58341035  0.40156614
   0.75046816  0.24838116  0.59942330
   0.49910945  0.75184550  0.59744660
   0.41625214  0.91671996  0.50026601
   0.58301728  0.83353115  0.40240847
   0.08270083  0.08384210  0.40159204
   0.25016638  0.75265159  0.59844217
   0.50048816  0.24823749  0.59779056
   0.41666038  0.41646062  0.50054252
   0.58143981  0.33455255  0.40219706
   0.49985902  0.00038735  0.59817763
   0.41689901  0.16635115  0.50043557
   0.33408265  0.58157302  0.40273091
   0.25241826  0.24706191  0.59847801
   0.33347965  0.33447672  0.40264094
   0.25235567 -0.00165757  0.59803032
   0.91634371  0.91667815  0.50039765
   0.08366895  0.83304146  0.40200895
   0.00012179  0.49954492  0.59882370
   0.08320423  0.33365485  0.40120553
  -0.00034017  0.00037083  0.59872299
   0.41679919  0.66680702  0.50026955
   0.74830047  0.75207692  0.59962747
Direct configuration=    11
   0.83476926  0.33354697  0.39434063
   0.83508942  0.08253904  0.39562538
   0.58138369  0.08539438  0.39669584
   0.66474109  0.91813224  0.50127778
   0.16829154  0.91504968  0.50062935
   0.33213224  0.83329097  0.39822705
   0.25053128  0.49796617  0.60360462
   0.16886438  0.66636132  0.50001803
   0.66426184  0.16670395  0.50065807
   0.17062344  0.41469842  0.50011783
   0.49919184  0.50082392  0.60293609
   0.66370616  0.41714142  0.50048176
   0.16950907  0.16485847  0.50034739
   0.58268775  0.58364357  0.39668410
  -0.00225596  0.75304048  0.60368390
   0.91660892  0.16458576  0.50098024
   0.83394529  0.83199576  0.39697335
   0.75017877  0.50165163  0.60533858
   0.33186450  0.08527955  0.39732821
   0.00206904  0.24808322  0.60606360
   0.91666326  0.41585150  0.49979508
   0.91663385  0.66789035  0.50088040
   0.66332428  0.66863593  0.50072558
   0.08524072  0.58144289  0.39494118
   0.74919646  0.00177489  0.59825146
   0.83332661  0.58333076  0.40177067
   0.75045134  0.24842642  0.59930935
   0.49918320  0.75171557  0.59723860
   0.41601427  0.91662088  0.50002472
   0.58313467  0.83334299  0.40245627
   0.08257984  0.08391181  0.40179847
   0.25026286  0.75261843  0.59839428
   0.50065398  0.24819853  0.59761196
   0.41676504  0.41631562  0.50109947
   0.58134248  0.33478692  0.40239477
   0.50012179  0.00018848  0.59808010
   0.41678912  0.16643311  0.50021157
   0.33398630  0.58145676  0.40292530
   0.25256362  0.24708625  0.59838223
   0.33346588  0.33472567  0.40280052
   0.25243253 -0.00176930  0.59784755
   0.91614823  0.91658535  0.50035792
   0.08369623  0.83285997  0.40210675
   0.00002167  0.49964379  0.59875871
   0.08300892  0.33377690  0.40139918
  -0.00046091  0.00042586  0.59863494
   0.41667941  0.66693818  0.50016498
   0.74858078  0.75199858  0.59962619
Direct configuration=    12
   0.83449474  0.33354390  0.39399849
   0.83481602  0.08281679  0.39528917
   0.58133139  0.08540898  0.39640488
   0.66434024  0.91818401  0.50118950
   0.16804715  0.91488757  0.50057839
   0.33187968  0.83333678  0.39808269
   0.25033026  0.49816508  0.60395016
   0.16889442  0.66642782  0.50018298
   0.66444817  0.16687571  0.50040976
   0.17023616  0.41480121  0.50011335
   0.49917276  0.50089018  0.60322623
   0.66363180  0.41697688  0.50053777
   0.16956676  0.16498133  0.50043178
   0.58259455  0.58360704  0.39657421
  -0.00198226  0.75303219  0.60382499
   0.91627128  0.16468143  0.50094724
   0.83384186  0.83195497  0.39688406
   0.75014156  0.50176367  0.60571990
   0.33168145  0.08544045  0.39710206
   0.00237845  0.24787023  0.60649118
   0.91684497  0.41599638  0.49996892
   0.91674699  0.66762857  0.50081413
   0.66346893  0.66848968  0.50081446
   0.08534581  0.58124104  0.39472529
   0.74916336  0.00189848  0.59805595
   0.83336195  0.58333358  0.40200350
   0.75043614  0.24853263  0.59917670
   0.49917758  0.75187157  0.59711207
   0.41615260  0.91689376  0.49979951
   0.58312241  0.83346941  0.40248853
   0.08266242  0.08393282  0.40193894
   0.25010008  0.75264451  0.59839105
   0.50069055  0.24807257  0.59753145
   0.41666311  0.41663936  0.50148018
   0.58148929  0.33482220  0.40261962
   0.49997822  0.00025529  0.59782633
   0.41694613  0.16583097  0.50004146
   0.33402024  0.58149931  0.40322833
   0.25272327  0.24684982  0.59829294
   0.33343597  0.33482473  0.40293370
   0.25262515 -0.00170683  0.59772831
   0.91641781  0.91627831  0.50027087
   0.08388716  0.83268365  0.40226406
   0.00031356  0.49960036  0.59870824
   0.08307509  0.33380470  0.40164908
  -0.00030121  0.00034295  0.59855173
   0.41682580  0.66656982  0.50003663
   0.74851016  0.75205415  0.59960925
Direct configuration=    13
   0.83442425  0.33354311  0.39391064
   0.83474583  0.08288810  0.39520284
   0.58131796  0.08541273  0.39633017
   0.66423731  0.91819730  0.50116683
   0.16798440  0.91484595  0.50056530
   0.33181484  0.83334854  0.39804563
   0.25027865  0.49821615  0.60403888
   0.16890213  0.66644490  0.50022533
   0.66449601  0.16691982  0.50034600
   0.17013672  0.41482760  0.50011219
   0.49916786  0.50090720  0.60330073
   0.66361271  0.41693463  0.50055215
   0.16958158  0.16501287  0.50045345
   0.58257062  0.58359766  0.39654600
  -0.00191198  0.75303006  0.60386122
   0.91618458  0.16470600  0.50093877
   0.83381530  0.83194450  0.39686114
   0.75013200  0.50179244  0.60581782
   0.33163445  0.08548176  0.39704400
   0.00245790  0.24781554  0.60660097
   0.91689162  0.41603358  0.50001355
   0.91677605  0.66756136  0.50079711
   0.66350607  0.66845212  0.50083728
   0.08537279  0.58118921  0.39466986
   0.74915486  0.00193022  0.59800575
   0.83337103  0.58333431  0.40206328
   0.75043223  0.24855990  0.59914264
   0.49917613  0.75191163  0.59707959
   0.41618812  0.91696383  0.49974168
   0.58311926  0.83350188  0.40249681
   0.08268362  0.08393822  0.40197501
   0.25005828  0.75265121  0.59839022
   0.50069995  0.24804022  0.59751078
   0.41663694  0.41672248  0.50157793
   0.58152699  0.33483125  0.40267735
   0.49994136  0.00027244  0.59776117
   0.41698644  0.16567636  0.49999778
   0.33402895  0.58151024  0.40330614
   0.25276427  0.24678912  0.59827001
   0.33342829  0.33485016  0.40296790
   0.25267461 -0.00169079  0.59769769
   0.91648703  0.91619947  0.50024852
   0.08393619  0.83263838  0.40230445
   0.00038851  0.49958921  0.59869528
   0.08309209  0.33381184  0.40171325
  -0.00026021  0.00032167  0.59853037
   0.41686338  0.66647524  0.50000367
   0.74849203  0.75206842  0.59960490
Direct configuration=    14
   0.83433668  0.33355469  0.39374876
   0.83468333  0.08286522  0.39497796
   0.58119229  0.08548724  0.39611462
   0.66451083  0.91809529  0.50104130
   0.16776791  0.91511232  0.50053445
   0.33179350  0.83339231  0.39796064
   0.25034995  0.49820895  0.60431051
   0.16894803  0.66625445  0.50034726
   0.66450581  0.16676209  0.50013967
   0.17014219  0.41489068  0.50015374
   0.49899650  0.50100845  0.60350793
   0.66372439  0.41714765  0.50060773
   0.16926892  0.16496602  0.50046694
   0.58244031  0.58369273  0.39654831
  -0.00177855  0.75302358  0.60389875
   0.91632160  0.16468157  0.50086513
   0.83382678  0.83201510  0.39680958
   0.75022648  0.50180744  0.60610064
   0.33165994  0.08550203  0.39688371
   0.00264250  0.24770832  0.60687006
   0.91683135  0.41610819  0.50018652
   0.91661018  0.66760172  0.50079075
   0.66381455  0.66798359  0.50082077
   0.08544819  0.58108574  0.39459412
   0.74919320  0.00189785  0.59781327
   0.83333452  0.58326975  0.40222765
   0.75052132  0.24865491  0.59905535
   0.49904560  0.75210029  0.59699952
   0.41610073  0.91693554  0.49950086
   0.58289777  0.83368980  0.40247239
   0.08257692  0.08406654  0.40203851
   0.25007759  0.75273236  0.59842291
   0.50060797  0.24798963  0.59746759
   0.41620767  0.41685018  0.50179127
   0.58151289  0.33477624  0.40284311
   0.49975163  0.00040078  0.59752848
   0.41715773  0.16558149  0.49984593
   0.33408675  0.58151240  0.40358957
   0.25289930  0.24669468  0.59822284
   0.33356213  0.33480243  0.40309994
   0.25284215 -0.00173216  0.59761219
   0.91645623  0.91597347  0.50014081
   0.08379579  0.83265695  0.40240943
   0.00059599  0.49947396  0.59872727
   0.08305407  0.33379159  0.40190404
  -0.00005941  0.00030560  0.59849193
   0.41709163  0.66642185  0.49995299
   0.74842618  0.75219848  0.59956232
Direct configuration=    15
   0.83431874  0.33355707  0.39371558
   0.83467053  0.08286053  0.39493188
   0.58116654  0.08550251  0.39607045
   0.66456687  0.91807438  0.50101558
   0.16772355  0.91516690  0.50052813
   0.33178913  0.83340128  0.39794323
   0.25036456  0.49820747  0.60436616
   0.16895744  0.66621543  0.50037225
   0.66450782  0.16672976  0.50009739
   0.17014331  0.41490361  0.50016225
   0.49896139  0.50102920  0.60355039
   0.66374727  0.41719130  0.50061912
   0.16920485  0.16495642  0.50046970
   0.58241361  0.58371221  0.39654878
  -0.00175121  0.75302225  0.60390645
   0.91634968  0.16467656  0.50085004
   0.83382913  0.83202956  0.39679901
   0.75024584  0.50181051  0.60615859
   0.33166516  0.08550618  0.39685086
   0.00268032  0.24768635  0.60692520
   0.91681899  0.41612348  0.50022196
   0.91657619  0.66760999  0.50078945
   0.66387776  0.66788758  0.50081738
   0.08546364  0.58106454  0.39457860
   0.74920105  0.00189122  0.59777383
   0.83332704  0.58325652  0.40226133
   0.75053958  0.24867437  0.59903747
   0.49901885  0.75213895  0.59698312
   0.41608282  0.91692975  0.49945151
   0.58285238  0.83372831  0.40246738
   0.08255506  0.08409284  0.40205152
   0.25008155  0.75274899  0.59842961
   0.50058913  0.24797926  0.59745874
   0.41611970  0.41687635  0.50183498
   0.58151000  0.33476496  0.40287708
   0.49971275  0.00042708  0.59748080
   0.41719283  0.16556205  0.49981481
   0.33409859  0.58151284  0.40364765
   0.25292697  0.24667533  0.59821317
   0.33358956  0.33479265  0.40312700
   0.25287648 -0.00174064  0.59759466
   0.91644992  0.91592716  0.50011874
   0.08376702  0.83266076  0.40243094
   0.00063851  0.49945035  0.59873383
   0.08304628  0.33378744  0.40194313
  -0.00001827  0.00030231  0.59848406
   0.41713840  0.66641091  0.49994260
   0.74841269  0.75222513  0.59955360
Direct configuration=    16
   0.83432670  0.33359686  0.39371881
   0.83477117  0.08273262  0.39481738
   0.58114799  0.08550789  0.39590817
   0.66483217  0.91777434  0.50085833
   0.16784992  0.91502431  0.50052764
   0.33173119  0.83348410  0.39790804
   0.25051190  0.49807167  0.60453459
   0.16884684  0.66630651  0.50046985
   0.66443442  0.16680022  0.50000631
   0.17024936  0.41473590  0.50025575
   0.49897770  0.50107822  0.60365777
   0.66375852  0.41709818  0.50069695
   0.16914508  0.16503599  0.50046717
   0.58239398  0.58378625  0.39660634
  -0.00180040  0.75304305  0.60386513
   0.91625172  0.16471731  0.50078471
   0.83385049  0.83199993  0.39675200
   0.75029264  0.50183864  0.60634066
   0.33163463  0.08553569  0.39676651
   0.00270310  0.24770050  0.60701174
   0.91684379  0.41591737  0.50039518
   0.91656314  0.66766287  0.50083262
   0.66383583  0.66799739  0.50079397
   0.08544903  0.58110723  0.39461823
   0.74929927  0.00184875  0.59764181
   0.83325203  0.58323128  0.40231490
   0.75060789  0.24870890  0.59896284
   0.49903545  0.75209164  0.59691628
   0.41613768  0.91665412  0.49926886
   0.58276670  0.83376990  0.40239534
   0.08240570  0.08416669  0.40199292
   0.25021381  0.75282252  0.59844358
   0.50062373  0.24798873  0.59742719
   0.41619978  0.41667812  0.50193824
   0.58141088  0.33476600  0.40297094
   0.49973784  0.00046276  0.59730720
   0.41704504  0.16574893  0.49970633
   0.33406959  0.58152786  0.40381036
   0.25292422  0.24675543  0.59817851
   0.33363361  0.33478703  0.40320217
   0.25293472 -0.00181068  0.59754708
   0.91640167  0.91597410  0.50003273
   0.08361161  0.83271851  0.40247614
   0.00066479  0.49939824  0.59883568
   0.08293629  0.33380373  0.40205117
  -0.00003510  0.00040441  0.59848475
   0.41709076  0.66666648  0.50000624
   0.74843114  0.75228352  0.59949491
Direct configuration=    17
   0.83432924  0.33360955  0.39371983
   0.83480327  0.08269181  0.39478086
   0.58114207  0.08550960  0.39585640
   0.66491680  0.91767864  0.50080817