       N       E                     dE             d eps       ncg     rms          rms(c)
DAV:   1     0.320036817663E+04    0.32004E+04   -0.18985E+05  3672   0.112E+03
DAV:   2     0.119142583827E+02   -0.31885E+04   -0.29314E+04  4404   0.263E+02
DAV:   3    -0.201777916649E+03   -0.21369E+03   -0.19897E+03  4128   0.650E+01
DAV:   4    -0.207527454126E+03   -0.57495E+01   -0.56855E+01  4236   0.108E+01
DAV:   5    -0.207714296725E+03   -0.18684E+00   -0.18630E+00  4452   0.196E+00    0.624E+01
RMM:   6    -0.216558758628E+03   -0.88445E+01   -0.11301E+02  3676   0.161E+01    0.656E+01
RMM:   7    -0.212224642316E+03    0.43341E+01   -0.57179E+01  3680   0.117E+01    0.518E+01
RMM:   8    -0.216061763696E+03   -0.38371E+01   -0.90893E+01  3672   0.140E+01    0.432E+01
RMM:   9    -0.213948692182E+03    0.21131E+01   -0.53762E+01  3679   0.116E+01    0.389E+01
RMM:  10    -0.200946499454E+03    0.13002E+02   -0.23154E+01  3679   0.800E+00    0.227E+01
RMM:  11    -0.195273181796E+03    0.56733E+01   -0.16596E+01  3681   0.653E+00    0.189E+01
RMM:  12    -0.190487097030E+03    0.47861E+01   -0.60706E+00  3681   0.391E+00    0.117E+01
RMM:  13    -0.189124949213E+03    0.13621E+01   -0.17297E+00  3679   0.200E+00    0.769E+00
RMM:  14    -0.189016510340E+03    0.10844E+00   -0.66553E-01  3679   0.121E+00    0.704E+00
RMM:  15    -0.188916662750E+03    0.99848E-01   -0.31824E-01  3680   0.883E-01    0.581E+00
RMM:  16    -0.189052084602E+03   -0.13542E+00   -0.52454E-01  3680   0.111E+00    0.658E+00
RMM:  17    -0.188673349817E+03    0.37873E+00   -0.38281E-01  3680   0.960E-01    0.323E+00
RMM:  18    -0.188572354517E+03    0.10100E+00   -0.18450E-01  3679   0.646E-01    0.183E+00
RMM:  19    -0.188541658596E+03    0.30696E-01   -0.37995E-02  3680   0.287E-01    0.100E+00
RMM:  20    -0.188534958792E+03    0.66998E-02   -0.73210E-03  3680   0.127E-01    0.780E-01
RMM:  21    -0.188533681620E+03    0.12772E-02   -0.62692E-03  3681   0.120E-01    0.707E-01
RMM:  22    -0.188532230376E+03    0.14512E-02   -0.64636E-03  3681   0.123E-01    0.588E-01
RMM:  23    -0.188529344613E+03    0.28858E-02   -0.36261E-03  3679   0.920E-02    0.307E-01
RMM:  24    -0.188528542321E+03    0.80229E-03   -0.14924E-03  3679   0.578E-02    0.166E-01
RMM:  25    -0.188528501515E+03    0.40805E-04   -0.44100E-04  3683   0.324E-02    0.113E-01
RMM:  26    -0.188528709567E+03   -0.20805E-03   -0.22185E-04  3679   0.221E-02    0.805E-02
RMM:  27    -0.188528964565E+03   -0.25500E-03   -0.14958E-04  3678   0.179E-02    0.620E-02
RMM:  28    -0.188529307129E+03   -0.34256E-03   -0.70182E-05  3672   0.124E-02    0.315E-02
RMM:  29    -0.188529623942E+03   -0.31681E-03   -0.34673E-05  3671   0.813E-03    0.335E-02
RMM:  30    -0.188530089327E+03   -0.46539E-03   -0.32500E-05  3648   0.856E-03    0.227E-02
RMM:  31    -0.188530632303E+03   -0.54298E-03   -0.33286E-05  3663   0.759E-03    0.244E-02
RMM:  32    -0.188531340118E+03   -0.70781E-03   -0.49737E-05  3669   0.916E-03    0.171E-02
RMM:  33    -0.188531581429E+03   -0.24131E-03   -0.16628E-05  3117   0.498E-03    0.128E-02
RMM:  34    -0.188531729435E+03   -0.14801E-03   -0.82042E-06  2783   0.366E-03    0.520E-03
RMM:  35    -0.188531813783E+03   -0.84348E-04   -0.33086E-06  2509   0.227E-03    0.429E-03
RMM:  36    -0.188531872075E+03   -0.58292E-04   -0.13718E-06  2238   0.165E-03    0.259E-03
RMM:  37    -0.188531930853E+03   -0.58778E-04   -0.93145E-07  2175   0.128E-03    0.306E-03
RMM:  38    -0.188531952185E+03   -0.21332E-04   -0.42929E-07  2057   0.858E-04    0.200E-03
RMM:  39    -0.188531974318E+03   -0.22133E-04   -0.46493E-07  1989   0.847E-04    0.131E-03
RMM:  40    -0.188531980685E+03   -0.63673E-05   -0.19077E-07  1383   0.553E-04    0.939E-04
RMM:  41    -0.188531984500E+03   -0.38144E-05   -0.12924E-07  1419   0.509E-04    0.625E-04
RMM:  42    -0.188531985729E+03   -0.12293E-05   -0.36932E-08   886   0.362E-04    0.528E-04
RMM:  43    -0.188531987203E+03   -0.14741E-05   -0.26485E-08   758   0.347E-04    0.342E-04
RMM:  44    -0.188531988346E+03   -0.11434E-05   -0.35218E-08   734   0.346E-04    0.329E-04
RMM:  45    -0.188531989240E+03   -0.89349E-06   -0.13454E-08   576   0.344E-04
   1 F= -.18853199E+03 E0= -.18840902E+03  d E =-.188532E+03
       N       E                     dE             d eps       ncg     rms          rms(c)
DAV:   1    -0.189667407986E+03   -0.11354E+01   -0.39917E+02  3672   0.306E+01    0.396E+00
RMM:   2    -0.190081645400E+03   -0.41424E+00   -0.41774E+00  3679   0.443E+00    0.254E+00
RMM:   3    -0.190248719285E+03   -0.16707E+00   -0.45949E-01  3702   0.117E+00    0.468E+00
RMM:   4    -0.190065857795E+03    0.18286E+00   -0.20820E-01  3687   0.762E-01    0.165E+00
RMM:   5    -0.190083570497E+03   -0.17713E-01   -0.10680E-01  3681   0.518E-01    0.192E+00
RMM:   6    -0.190052910581E+03    0.30660E-01   -0.46022E-02  3685   0.351E-01    0.903E-01
RMM:   7    -0.190047123591E+03    0.57870E-02   -0.13440E-02  3683   0.177E-01    0.621E-01
RMM:   8    -0.190043799771E+03    0.33238E-02   -0.54075E-03  3680   0.112E-01    0.339E-01
RMM:   9    -0.190042323510E+03    0.14763E-02   -0.26619E-03  3684   0.790E-02    0.143E-01
RMM:  10    -0.190042235290E+03    0.88219E-04   -0.69352E-04  3685   0.413E-02    0.116E-01
RMM:  11    -0.190042139195E+03    0.96095E-04   -0.19686E-04  3688   0.224E-02    0.665E-02
RMM:  12    -0.190042130090E+03    0.91055E-05   -0.59899E-05  3681   0.124E-02    0.531E-02
RMM:  13    -0.190042117956E+03    0.12134E-04   -0.34965E-05  3677   0.968E-03    0.333E-02
RMM:  14    -0.190042111510E+03    0.64458E-05   -0.18180E-05  3661   0.688E-03    0.169E-02
RMM:  15    -0.190042109170E+03    0.23405E-05   -0.55483E-06  2953   0.383E-03    0.501E-03
RMM:  16    -0.190042109831E+03   -0.66176E-06   -0.10128E-06  2027   0.172E-03
   2 F= -.19004211E+03 E0= -.18991806E+03  d E =-.151012E+01
       N       E                     dE             d eps       ncg     rms          rms(c)
DAV:   1    -0.188461385888E+03    0.15807E+01   -0.35246E+03  3672   0.934E+01    0.923E+00
RMM:   2    -0.191961211290E+03   -0.34998E+01   -0.35009E+01  3678   0.129E+01    0.626E+00
RMM:   3    -0.192760778156E+03   -0.79957E+00   -0.29897E+00  3709   0.296E+00    0.112E+01
RMM:   4    -0.191747990138E+03    0.10128E+01   -0.10746E+00  3684   0.173E+00    0.422E+00
RMM:   5    -0.192022848278E+03   -0.27486E+00   -0.62647E-01  3685   0.121E+00    0.663E+00
RMM:   6    -0.191969221883E+03    0.53626E-01   -0.56045E-01  3682   0.114E+00    0.566E+00
RMM:   7    -0.191620538839E+03    0.34868E+00   -0.27207E-01  3681   0.833E-01    0.151E+00
RMM:   8    -0.191600864643E+03    0.19674E-01   -0.83365E-02  3681   0.445E-01    0.126E+00
RMM:   9    -0.191583500487E+03    0.17364E-01   -0.31001E-02  3683   0.273E-01    0.586E-01
RMM:  10    -0.191580718399E+03    0.27821E-02   -0.73548E-03  3683   0.135E-01    0.328E-01
RMM:  11    -0.191580347722E+03    0.37068E-03   -0.22870E-03  3685   0.748E-02    0.234E-01
RMM:  12    -0.191580116514E+03    0.23121E-03   -0.12180E-03  3683   0.552E-02    0.185E-01
RMM:  13    -0.191579935896E+03    0.18062E-03   -0.46244E-04  3682   0.346E-02    0.109E-01
RMM:  14    -0.191579839945E+03    0.95952E-04   -0.19704E-04  3679   0.225E-02    0.481E-02
RMM:  15    -0.191579831817E+03    0.81277E-05   -0.49809E-05  3679   0.113E-02    0.292E-02
RMM:  16    -0.191579827333E+03    0.44844E-05   -0.17334E-05  3658   0.669E-03    0.139E-02
RMM:  17    -0.191579830276E+03   -0.29434E-05   -0.43049E-06  2749   0.334E-03    0.110E-02
RMM:  18    -0.191579832209E+03   -0.19329E-05   -0.19683E-06  2228   0.246E-03    0.581E-03
RMM:  19    -0.191579836051E+03   -0.38423E-05   -0.74397E-07  2064   0.152E-03    0.338E-03
RMM:  20    -0.191579838084E+03   -0.20331E-05   -0.26727E-07  2003   0.931E-04    0.145E-03
RMM:  21    -0.191579840820E+03   -0.27356E-05   -0.95024E-08  1249   0.511E-04    0.113E-03
RMM:  22    -0.191579842872E+03   -0.20518E-05   -0.49979E-08   922   0.444E-04    0.585E-04
RMM:  23    -0.191579845894E+03   -0.30225E-05   -0.10725E-07  1418   0.495E-04    0.553E-04
RMM:  24    -0.191579849002E+03   -0.31081E-05   -0.13250E-07  1377   0.496E-04    0.569E-04
RMM:  25    -0.191579850743E+03   -0.17409E-05   -0.10025E-07  1175   0.432E-04    0.426E-04
RMM:  26    -0.191579851815E+03   -0.10720E-05   -0.76449E-08   961   0.389E-04    0.332E-04
RMM:  27    -0.191579852313E+03   -0.49714E-06   -0.46554E-08   763   0.351E-04
   3 F= -.19157985E+03 E0= -.19145403E+03  d E =-.304786E+01
       N       E                     dE             d eps       ncg     rms          rms(c)
DAV:   1    -0.191737318916E+03   -0.15747E+00   -0.40508E+02  3672   0.312E+01    0.278E+00
RMM:   2    -0.192171541110E+03   -0.43422E+00   -0.45684E+00  3682   0.456E+00    0.179E+00
RMM:   3    -0.192259541138E+03   -0.88000E-01   -0.33172E-01  3714   0.100E+00    0.355E+00
RMM:   4    -0.192165315815E+03    0.94225E-01   -0.89168E-02  3683   0.502E-01    0.145E+00
RMM:   5    -0.192172175899E+03   -0.68601E-02   -0.47776E-02  3684   0.332E-01    0.161E+00
RMM:   6    -0.192152826469E+03    0.19349E-01   -0.54973E-02  3682   0.369E-01    0.965E-01
RMM:   7    -0.192144644332E+03    0.81821E-02   -0.17866E-02  3681   0.213E-01    0.482E-01
RMM:   8    -0.192142292982E+03    0.23513E-02   -0.55230E-03  3682   0.120E-01    0.291E-01
RMM:   9    -0.192141391580E+03    0.90140E-03   -0.21439E-03  3680   0.722E-02    0.163E-01
RMM:  10    -0.192141116805E+03    0.27478E-03   -0.53227E-04  3682   0.355E-02    0.723E-02
RMM:  11    -0.192141083923E+03    0.32882E-04   -0.15824E-04  3684   0.196E-02    0.468E-02
RMM:  12    -0.192141070114E+03    0.13809E-04   -0.70339E-05  3682   0.132E-02    0.283E-02
RMM:  13    -0.192141071304E+03   -0.11902E-05   -0.22463E-05  3678   0.758E-03    0.227E-02
RMM:  14    -0.192141068902E+03    0.24020E-05   -0.63590E-06  3105   0.432E-03    0.103E-02
RMM:  15    -0.192141069180E+03   -0.27726E-06   -0.18043E-06  2152   0.231E-03
   4 F= -.19214107E+03 E0= -.19202133E+03  d E =-.561217E+00
       N       E                     dE             d eps       ncg     rms          rms(c)
DAV:   1    -0.192117960599E+03    0.23108E-01   -0.72266E+01  3744   0.131E+01    0.105E+00
RMM:   2    -0.192197286361E+03   -0.79326E-01   -0.83055E-01  3681   0.194E+00    0.768E-01
RMM:   3    -0.192212567528E+03   -0.15281E-01   -0.61208E-02  3718   0.430E-01    0.146E+00
RMM:   4    -0.192195608658E+03    0.16959E-01   -0.14510E-02  3682   0.202E-01    0.606E-01
RMM:   5    -0.192194265703E+03    0.13430E-02   -0.59116E-03  3686   0.119E-01    0.510E-01
RMM:   6    -0.192193154869E+03    0.11108E-02   -0.10158E-02  3681   0.159E-01    0.402E-01
RMM:   7    -0.192191881138E+03    0.12737E-02   -0.35395E-03  3681   0.943E-02    0.209E-01
RMM:   8    -0.192191454445E+03    0.42669E-03   -0.94741E-04  3683   0.500E-02    0.126E-01
RMM:   9    -0.192191266523E+03    0.18792E-03   -0.39148E-04  3679   0.310E-02    0.647E-02
RMM:  10    -0.192191219046E+03    0.47478E-04   -0.10241E-04  3679   0.154E-02    0.286E-02
RMM:  11    -0.192191214596E+03    0.44494E-05   -0.31670E-05  3685   0.861E-03    0.200E-02
RMM:  12    -0.192191213119E+03    0.14772E-05   -0.15020E-05  3677   0.601E-03    0.112E-02
RMM:  13    -0.192191214615E+03   -0.14954E-05   -0.42007E-06  2711   0.337E-03    0.931E-03
RMM:  14    -0.192191214997E+03   -0.38253E-06   -0.12382E-06  2042   0.212E-03
   5 F= -.19219121E+03 E0= -.19207374E+03  d E =-.611363E+00
       N       E                     dE             d eps       ncg     rms          rms(c)
DAV:   1    -0.192210568947E+03   -0.19354E-01   -0.56417E+01  3672   0.116E+01    0.972E-01
RMM:   2    -0.192270945163E+03   -0.60376E-01   -0.64462E-01  3683   0.170E+00    0.647E-01
RMM:   3    -0.192288331274E+03   -0.17386E-01   -0.44667E-02  3711   0.362E-01    0.140E+00
RMM:   4    -0.192269927198E+03    0.18404E-01   -0.12245E-02  3681   0.181E-01    0.489E-01
RMM:   5    -0.192270182608E+03   -0.25541E-03   -0.67038E-03  3681   0.128E-01    0.484E-01
RMM:   6    -0.192268409193E+03    0.17734E-02   -0.69506E-03  3682   0.132E-01    0.274E-01
RMM:   7    -0.192267753810E+03    0.65538E-03   -0.19345E-03  3680   0.702E-02    0.144E-01
RMM:   8    -0.192267511707E+03    0.24210E-03   -0.50128E-04  3680   0.364E-02    0.796E-02
RMM:   9    -0.192267429387E+03    0.82320E-04   -0.20264E-04  3679   0.223E-02    0.463E-02
RMM:  10    -0.192267404989E+03    0.24398E-04   -0.47789E-05  3683   0.106E-02    0.202E-02
RMM:  11    -0.192267402740E+03    0.22492E-05   -0.18915E-05  3676   0.668E-03    0.175E-02
RMM:  12    -0.192267400698E+03    0.20418E-05   -0.10311E-05  3672   0.496E-03    0.730E-03
RMM:  13    -0.192267401437E+03   -0.73957E-06   -0.23893E-06  2269   0.260E-03
   6 F= -.19226740E+03 E0= -.19215176E+03  d E =-.761864E-01
       N       E                     dE             d eps       ncg     rms          rms(c)
DAV:   1    -0.192266954379E+03    0.44632E-03   -0.40434E+00  3744   0.311E+00    0.253E-01
RMM:   2    -0.192271267388E+03   -0.43130E-02   -0.46274E-02  3683   0.457E-01    0.176E-01
RMM:   3    -0.192272534705E+03   -0.12673E-02   -0.32636E-03  3712   0.977E-02    0.375E-01
RMM:   4    -0.192271148580E+03    0.13861E-02   -0.88017E-04  3678   0.486E-02    0.128E-01
RMM:   5    -0.192271194802E+03   -0.46223E-04   -0.46123E-04  3681   0.337E-02    0.126E-01
RMM:   6    -0.192271087896E+03    0.10691E-03   -0.50923E-04  3683   0.357E-02    0.743E-02
RMM:   7    -0.192271040246E+03    0.47650E-04   -0.14449E-04  3681   0.192E-02    0.379E-02
RMM:   8    -0.192271023935E+03    0.16311E-04   -0.35479E-05  3678   0.970E-03    0.210E-02
RMM:   9    -0.192271018316E+03    0.56195E-05   -0.14329E-05  3673   0.591E-03    0.128E-02
RMM:  10    -0.192271016337E+03    0.19783E-05   -0.33914E-06  2530   0.292E-03    0.563E-03
RMM:  11    -0.192271016241E+03    0.96545E-07   -0.15603E-06  1974   0.219E-03
   7 F= -.19227102E+03 E0= -.19215584E+03  d E =-.798012E-01
       N       E                     dE             d eps       ncg     rms          rms(c)
DAV:   1    -0.192275821782E+03   -0.48054E-02   -0.66730E+00  3684   0.399E+00    0.251E-01
RMM:   2    -0.192283160016E+03   -0.73382E-02   -0.76749E-02  3681   0.590E-01    0.237E-01
RMM:   3    -0.192283410671E+03   -0.25066E-03   -0.51124E-03  3724   0.126E-01    0.255E-01
RMM:   4    -0.192282938763E+03    0.47191E-03   -0.85034E-04  3675   0.496E-02    0.171E-01
RMM:   5    -0.192282919532E+03    0.19231E-04   -0.38085E-04  3683   0.303E-02    0.161E-01
RMM:   6    -0.192282764863E+03    0.15467E-03   -0.76090E-04  3680   0.421E-02    0.124E-01
RMM:   7    -0.192282685695E+03    0.79168E-04   -0.52055E-04  3683   0.356E-02    0.808E-02
RMM:   8    -0.192282632350E+03    0.53345E-04   -0.11200E-04  3680   0.170E-02    0.355E-02
RMM:   9    -0.192282620051E+03    0.12298E-04   -0.27419E-05  3675   0.814E-03    0.306E-02
RMM:  10    -0.192282605597E+03    0.14454E-04   -0.22033E-05  3675   0.728E-03    0.134E-02
RMM:  11    -0.192282603562E+03    0.20354E-05   -0.80341E-06  3607   0.425E-03    0.834E-03
RMM:  12    -0.192282602767E+03    0.79467E-06   -0.56283E-06  3340   0.357E-03
   8 F= -.19228260E+03 E0= -.19216737E+03  d E =-.115865E-01
       N       E                     dE             d eps       ncg     rms          rms(c)
DAV:   1    -0.192280268552E+03    0.23350E-02   -0.66046E+00  3672   0.397E+00    0.247E-01
RMM:   2    -0.192287529307E+03   -0.72608E-02   -0.75888E-02  3681   0.587E-01    0.234E-01
RMM:   3    -0.192287770553E+03   -0.24125E-03   -0.50326E-03  3725   0.125E-01    0.252E-01
RMM:   4    -0.192287314840E+03    0.45571E-03   -0.82428E-04  3675   0.488E-02    0.170E-01
RMM:   5    -0.192287272243E+03    0.42597E-04   -0.36178E-04  3684   0.296E-02    0.156E-01
RMM:   6    -0.192287128068E+03    0.14418E-03   -0.75659E-04  3680   0.419E-02    0.121E-01
RMM:   7    -0.192287056471E+03    0.71597E-04   -0.51478E-04  3683   0.354E-02    0.807E-02
RMM:   8    -0.192287003553E+03    0.52917E-04   -0.11099E-04  3680   0.169E-02    0.351E-02
RMM:   9    -0.192286991635E+03    0.11918E-04   -0.26806E-05  3675   0.803E-03    0.309E-02
RMM:  10    -0.192286977105E+03    0.14530E-04   -0.21384E-05  3672   0.718E-03    0.133E-02
RMM:  11    -0.192286975159E+03    0.19462E-05   -0.84704E-06  3636   0.435E-03    0.856E-03
RMM:  12    -0.192286974376E+03    0.78243E-06   -0.54822E-06  3281   0.353E-03
   9 F= -.19228697E+03 E0= -.19217168E+03  d E =-.159581E-01
       N       E                     dE             d eps       ncg     rms          rms(c)
DAV:   1    -0.192289029168E+03   -0.20540E-02   -0.80344E+00  3672   0.437E+00    0.224E-01
RMM:   2    -0.192298798395E+03   -0.97692E-02   -0.92888E-02  3680   0.651E-01    0.394E-01
RMM:   3    -0.192298066874E+03    0.73152E-03   -0.66332E-03  3767   0.143E-01    0.239E-01
RMM:   4    -0.192297757423E+03    0.30945E-03   -0.69015E-04  3673   0.446E-02    0.194E-01
RMM:   5    -0.192297532238E+03    0.22519E-03   -0.23576E-04  3691   0.250E-02    0.158E-01
RMM:   6    -0.192297406533E+03    0.12570E-03   -0.86086E-04  3680   0.446E-02    0.159E-01
RMM:   7    -0.192297274527E+03    0.13201E-03   -0.10710E-03  3683   0.503E-02    0.912E-02
RMM:   8    -0.192297250612E+03    0.23915E-04   -0.24553E-04  3682   0.245E-02    0.520E-02
RMM:   9    -0.192297230533E+03    0.20079E-04   -0.28750E-05  3683   0.872E-03    0.430E-02
RMM:  10    -0.192297203552E+03    0.26982E-04   -0.34343E-05  3678   0.888E-03    0.250E-02
RMM:  11    -0.192297195623E+03    0.79287E-05   -0.22940E-05  3672   0.712E-03    0.148E-02
RMM:  12    -0.192297193106E+03    0.25168E-05   -0.20291E-05  3678   0.661E-03    0.473E-03
RMM:  13    -0.192297193436E+03   -0.32967E-06   -0.20924E-06  2070   0.243E-03
  10 F= -.19229719E+03 E0= -.19218138E+03  d E =-.102191E-01
       N       E                     dE             d eps       ncg     rms          rms(c)
DAV:   1    -0.192278510472E+03    0.18683E-01   -0.28014E+01  3672   0.816E+00    0.418E-01
RMM:   2    -0.192312812156E+03   -0.34302E-01   -0.32399E-01  3681   0.122E+00    0.737E-01
RMM:   3    -0.192310255685E+03    0.25565E-02   -0.23138E-02  3759   0.267E-01    0.444E-01
RMM:   4    -0.192309133316E+03    0.11224E-02   -0.23796E-03  3672   0.830E-02    0.360E-01
RMM:   5    -0.192308329097E+03    0.80422E-03   -0.80349E-04  3691   0.461E-02    0.294E-01
RMM:   6    -0.192307813179E+03    0.51592E-03   -0.29244E-03  3681   0.822E-02    0.299E-01
RMM:   7    -0.192307262900E+03    0.55028E-03   -0.37615E-03  3683   0.942E-02    0.170E-01
RMM:   8    -0.192307167306E+03    0.95594E-04   -0.86819E-04  3682   0.459E-02    0.973E-02
RMM:   9    -0.192307097157E+03    0.70148E-04   -0.10203E-04  3688   0.164E-02    0.802E-02
RMM:  10    -0.192307003138E+03    0.94019E-04   -0.11802E-04  3681   0.164E-02    0.473E-02
RMM:  11    -0.192306974682E+03    0.28456E-04   -0.78677E-05  3679   0.132E-02    0.278E-02
RMM:  12    -0.192306965766E+03    0.89163E-05   -0.73398E-05  3681   0.126E-02    0.875E-03
RMM:  13    -0.192306966941E+03   -0.11748E-05   -0.86835E-06  3527   0.455E-03    0.725E-03
RMM:  14    -0.192306966565E+03    0.37559E-06   -0.85683E-07  1990   0.172E-03
  11 F= -.19230697E+03 E0= -.19219018E+03  d E =-.199922E-01
       N       E                     dE             d eps       ncg     rms          rms(c)
DAV:   1    -0.192304755229E+03    0.22117E-02   -0.27251E+00  3696   0.254E+00    0.130E-01
RMM:   2    -0.192308032322E+03   -0.32771E-02   -0.31477E-02  3681   0.379E-01    0.225E-01
RMM:   3    -0.192307788613E+03    0.24371E-03   -0.22398E-03  3760   0.831E-02    0.138E-01
RMM:   4    -0.192307689249E+03    0.99364E-04   -0.22904E-04  3672   0.258E-02    0.112E-01
RMM:   5    -0.192307620519E+03    0.68730E-04   -0.77066E-05  3690   0.143E-02    0.916E-02
RMM:   6    -0.192307584841E+03    0.35678E-04   -0.28632E-04  3681   0.257E-02    0.915E-02
RMM:   7    -0.192307548065E+03    0.36776E-04   -0.35909E-04  3682   0.291E-02    0.536E-02
RMM:   8    -0.192307541762E+03    0.63030E-05   -0.85870E-05  3680   0.145E-02    0.304E-02
RMM:   9    -0.192307535125E+03    0.66364E-05   -0.97484E-06  3405   0.511E-03    0.251E-02
RMM:  10    -0.192307526325E+03    0.88004E-05   -0.11087E-05  3668   0.508E-03    0.149E-02
RMM:  11    -0.192307523607E+03    0.27175E-05   -0.79130E-06  3495   0.421E-03    0.875E-03
RMM:  12    -0.192307522981E+03    0.62658E-06   -0.71217E-06  3539   0.396E-03
  12 F= -.19230752E+03 E0= -.19219044E+03  d E =-.205486E-01
       N       E                     dE             d eps       ncg     rms          rms(c)
DAV:   1    -0.192304127837E+03    0.33958E-02   -0.10536E+01  3672   0.500E+00    0.270E-01
RMM:   2    -0.192317079667E+03   -0.12952E-01   -0.12315E-01  3680   0.746E-01    0.455E-01
RMM:   3    -0.192316011737E+03    0.10679E-02   -0.89557E-03  3736   0.165E-01    0.279E-01
RMM:   4    -0.192315589942E+03    0.42180E-03   -0.90244E-04  3674   0.515E-02    0.214E-01
RMM:   5    -0.192315354539E+03    0.23540E-03   -0.36981E-04  3692   0.308E-02    0.188E-01
RMM:   6    -0.192315172283E+03    0.18226E-03   -0.10889E-03  3680   0.503E-02    0.178E-01
RMM:   7    -0.192314994820E+03    0.17746E-03   -0.13477E-03  3683   0.563E-02    0.990E-02
RMM:   8    -0.192314973642E+03    0.21178E-04   -0.28490E-04  3681   0.264E-02    0.582E-02
RMM:   9    -0.192314947093E+03    0.26550E-04   -0.36960E-05  3684   0.988E-03    0.453E-02
RMM:  10    -0.192314916950E+03    0.30143E-04   -0.40715E-05  3679   0.967E-03    0.268E-02
RMM:  11    -0.192314908117E+03    0.88325E-05   -0.25162E-05  3672   0.747E-03    0.158E-02
RMM:  12    -0.192314905600E+03    0.25172E-05   -0.23573E-05  3679   0.713E-03    0.524E-03
RMM:  13    -0.192314906030E+03   -0.42989E-06   -0.21703E-06  2105   0.249E-03
  13 F= -.19231491E+03 E0= -.19219739E+03  d E =-.738305E-02
       N       E                     dE             d eps       ncg     rms          rms(c)
DAV:   1    -0.192303902421E+03    0.11003E-01   -0.13883E+01  3672   0.574E+00    0.309E-01
RMM:   2    -0.192320977848E+03   -0.17075E-01   -0.16220E-01  3680   0.856E-01    0.520E-01
RMM:   3    -0.192319578484E+03    0.13994E-02   -0.11781E-02  3734   0.189E-01    0.317E-01
RMM:   4    -0.192319021886E+03    0.55660E-03   -0.11716E-03  3674   0.588E-02    0.244E-01
RMM:   5    -0.192318724696E+03    0.29719E-03   -0.48300E-04  3692   0.351E-02    0.217E-01
RMM:   6    -0.192318461800E+03    0.26290E-03   -0.14189E-03  3680   0.575E-02    0.205E-01
RMM:   7    -0.192318220465E+03    0.24134E-03   -0.17758E-03  3683   0.646E-02    0.115E-01
RMM:   8    -0.192318189361E+03    0.31104E-04   -0.37946E-04  3681   0.304E-02    0.670E-02
RMM:   9    -0.192318153916E+03    0.35445E-04   -0.49260E-05  3685   0.114E-02    0.519E-02
RMM:  10    -0.192318114673E+03    0.39243E-04   -0.52836E-05  3680   0.110E-02    0.312E-02
RMM:  11    -0.192318102662E+03    0.12012E-04   -0.33024E-05  3674   0.855E-03    0.181E-02
RMM:  12    -0.192318099277E+03    0.33846E-05   -0.31806E-05  3680   0.826E-03    0.605E-03
RMM:  13    -0.192318099835E+03   -0.55763E-06   -0.30926E-06  2453   0.288E-03
  14 F= -.19231810E+03 E0= -.19220010E+03  d E =-.105769E-01
       N       E                     dE             d eps       ncg     rms          rms(c)
DAV:   1    -0.192317330097E+03    0.76918E-03   -0.49006E+00  3672   0.342E+00    0.195E-01
RMM:   2    -0.192323057754E+03   -0.57277E-02   -0.56816E-02  3679   0.505E-01    0.262E-01
RMM:   3    -0.192322829038E+03    0.22872E-03   -0.40318E-03  3720   0.110E-01    0.202E-01
RMM:   4    -0.192322586422E+03    0.24262E-03   -0.46088E-04  3676   0.368E-02    0.141E-01
RMM:   5    -0.192322478675E+03    0.10775E-03   -0.18289E-04  3688   0.215E-02    0.118E-01
RMM:   6    -0.192322455571E+03    0.23104E-04   -0.48500E-04  3681   0.340E-02    0.116E-01
RMM:   7    -0.192322376612E+03    0.78960E-04   -0.58392E-04  3681   0.372E-02    0.521E-02
RMM:   8    -0.192322372598E+03    0.40140E-05   -0.72657E-05  3674   0.136E-02    0.379E-02
RMM:   9    -0.192322357749E+03    0.14848E-04   -0.16193E-05  3672   0.653E-03    0.240E-02
RMM:  10    -0.192322350388E+03    0.73613E-05   -0.12014E-05  3672   0.532E-03    0.157E-02
RMM:  11    -0.192322347381E+03    0.30067E-05   -0.82435E-06  3580   0.431E-03    0.832E-03
RMM:  12    -0.192322347078E+03    0.30323E-06   -0.70868E-06  3576   0.396E-03
  15 F= -.19232235E+03 E0= -.19220428E+03  d E =-.424724E-02
       N       E                     dE             d eps       ncg     rms          rms(c)
DAV:   1    -0.192320921721E+03    0.14257E-02   -0.24661E+00  3672   0.242E+00    0.138E-01
RMM:   2    -0.192323794634E+03   -0.28729E-02   -0.28597E-02  3679   0.358E-01    0.187E-01
RMM:   3    -0.192323677257E+03    0.11738E-03   -0.20368E-03  3720   0.779E-02    0.145E-01
RMM:   4    -0.192323555762E+03    0.12150E-03   -0.23506E-04  3676   0.262E-02    0.101E-01
RMM:   5    -0.192323499061E+03    0.56701E-04   -0.93149E-05  3688   0.154E-02    0.830E-02
RMM:   6    -0.192323496846E+03    0.22151E-05   -0.24782E-04  3681   0.243E-02    0.828E-02
RMM:   7    -0.192323461056E+03    0.35790E-04   -0.29405E-04  3681   0.264E-02    0.367E-02
RMM:   8    -0.192323459759E+03    0.12968E-05   -0.36152E-05  3672   0.960E-03    0.269E-02
RMM:   9    -0.192323452384E+03    0.73746E-05   -0.80708E-06  3343   0.463E-03    0.171E-02
RMM:  10    -0.192323448590E+03    0.37938E-05   -0.60581E-06  3239   0.384E-03    0.110E-02
RMM:  11    -0.192323447061E+03    0.15290E-05   -0.40272E-06  2620   0.320E-03    0.606E-03
RMM:  12    -0.192323446879E+03    0.18215E-06   -0.37945E-06  2433   0.320E-03
  16 F= -.19232345E+03 E0= -.19220533E+03  d E =-.534704E-02
       N       E                     dE             d eps       ncg     rms          rms(c)
DAV:   1    -0.192322915868E+03    0.53119E-03   -0.37652E+00  3672   0.300E+00    0.145E-01
RMM:   2    -0.192327280501E+03   -0.43646E-02   -0.42350E-02  3674   0.442E-01    0.236E-01
RMM:   3    -0.192327023927E+03    0.25657E-03   -0.29555E-03  3751   0.952E-02    0.155E-01
RMM:   4    -0.192326884719E+03    0.13921E-03   -0.29234E-04  3677   0.293E-02    0.122E-01
RMM:   5    -0.192326793530E+03    0.91189E-04   -0.88037E-05  3689   0.154E-02    0.973E-02
RMM:   6    -0.192326775245E+03    0.18285E-04   -0.45096E-04  3676   0.327E-02    0.104E-01
RMM:   7    -0.192326695820E+03    0.79425E-04   -0.49203E-04  3680   0.339E-02    0.364E-02
RMM:   8    -0.192326708223E+03   -0.12404E-04   -0.48133E-05  3673   0.111E-02    0.349E-02
RMM:   9    -0.192326699377E+03    0.88466E-05   -0.83777E-06  3410   0.481E-03    0.244E-02
RMM:  10    -0.192326693651E+03    0.57263E-05   -0.76800E-06  3489   0.436E-03    0.189E-02
RMM:  11    -0.192326687726E+03    0.59243E-05   -0.20509E-05  3673   0.678E-03    0.678E-03
RMM:  12    -0.192326687683E+03    0.43110E-07   -0.49072E-06  3006   0.339E-03
  17 F= -.19232669E+03 E0= -.19220850E+03  d E =-.324080E-02
       N       E                     dE             d eps       ncg     rms          rms(c)
DAV:   1    -0.192324218188E+03    0.24695E-02   -0.42828E+00  3672   0.320E+00    0.154E-01
RMM:   2    -0.192329178888E+03   -0.49607E-02   -0.48107E-02  3674   0.472E-01    0.250E-01
RMM:   3    -0.192328888721E+03    0.29017E-03   -0.33499E-03  3751   0.101E-01    0.165E-01
RMM:   4    -0.192328729412E+03    0.15931E-03   -0.32836E-04  3677   0.311E-02    0.130E-01
RMM:   5    -0.192328626925E+03    0.10249E-03   -0.98922E-05  3689   0.163E-02    0.104E-01
RMM:   6    -0.192328602870E+03    0.24055E-04   -0.52195E-04  3676   0.352E-02    0.111E-01
RMM:   7    -0.192328511287E+03    0.91583E-04   -0.56072E-04  3681   0.362E-02    0.393E-02
RMM:   8    -0.192328525302E+03   -0.14015E-04   -0.55197E-05  3675   0.118E-02    0.373E-02
RMM:   9    -0.192328515315E+03    0.99875E-05   -0.96029E-06  3520   0.514E-03    0.262E-02
RMM:  10    -0.192328508758E+03    0.65566E-05   -0.87756E-06  3598   0.464E-03    0.202E-02
RMM:  11    -0.192328501949E+03    0.68091E-05   -0.23278E-05  3675   0.721E-03    0.742E-03
RMM:  12    -0.192328501863E+03    0.86555E-07   -0.59410E-06  3306   0.368E-03
  18 F= -.19232850E+03 E0= -.19221024E+03  d E =-.505498E-02
       N       E                     dE             d eps       ncg     rms          rms(c)
DAV:   1    -0.192310002419E+03    0.18500E-01   -0.17136E+01  3672   0.640E+00    0.308E-01
RMM:   2    -0.192329952336E+03   -0.19950E-01   -0.19230E-01  3674   0.943E-01    0.492E-01
RMM:   3    -0.192328935134E+03    0.10172E-02   -0.13334E-02  3751   0.202E-01    0.327E-01
RMM:   4    -0.192328262090E+03    0.67304E-03   -0.13086E-03  3677   0.620E-02    0.259E-01
RMM:   5    -0.192327824987E+03    0.43710E-03   -0.40143E-04  3689   0.328E-02    0.208E-01
RMM:   6    -0.192327615810E+03    0.20918E-03   -0.21079E-03  3676   0.707E-02    0.222E-01
RMM:   7    -0.192327204843E+03    0.41097E-03   -0.21727E-03  3681   0.713E-02    0.796E-02
RMM:   8    -0.192327247692E+03   -0.42850E-04   -0.21895E-04  3676   0.236E-02    0.744E-02
RMM:   9    -0.192327207716E+03    0.39976E-04   -0.38849E-05  3694   0.103E-02    0.520E-02
RMM:  10    -0.192327182062E+03    0.25653E-04   -0.34931E-05  3679   0.922E-03    0.402E-02
RMM:  11    -0.192327155525E+03    0.26537E-04   -0.94370E-05  3676   0.145E-02    0.144E-02
RMM:  12    -0.192327155235E+03    0.29029E-06   -0.22865E-05  3672   0.715E-03    0.653E-03
RMM:  13    -0.192327155697E+03   -0.46247E-06   -0.24333E-06  2164   0.265E-03
  19 F= -.19232716E+03 E0= -.19220872E+03  d E =-.370882E-02
       N       E                     dE             d eps       ncg     rms          rms(c)
DAV:   1    -0.192319846690E+03    0.73085E-02   -0.88764E+00  3672   0.460E+00    0.225E-01
RMM:   2    -0.192330204514E+03   -0.10358E-01   -0.10030E-01  3674   0.681E-01    0.358E-01
RMM:   3    -0.192329649672E+03    0.55484E-03   -0.70418E-03  3750   0.147E-01    0.236E-01
RMM:   4    -0.192329311809E+03    0.33786E-03   -0.69213E-04  3677   0.451E-02    0.187E-01
RMM:   5    -0.192329087151E+03    0.22466E-03   -0.20923E-04  3690   0.237E-02    0.149E-01
RMM:   6    -0.192329029894E+03    0.57257E-04   -0.10145E-03  3676   0.490E-02    0.160E-01
RMM:   7    -0.192328818092E+03    0.21180E-03   -0.11380E-03  3681   0.516E-02    0.556E-02
RMM:   8    -0.192328848379E+03   -0.30286E-04   -0.11860E-04  3676   0.173E-02    0.539E-02
RMM:   9    -0.192328827795E+03    0.20583E-04   -0.20132E-05  3690   0.742E-03    0.373E-02
RMM:  10    -0.192328814801E+03    0.12995E-04   -0.17161E-05  3672   0.648E-03    0.289E-02
RMM:  11    -0.192328801023E+03    0.13778E-04   -0.48262E-05  3677   0.104E-02    0.106E-02
RMM:  12    -0.192328800610E+03    0.41347E-06   -0.12017E-05  3668   0.518E-03    0.472E-03
RMM:  13    -0.192328800701E+03   -0.91379E-07   -0.12699E-06  1996   0.193E-03
  20 F= -.19232880E+03 E0= -.19221049E+03  d E =-.535382E-02
       N       E                     dE             d eps       ncg     rms          rms(c)
DAV:   1    -0.192328096203E+03    0.70441E-03   -0.29144E+00  3672   0.264E+00    0.121E-01
RMM:   2    -0.192331491784E+03   -0.33956E-02   -0.32689E-02  3675   0.390E-01    0.211E-01
RMM:   3    -0.192331277636E+03    0.21415E-03   -0.22920E-03  3797   0.842E-02    0.130E-01
RMM:   4    -0.192331182301E+03    0.95335E-04   -0.21534E-04  3677   0.250E-02    0.108E-01
RMM:   5    -0.192331111984E+03    0.70317E-04   -0.60782E-05  3689   0.129E-02    0.882E-02
RMM:   6    -0.192331085532E+03    0.26452E-04   -0.40161E-04  3677   0.308E-02    0.908E-02
RMM:   7    -0.192331023461E+03    0.62071E-04   -0.36066E-04  3681   0.291E-02    0.316E-02
RMM:   8    -0.192331036725E+03   -0.13264E-04   -0.37772E-05  3677   0.978E-03    0.306E-02
RMM:   9    -0.192331030269E+03    0.64554E-05   -0.59719E-06  3040   0.409E-03    0.231E-02
RMM:  10    -0.192331023908E+03    0.63614E-05   -0.10509E-05  3669   0.505E-03    0.172E-02
RMM:  11    -0.192331019407E+03    0.45007E-05   -0.17332E-05  3674   0.621E-03    0.586E-03
RMM:  12    -0.192331019394E+03    0.13097E-07   -0.26798E-06  2153   0.267E-03
  21 F= -.19233102E+03 E0= -.19221258E+03  d E =-.221869E-02
       N       E                     dE             d eps       ncg     rms          rms(c)
DAV:   1    -0.192325089324E+03    0.59301E-02   -0.77440E+00  3672   0.430E+00    0.198E-01
RMM:   2    -0.192334186830E+03   -0.90975E-02   -0.86712E-02  3674   0.636E-01    0.351E-01
RMM:   3    -0.192333588381E+03    0.59845E-03   -0.60914E-03  3791   0.137E-01    0.212E-01
RMM:   4    -0.192333314625E+03    0.27376E-03   -0.56217E-04  3678   0.405E-02    0.176E-01
RMM:   5    -0.192333124858E+03    0.18977E-03   -0.15628E-04  3690   0.206E-02    0.145E-01
RMM:   6    -0.192333020145E+03    0.10471E-03   -0.10966E-03  3676   0.508E-02    0.150E-01
RMM:   7    -0.192332832223E+03    0.18792E-03   -0.98466E-04  3681   0.480E-02    0.522E-02
RMM:   8    -0.192332863422E+03   -0.31199E-04   -0.10186E-04  3678   0.161E-02    0.502E-02
RMM:   9    -0.192332846248E+03    0.17174E-04   -0.16316E-05  3683   0.667E-03    0.380E-02
RMM:  10    -0.192332829436E+03    0.16812E-04   -0.26856E-05  3677   0.800E-03    0.284E-02
RMM:  11    -0.192332816963E+03    0.12473E-04   -0.47527E-05  3677   0.102E-02    0.986E-03
RMM:  12    -0.192332816944E+03    0.18845E-07   -0.87199E-06  3607   0.445E-03
  22 F= -.19233282E+03 E0= -.19221417E+03  d E =-.401624E-02
       N       E                     dE             d eps       ncg     rms          rms(c)
DAV:   1    -0.192332401930E+03    0.41503E-03   -0.52968E-01  3720   0.112E+00    0.513E-02
RMM:   2    -0.192333019030E+03   -0.61710E-03   -0.59075E-03  3674   0.166E-01    0.951E-02
RMM:   3    -0.192332965496E+03    0.53533E-04   -0.41604E-04  3796   0.359E-02    0.562E-02
RMM:   4    -0.192332947661E+03    0.17836E-04   -0.37147E-05  3677   0.104E-02    0.459E-02
RMM:   5    -0.192332937008E+03    0.10653E-04   -0.95134E-06  3571   0.516E-03    0.389E-02
RMM:   6    -0.192332936643E+03    0.36529E-06   -0.80295E-05  3673   0.138E-02    0.406E-02
RMM:   7    -0.192332925899E+03    0.10743E-04   -0.72348E-05  3677   0.130E-02    0.139E-02
RMM:   8    -0.192332928517E+03   -0.26176E-05   -0.70552E-06  3296   0.426E-03    0.133E-02
RMM:   9    -0.192332927333E+03    0.11836E-05   -0.11537E-06  1993   0.194E-03    0.102E-02
RMM:  10    -0.192332926000E+03    0.13330E-05   -0.18556E-06  1956   0.228E-03    0.749E-03
RMM:  11    -0.192332925136E+03    0.86366E-06   -0.35909E-06  2385   0.313E-03
  23 F= -.19233293E+03 E0= -.19221421E+03  d E =-.412444E-02
       N       E                     dE             d eps       ncg     rms          rms(c)
DAV:   1    -0.192332641911E+03    0.28409E-03   -0.15409E+00  3672   0.192E+00    0.963E-02
RMM:   2    -0.192334393027E+03   -0.17511E-02   -0.17432E-02  3678   0.284E-01    0.128E-01
RMM:   3    -0.192334365155E+03    0.27872E-04   -0.12050E-03  3763   0.611E-02    0.103E-01
RMM:   4    -0.192334294844E+03    0.70311E-04   -0.13181E-04  3676   0.197E-02    0.770E-02
RMM:   5    -0.192334256916E+03    0.37928E-04   -0.43955E-05  3691   0.106E-02    0.602E-02
RMM:   6    -0.192334247356E+03    0.95600E-05   -0.17662E-04  3681   0.205E-02    0.624E-02
RMM:   7    -0.192334221758E+03    0.25598E-04   -0.17502E-04  3682   0.204E-02    0.270E-02
RMM:   8    -0.192334223092E+03   -0.13341E-05   -0.21201E-05  3674   0.738E-03    0.230E-02
RMM:   9    -0.192334217621E+03    0.54715E-05   -0.46757E-06  2873   0.361E-03    0.140E-02
RMM:  10    -0.192334215786E+03    0.18345E-05   -0.27556E-06  2237   0.278E-03    0.108E-02
RMM:  11    -0.192334213881E+03    0.19052E-05   -0.76323E-06  3640   0.429E-03    0.416E-03
RMM:  12    -0.192334213775E+03    0.10657E-06   -0.12219E-06  1947   0.185E-03
  24 F= -.19233421E+03 E0= -.19221535E+03  d E =-.128864E-02
       N       E                     dE             d eps       ncg     rms          rms(c)
DAV:   1    -0.192333971173E+03    0.24271E-03   -0.56003E-01  3672   0.116E+00    0.578E-02
RMM:   2    -0.192334605994E+03   -0.63482E-03   -0.63233E-03  3679   0.171E-01    0.777E-02
RMM:   3    -0.192334592542E+03    0.13452E-04   -0.43537E-04  3764   0.367E-02    0.614E-02
RMM:   4    -0.192334568199E+03    0.24342E-04   -0.46822E-05  3675   0.117E-02    0.464E-02
RMM:   5    -0.192334555285E+03    0.12915E-04   -0.15737E-05  3684   0.638E-03    0.367E-02
RMM:   6    -0.192334553426E+03    0.18588E-05   -0.66280E-05  3680   0.126E-02    0.376E-02
RMM:   7    -0.192334544830E+03    0.85961E-05   -0.64122E-05  3679   0.124E-02    0.161E-02
RMM:   8    -0.192334545363E+03   -0.53331E-06   -0.73994E-06  3191   0.441E-03
  25 F= -.19233455E+03 E0= -.19221559E+03  d E =-.162023E-02
       N       E                     dE             d eps       ncg     rms          rms(c)
DAV:   1    -0.192331859097E+03    0.26857E-02   -0.22387E+00  3672   0.231E+00    0.120E-01
RMM:   2    -0.192334415200E+03   -0.25561E-02   -0.25601E-02  3679   0.343E-01    0.151E-01
RMM:   3    -0.192334404504E+03    0.10696E-04   -0.17877E-03  3753   0.743E-02    0.129E-01
RMM:   4    -0.192334295284E+03    0.10922E-03   -0.20672E-04  3675   0.246E-02    0.926E-02
RMM:   5    -0.192334238035E+03    0.57248E-04   -0.68134E-05  3690   0.132E-02    0.703E-02
RMM:   6    -0.192334221128E+03    0.16907E-04   -0.23737E-04  3682   0.238E-02    0.696E-02
RMM:   7    -0.192334189628E+03    0.31501E-04   -0.22741E-04  3682   0.233E-02    0.296E-02
RMM:   8    -0.192334192047E+03   -0.24191E-05   -0.26741E-05  3677   0.833E-03    0.261E-02
RMM:   9    -0.192334184834E+03    0.72129E-05   -0.63042E-06  3162   0.417E-03    0.159E-02
RMM:  10    -0.192334182526E+03    0.23082E-05   -0.36996E-06  2513   0.313E-03    0.125E-02
RMM:  11    -0.192334179955E+03    0.25704E-05   -0.91694E-06  3672   0.468E-03    0.490E-03
RMM:  12    -0.192334179785E+03    0.17011E-06   -0.15392E-06  1957   0.206E-03
  26 F= -.19233418E+03 E0= -.19221504E+03  d E =-.125465E-02
       N       E                     dE             d eps       ncg     rms          rms(c)
DAV:   1    -0.192333199713E+03    0.98024E-03   -0.13564E+00  3672   0.180E+00    0.907E-02
RMM:   2    -0.192334726733E+03   -0.15270E-02   -0.15323E-02  3679   0.266E-01    0.117E-01
RMM:   3    -0.192334713289E+03    0.13444E-04   -0.10544E-03  3758   0.572E-02    0.981E-02
RMM:   4    -0.192334648782E+03    0.64507E-04   -0.11740E-04  3675   0.186E-02    0.713E-02
RMM:   5    -0.192334616642E+03    0.32140E-04   -0.39073E-05  3690   0.100E-02    0.561E-02
RMM:   6    -0.192334608345E+03    0.82971E-05   -0.15500E-04  3682   0.192E-02    0.581E-02
RMM:   7    -0.192334584029E+03    0.24316E-04   -0.14617E-04  3682   0.187E-02    0.245E-02
RMM:   8    -0.192334585773E+03   -0.17440E-05   -0.18034E-05  3672   0.681E-03    0.219E-02
RMM:   9    -0.192334580752E+03    0.50211E-05   -0.41605E-06  2753   0.342E-03    0.129E-02
RMM:  10    -0.192334579149E+03    0.16028E-05   -0.24577E-06  2163   0.264E-03    0.998E-03
RMM:  11    -0.192334577600E+03    0.15486E-05   -0.66103E-06  3546   0.401E-03    0.362E-03
RMM:  12    -0.192334577553E+03    0.47658E-07   -0.10379E-06  1945   0.173E-03
  27 F= -.19233458E+03 E0= -.19221558E+03  d E =-.165242E-02
       N       E                     dE             d eps       ncg     rms          rms(c)
DAV:   1    -0.192334128097E+03    0.44950E-03   -0.11263E+00  3672   0.164E+00    0.822E-02
RMM:   2    -0.192335401247E+03   -0.12731E-02   -0.12712E-02  3679   0.242E-01    0.105E-01
RMM:   3    -0.192335380967E+03    0.20280E-04   -0.86977E-04  3748   0.520E-02    0.861E-02
RMM:   4    -0.192335325313E+03    0.55654E-04   -0.87773E-05  3676   0.164E-02    0.578E-02
RMM:   5    -0.192335317956E+03    0.73570E-05   -0.34737E-05  3688   0.933E-03    0.578E-02
RMM:   6    -0.192335302998E+03    0.14958E-04   -0.97133E-05  3680   0.152E-02    0.536E-02
RMM:   7    -0.192335285464E+03    0.17534E-04   -0.14148E-04  3682   0.184E-02    0.244E-02
RMM:   8    -0.192335286397E+03   -0.93317E-06   -0.18801E-05  3671   0.689E-03    0.202E-02
RMM:   9    -0.192335282147E+03    0.42502E-05   -0.33884E-06  2527   0.312E-03    0.116E-02
RMM:  10    -0.192335280682E+03    0.14649E-05   -0.22307E-06  2029   0.255E-03    0.889E-03
RMM:  11    -0.192335279333E+03    0.13489E-05   -0.46503E-06  3040   0.345E-03    0.338E-03
RMM:  12    -0.192335279280E+03    0.52991E-07   -0.11110E-06  1938   0.185E-03
  28 F= -.19233528E+03 E0= -.19221625E+03  d E =-.701728E-03
