<?xml version="1.0" encoding="ISO-8859-1"?>
<modeling>
 <generator>
  <i name="program" type="string">vasp </i>
  <i name="version" type="string">5.4.1  </i>
  <i name="subversion" type="string">24Jun15 (build Mar 14 2019 10:18:33) complex                          parallel </i>
  <i name="platform" type="string">INTEL-19.0.2+OPENMPI-3.1.3 </i>
  <i name="date" type="string">2022 07 15 </i>
  <i name="time" type="string">14:37:28 </i>
 </generator>
 <incar>
  <i type="int" name="ISTART">     0</i>
  <i type="string" name="PREC">normal</i>
  <i type="string" name="ALGO"> Fast</i>
  <i type="int" name="NELM">   500</i>
  <i type="int" name="IBRION">     2</i>
  <i type="int" name="NFREE">     2</i>
  <i name="EDIFF">      0.00000100</i>
  <i name="EDIFFG">     -0.02000000</i>
  <i type="int" name="NSW">   500</i>
  <i type="int" name="ISIF">     0</i>
  <i type="int" name="ISYM">     2</i>
  <i name="ENCUT">    400.00000000</i>
  <i name="POTIM">      0.35000000</i>
  <i type="string" name="LREAL"> Auto</i>
  <i type="logical" name="LPLANE"> T  </i>
  <i type="int" name="ISMEAR">     0</i>
  <i name="SIGMA">      0.10000000</i>
  <i type="int" name="NWRITE">     1</i>
  <i type="logical" name="LWAVE"> F  </i>
  <i type="logical" name="LCHARG"> F  </i>
  <i type="logical" name="LVTOT"> F  </i>
  <i type="logical" name="LORBIT"> F  </i>
  <i type="logical" name="LAECHG"> F  </i>
  <v type="int" name="KPOINT_BSE">    -1     0     0     0</v>
  <i type="int" name="NELM">   500</i>
  <i type="string" name="GGA"> PE          ! optPBE-vdW XC-functional</i>
  <i type="int" name="VOSKOWN">     1</i>
  <i type="logical" name="LDIPOL"> T  </i>
  <i type="logical" name="LMONO"> F  </i>
  <i type="int" name="IDIPOL">     3</i>
  <v name="DIPOL">      0.00000000      0.00000000      0.50000000</v>
 </incar>
 <kpoints>
  <generation param="Monkhorst-Pack">
   <v type="int" name="divisions">       2        2        1 </v>
   <v name="usershift">      0.00000000       0.00000000       0.00000000 </v>
   <v name="genvec1">      0.50000000      -0.00000000       0.00000000 </v>
   <v name="genvec2">      0.00000000       0.50000000       0.00000000 </v>
   <v name="genvec3">      0.00000000       0.00000000       1.00000000 </v>
   <v name="shift">      0.50000000       0.50000000       0.00000000 </v>
  </generation>
  <varray name="kpointlist" >
   <v>       0.25000000       0.25000000       0.00000000 </v>
   <v>       0.00000000       0.25000000       0.00000000 </v>
   <v>      -0.25000000       0.00000000       0.00000000 </v>
   <v>      -0.25000000       0.25000000       0.00000000 </v>
   <v>       0.50000000      -0.25000000       0.00000000 </v>
   <v>      -0.25000000       0.50000000       0.00000000 </v>
  </varray>
  <varray name="weights" >
   <v>       0.16666667 </v>
   <v>       0.16666667 </v>
   <v>       0.16666667 </v>
   <v>       0.16666667 </v>
   <v>       0.16666667 </v>
   <v>       0.16666667 </v>
  </varray>
 </kpoints>
 <parameters>
  <separator name="general" >
   <i type="string" name="SYSTEM">unknown system</i>
   <i type="logical" name="LCOMPAT"> F  </i>
  </separator>
  <separator name="electronic" >
   <i type="string" name="PREC">normal</i>
   <i name="ENMAX">    400.00000000</i>
   <i name="ENAUG">    416.23000000</i>
   <i name="EDIFF">      0.00000100</i>
   <i type="int" name="IALGO">    68</i>
   <i type="int" name="IWAVPR">    11</i>
   <i type="int" name="NBANDS">   306</i>
   <i name="NELECT">    504.00000000</i>
   <i type="int" name="TURBO">     0</i>
   <i type="int" name="IRESTART">     0</i>
   <i type="int" name="NREBOOT">     0</i>
   <i type="int" name="NMIN">     0</i>
   <i name="EREF">      0.00000000</i>
   <separator name="electronic smearing" >
    <i type="int" name="ISMEAR">     0</i>
    <i name="SIGMA">      0.10000000</i>
    <i name="KSPACING">      0.50000000</i>
    <i type="logical" name="KGAMMA"> T  </i>
   </separator>
   <separator name="electronic projectors" >
    <i type="logical" name="LREAL"> T  </i>
    <v name="ROPT">     -0.00050000     -0.00050000</v>
    <i type="int" name="LMAXPAW">  -100</i>
    <i type="int" name="LMAXMIX">     2</i>
    <i type="logical" name="NLSPLINE"> F  </i>
   </separator>
   <separator name="electronic startup" >
    <i type="int" name="ISTART">     0</i>
    <i type="int" name="ICHARG">     2</i>
    <i type="int" name="INIWAV">     1</i>
   </separator>
   <separator name="electronic spin" >
    <i type="int" name="ISPIN">     1</i>
    <i type="logical" name="LNONCOLLINEAR"> F  </i>
    <v name="MAGMOM">      1.00000000      1.00000000      1.00000000      1.00000000      1.00000000      1.00000000      1.00000000      1.00000000      1.00000000      1.00000000      1.00000000      1.00000000      1.00000000      1.00000000      1.00000000      1.00000000      1.00000000      1.00000000      1.00000000      1.00000000
      1.00000000      1.00000000      1.00000000      1.00000000      1.00000000      1.00000000      1.00000000      1.00000000      1.00000000      1.00000000      1.00000000      1.00000000      1.00000000      1.00000000      1.00000000      1.00000000      1.00000000      1.00000000      1.00000000      1.00000000
      1.00000000      1.00000000      1.00000000      1.00000000      1.00000000      1.00000000      1.00000000      1.00000000</v>
    <i name="NUPDOWN">     -1.00000000</i>
    <i type="logical" name="LSORBIT"> F  </i>
    <v name="SAXIS">      0.00000000      0.00000000      1.00000000</v>
    <i type="logical" name="LSPIRAL"> F  </i>
    <v name="QSPIRAL">      0.00000000      0.00000000      0.00000000</v>
    <i type="logical" name="LZEROZ"> F  </i>
   </separator>
   <separator name="electronic exchange-correlation" >
    <i type="logical" name="LASPH"> F  </i>
    <i type="logical" name="LMETAGGA"> F  </i>
   </separator>
   <separator name="electronic convergence" >
    <i type="int" name="NELM">   500</i>
    <i type="int" name="NELMDL">    -5</i>
    <i type="int" name="NELMIN">     2</i>
    <i name="ENINI">    400.00000000</i>
    <separator name="electronic convergence detail" >
     <i type="logical" name="LDIAG"> T  </i>
     <i type="logical" name="LSUBROT"> F  </i>
     <i name="WEIMIN">      0.00100000</i>
     <i name="EBREAK">      0.00000000</i>
     <i name="DEPER">      0.30000000</i>
     <i type="int" name="NRMM">     4</i>
     <i name="TIME">      0.40000000</i>
    </separator>
   </separator>
   <separator name="electronic mixer" >
    <i name="AMIX">      0.40000000</i>
    <i name="BMIX">      1.00000000</i>
    <i name="AMIN">      0.10000000</i>
    <i name="AMIX_MAG">      1.60000000</i>
    <i name="BMIX_MAG">      1.00000000</i>
    <separator name="electronic mixer details" >
     <i type="int" name="IMIX">     4</i>
     <i type="logical" name="MIXFIRST"> F  </i>
     <i type="int" name="MAXMIX">   -45</i>
     <i name="WC">    100.00000000</i>
     <i type="int" name="INIMIX">     1</i>
     <i type="int" name="MIXPRE">     1</i>
     <i type="int" name="MREMOVE">     5</i>
    </separator>
   </separator>
   <separator name="electronic dipolcorrection" >
    <i type="logical" name="LDIPOL"> T  </i>
    <i type="logical" name="LMONO"> F  </i>
    <i type="int" name="IDIPOL">     3</i>
    <i name="EPSILON">      1.00000000</i>
    <v name="DIPOL">      0.00000000      0.00000000      0.50000000</v>
    <i name="EFIELD">      0.00000000</i>
   </separator>
  </separator>
  <separator name="grids" >
   <i type="int" name="NGX">    54</i>
   <i type="int" name="NGY">    54</i>
   <i type="int" name="NGZ">   120</i>
   <i type="int" name="NGXF">   108</i>
   <i type="int" name="NGYF">   108</i>
   <i type="int" name="NGZF">   240</i>
   <i type="logical" name="ADDGRID"> F  </i>
  </separator>
  <separator name="ionic" >
   <i type="int" name="NSW">   500</i>
   <i type="int" name="IBRION">     2</i>
   <i type="int" name="ISIF">     0</i>
   <i name="PSTRESS">      0.00000000</i>
   <i name="EDIFFG">     -0.02000000</i>
   <i type="int" name="NFREE">     2</i>
   <i name="POTIM">      0.35000000</i>
   <i name="SMASS">     -3.00000000</i>
   <i name="SCALEE">      1.00000000</i>
  </separator>
  <separator name="ionic md" >
   <i name="TEBEG">      0.00010000</i>
   <i name="TEEND">      0.00010000</i>
   <i type="int" name="NBLOCK">     1</i>
   <i type="int" name="KBLOCK">   500</i>
   <i type="int" name="NPACO">   256</i>
   <i name="APACO">     16.00000000</i>
  </separator>
  <separator name="symmetry" >
   <i type="int" name="ISYM">     2</i>
   <i name="SYMPREC">      0.00001000</i>
  </separator>
  <separator name="dos" >
   <i type="logical" name="LORBIT"> F  </i>
   <v name="RWIGS">     -1.00000000     -1.00000000</v>
   <i type="int" name="NEDOS">   301</i>
   <i name="EMIN">     10.00000000</i>
   <i name="EMAX">    -10.00000000</i>
   <i name="EFERMI">      0.00000000</i>
  </separator>
  <separator name="writing" >
   <i type="int" name="NWRITE">     1</i>
   <i type="logical" name="LWAVE"> F  </i>
   <i type="logical" name="LCHARG"> F  </i>
   <i type="logical" name="LPARD"> F  </i>
   <i type="logical" name="LVTOT"> F  </i>
   <i type="logical" name="LVHAR"> F  </i>
   <i type="logical" name="LELF"> F  </i>
   <i type="logical" name="LOPTICS"> F  </i>
   <v name="STM">      0.00000000      0.00000000      0.00000000      0.00000000      0.00000000      0.00000000      0.00000000</v>
  </separator>
  <separator name="performance" >
   <i type="int" name="NPAR">     6</i>
   <i type="int" name="NSIM">     4</i>
   <i type="int" name="NBLK">    -1</i>
   <i type="logical" name="LPLANE"> T  </i>
   <i type="logical" name="LSCALAPACK"> T  </i>
   <i type="logical" name="LSCAAWARE"> F  </i>
   <i type="logical" name="LSCALU"> F  </i>
   <i type="logical" name="LASYNC"> F  </i>
   <i type="logical" name="LORBITALREAL"> F  </i>
  </separator>
  <separator name="miscellaneous" >
   <i type="int" name="IDIOT">     3</i>
   <i type="logical" name="LMUSIC"> F  </i>
   <v name="POMASS">    196.96600000    106.42000000</v>
   <v name="DARWINR">      0.00000000      0.00000000</v>
   <v name="DARWINV">      1.00000000      1.00000000</v>
   <i type="logical" name="LCORR"> T  </i>
  </separator>
  <i type="logical" name="GGA_COMPAT"> T  </i>
  <i type="logical" name="LBERRY"> F  </i>
  <i type="int" name="ICORELEVEL">     0</i>
  <i type="logical" name="LDAU"> F  </i>
  <i type="int" name="I_CONSTRAINED_M">     0</i>
  <separator name="electronic exchange-correlation" >
   <i type="string" name="GGA">PE</i>
   <i type="int" name="VOSKOWN">     1</i>
   <i type="logical" name="LHFCALC"> F  </i>
   <i type="string" name="PRECFOCK"></i>
   <i type="logical" name="LSYMGRAD"> F  </i>
   <i type="logical" name="LHFONE"> F  </i>
   <i type="logical" name="LRHFCALC"> F  </i>
   <i type="logical" name="LTHOMAS"> F  </i>
   <i type="logical" name="LMODELHF"> F  </i>
   <i name="ENCUT4O">     -1.00000000</i>
   <i type="int" name="EXXOEP">     0</i>
   <i type="int" name="FOURORBIT">     0</i>
   <i name="AEXX">      0.00000000</i>
   <i name="HFALPHA">      0.00000000</i>
   <i name="MCALPHA">      0.00000000</i>
   <i name="ALDAX">      1.00000000</i>
   <i name="AGGAX">      1.00000000</i>
   <i name="ALDAC">      1.00000000</i>
   <i name="AGGAC">      1.00000000</i>
   <i type="int" name="NKREDX">     1</i>
   <i type="int" name="NKREDY">     1</i>
   <i type="int" name="NKREDZ">     1</i>
   <i type="logical" name="SHIFTRED"> F  </i>
   <i type="logical" name="ODDONLY"> F  </i>
   <i type="logical" name="EVENONLY"> F  </i>
   <i type="int" name="LMAXFOCK">     0</i>
   <i type="int" name="NMAXFOCKAE">     0</i>
   <i type="logical" name="LFOCKAEDFT"> F  </i>
   <i name="HFSCREEN">      0.00000000</i>
   <i name="HFSCREENC">      0.00000000</i>
   <i type="int" name="NBANDSGWLOW">     0</i>
  </separator>
  <separator name="vdW DFT" >
   <i type="logical" name="LUSE_VDW"> F  </i>
   <i name="Zab_VDW">     -0.84910000</i>
   <i name="PARAM1">      0.12340000</i>
   <i name="PARAM2">      1.00000000</i>
   <i name="PARAM3">      0.00000000</i>
  </separator>
  <separator name="model GW" >
   <i type="int" name="MODEL_GW">     0</i>
   <i name="MODEL_EPS0">     32.09595293</i>
   <i name="MODEL_ALPHA">      1.00000000</i>
  </separator>
  <separator name="linear response parameters" >
   <i type="logical" name="LEPSILON"> F  </i>
   <i type="logical" name="LRPA"> F  </i>
   <i type="logical" name="LNABLA"> F  </i>
   <i type="logical" name="LVEL"> F  </i>
   <i type="int" name="KINTER">     0</i>
   <i name="CSHIFT">      0.10000000</i>
   <i name="OMEGAMAX">     -1.00000000</i>
   <i name="DEG_THRESHOLD">      0.00200000</i>
  </separator>
  <separator name="orbital magnetization" >
   <i type="logical" name="NUCIND"> F  </i>
   <v name="MAGPOS">      0.00000000      0.00000000      0.00000000</v>
   <i type="logical" name="LNICSALL"> T  </i>
   <i type="logical" name="ORBITALMAG"> F  </i>
   <i type="logical" name="LMAGBLOCH"> F  </i>
   <i type="logical" name="LCHIMAG"> F  </i>
   <i type="logical" name="LGAUGE"> T  </i>
   <i type="int" name="MAGATOM">     0</i>
   <v name="MAGDIPOL">      0.00000000      0.00000000      0.00000000</v>
   <v name="AVECCONST">      0.00000000      0.00000000      0.00000000</v>
  </separator>
  <separator name="response functions" >
   <i type="logical" name="LADDER"> F  </i>
   <i type="logical" name="LFXC"> F  </i>
   <i type="logical" name="LHARTREE"> T  </i>
   <i type="int" name="IBSE">     0</i>
   <v type="int" name="KPOINT">    -1     0     0     0</v>
   <i type="logical" name="LTCTE"> F  </i>
   <i type="logical" name="LTETE"> F  </i>
   <i type="logical" name="LTRIPLET"> F  </i>
   <i type="logical" name="LFXCEPS"> F  </i>
   <i type="logical" name="LFXHEG"> F  </i>
   <i type="int" name="NATURALO">     0</i>
   <i type="logical" name="L2ORDER"> F  </i>
   <i type="logical" name="LUSEW"> F  </i>
   <i name="ENCUTGW">     -2.00000000</i>
   <i name="ENCUTGWSOFT">     -2.00000000</i>
   <i name="ENCUTLF">     -1.00000000</i>
   <i type="int" name="LMAXMP2">    -1</i>
   <i name="SCISSOR">      0.00000000</i>
   <i type="int" name="NOMEGA">     0</i>
   <i type="int" name="NOMEGAR">     0</i>
   <i type="int" name="NBANDSGW">    -1</i>
   <i type="int" name="NBANDSO">    -1</i>
   <i type="int" name="NBANDSV">    -1</i>
   <i type="int" name="NELM">   500</i>
   <i type="int" name="NELMHF">     1</i>
   <i type="int" name="DIM">     3</i>
   <i type="int" name="ANTIRES">     0</i>
   <i name="OMEGAMAX">    -30.00000000</i>
   <i name="OMEGAMIN">    -30.00000000</i>
   <i name="OMEGATL">   -200.00000000</i>
   <i type="int" name="OMEGAGRID">     0</i>
   <i name="CSHIFT">     -0.10000000</i>
   <i type="logical" name="SELFENERGY"> F  </i>
   <i type="logical" name="LSPECTRAL"> F  </i>
   <i type="logical" name="LSPECTRALGW"> F  </i>
   <i type="logical" name="LSINGLES"> F  </i>
   <i type="logical" name="LFERMIGW"> F  </i>
   <i type="logical" name="ODDONLYGW"> F  </i>
   <i type="logical" name="EVENONLYGW"> F  </i>
   <i type="int" name="NKREDLFX">     1</i>
   <i type="int" name="NKREDLFY">     1</i>
   <i type="int" name="NKREDLFZ">     1</i>
   <i type="int" name="MAXMEM">  1800</i>
   <i type="int" name="TELESCOPE">     0</i>
   <i type="int" name="TAUPAR">     1</i>
   <i type="int" name="OMEGAPAR">    -1</i>
   <i name="LAMBDA">      1.00000000</i>
  </separator>
  <separator name="External order field" >
   <i name="OFIELD_KAPPA">      0.00000000</i>
   <v name="OFIELD_K">      0.00000000      0.00000000      0.00000000</v>
   <i name="OFIELD_Q6_NEAR">      0.00000000</i>
   <i name="OFIELD_Q6_FAR">      0.00000000</i>
   <i name="OFIELD_A">      0.00000000</i>
  </separator>
 </parameters>
 <atominfo>
  <atoms>      48 </atoms>
  <types>       2 </types>
  <array name="atoms" >
   <dimension dim="1">ion</dimension>
   <field type="string">element</field>
   <field type="int">atomtype</field>
   <set>
    <rc><c>Au</c><c>   1</c></rc>
    <rc><c>Au</c><c>   1</c></rc>
    <rc><c>Au</c><c>   1</c></rc>
    <rc><c>Au</c><c>   1</c></rc>
    <rc><c>Au</c><c>   1</c></rc>
    <rc><c>Au</c><c>   1</c></rc>
    <rc><c>Au</c><c>   1</c></rc>
    <rc><c>Au</c><c>   1</c></rc>
    <rc><c>Au</c><c>   1</c></rc>
    <rc><c>Au</c><c>   1</c></rc>
    <rc><c>Au</c><c>   1</c></rc>
    <rc><c>Au</c><c>   1</c></rc>
    <rc><c>Au</c><c>   1</c></rc>
    <rc><c>Au</c><c>   1</c></rc>
    <rc><c>Au</c><c>   1</c></rc>
    <rc><c>Au</c><c>   1</c></rc>
    <rc><c>Au</c><c>   1</c></rc>
    <rc><c>Au</c><c>   1</c></rc>
    <rc><c>Au</c><c>   1</c></rc>
    <rc><c>Au</c><c>   1</c></rc>
    <rc><c>Au</c><c>   1</c></rc>
    <rc><c>Au</c><c>   1</c></rc>
    <rc><c>Au</c><c>   1</c></rc>
    <rc><c>Au</c><c>   1</c></rc>
    <rc><c>Pd</c><c>   2</c></rc>
    <rc><c>Pd</c><c>   2</c></rc>
    <rc><c>Pd</c><c>   2</c></rc>
    <rc><c>Pd</c><c>   2</c></rc>
    <rc><c>Pd</c><c>   2</c></rc>
    <rc><c>Pd</c><c>   2</c></rc>
    <rc><c>Pd</c><c>   2</c></rc>
    <rc><c>Pd</c><c>   2</c></rc>
    <rc><c>Pd</c><c>   2</c></rc>
    <rc><c>Pd</c><c>   2</c></rc>
    <rc><c>Pd</c><c>   2</c></rc>
    <rc><c>Pd</c><c>   2</c></rc>
    <rc><c>Pd</c><c>   2</c></rc>
    <rc><c>Pd</c><c>   2</c></rc>
    <rc><c>Pd</c><c>   2</c></rc>
    <rc><c>Pd</c><c>   2</c></rc>
    <rc><c>Pd</c><c>   2</c></rc>
    <rc><c>Pd</c><c>   2</c></rc>
    <rc><c>Pd</c><c>   2</c></rc>
    <rc><c>Pd</c><c>   2</c></rc>
    <rc><c>Pd</c><c>   2</c></rc>
    <rc><c>Pd</c><c>   2</c></rc>
    <rc><c>Pd</c><c>   2</c></rc>
    <rc><c>Pd</c><c>   2</c></rc>
   </set>
  </array>
  <array name="atomtypes" >
   <dimension dim="1">type</dimension>
   <field type="int">atomspertype</field>
   <field type="string">element</field>
   <field>mass</field>
   <field>valence</field>
   <field type="string">pseudopotential</field>
   <set>
    <rc><c>  24</c><c>Au</c><c>    196.96600000</c><c>     11.00000000</c><c>  PAW_PBE Au 04Oct2007                  </c></rc>
    <rc><c>  24</c><c>Pd</c><c>    106.42000000</c><c>     10.00000000</c><c>  PAW_PBE Pd 04Jan2005                  </c></rc>
   </set>
  </array>
 </atominfo>
 <structure name="initialpos" >
  <crystal>
   <varray name="basis" >
    <v>      11.00258152       0.00000000       0.00000000 </v>
    <v>       5.50129076       9.52851510       0.00000000 </v>
    <v>       0.00000000       0.00000000      24.49178509 </v>
   </varray>
   <i name="volume">   2567.67623402 </i>
   <varray name="rec_basis" >
    <v>       0.09088776      -0.05247407       0.00000000 </v>
    <v>       0.00000000       0.10494815       0.00000000 </v>
    <v>       0.00000000       0.00000000       0.04083002 </v>
   </varray>
  </crystal>
  <varray name="positions" >
   <v>       0.08333333       0.08333333       0.40830017 </v>
   <v>       0.83333333       0.83333333       0.40830017 </v>
   <v>       0.75000000       0.25000000       0.59169983 </v>
   <v>       0.66666667       0.41666667       0.50000000 </v>
   <v>       0.75000000       0.00000000       0.59169983 </v>
   <v>       0.83333333       0.08333333       0.40830017 </v>
   <v>       0.58333333       0.58333333       0.40830017 </v>
   <v>       0.58333333       0.33333333       0.40830017 </v>
   <v>       0.41666667       0.16666667       0.50000000 </v>
   <v>       0.66666667       0.91666667       0.50000000 </v>
   <v>       0.33333333       0.83333333       0.40830017 </v>
   <v>       0.33333333       0.58333333       0.40830017 </v>
   <v>       0.25000000       0.25000000       0.59169983 </v>
   <v>       0.16666667       0.41666667       0.50000000 </v>
   <v>       0.33333333       0.33333333       0.40830017 </v>
   <v>       0.75000000       0.75000000       0.59169983 </v>
   <v>       0.16666667       0.16666667       0.50000000 </v>
   <v>       0.08333333       0.58333333       0.40830017 </v>
   <v>       0.00000000       0.25000000       0.59169983 </v>
   <v>       0.08333333       0.83333333       0.40830017 </v>
   <v>       0.91666667       0.91666667       0.50000000 </v>
   <v>       0.00000000       0.00000000       0.59169983 </v>
   <v>       0.91666667       0.16666667       0.50000000 </v>
   <v>       0.33333333       0.08333333       0.40830017 </v>
   <v>       0.83333333       0.58333333       0.40830017 </v>
   <v>       0.75000000       0.50000000       0.59169983 </v>
   <v>       0.50000000       0.75000000       0.59169983 </v>
   <v>       0.08333333       0.33333333       0.40830017 </v>
   <v>       0.83333333       0.33333333       0.40830017 </v>
   <v>       0.91666667       0.41666667       0.50000000 </v>
   <v>       0.66666667       0.16666667       0.50000000 </v>
   <v>       0.66666667       0.66666667       0.50000000 </v>
   <v>       0.41666667       0.91666667       0.50000000 </v>
   <v>       0.41666667       0.66666667       0.50000000 </v>
   <v>       0.50000000       0.50000000       0.59169983 </v>
   <v>       0.25000000       0.00000000       0.59169983 </v>
   <v>       0.50000000       0.25000000       0.59169983 </v>
   <v>       0.41666667       0.41666667       0.50000000 </v>
   <v>       0.91666667       0.66666667       0.50000000 </v>
   <v>       0.50000000       0.00000000       0.59169983 </v>
   <v>       0.00000000       0.50000000       0.59169983 </v>
   <v>       0.58333333       0.08333333       0.40830017 </v>
   <v>       0.16666667       0.91666667       0.50000000 </v>
   <v>       0.25000000       0.50000000       0.59169983 </v>
   <v>       0.16666667       0.66666667       0.50000000 </v>
   <v>       0.00000000       0.75000000       0.59169983 </v>
   <v>       0.58333333       0.83333333       0.40830017 </v>
   <v>       0.25000000       0.75000000       0.59169983 </v>
  </varray>
 </structure>
 <calculation>
  <scstep>
   <time name="dav">    6.79    6.81</time>
   <time name="total">    6.84    6.87</time>
   <dipole>
    <v name="dipole">      0.00000000       0.00000000       0.00000370 </v>
    <i name="Tr[quadrupol]"> -10158.78733816 </i>
    <i name="Echarged">      0.00000000 </i>
    <i name="Edipol_quadrupol">      0.00000000 </i>
    <i name="Eion">      0.00000000 </i>
   </dipole>
   <energy>
    <i name="alphaZ">    805.86936721 </i>
    <i name="ewald"> 199948.83227721 </i>
    <i name="hartreedc">-242362.92524844 </i>
    <i name="XCdc">   -327.68653175 </i>
    <i name="pawpsdc">  40340.05962942 </i>
    <i name="pawaedc"> -38292.62782345 </i>
    <i name="eentropy">     -0.13222837 </i>
    <i name="bandstr">   1429.19286247 </i>
    <i name="atom">  41659.78587232 </i>
    <i name="e_fr_energy">   3200.36817663 </i>
    <i name="e_wo_entrp">   3200.50040500 </i>
    <i name="e_0_energy">   3200.43429081 </i>
   </energy>
  </scstep>
  <scstep>
   <time name="dav">    8.04    8.06</time>
   <time name="total">    8.04    8.07</time>
   <dipole>
    <v name="dipole">      0.00000000       0.00000000       0.00000370 </v>
    <i name="Tr[quadrupol]"> -10158.78733816 </i>
    <i name="Echarged">      0.00000000 </i>
    <i name="Edipol_quadrupol">      0.00000000 </i>
    <i name="Eion">      0.00000000 </i>
   </dipole>
   <energy>
    <i name="e_fr_energy">     11.91425838 </i>
    <i name="e_wo_entrp">     12.05953054 </i>
    <i name="e_0_energy">     11.98689446 </i>
   </energy>
  </scstep>
  <scstep>
   <time name="dav">    7.85    7.89</time>
   <time name="total">    7.85    7.89</time>
   <dipole>
    <v name="dipole">      0.00000000       0.00000000       0.00000370 </v>
    <i name="Tr[quadrupol]"> -10158.78733816 </i>
    <i name="Echarged">      0.00000000 </i>
    <i name="Edipol_quadrupol">      0.00000000 </i>
    <i name="Eion">      0.00000000 </i>
   </dipole>
   <energy>
    <i name="e_fr_energy">   -201.77791665 </i>
    <i name="e_wo_entrp">   -201.59187489 </i>
    <i name="e_0_energy">   -201.68489577 </i>
   </energy>
  </scstep>
  <scstep>
   <time name="dav">    8.02    8.11</time>
   <time name="total">    8.02    8.12</time>
   <dipole>
    <v name="dipole">      0.00000000       0.00000000       0.00000370 </v>
    <i name="Tr[quadrupol]"> -10158.78733816 </i>
    <i name="Echarged">      0.00000000 </i>
    <i name="Edipol_quadrupol">      0.00000000 </i>
    <i name="Eion">      0.00000000 </i>
   </dipole>
   <energy>
    <i name="e_fr_energy">   -207.52745413 </i>
    <i name="e_wo_entrp">   -207.33547210 </i>
    <i name="e_0_energy">   -207.43146311 </i>
   </energy>
  </scstep>
  <scstep>
   <time name="dav">    8.31    8.33</time>
   <time name="total">    8.55    8.58</time>
   <dipole>
    <v name="dipole">      0.00000000       0.00000000       0.00000370 </v>
    <i name="Tr[quadrupol]"> -10158.78733816 </i>
    <i name="Echarged">      0.00000000 </i>
    <i name="Edipol_quadrupol">      0.00000000 </i>
    <i name="Eion">      0.00000000 </i>
   </dipole>
   <energy>
    <i name="e_fr_energy">   -207.71429673 </i>
    <i name="e_wo_entrp">   -207.52210175 </i>
    <i name="e_0_energy">   -207.61819924 </i>
   </energy>
  </scstep>
  <scstep>
   <time name="diag">    1.21    1.22</time>
   <time name="diis">    3.35    3.35</time>
   <time name="orth">    0.29    0.29</time>
   <time name="total">    5.15    5.17</time>
   <dipole>
    <v name="dipole">      0.00000000       0.00000000       1.67560588 </v>
    <i name="Tr[quadrupol]"> -10160.85570863 </i>
    <i name="Echarged">      0.00000000 </i>
    <i name="Edipol_quadrupol">      0.00000000 </i>
    <i name="Eion">      0.00000000 </i>
   </dipole>
   <energy>
    <i name="e_fr_energy">   -216.55875863 </i>
    <i name="e_wo_entrp">   -216.30048494 </i>
    <i name="e_0_energy">   -216.42962178 </i>
   </energy>
  </scstep>
  <scstep>
   <time name="diag">    1.22    1.22</time>
   <time name="diis">    3.32    3.33</time>
   <time name="orth">    0.29    0.29</time>
   <time name="total">    5.11    5.13</time>
   <dipole>
    <v name="dipole">      0.00000000       0.00000000      -1.07021869 </v>
    <i name="Tr[quadrupol]"> -10160.06942492 </i>
    <i name="Echarged">      0.00000000 </i>
    <i name="Edipol_quadrupol">      0.00000000 </i>
    <i name="Eion">      0.00000000 </i>
   </dipole>
   <energy>
    <i name="e_fr_energy">   -212.22464232 </i>
    <i name="e_wo_entrp">   -212.01363797 </i>
    <i name="e_0_energy">   -212.11914014 </i>
   </energy>
  </scstep>
  <scstep>
   <time name="diag">    1.23    1.24</time>
   <time name="diis">    3.39    3.40</time>
   <time name="orth">    0.29    0.29</time>
   <time name="total">    5.20    5.22</time>
   <dipole>
    <v name="dipole">      0.00000000       0.00000000       1.33582355 </v>
    <i name="Tr[quadrupol]"> -10159.93746567 </i>
    <i name="Echarged">      0.00000000 </i>
    <i name="Edipol_quadrupol">      0.00000000 </i>
    <i name="Eion">      0.00000000 </i>
   </dipole>
   <energy>
    <i name="e_fr_energy">   -216.06176370 </i>
    <i name="e_wo_entrp">   -215.77841803 </i>
    <i name="e_0_energy">   -215.92009086 </i>
   </energy>
  </scstep>
  <scstep>
   <time name="diag">    1.21    1.22</time>
   <time name="diis">    3.36    3.37</time>
   <time name="orth">    0.29    0.29</time>
   <time name="total">    5.15    5.17</time>
   <dipole>
    <v name="dipole">      0.00000000       0.00000000      -0.18827543 </v>
    <i name="Tr[quadrupol]"> -10160.46284878 </i>
    <i name="Echarged">      0.00000000 </i>
    <i name="Edipol_quadrupol">      0.00000000 </i>
    <i name="Eion">      0.00000000 </i>
   </dipole>
   <energy>
    <i name="e_fr_energy">   -213.94869218 </i>
    <i name="e_wo_entrp">   -213.73244584 </i>
    <i name="e_0_energy">   -213.84056901 </i>
   </energy>
  </scstep>
  <scstep>
   <time name="diag">    1.21    1.21</time>
   <time name="diis">    3.39    3.40</time>
   <time name="orth">    0.29    0.29</time>
   <time name="total">    5.18    5.19</time>
   <dipole>
    <v name="dipole">      0.00000000       0.00000000       0.59935528 </v>
    <i name="Tr[quadrupol]"> -10160.48750290 </i>
    <i name="Echarged">      0.00000000 </i>
    <i name="Edipol_quadrupol">      0.00000000 </i>
    <i name="Eion">      0.00000000 </i>
   </dipole>
   <energy>
    <i name="e_fr_energy">   -200.94649945 </i>
    <i name="e_wo_entrp">   -200.74670589 </i>
    <i name="e_0_energy">   -200.84660267 </i>
   </energy>
  </scstep>
  <scstep>
   <time name="diag">    1.21    1.22</time>
   <time name="diis">    3.28    3.37</time>
   <time name="orth">    0.29    0.29</time>
   <time name="total">    5.07    5.17</time>
   <dipole>
    <v name="dipole">      0.00000000       0.00000000       0.30680823 </v>
    <i name="Tr[quadrupol]"> -10160.95121857 </i>
    <i name="Echarged">      0.00000000 </i>
    <i name="Edipol_quadrupol">      0.00000000 </i>
    <i name="Eion">      0.00000000 </i>
   </dipole>
   <energy>
    <i name="e_fr_energy">   -195.27318180 </i>
    <i name="e_wo_entrp">   -195.10244148 </i>
    <i name="e_0_energy">   -195.18781164 </i>
   </energy>
  </scstep>
  <scstep>
   <time name="diag">    1.22    1.22</time>
   <time name="diis">    3.35    3.36</time>
   <time name="orth">    0.29    0.29</time>
   <time name="total">    5.15    5.16</time>
   <dipole>
    <v name="dipole">      0.00000000       0.00000000       0.24514904 </v>
    <i name="Tr[quadrupol]"> -10161.23353688 </i>
    <i name="Echarged">      0.00000000 </i>
    <i name="Edipol_quadrupol">      0.00000000 </i>
    <i name="Eion">      0.00000000 </i>
   </dipole>
   <energy>
    <i name="e_fr_energy">   -190.48709703 </i>
    <i name="e_wo_entrp">   -190.28720117 </i>
    <i name="e_0_energy">   -190.38714910 </i>
   </energy>
  </scstep>
  <scstep>
   <time name="diag">    1.22    1.23</time>
   <time name="diis">    3.32    3.33</time>
   <time name="orth">    0.29    0.29</time>
   <time name="total">    5.12    5.14</time>
   <dipole>
    <v name="dipole">      0.00000000       0.00000000       0.20074752 </v>
    <i name="Tr[quadrupol]"> -10161.34429584 </i>
    <i name="Echarged">      0.00000000 </i>
    <i name="Edipol_quadrupol">      0.00000000 </i>
    <i name="Eion">      0.00000000 </i>
   </dipole>
   <energy>
    <i name="e_fr_energy">   -189.12494921 </i>
    <i name="e_wo_entrp">   -188.90426280 </i>
    <i name="e_0_energy">   -189.01460601 </i>
   </energy>
  </scstep>
  <scstep>
   <time name="diag">    1.21    1.22</time>
   <time name="diis">    3.35    3.36</time>
   <time name="orth">    0.28    0.28</time>
   <time name="total">    5.13    5.15</time>
   <dipole>
    <v name="dipole">      0.00000000       0.00000000       0.18763701 </v>
    <i name="Tr[quadrupol]"> -10161.60521409 </i>
    <i name="Echarged">      0.00000000 </i>
    <i name="Edipol_quadrupol">      0.00000000 </i>
    <i name="Eion">      0.00000000 </i>
   </dipole>
   <energy>
    <i name="e_fr_energy">   -189.01651034 </i>
    <i name="e_wo_entrp">   -188.79851072 </i>
    <i name="e_0_energy">   -188.90751053 </i>
   </energy>
  </scstep>
  <scstep>
   <time name="diag">    1.21    1.21</time>
   <time name="diis">    3.37    3.38</time>
   <time name="orth">    0.28    0.28</time>
   <time name="total">    5.15    5.17</time>
   <dipole>
    <v name="dipole">      0.00000000       0.00000000       0.20718982 </v>
    <i name="Tr[quadrupol]"> -10161.83767651 </i>
    <i name="Echarged">      0.00000000 </i>
    <i name="Edipol_quadrupol">      0.00000000 </i>
    <i name="Eion">      0.00000000 </i>
   </dipole>
   <energy>
    <i name="e_fr_energy">   -188.91666275 </i>
    <i name="e_wo_entrp">   -188.70096874 </i>
    <i name="e_0_energy">   -188.80881575 </i>
   </energy>
  </scstep>
  <scstep>
   <time name="diag">    1.22    1.22</time>
   <time name="diis">    3.39    3.40</time>
   <time name="orth">    0.28    0.28</time>
   <time name="total">    5.18    5.20</time>
   <dipole>
    <v name="dipole">      0.00000000       0.00000000       0.19991868 </v>
    <i name="Tr[quadrupol]"> -10162.30437600 </i>
    <i name="Echarged">      0.00000000 </i>
    <i name="Edipol_quadrupol">      0.00000000 </i>
    <i name="Eion">      0.00000000 </i>
   </dipole>
   <energy>
    <i name="e_fr_energy">   -189.05208460 </i>
    <i name="e_wo_entrp">   -188.82027737 </i>
    <i name="e_0_energy">   -188.93618098 </i>
   </energy>
  </scstep>
  <scstep>
   <time name="diag">    1.21    1.21</time>
   <time name="diis">    3.38    3.39</time>
   <time name="orth">    0.28    0.28</time>
   <time name="total">    5.16    5.18</time>
   <dipole>
    <v name="dipole">      0.00000000       0.00000000       0.17417512 </v>
    <i name="Tr[quadrupol]"> -10162.67363446 </i>
    <i name="Echarged">      0.00000000 </i>
    <i name="Edipol_quadrupol">      0.00000000 </i>
    <i name="Eion">      0.00000000 </i>
   </dipole>
   <energy>
    <i name="e_fr_energy">   -188.67334982 </i>
    <i name="e_wo_entrp">   -188.42993614 </i>
    <i name="e_0_energy">   -188.55164298 </i>
   </energy>
  </scstep>
  <scstep>
   <time name="diag">    1.20    1.21</time>
   <time name="diis">    3.39    3.40</time>
   <time name="orth">    0.28    0.28</time>
   <time name="total">    5.16    5.18</time>
   <dipole>
    <v name="dipole">      0.00000000       0.00000000       0.13345972 </v>
    <i name="Tr[quadrupol]"> -10162.84901283 </i>
    <i name="Echarged">      0.00000000 </i>
    <i name="Edipol_quadrupol">      0.00000000 </i>
    <i name="Eion">      0.00000000 </i>
   </dipole>
   <energy>
    <i name="e_fr_energy">   -188.57235452 </i>
    <i name="e_wo_entrp">   -188.32747681 </i>
    <i name="e_0_energy">   -188.44991566 </i>
   </energy>
  </scstep>
  <scstep>
   <time name="diag">    1.21    1.21</time>
   <time name="diis">    3.30    3.39</time>
   <time name="orth">    0.28    0.28</time>
   <time name="total">    5.08    5.18</time>
   <dipole>
    <v name="dipole">      0.00000000       0.00000000       0.10540392 </v>
    <i name="Tr[quadrupol]"> -10162.99937473 </i>
    <i name="Echarged">      0.00000000 </i>
    <i name="Edipol_quadrupol">      0.00000000 </i>
    <i name="Eion">      0.00000000 </i>
   </dipole>
   <energy>
    <i name="e_fr_energy">   -188.54165860 </i>
    <i name="e_wo_entrp">   -188.29438598 </i>
    <i name="e_0_energy">   -188.41802229 </i>
   </energy>
  </scstep>
  <scstep>
   <time name="diag">    1.21    1.21</time>
   <time name="diis">    3.34    3.34</time>
   <time name="orth">    0.28    0.28</time>
   <time name="total">    5.11    5.13</time>
   <dipole>
    <v name="dipole">      0.00000000       0.00000000       0.09988773 </v>
    <i name="Tr[quadrupol]"> -10163.06534936 </i>
    <i name="Echarged">      0.00000000 </i>
    <i name="Edipol_quadrupol">      0.00000000 </i>
    <i name="Eion">      0.00000000 </i>
   </dipole>
   <energy>
    <i name="e_fr_energy">   -188.53495879 </i>
    <i name="e_wo_entrp">   -188.28753629 </i>
    <i name="e_0_energy">   -188.41124754 </i>
   </energy>
  </scstep>
  <scstep>
   <time name="diag">    1.21    1.21</time>
   <time name="diis">    3.36    3.37</time>
   <time name="orth">    0.28    0.28</time>
   <time name="total">    5.14    5.16</time>
   <dipole>
    <v name="dipole">      0.00000000       0.00000000       0.09101813 </v>
    <i name="Tr[quadrupol]"> -10163.21181432 </i>
    <i name="Echarged">      0.00000000 </i>
    <i name="Edipol_quadrupol">      0.00000000 </i>
    <i name="Eion">      0.00000000 </i>
   </dipole>
   <energy>
    <i name="e_fr_energy">   -188.53368162 </i>
    <i name="e_wo_entrp">   -188.28751552 </i>
    <i name="e_0_energy">   -188.41059857 </i>
   </energy>
  </scstep>
  <scstep>
   <time name="diag">    1.20    1.21</time>
   <time name="diis">    3.37    3.38</time>
   <time name="orth">    0.28    0.28</time>
   <time name="total">    5.15    5.16</time>
   <dipole>
    <v name="dipole">      0.00000000       0.00000000       0.08509525 </v>
    <i name="Tr[quadrupol]"> -10163.35604715 </i>
    <i name="Echarged">      0.00000000 </i>
    <i name="Edipol_quadrupol">      0.00000000 </i>
    <i name="Eion">      0.00000000 </i>
   </dipole>
   <energy>
    <i name="e_fr_energy">   -188.53223038 </i>
    <i name="e_wo_entrp">   -188.28639499 </i>
    <i name="e_0_energy">   -188.40931268 </i>
   </energy>
  </scstep>
  <scstep>
   <time name="diag">    1.21    1.21</time>
   <time name="diis">    3.34    3.35</time>
   <time name="orth">    0.28    0.28</time>
   <time name="total">    5.12    5.14</time>
   <dipole>
    <v name="dipole">      0.00000000       0.00000000       0.08116410 </v>
    <i name="Tr[quadrupol]"> -10163.43568366 </i>
    <i name="Echarged">      0.00000000 </i>
    <i name="Edipol_quadrupol">      0.00000000 </i>
    <i name="Eion">      0.00000000 </i>
   </dipole>
   <energy>
    <i name="e_fr_energy">   -188.52934461 </i>
    <i name="e_wo_entrp">   -188.28440712 </i>
    <i name="e_0_energy">   -188.40687587 </i>
   </energy>
  </scstep>
  <scstep>
   <time name="diag">    1.21    1.22</time>
   <time name="diis">    3.35    3.36</time>
   <time name="orth">    0.28    0.28</time>
   <time name="total">    5.13    5.15</time>
   <dipole>
    <v name="dipole">      0.00000000       0.00000000       0.07715089 </v>
    <i name="Tr[quadrupol]"> -10163.53265878 </i>
    <i name="Echarged">      0.00000000 </i>
    <i name="Edipol_quadrupol">      0.00000000 </i>
    <i name="Eion">      0.00000000 </i>
   </dipole>
   <energy>
    <i name="e_fr_energy">   -188.52854232 </i>
    <i name="e_wo_entrp">   -188.28337914 </i>
    <i name="e_0_energy">   -188.40596073 </i>
   </energy>
  </scstep>
  <scstep>
   <time name="diag">    1.20    1.22</time>
   <time name="diis">    3.33    3.34</time>
   <time name="orth">    0.28    0.28</time>
   <time name="total">    5.10    5.13</time>
   <dipole>
    <v name="dipole">      0.00000000       0.00000000       0.07343543 </v>
    <i name="Tr[quadrupol]"> -10163.58562824 </i>
    <i name="Echarged">      0.00000000 </i>
    <i name="Edipol_quadrupol">      0.00000000 </i>
    <i name="Eion">      0.00000000 </i>
   </dipole>
   <energy>
    <i name="e_fr_energy">   -188.52850152 </i>
    <i name="e_wo_entrp">   -188.28239094 </i>
    <i name="e_0_energy">   -188.40544623 </i>
   </energy>
  </scstep>
  <scstep>
   <time name="diag">    1.20    1.21</time>
   <time name="diis">    3.38    3.40</time>
   <time name="orth">    0.28    0.28</time>
   <time name="total">    5.16    5.18</time>
   <dipole>
    <v name="dipole">      0.00000000       0.00000000       0.06583115 </v>
    <i name="Tr[quadrupol]"> -10163.67060232 </i>
    <i name="Echarged">      0.00000000 </i>
    <i name="Edipol_quadrupol">      0.00000000 </i>
    <i name="Eion">      0.00000000 </i>
   </dipole>
   <energy>
    <i name="e_fr_energy">   -188.52870957 </i>
    <i name="e_wo_entrp">   -188.28276327 </i>
    <i name="e_0_energy">   -188.40573642 </i>
   </energy>
  </scstep>
  <scstep>
   <time name="diag">    1.20    1.25</time>
   <time name="diis">    3.30    3.34</time>
   <time name="orth">    0.28    0.28</time>
   <time name="total">    5.08    5.18</time>
   <dipole>
    <v name="dipole">      0.00000000       0.00000000       0.06152946 </v>
    <i name="Tr[quadrupol]"> -10163.73147099 </i>
    <i name="Echarged">      0.00000000 </i>
    <i name="Edipol_quadrupol">      0.00000000 </i>
    <i name="Eion">      0.00000000 </i>
   </dipole>
   <energy>
    <i name="e_fr_energy">   -188.52896457 </i>
    <i name="e_wo_entrp">   -188.28291206 </i>
    <i name="e_0_energy">   -188.40593831 </i>
   </energy>
  </scstep>
  <scstep>
   <time name="diag">    1.21    1.22</time>
   <time name="diis">    3.53    3.53</time>
   <time name="orth">    0.28    0.28</time>
   <time name="total">    5.31    5.32</time>
   <dipole>
    <v name="dipole">      0.00000000       0.00000000       0.05838611 </v>
    <i name="Tr[quadrupol]"> -10163.79583015 </i>
    <i name="Echarged">      0.00000000 </i>
    <i name="Edipol_quadrupol">      0.00000000 </i>
    <i name="Eion">      0.00000000 </i>
   </dipole>
   <energy>
    <i name="e_fr_energy">   -188.52930713 </i>
    <i name="e_wo_entrp">   -188.28346655 </i>
    <i name="e_0_energy">   -188.40638684 </i>
   </energy>
  </scstep>
  <scstep>
   <time name="diag">    1.21    1.21</time>
   <time name="diis">    3.42    3.43</time>
   <time name="orth">    0.28    0.28</time>
   <time name="total">    5.20    5.22</time>
   <dipole>
    <v name="dipole">      0.00000000       0.00000000       0.05629692 </v>
    <i name="Tr[quadrupol]"> -10163.83351020 </i>
    <i name="Echarged">      0.00000000 </i>
    <i name="Edipol_quadrupol">      0.00000000 </i>
    <i name="Eion">      0.00000000 </i>
   </dipole>
   <energy>
    <i name="e_fr_energy">   -188.52962394 </i>
    <i name="e_wo_entrp">   -188.28383161 </i>
    <i name="e_0_energy">   -188.40672778 </i>
   </energy>
  </scstep>
  <scstep>
   <time name="diag">    1.21    1.21</time>
   <time name="diis">    3.32    3.33</time>
   <time name="orth">    0.28    0.28</time>
   <time name="total">    5.10    5.11</time>
   <dipole>
    <v name="dipole">      0.00000000       0.00000000       0.05238719 </v>
    <i name="Tr[quadrupol]"> -10163.88490503 </i>
    <i name="Echarged">      0.00000000 </i>
    <i name="Edipol_quadrupol">      0.00000000 </i>
    <i name="Eion">      0.00000000 </i>
   </dipole>
   <energy>
    <i name="e_fr_energy">   -188.53008933 </i>
    <i name="e_wo_entrp">   -188.28410615 </i>
    <i name="e_0_energy">   -188.40709774 </i>
   </energy>
  </scstep>
  <scstep>
   <time name="diag">    1.21    1.21</time>
   <time name="diis">    3.36    3.37</time>
   <time name="orth">    0.28    0.28</time>
   <time name="total">    5.14    5.15</time>
   <dipole>
    <v name="dipole">      0.00000000       0.00000000       0.04818982 </v>
    <i name="Tr[quadrupol]"> -10163.93803335 </i>
    <i name="Echarged">      0.00000000 </i>
    <i name="Edipol_quadrupol">      0.00000000 </i>
    <i name="Eion">      0.00000000 </i>
   </dipole>
   <energy>
    <i name="e_fr_energy">   -188.53063230 </i>
    <i name="e_wo_entrp">   -188.28469981 </i>
    <i name="e_0_energy">   -188.40766606 </i>
   </energy>
  </scstep>
  <scstep>
   <time name="diag">    1.21    1.21</time>
   <time name="diis">    3.41    3.42</time>
   <time name="orth">    0.28    0.28</time>
   <time name="total">    5.19    5.21</time>
   <dipole>
    <v name="dipole">      0.00000000       0.00000000       0.04161679 </v>
    <i name="Tr[quadrupol]"> -10164.01502551 </i>
    <i name="Echarged">      0.00000000 </i>
    <i name="Edipol_quadrupol">      0.00000000 </i>
    <i name="Eion">      0.00000000 </i>
   </dipole>
   <energy>
    <i name="e_fr_energy">   -188.53134012 </i>
    <i name="e_wo_entrp">   -188.28528017 </i>
    <i name="e_0_energy">   -188.40831014 </i>
   </energy>
  </scstep>
  <scstep>
   <time name="diag">    1.21    1.21</time>
   <time name="diis">    2.86    2.87</time>
   <time name="orth">    0.28    0.28</time>
   <time name="total">    4.64    4.66</time>
   <dipole>
    <v name="dipole">      0.00000000       0.00000000       0.03900524 </v>
    <i name="Tr[quadrupol]"> -10164.04347223 </i>
    <i name="Echarged">      0.00000000 </i>
    <i name="Edipol_quadrupol">      0.00000000 </i>
    <i name="Eion">      0.00000000 </i>
   </dipole>
   <energy>
    <i name="e_fr_energy">   -188.53158143 </i>
    <i name="e_wo_entrp">   -188.28559100 </i>
    <i name="e_0_energy">   -188.40858622 </i>
   </energy>
  </scstep>
  <scstep>
   <time name="diag">    1.20    1.21</time>
   <time name="diis">    2.59    2.59</time>
   <time name="orth">    0.28    0.28</time>
   <time name="total">    4.36    4.38</time>
   <dipole>
    <v name="dipole">      0.00000000       0.00000000       0.03712501 </v>
    <i name="Tr[quadrupol]"> -10164.06150710 </i>
    <i name="Echarged">      0.00000000 </i>
    <i name="Edipol_quadrupol">      0.00000000 </i>
    <i name="Eion">      0.00000000 </i>
   </dipole>
   <energy>
    <i name="e_fr_energy">   -188.53172944 </i>
    <i name="e_wo_entrp">   -188.28578524 </i>
    <i name="e_0_energy">   -188.40875734 </i>
   </energy>
  </scstep>
  <scstep>
   <time name="diag">    1.20    1.27</time>
   <time name="diis">    2.34    2.36</time>
   <time name="orth">    0.28    0.28</time>
   <time name="total">    4.11    4.21</time>
   <dipole>
    <v name="dipole">      0.00000000       0.00000000       0.03577175 </v>
    <i name="Tr[quadrupol]"> -10164.07305183 </i>
    <i name="Echarged">      0.00000000 </i>
    <i name="Edipol_quadrupol">      0.00000000 </i>
    <i name="Eion">      0.00000000 </i>
   </dipole>
   <energy>
    <i name="e_fr_energy">   -188.53181378 </i>
    <i name="e_wo_entrp">   -188.28586338 </i>
    <i name="e_0_energy">   -188.40883858 </i>
   </energy>
  </scstep>
  <scstep>
   <time name="diag">    1.21    1.21</time>
   <time name="diis">    2.13    2.14</time>
   <time name="orth">    0.28    0.28</time>
   <time name="total">    3.91    3.93</time>
   <dipole>
    <v name="dipole">      0.00000000       0.00000000       0.03471933 </v>
    <i name="Tr[quadrupol]"> -10164.08007832 </i>
    <i name="Echarged">      0.00000000 </i>
    <i name="Edipol_quadrupol">      0.00000000 </i>
    <i name="Eion">      0.00000000 </i>
   </dipole>
   <energy>
    <i name="e_fr_energy">   -188.53187207 </i>
    <i name="e_wo_entrp">   -188.28592309 </i>
    <i name="e_0_energy">   -188.40889758 </i>
   </energy>
  </scstep>
  <scstep>
   <time name="diag">    1.20    1.22</time>
   <time name="diis">    2.08    2.10</time>
   <time name="orth">    0.28    0.28</time>
   <time name="total">    3.85    3.89</time>
   <dipole>
    <v name="dipole">      0.00000000       0.00000000       0.03337974 </v>
    <i name="Tr[quadrupol]"> -10164.08693389 </i>
    <i name="Echarged">      0.00000000 </i>
    <i name="Edipol_quadrupol">      0.00000000 </i>
    <i name="Eion">      0.00000000 </i>
   </dipole>
   <energy>
    <i name="e_fr_energy">   -188.53193085 </i>
    <i name="e_wo_entrp">   -188.28596947 </i>
    <i name="e_0_energy">   -188.40895016 </i>
   </energy>
  </scstep>
  <scstep>
   <time name="diag">    1.21    1.21</time>
   <time name="diis">    2.01    2.02</time>
   <time name="orth">    0.28    0.28</time>
   <time name="total">    3.80    3.81</time>
   <dipole>
    <v name="dipole">      0.00000000       0.00000000       0.03274456 </v>
    <i name="Tr[quadrupol]"> -10164.09017144 </i>
    <i name="Echarged">      0.00000000 </i>
    <i name="Edipol_quadrupol">      0.00000000 </i>
    <i name="Eion">      0.00000000 </i>
   </dipole>
   <energy>
    <i name="e_fr_energy">   -188.53195219 </i>
    <i name="e_wo_entrp">   -188.28600043 </i>
    <i name="e_0_energy">   -188.40897631 </i>
   </energy>
  </scstep>
  <scstep>
   <time name="diag">    1.21    1.21</time>
   <time name="diis">    2.00    2.01</time>
   <time name="orth">    0.28    0.28</time>
   <time name="total">    3.78    3.80</time>
   <dipole>
    <v name="dipole">      0.00000000       0.00000000       0.03178658 </v>
    <i name="Tr[quadrupol]"> -10164.09500134 </i>
    <i name="Echarged">      0.00000000 </i>
    <i name="Edipol_quadrupol">      0.00000000 </i>
    <i name="Eion">      0.00000000 </i>
   </dipole>
   <energy>
    <i name="e_fr_energy">   -188.53197432 </i>
    <i name="e_wo_entrp">   -188.28602692 </i>
    <i name="e_0_energy">   -188.40900062 </i>
   </energy>
  </scstep>
  <scstep>
   <time name="diag">    1.21    1.21</time>
   <time name="diis">    1.73    1.74</time>
   <time name="orth">    0.28    0.28</time>
   <time name="total">    3.52    3.53</time>
   <dipole>
    <v name="dipole">      0.00000000       0.00000000       0.03129707 </v>
    <i name="Tr[quadrupol]"> -10164.09747833 </i>
    <i name="Echarged">      0.00000000 </i>
    <i name="Edipol_quadrupol">      0.00000000 </i>
    <i name="Eion">      0.00000000 </i>
   </dipole>
   <energy>
    <i name="e_fr_energy">   -188.53198069 </i>
    <i name="e_wo_entrp">   -188.28603805 </i>
    <i name="e_0_energy">   -188.40900937 </i>
   </energy>
  </scstep>
  <scstep>
   <time name="diag">    1.21    1.21</time>
   <time name="diis">    1.74    1.74</time>
   <time name="orth">    0.28    0.28</time>
   <time name="total">    3.53    3.54</time>
   <dipole>
    <v name="dipole">      0.00000000       0.00000000       0.03079052 </v>
    <i name="Tr[quadrupol]"> -10164.10025832 </i>
    <i name="Echarged">      0.00000000 </i>
    <i name="Edipol_quadrupol">      0.00000000 </i>
    <i name="Eion">      0.00000000 </i>
   </dipole>
   <energy>
    <i name="e_fr_energy">   -188.53198450 </i>
    <i name="e_wo_entrp">   -188.28604130 </i>
    <i name="e_0_energy">   -188.40901290 </i>
   </energy>
  </scstep>
  <scstep>
   <time name="diag">    1.20    1.21</time>
   <time name="diis">    1.52    1.53</time>
   <time name="orth">    0.28    0.28</time>
   <time name="total">    3.30    3.31</time>
   <dipole>
    <v name="dipole">      0.00000000       0.00000000       0.03058782 </v>
    <i name="Tr[quadrupol]"> -10164.10150963 </i>
    <i name="Echarged">      0.00000000 </i>
    <i name="Edipol_quadrupol">      0.00000000 </i>
    <i name="Eion">      0.00000000 </i>
   </dipole>
   <energy>
    <i name="e_fr_energy">   -188.53198573 </i>
    <i name="e_wo_entrp">   -188.28604290 </i>
    <i name="e_0_energy">   -188.40901431 </i>
   </energy>
  </scstep>
  <scstep>
   <time name="diag">    1.21    1.21</time>
   <time name="diis">    1.46    1.46</time>
   <time name="orth">    0.28    0.28</time>
   <time name="total">    3.24    3.25</time>
   <dipole>
    <v name="dipole">      0.00000000       0.00000000       0.03032663 </v>
    <i name="Tr[quadrupol]"> -10164.10320383 </i>
    <i name="Echarged">      0.00000000 </i>
    <i name="Edipol_quadrupol">      0.00000000 </i>
    <i name="Eion">      0.00000000 </i>
   </dipole>
   <energy>
    <i name="e_fr_energy">   -188.53198720 </i>
    <i name="e_wo_entrp">   -188.28604525 </i>
    <i name="e_0_energy">   -188.40901623 </i>
   </energy>
  </scstep>
  <scstep>
   <time name="diag">    1.21    1.21</time>
   <time name="diis">    1.43    1.44</time>
   <time name="orth">    0.28    0.28</time>
   <time name="total">    3.21    3.22</time>
   <dipole>
    <v name="dipole">      0.00000000       0.00000000       0.03012933 </v>
    <i name="Tr[quadrupol]"> -10164.10457130 </i>
    <i name="Echarged">      0.00000000 </i>
    <i name="Edipol_quadrupol">      0.00000000 </i>
    <i name="Eion">      0.00000000 </i>
   </dipole>
   <energy>
    <i name="e_fr_energy">   -188.53198835 </i>
    <i name="e_wo_entrp">   -188.28604578 </i>
    <i name="e_0_energy">   -188.40901707 </i>
   </energy>
  </scstep>
  <scstep>
   <time name="diag">    1.21    1.21</time>
   <time name="diis">    1.37    1.37</time>
   <time name="orth">    0.28    0.28</time>
   <time name="total">    2.91    2.91</time>
   <dipole>
    <v name="dipole">      0.00000000       0.00000000       0.02994859 </v>
    <i name="Tr[quadrupol]"> -10164.10588929 </i>
    <i name="Echarged">      0.00000000 </i>
    <i name="Edipol_quadrupol">      0.00000000 </i>
    <i name="Eion">      0.00000000 </i>
   </dipole>
   <energy>
    <i name="alphaZ">    805.89303377 </i>
    <i name="ewald"> 199948.83227721 </i>
    <i name="hartreedc">-242132.85612708 </i>
    <i name="XCdc">   -343.56545200 </i>
    <i name="pawpsdc">  49363.87448810 </i>
    <i name="pawaedc"> -47442.53205525 </i>
    <i name="eentropy">     -0.24594096 </i>
    <i name="bandstr">  -2047.71808535 </i>
    <i name="atom">  41659.78587232 </i>
    <i name="e_fr_energy">   -188.53198924 </i>
    <i name="e_wo_entrp">   -188.28604828 </i>
    <i name="e_0_energy">   -188.40901876 </i>
   </energy>
  </scstep>
  <structure>
   <crystal>
    <varray name="basis" >
     <v>      11.00258152       0.00000000       0.00000000 </v>
     <v>       5.50129076       9.52851510       0.00000000 </v>
     <v>       0.00000000       0.00000000      24.49178509 </v>
    </varray>
    <i name="volume">   2567.67623402 </i>
    <varray name="rec_basis" >
     <v>       0.09088776      -0.05247407       0.00000000 </v>
     <v>       0.00000000       0.10494815       0.00000000 </v>
     <v>       0.00000000       0.00000000       0.04083002 </v>
    </varray>
   </crystal>
   <varray name="positions" >
    <v>       0.08333333       0.08333333       0.40830017 </v>
    <v>       0.83333333       0.83333333       0.40830017 </v>
    <v>       0.75000000       0.25000000       0.59169983 </v>
    <v>       0.66666667       0.41666667       0.50000000 </v>
    <v>       0.75000000       0.00000000       0.59169983 </v>
    <v>       0.83333333       0.08333333       0.40830017 </v>
    <v>       0.58333333       0.58333333       0.40830017 </v>
    <v>       0.58333333       0.33333333       0.40830017 </v>
    <v>       0.41666667       0.16666667       0.50000000 </v>
    <v>       0.66666667       0.91666667       0.50000000 </v>
    <v>       0.33333333       0.83333333       0.40830017 </v>
    <v>       0.33333333       0.58333333       0.40830017 </v>
    <v>       0.25000000       0.25000000       0.59169983 </v>
    <v>       0.16666667       0.41666667       0.50000000 </v>
    <v>       0.33333333       0.33333333       0.40830017 </v>
    <v>       0.75000000       0.75000000       0.59169983 </v>
    <v>       0.16666667       0.16666667       0.50000000 </v>
    <v>       0.08333333       0.58333333       0.40830017 </v>
    <v>       0.00000000       0.25000000       0.59169983 </v>
    <v>       0.08333333       0.83333333       0.40830017 </v>
    <v>       0.91666667       0.91666667       0.50000000 </v>
    <v>       0.00000000       0.00000000       0.59169983 </v>
    <v>       0.91666667       0.16666667       0.50000000 </v>
    <v>       0.33333333       0.08333333       0.40830017 </v>
    <v>       0.83333333       0.58333333       0.40830017 </v>
    <v>       0.75000000       0.50000000       0.59169983 </v>
    <v>       0.50000000       0.75000000       0.59169983 </v>
    <v>       0.08333333       0.33333333       0.40830017 </v>
    <v>       0.83333333       0.33333333       0.40830017 </v>
    <v>       0.91666667       0.41666667       0.50000000 </v>
    <v>       0.66666667       0.16666667       0.50000000 </v>
    <v>       0.66666667       0.66666667       0.50000000 </v>
    <v>       0.41666667       0.91666667       0.50000000 </v>
    <v>       0.41666667       0.66666667       0.50000000 </v>
    <v>       0.50000000       0.50000000       0.59169983 </v>
    <v>       0.25000000       0.00000000       0.59169983 </v>
    <v>       0.50000000       0.25000000       0.59169983 </v>
    <v>       0.41666667       0.41666667       0.50000000 </v>
    <v>       0.91666667       0.66666667       0.50000000 </v>
    <v>       0.50000000       0.00000000       0.59169983 </v>
    <v>       0.00000000       0.50000000       0.59169983 </v>
    <v>       0.58333333       0.08333333       0.40830017 </v>
    <v>       0.16666667       0.91666667       0.50000000 </v>
    <v>       0.25000000       0.50000000       0.59169983 </v>
    <v>       0.16666667       0.66666667       0.50000000 </v>
    <v>       0.00000000       0.75000000       0.59169983 </v>
    <v>       0.58333333       0.83333333       0.40830017 </v>
    <v>       0.25000000       0.75000000       0.59169983 </v>
   </varray>
  </structure>
  <varray name="forces" >
   <v>       0.01934690       0.28268167      -1.62263472 </v>
   <v>      -0.52756939      -0.20142467      -1.54563741 </v>
   <v>      -0.41461741       0.35489054       1.60677358 </v>
   <v>       0.02231772       0.39570936       0.29925302 </v>
   <v>      -0.26895175       0.13183589       1.64372107 </v>
   <v>      -0.27128631       0.31907310      -1.61540576 </v>
   <v>       0.51147498       0.15895739      -1.30088524 </v>
   <v>      -0.00672507      -0.28999762      -1.37410013 </v>
   <v>       0.63647478      -0.21376588       0.30024589 </v>
   <v>      -0.54069774      -0.07606550      -0.21981232 </v>
   <v>       0.28791159      -0.00250279      -1.12089527 </v>
   <v>       0.00771679      -0.01290445      -1.15317957 </v>
   <v>       0.25314845      -0.00476236       1.76003392 </v>
   <v>      -0.17612887       0.64656243       0.28171840 </v>
   <v>       0.01099572      -0.14338682      -1.60934906 </v>
   <v>      -0.12123079      -0.35307444       1.33630837 </v>
   <v>      -0.15119462      -0.23748441       0.02129391 </v>
   <v>      -0.39931363      -0.06948162      -1.36072346 </v>
   <v>       0.12392278       0.34339592       1.63608564 </v>
   <v>       0.14142990      -0.09580319      -1.39966603 </v>
   <v>       0.14936736      -0.53016474       0.31869573 </v>
   <v>       0.39917911      -0.53575288       1.59643041 </v>
   <v>       0.06951632       0.27905233      -0.27086396 </v>
   <v>       0.23113564      -0.17261984      -1.59748200 </v>
   <v>      -0.06235140      -0.12690800      -0.51191665 </v>
   <v>       0.03718582       0.24863163       0.66209564 </v>
   <v>      -0.19464208       0.04621830       0.46360804 </v>
   <v>      -0.32782826       0.20680942      -0.87642370 </v>
   <v>       0.29758494       0.17023701      -0.86281519 </v>
   <v>      -0.00953738       0.47259226      -0.18589606 </v>
   <v>      -0.37190726       0.20833635       0.00984896 </v>
   <v>      -0.00448321      -0.02196322       0.05110011 </v>
   <v>      -0.09447486      -0.46457825       0.39433705 </v>
   <v>      -0.08147892       0.19130800       0.63144665 </v>
   <v>      -0.16876115       0.18880482       0.60781352 </v>
   <v>       0.21055948      -0.42137478       0.73129773 </v>
   <v>       0.02244427       0.18213427       0.73386216 </v>
   <v>       0.11869514       0.17777618       0.56727755 </v>
   <v>      -0.12119248      -0.35896015       0.18337199 </v>
   <v>      -0.23102624      -0.06318951       0.87742231 </v>
   <v>      -0.04022425       0.23560037       0.70195121 </v>
   <v>       0.00891207      -0.06276770      -0.92001796 </v>
   <v>       0.29109996      -0.42899883       0.40151763 </v>
   <v>       0.16962095       0.24441277       0.63177968 </v>
   <v>       0.22467041      -0.01001009       0.61975252 </v>
   <v>       0.19566678      -0.35648754       0.70362624 </v>
   <v>       0.05038795      -0.10888798      -0.66548918 </v>
   <v>       0.09485725      -0.12170274       0.44052470 </v>
  </varray>
  <energy>
   <i name="e_fr_energy">   -188.53198924 </i>
   <i name="e_wo_entrp">   -188.40901876 </i>
   <i name="e_0_energy">     -0.24594096 </i>
  </energy>
  <time name="totalsc">  228.81  230.11</time>
 </calculation>
 <calculation>
  <scstep>
   <time name="dav">    6.91    6.93</time>
   <time name="total">    7.20    7.22</time>
   <dipole>
    <v name="dipole">      0.00000000       0.00000000       0.02982231 </v>
    <i name="Tr[quadrupol]"> -10179.55328852 </i>
    <i name="Echarged">      0.00000000 </i>
    <i name="Edipol_quadrupol">      0.00000000 </i>
    <i name="Eion">      0.00000000 </i>
   </dipole>
   <energy>
    <i name="alphaZ">    805.89331666 </i>
    <i name="ewald"> 197244.85157306 </i>
    <i name="hartreedc">-239445.22152774 </i>
    <i name="XCdc">   -345.79160611 </i>
    <i name="pawpsdc">  49363.87296255 </i>
    <i name="pawaedc"> -47442.53059663 </i>
    <i name="eentropy">     -0.24686815 </i>
    <i name="bandstr">  -2030.28053394 </i>
    <i name="atom">  41659.78587232 </i>
    <i name="e_fr_energy">   -189.66740799 </i>
    <i name="e_wo_entrp">   -189.42053983 </i>
    <i name="e_0_energy">   -189.54397391 </i>
   </energy>
  </scstep>
  <scstep>
   <time name="diag">    1.21    1.21</time>
   <time name="diis">    3.37    3.38</time>
   <time name="orth">    0.28    0.28</time>
   <time name="total">    5.16    5.17</time>
   <dipole>
    <v name="dipole">      0.00000000       0.00000000       0.02312403 </v>
    <i name="Tr[quadrupol]"> -10179.30464733 </i>
    <i name="Echarged">      0.00000000 </i>
    <i name="Edipol_quadrupol">      0.00000000 </i>
    <i name="Eion">      0.00000000 </i>
   </dipole>
   <energy>
    <i name="e_fr_energy">   -190.08164540 </i>
    <i name="e_wo_entrp">   -189.83965946 </i>
    <i name="e_0_energy">   -189.96065243 </i>
   </energy>
  </scstep>
  <scstep>
   <time name="diag">    1.20    1.21</time>
   <time name="diis">    3.51    3.52</time>
   <time name="orth">    0.28    0.28</time>
   <time name="total">    5.28    5.30</time>
   <dipole>
    <v name="dipole">      0.00000000       0.00000000       0.04941213 </v>
    <i name="Tr[quadrupol]"> -10179.78611593 </i>
    <i name="Echarged">      0.00000000 </i>
    <i name="Edipol_quadrupol">      0.00000000 </i>
    <i name="Eion">      0.00000000 </i>
   </dipole>
   <energy>
    <i name="e_fr_energy">   -190.24871929 </i>
    <i name="e_wo_entrp">   -189.99191615 </i>
    <i name="e_0_energy">   -190.12031772 </i>
   </energy>
  </scstep>
  <scstep>
   <time name="diag">    1.21    1.21</time>
   <time name="diis">    3.37    3.38</time>
   <time name="orth">    0.28    0.28</time>
   <time name="total">    5.15    5.16</time>
   <dipole>
    <v name="dipole">      0.00000000       0.00000000       0.03914400 </v>
    <i name="Tr[quadrupol]"> -10179.69126978 </i>
    <i name="Echarged">      0.00000000 </i>
    <i name="Edipol_quadrupol">      0.00000000 </i>
    <i name="Eion">      0.00000000 </i>
   </dipole>
   <energy>
    <i name="e_fr_energy">   -190.06585779 </i>
    <i name="e_wo_entrp">   -189.81998070 </i>
    <i name="e_0_energy">   -189.94291925 </i>
   </energy>
  </scstep>
  <scstep>
   <time name="diag">    1.21    1.21</time>
   <time name="diis">    3.36    3.38</time>
   <time name="orth">    0.28    0.28</time>
   <time name="total">    5.13    5.16</time>
   <dipole>
    <v name="dipole">      0.00000000       0.00000000       0.01848403 </v>
    <i name="Tr[quadrupol]"> -10179.61711514 </i>
    <i name="Echarged">      0.00000000 </i>
    <i name="Edipol_quadrupol">      0.00000000 </i>
    <i name="Eion">      0.00000000 </i>
   </dipole>
   <energy>
    <i name="e_fr_energy">   -190.08357050 </i>
    <i name="e_wo_entrp">   -189.83826805 </i>
    <i name="e_0_energy">   -189.96091927 </i>
   </energy>
  </scstep>
  <scstep>
   <time name="diag">    1.20    1.21</time>
   <time name="diis">    3.34    3.35</time>
   <time name="orth">    0.28    0.28</time>
   <time name="total">    5.12    5.14</time>
   <dipole>
    <v name="dipole">      0.00000000       0.00000000       0.00964607 </v>
    <i name="Tr[quadrupol]"> -10179.63562942 </i>
    <i name="Echarged">      0.00000000 </i>
    <i name="Edipol_quadrupol">      0.00000000 </i>
    <i name="Eion">      0.00000000 </i>
   </dipole>
   <energy>
    <i name="e_fr_energy">   -190.05291058 </i>
    <i name="e_wo_entrp">   -189.80272180 </i>
    <i name="e_0_energy">   -189.92781619 </i>
   </energy>
  </scstep>
  <scstep>
   <time name="diag">    1.20    1.20</time>
   <time name="diis">    3.36    3.37</time>
   <time name="orth">    0.28    0.28</time>
   <time name="total">    5.13    5.14</time>
   <dipole>
    <v name="dipole">      0.00000000       0.00000000       0.04338499 </v>
    <i name="Tr[quadrupol]"> -10179.60595995 </i>
    <i name="Echarged">      0.00000000 </i>
    <i name="Edipol_quadrupol">      0.00000000 </i>
    <i name="Eion">      0.00000000 </i>
   </dipole>
   <energy>
    <i name="e_fr_energy">   -190.04712359 </i>
    <i name="e_wo_entrp">   -189.80293878 </i>
    <i name="e_0_energy">   -189.92503118 </i>
   </energy>
  </scstep>
  <scstep>
   <time name="diag">    1.20    1.28</time>
   <time name="diis">    3.38    3.39</time>
   <time name="orth">    0.28    0.28</time>
   <time name="total">    5.15    5.24</time>
   <dipole>
    <v name="dipole">      0.00000000       0.00000000       0.02055519 </v>
    <i name="Tr[quadrupol]"> -10179.60017810 </i>
    <i name="Echarged">      0.00000000 </i>
    <i name="Edipol_quadrupol">      0.00000000 </i>
    <i name="Eion">      0.00000000 </i>
   </dipole>
   <energy>
    <i name="e_fr_energy">   -190.04379977 </i>
    <i name="e_wo_entrp">   -189.79431002 </i>
    <i name="e_0_energy">   -189.91905490 </i>
   </energy>
  </scstep>
  <scstep>
   <time name="diag">    1.21    1.21</time>
   <time name="diis">    3.35    3.36</time>
   <time name="orth">    0.28    0.28</time>
   <time name="total">    5.13    5.15</time>
   <dipole>
    <v name="dipole">      0.00000000       0.00000000       0.03120814 </v>
    <i name="Tr[quadrupol]"> -10179.58201087 </i>
    <i name="Echarged">      0.00000000 </i>
    <i name="Edipol_quadrupol">      0.00000000 </i>
    <i name="Eion">      0.00000000 </i>
   </dipole>
   <energy>
    <i name="e_fr_energy">   -190.04232351 </i>
    <i name="e_wo_entrp">   -189.79496163 </i>
    <i name="e_0_energy">   -189.91864257 </i>
   </energy>
  </scstep>
  <scstep>
   <time name="diag">    1.20    1.21</time>
   <time name="diis">    3.36    3.37</time>
   <time name="orth">    0.28    0.28</time>
   <time name="total">    5.14    5.16</time>
   <dipole>
    <v name="dipole">      0.00000000       0.00000000       0.02781745 </v>
    <i name="Tr[quadrupol]"> -10179.57665770 </i>
    <i name="Echarged">      0.00000000 </i>
    <i name="Edipol_quadrupol">      0.00000000 </i>
    <i name="Eion">      0.00000000 </i>
   </dipole>
   <energy>
    <i name="e_fr_energy">   -190.04223529 </i>
    <i name="e_wo_entrp">   -189.79384383 </i>
    <i name="e_0_energy">   -189.91803956 </i>
   </energy>
  </scstep>
  <scstep>
   <time name="diag">    1.20    1.20</time>
   <time name="diis">    3.40    3.42</time>
   <time name="orth">    0.28    0.28</time>
   <time name="total">    5.17    5.19</time>
   <dipole>
    <v name="dipole">      0.00000000       0.00000000       0.02800466 </v>
    <i name="Tr[quadrupol]"> -10179.57758024 </i>
    <i name="Echarged">      0.00000000 </i>
    <i name="Edipol_quadrupol">      0.00000000 </i>
    <i name="Eion">      0.00000000 </i>
   </dipole>
   <energy>
    <i name="e_fr_energy">   -190.04213920 </i>
    <i name="e_wo_entrp">   -189.79387548 </i>
    <i name="e_0_energy">   -189.91800734 </i>
   </energy>
  </scstep>
  <scstep>
   <time name="diag">    1.21    1.21</time>
   <time name="diis">    3.36    3.37</time>
   <time name="orth">    0.28    0.28</time>
   <time name="total">    5.14    5.16</time>
   <dipole>
    <v name="dipole">      0.00000000       0.00000000       0.02839560 </v>
    <i name="Tr[quadrupol]"> -10179.57962656 </i>
    <i name="Echarged">      0.00000000 </i>
    <i name="Edipol_quadrupol">      0.00000000 </i>
    <i name="Eion">      0.00000000 </i>
   </dipole>
   <energy>
    <i name="e_fr_energy">   -190.04213009 </i>
    <i name="e_wo_entrp">   -189.79403175 </i>
    <i name="e_0_energy">   -189.91808092 </i>
   </energy>
  </scstep>
  <scstep>
   <time name="diag">    1.21    1.21</time>
   <time name="diis">    3.36    3.37</time>
   <time name="orth">    0.28    0.28</time>
   <time name="total">    5.14    5.15</time>
   <dipole>
    <v name="dipole">      0.00000000       0.00000000       0.02843086 </v>
    <i name="Tr[quadrupol]"> -10179.58256984 </i>
    <i name="Echarged">      0.00000000 </i>
    <i name="Edipol_quadrupol">      0.00000000 </i>
    <i name="Eion">      0.00000000 </i>
   </dipole>
   <energy>
    <i name="e_fr_energy">   -190.04211796 </i>
    <i name="e_wo_entrp">   -189.79383907 </i>
    <i name="e_0_energy">   -189.91797851 </i>
   </energy>
  </scstep>
  <scstep>
   <time name="diag">    1.20    1.21</time>
   <time name="diis">    3.31    3.31</time>
   <time name="orth">    0.28    0.28</time>
   <time name="total">    5.10    5.11</time>
   <dipole>
    <v name="dipole">      0.00000000       0.00000000       0.02848586 </v>
    <i name="Tr[quadrupol]"> -10179.58549871 </i>
    <i name="Echarged">      0.00000000 </i>
    <i name="Edipol_quadrupol">      0.00000000 </i>
    <i name="Eion">      0.00000000 </i>
   </dipole>
   <energy>
    <i name="e_fr_energy">   -190.04211151 </i>
    <i name="e_wo_entrp">   -189.79398923 </i>
    <i name="e_0_energy">   -189.91805037 </i>
   </energy>
  </scstep>
  <scstep>
   <time name="diag">    1.20    1.21</time>
   <time name="diis">    2.72    2.73</time>
   <time name="orth">    0.28    0.29</time>
   <time name="total">    4.50    4.55</time>
   <dipole>
    <v name="dipole">      0.00000000       0.00000000       0.02834644 </v>
    <i name="Tr[quadrupol]"> -10179.58686332 </i>
    <i name="Echarged">      0.00000000 </i>
    <i name="Edipol_quadrupol">      0.00000000 </i>
    <i name="Eion">      0.00000000 </i>
   </dipole>
   <energy>
    <i name="e_fr_energy">   -190.04210917 </i>
    <i name="e_wo_entrp">   -189.79398975 </i>
    <i name="e_0_energy">   -189.91804946 </i>
   </energy>
  </scstep>
  <scstep>
   <time name="diag">    1.20    1.25</time>
   <time name="diis">    1.97    1.98</time>
   <time name="orth">    0.28    0.28</time>
   <time name="total">    3.50    3.56</time>
   <dipole>
    <v name="dipole">      0.00000000       0.00000000       0.02841358 </v>
    <i name="Tr[quadrupol]"> -10179.58843978 </i>
    <i name="Echarged">      0.00000000 </i>
    <i name="Edipol_quadrupol">      0.00000000 </i>
    <i name="Eion">      0.00000000 </i>
   </dipole>
   <energy>
    <i name="alphaZ">    805.89218662 </i>
    <i name="ewald"> 197244.85157306 </i>
    <i name="hartreedc">-239447.10346796 </i>
    <i name="XCdc">   -345.74021151 </i>
    <i name="pawpsdc">  48906.39393114 </i>
    <i name="pawaedc"> -46982.01035337 </i>
    <i name="eentropy">     -0.24809856 </i>
    <i name="bandstr">  -2031.86354158 </i>
    <i name="atom">  41659.78587232 </i>
    <i name="e_fr_energy">   -190.04210983 </i>
    <i name="e_wo_entrp">   -189.79401127 </i>
    <i name="e_0_energy">   -189.91806055 </i>
   </energy>
  </scstep>
  <structure>
   <crystal>
    <varray name="basis" >
     <v>      11.00258152       0.00000000       0.00000000 </v>
     <v>       5.50129076       9.52851510       0.00000000 </v>
     <v>       0.00000000       0.00000000      24.49178509 </v>
    </varray>
    <i name="volume">   2567.67623402 </i>
    <varray name="rec_basis" >
     <v>       0.09088776      -0.05247407       0.00000000 </v>
     <v>       0.00000000       0.10494815       0.00000000 </v>
     <v>       0.00000000       0.00000000       0.04083002 </v>
    </varray>
   </crystal>
   <varray name="positions" >
    <v>       0.08289179       0.08433518       0.40606284 </v>
    <v>       0.83207102       0.83261947       0.40616901 </v>
    <v>       0.74809855       0.25125776       0.59391529 </v>
    <v>       0.66603395       0.41806909       0.50041262 </v>
    <v>       0.74894090       0.00046724       0.59396623 </v>
    <v>       0.83193527       0.08446416       0.40607281 </v>
    <v>       0.58462151       0.58389669       0.40650648 </v>
    <v>       0.58382658       0.33230556       0.40640553 </v>
    <v>       0.41899898       0.16590906       0.50041399 </v>
    <v>       0.66514191       0.91639708       0.49969692 </v>
    <v>       0.33422145       0.83332446       0.40675465 </v>
    <v>       0.33337989       0.58328760       0.40671014 </v>
    <v>       0.25078542       0.24998312       0.59412661 </v>
    <v>       0.16498034       0.41895814       0.50038844 </v>
    <v>       0.33362117       0.33282516       0.40608116 </v>
    <v>       0.75025357       0.74874867       0.59354236 </v>
    <v>       0.16662344       0.16582500       0.50002936 </v>
    <v>       0.08223086       0.58308708       0.40642397 </v>
    <v>      -0.00022816       0.25121702       0.59395570 </v>
    <v>       0.08393719       0.83299380       0.40637028 </v>
    <v>       0.91806459       0.91478772       0.50043943 </v>
    <v>       0.00217456      -0.00189875       0.59390103 </v>
    <v>       0.91638554       0.16765565       0.49962653 </v>
    <v>       0.33434864       0.08272155       0.40609752 </v>
    <v>       0.83336685       0.58288356       0.40759433 </v>
    <v>       0.74967355       0.50088117       0.59261274 </v>
    <v>       0.49932069       0.75016380       0.59233906 </v>
    <v>       0.08196067       0.33406628       0.40709174 </v>
    <v>       0.83394503       0.33393667       0.40711050 </v>
    <v>       0.91579994       0.41834157       0.49974368 </v>
    <v>       0.66515600       0.16740503       0.50001358 </v>
    <v>       0.66669183       0.66658883       0.50007046 </v>
    <v>       0.41719995       0.91502016       0.50054372 </v>
    <v>       0.41607758       0.66734468       0.50087065 </v>
    <v>       0.49914746       0.50066914       0.59253790 </v>
    <v>       0.25139296      -0.00149339       0.59270816 </v>
    <v>       0.49974614       0.25064550       0.59271170 </v>
    <v>       0.41671595       0.41729672       0.50078218 </v>
    <v>       0.91693079       0.66539448       0.50025284 </v>
    <v>       0.49940289      -0.00022395       0.59290964 </v>
    <v>      -0.00054095       0.50083499       0.59266770 </v>
    <v>       0.58347191       0.08311088       0.40703163 </v>
    <v>       0.16832033       0.91514626       0.50055362 </v>
    <v>       0.25008750       0.50086622       0.59257094 </v>
    <v>       0.16737398       0.66663119       0.50085453 </v>
    <v>       0.00123226       0.74873658       0.59267001 </v>
    <v>       0.58368094       0.83294743       0.40738258 </v>
    <v>       0.25050680       0.74956868       0.59230724 </v>
   </varray>
  </structure>
  <varray name="forces" >
   <v>       0.00720142       0.12253847      -1.16880889 </v>
   <v>      -0.25308508      -0.08656884      -1.06287670 </v>
   <v>      -0.15223392       0.14179641       1.12913637 </v>
   <v>      -0.03820618       0.19901825       0.06743797 </v>
   <v>      -0.15458971       0.02088702       1.12575095 </v>
   <v>      -0.13956442       0.05569620      -1.08658859 </v>
   <v>       0.24860781       0.03549505      -0.93286159 </v>
   <v>       0.02913844      -0.03737438      -0.95524333 </v>
   <v>       0.08011564       0.05227255       0.09891027 </v>
   <v>      -0.11868909      -0.17036715      -0.02234343 </v>
   <v>       0.16474071       0.00330843      -0.79618055 </v>
   <v>       0.04725768      -0.05696298      -0.75457067 </v>
   <v>       0.14547100       0.01576055       1.20972956 </v>
   <v>       0.00912680       0.13595267       0.08827225 </v>
   <v>      -0.06998280      -0.07774732      -1.02755292 </v>
   <v>      -0.05522335      -0.12629463       0.99194205 </v>
   <v>       0.06300335      -0.09436233       0.03323730 </v>
   <v>      -0.20111080      -0.02633370      -0.98337831 </v>
   <v>       0.03729616       0.17587111       1.13636766 </v>
   <v>       0.02020472      -0.00059468      -0.95118705 </v>
   <v>       0.00331424      -0.18720646       0.09380475 </v>
   <v>       0.19679387      -0.17987733       1.11243054 </v>
   <v>      -0.05126040       0.05934447      -0.00524603 </v>
   <v>       0.15608583      -0.06081551      -1.06662686 </v>
   <v>      -0.03605774      -0.07165070      -0.45817558 </v>
   <v>      -0.00710786       0.14322993       0.55886736 </v>
   <v>      -0.10318904       0.00263747       0.47668110 </v>
   <v>      -0.13014588       0.08405035      -0.61223719 </v>
   <v>       0.12623801       0.13399244      -0.65166514 </v>
   <v>      -0.01667288       0.18615083      -0.03678044 </v>
   <v>      -0.00242482       0.05040983       0.03391094 </v>
   <v>      -0.01348348       0.00926857       0.04290922 </v>
   <v>      -0.09181665      -0.21404122       0.12490544 </v>
   <v>      -0.02722811       0.06952506       0.17495049 </v>
   <v>      -0.10019247       0.15459700       0.59355134 </v>
   <v>       0.15017942      -0.19783062       0.61835019 </v>
   <v>      -0.01142317       0.13438403       0.65921575 </v>
   <v>       0.03078085       0.11945661       0.13501763 </v>
   <v>      -0.11108204      -0.04399118       0.05744870 </v>
   <v>      -0.12583950      -0.07593690       0.71705976 </v>
   <v>       0.00110234       0.10769893       0.62295800 </v>
   <v>      -0.01292421      -0.06820304      -0.73396789 </v>
   <v>       0.09916051      -0.16694218       0.07563613 </v>
   <v>       0.09598927       0.13008851       0.60576085 </v>
   <v>       0.14875347      -0.01835698       0.15946068 </v>
   <v>       0.06893811      -0.20819784       0.62128883 </v>
   <v>       0.01180805      -0.06497956      -0.56183537 </v>
   <v>       0.08222591      -0.10879521       0.50313443 </v>
  </varray>
  <energy>
   <i name="e_fr_energy">   -190.04210983 </i>
   <i name="e_wo_entrp">   -189.91806055 </i>
   <i name="e_0_energy">     -0.24809856 </i>
  </energy>
  <time name="totalsc">   84.57   85.02</time>
 </calculation>
 <calculation>
  <scstep>
   <time name="dav">    6.89    6.91</time>
   <time name="total">    7.18    7.20</time>
   <dipole>
    <v name="dipole">      0.00000000       0.00000000       0.02842975 </v>
    <i name="Tr[quadrupol]"> -10225.93560312 </i>
    <i name="Echarged">      0.00000000 </i>
    <i name="Edipol_quadrupol">      0.00000000 </i>
    <i name="Eion">      0.00000000 </i>
   </dipole>
   <energy>
    <i name="alphaZ">    805.89326154 </i>
    <i name="ewald"> 189502.61681572 </i>
    <i name="hartreedc">-231745.19967454 </i>
    <i name="XCdc">   -351.04906592 </i>
    <i name="pawpsdc">  48906.32041467 </i>
    <i name="pawaedc"> -46981.93672210 </i>
    <i name="eentropy">     -0.24595395 </i>
    <i name="bandstr">  -1984.64633363 </i>
    <i name="atom">  41659.78587232 </i>
    <i name="e_fr_energy">   -188.46138589 </i>
    <i name="e_wo_entrp">   -188.21543194 </i>
    <i name="e_0_energy">   -188.33840891 </i>
   </energy>
  </scstep>
  <scstep>
   <time name="diag">    1.21    1.21</time>
   <time name="diis">    3.38    3.39</time>
   <time name="orth">    0.28    0.28</time>
   <time name="total">    5.15    5.17</time>
   <dipole>
    <v name="dipole">      0.00000000       0.00000000       0.02130884 </v>
    <i name="Tr[quadrupol]"> -10225.09832104 </i>
    <i name="Echarged">      0.00000000 </i>
    <i name="Edipol_quadrupol">      0.00000000 </i>
    <i name="Eion">      0.00000000 </i>
   </dipole>
   <energy>
    <i name="e_fr_energy">   -191.96121129 </i>
    <i name="e_wo_entrp">   -191.73261008 </i>
    <i name="e_0_energy">   -191.84691069 </i>
   </energy>
  </scstep>
  <scstep>
   <time name="diag">    1.20    1.21</time>
   <time name="diis">    3.44    3.45</time>
   <time name="orth">    0.28    0.28</time>
   <time name="total">    5.23    5.25</time>
   <dipole>
    <v name="dipole">      0.00000000       0.00000000      -0.03544533 </v>
    <i name="Tr[quadrupol]"> -10226.29366287 </i>
    <i name="Echarged">      0.00000000 </i>
    <i name="Edipol_quadrupol">      0.00000000 </i>
    <i name="Eion">      0.00000000 </i>
   </dipole>
   <energy>
    <i name="e_fr_energy">   -192.76077816 </i>
    <i name="e_wo_entrp">   -192.54986571 </i>
    <i name="e_0_energy">   -192.65532193 </i>
   </energy>
  </scstep>
  <scstep>
   <time name="diag">    1.20    1.20</time>
   <time name="diis">    3.36    3.37</time>
   <time name="orth">    0.28    0.28</time>
   <time name="total">    5.13    5.15</time>
   <dipole>
    <v name="dipole">      0.00000000       0.00000000       0.10111459 </v>
    <i name="Tr[quadrupol]"> -10226.04645161 </i>
    <i name="Echarged">      0.00000000 </i>
    <i name="Edipol_quadrupol">      0.00000000 </i>
    <i name="Eion">      0.00000000 </i>
[...]
       <r>    2.3131    0.0000 </r>
       <r>    2.3845    0.0000 </r>
       <r>    2.4630    0.0000 </r>
       <r>    2.6079    0.0000 </r>
       <r>    2.6965    0.0000 </r>
       <r>    2.9881    0.0000 </r>
       <r>    3.1081    0.0000 </r>
       <r>    3.2586    0.0000 </r>
       <r>    3.5002    0.0000 </r>
       <r>    3.5692    0.0000 </r>
       <r>    3.7459    0.0000 </r>
       <r>    3.9867    0.0000 </r>
       <r>    4.0638    0.0000 </r>
       <r>    4.1774    0.0000 </r>
       <r>    4.4398    0.0000 </r>
       <r>    4.5410    0.0000 </r>
       <r>    4.5819    0.0000 </r>
       <r>    4.6216    0.0000 </r>
       <r>    4.6440    0.0000 </r>
       <r>    4.7203    0.0000 </r>
       <r>    4.7976    0.0000 </r>
       <r>    4.8888    0.0000 </r>
       <r>    4.9287    0.0000 </r>
       <r>    5.0320    0.0000 </r>
       <r>    5.0705    0.0000 </r>
       <r>    5.1022    0.0000 </r>
       <r>    5.2006    0.0000 </r>
       <r>    5.2281    0.0000 </r>
      </set>
     </set>
    </set>
   </array>
  </eigenvalues>
  <separator name="orbital magnetization" >
   <v name="MAGDIPOLOUT">      0.00000000      0.00000000      0.00000000</v>
  </separator>
  <dos>
   <i name="efermi">     -1.09382399 </i>
   <total>
    <array>
     <dimension dim="1">gridpoints</dimension>
     <dimension dim="2">spin</dimension>
     <field>energy</field>
     <field>total</field>
     <field>integrated</field>
     <set>
      <set comment="spin 1">
       <r>    -9.7462     0.0000     0.0000 </r>
       <r>    -9.6925     0.0000     0.0000 </r>
       <r>    -9.6389     0.0000     0.0000 </r>
       <r>    -9.5853     0.0000     0.0000 </r>
       <r>    -9.5316     0.0000     0.0000 </r>
       <r>    -9.4780     0.0000     0.0000 </r>
       <r>    -9.4244     0.0000     0.0000 </r>
       <r>    -9.3708     0.0000     0.0000 </r>
       <r>    -9.3171     0.0000     0.0000 </r>
       <r>    -9.2635     0.0000     0.0000 </r>
       <r>    -9.2099     0.0000     0.0000 </r>
       <r>    -9.1562     0.0000     0.0000 </r>
       <r>    -9.1026     0.0000     0.0000 </r>
       <r>    -9.0490     0.0001     0.0000 </r>
       <r>    -8.9953     0.0031     0.0002 </r>
       <r>    -8.9417     0.0421     0.0024 </r>
       <r>    -8.8881     0.3237     0.0198 </r>
       <r>    -8.8344     1.4355     0.0968 </r>
       <r>    -8.7808     3.6784     0.2941 </r>
       <r>    -8.7272     5.4921     0.5886 </r>
       <r>    -8.6736     5.0495     0.8594 </r>
       <r>    -8.6199     3.9315     1.0703 </r>
       <r>    -8.5663     4.5502     1.3143 </r>
       <r>    -8.5127     5.5378     1.6113 </r>
       <r>    -8.4590     4.4395     1.8494 </r>
       <r>    -8.4054     2.1226     1.9632 </r>
       <r>    -8.3518     0.6745     1.9994 </r>
       <r>    -8.2981     0.5896     2.0310 </r>
       <r>    -8.2445     1.7613     2.1255 </r>
       <r>    -8.1909     3.8604     2.3325 </r>
       <r>    -8.1372     5.4477     2.6247 </r>
       <r>    -8.0836     5.6465     2.9275 </r>
       <r>    -8.0300     6.2587     3.2632 </r>
       <r>    -7.9764     8.6666     3.7280 </r>
       <r>    -7.9227    10.9630     4.3159 </r>
       <r>    -7.8691    10.8968     4.9003 </r>
       <r>    -7.8155     8.4280     5.3523 </r>
       <r>    -7.7618     5.3305     5.6382 </r>
       <r>    -7.7082     3.3266     5.8166 </r>
       <r>    -7.6546     2.5010     5.9507 </r>
       <r>    -7.6009     2.8924     6.1058 </r>
       <r>    -7.5473     5.2697     6.3885 </r>
       <r>    -7.4937     8.6986     6.8550 </r>
       <r>    -7.4400    10.4600     7.4160 </r>
       <r>    -7.3864     9.6527     7.9336 </r>
       <r>    -7.3328     8.7880     8.4049 </r>
       <r>    -7.2792    10.4940     8.9677 </r>
       <r>    -7.2255    14.5116     9.7460 </r>
       <r>    -7.1719    18.7695    10.7526 </r>
       <r>    -7.1183    21.9517    11.9299 </r>
       <r>    -7.0646    24.9103    13.2659 </r>
       <r>    -7.0110    28.5808    14.7987 </r>
       <r>    -6.9574    32.0244    16.5162 </r>
       <r>    -6.9037    34.6387    18.3739 </r>
       <r>    -6.8501    37.0054    20.3585 </r>
       <r>    -6.7965    38.9946    22.4498 </r>
       <r>    -6.7428    39.5638    24.5717 </r>
       <r>    -6.6892    39.3823    26.6838 </r>
       <r>    -6.6356    40.8037    28.8721 </r>
       <r>    -6.5820    44.2153    31.2434 </r>
       <r>    -6.5283    47.6691    33.7999 </r>
       <r>    -6.4747    49.7938    36.4704 </r>
       <r>    -6.4211    50.6878    39.1888 </r>
       <r>    -6.3674    52.1018    41.9831 </r>
       <r>    -6.3138    56.1713    44.9956 </r>
       <r>    -6.2602    63.2963    48.3902 </r>
       <r>    -6.2065    72.0878    52.2564 </r>
       <r>    -6.1529    78.2841    56.4548 </r>
       <r>    -6.0993    77.8835    60.6317 </r>
       <r>    -6.0456    73.6710    64.5828 </r>
       <r>    -5.9920    71.4283    68.4135 </r>
       <r>    -5.9384    71.9517    72.2724 </r>
       <r>    -5.8848    72.4599    76.1584 </r>
       <r>    -5.8311    71.4938    79.9927 </r>
       <r>    -5.7775    69.7784    83.7350 </r>
       <r>    -5.7239    68.3134    87.3987 </r>
       <r>    -5.6702    67.4385    91.0155 </r>
       <r>    -5.6166    67.7469    94.6488 </r>
       <r>    -5.5630    69.4651    98.3742 </r>
       <r>    -5.5093    71.9895   102.2351 </r>
       <r>    -5.4557    75.1727   106.2667 </r>
       <r>    -5.4021    77.7279   110.4353 </r>
       <r>    -5.3484    77.7482   114.6050 </r>
       <r>    -5.2948    76.7140   118.7192 </r>
       <r>    -5.2412    78.2865   122.9178 </r>
       <r>    -5.1876    82.6567   127.3507 </r>
       <r>    -5.1339    86.3954   131.9842 </r>
       <r>    -5.0803    88.0010   136.7037 </r>
       <r>    -5.0267    88.4438   141.4470 </r>
       <r>    -4.9730    88.6698   146.2025 </r>
       <r>    -4.9194    88.9874   150.9749 </r>
       <r>    -4.8658    88.7992   155.7373 </r>
       <r>    -4.8121    88.0509   160.4595 </r>
       <r>    -4.7585    87.4744   165.1509 </r>
       <r>    -4.7049    87.5107   169.8441 </r>
       <r>    -4.6512    88.0844   174.5682 </r>
       <r>    -4.5976    88.1624   179.2964 </r>
       <r>    -4.5440    87.8337   184.0070 </r>
       <r>    -4.4904    87.9980   188.7264 </r>
       <r>    -4.4367    87.9431   193.4428 </r>
       <r>    -4.3831    86.7561   198.0956 </r>
       <r>    -4.3295    85.4730   202.6796 </r>
       <r>    -4.2758    86.0395   207.2940 </r>
       <r>    -4.2222    88.2574   212.0273 </r>
       <r>    -4.1686    89.8309   216.8450 </r>
       <r>    -4.1149    90.4090   221.6937 </r>
       <r>    -4.0613    91.4675   226.5992 </r>
       <r>    -4.0077    92.5928   231.5650 </r>
       <r>    -3.9540    93.0703   236.5564 </r>
       <r>    -3.9004    94.6789   241.6341 </r>
       <r>    -3.8468    98.0339   246.8918 </r>
       <r>    -3.7932   101.9220   252.3579 </r>
       <r>    -3.7395   106.2345   258.0554 </r>
       <r>    -3.6859   109.4073   263.9230 </r>
       <r>    -3.6323   109.3757   269.7889 </r>
       <r>    -3.5786   107.9323   275.5774 </r>
       <r>    -3.5250   107.9501   281.3668 </r>
       <r>    -3.4714   109.2259   287.2247 </r>
       <r>    -3.4177   109.4090   293.0924 </r>
       <r>    -3.3641   106.6556   298.8124 </r>
       <r>    -3.3105   101.6959   304.2664 </r>
       <r>    -3.2568    97.7367   309.5081 </r>
       <r>    -3.2032    96.2867   314.6720 </r>
       <r>    -3.1496    95.7298   319.8061 </r>
       <r>    -3.0960    94.7886   324.8897 </r>
       <r>    -3.0423    93.5637   329.9076 </r>
       <r>    -2.9887    92.3398   334.8598 </r>
       <r>    -2.9351    91.0942   339.7453 </r>
       <r>    -2.8814    89.5455   344.5477 </r>
       <r>    -2.8278    88.4451   349.2911 </r>
       <r>    -2.7742    88.3330   354.0284 </r>
       <r>    -2.7205    87.9384   358.7446 </r>
       <r>    -2.6669    87.9176   363.4597 </r>
       <r>    -2.6133    91.0402   368.3423 </r>
       <r>    -2.5596    96.7992   373.5337 </r>
       <r>    -2.5060   100.8659   378.9432 </r>
       <r>    -2.4524    99.3975   384.2740 </r>
       <r>    -2.3988    93.2841   389.2769 </r>
       <r>    -2.3451    87.4055   393.9645 </r>
       <r>    -2.2915    83.7907   398.4583 </r>
       <r>    -2.2379    81.7735   402.8439 </r>
       <r>    -2.1842    81.7919   407.2304 </r>
       <r>    -2.1306    83.7324   411.7211 </r>
       <r>    -2.0770    86.2899   416.3489 </r>
       <r>    -2.0233    87.7407   421.0545 </r>
       <r>    -1.9697    87.6230   425.7537 </r>
       <r>    -1.9161    88.1435   430.4809 </r>
       <r>    -1.8624    91.1138   435.3674 </r>
       <r>    -1.8088    94.4300   440.4318 </r>
       <r>    -1.7552    95.2380   445.5395 </r>
       <r>    -1.7016    93.9065   450.5758 </r>
       <r>    -1.6479    92.1139   455.5159 </r>
       <r>    -1.5943    90.8599   460.3888 </r>
       <r>    -1.5407    91.2468   465.2824 </r>
       <r>    -1.4870    93.6439   470.3046 </r>
       <r>    -1.4334    96.4472   475.4772 </r>
       <r>    -1.3798    98.1839   480.7428 </r>
       <r>    -1.3261    98.7989   486.0415 </r>
       <r>    -1.2725    96.4418   491.2138 </r>
       <r>    -1.2189    87.9932   495.9329 </r>
       <r>    -1.1652    74.3587   499.9208 </r>
       <r>    -1.1116    59.4953   503.1116 </r>
       <r>    -1.0580    45.3268   505.5425 </r>
       <r>    -1.0044    32.4232   507.2814 </r>
       <r>    -0.9507    22.2605   508.4752 </r>
       <r>    -0.8971    15.7859   509.3218 </r>
       <r>    -0.8435    12.7894   510.0077 </r>
       <r>    -0.7898    12.2765   510.6661 </r>
       <r>    -0.7362    12.4006   511.3312 </r>
       <r>    -0.6826    12.2519   511.9883 </r>
       <r>    -0.6289    13.1969   512.6960 </r>
       <r>    -0.5753    16.6244   513.5876 </r>
       <r>    -0.5217    20.6729   514.6963 </r>
       <r>    -0.4680    21.4607   515.8473 </r>
       <r>    -0.4144    18.8423   516.8578 </r>
       <r>    -0.3608    16.3619   517.7353 </r>
       <r>    -0.3072    17.2663   518.6613 </r>
       <r>    -0.2535    20.9847   519.7867 </r>
       <r>    -0.1999    22.1566   520.9750 </r>
       <r>    -0.1463    18.2037   521.9513 </r>
       <r>    -0.0926    12.7938   522.6374 </r>
       <r>    -0.0390     9.4039   523.1418 </r>
       <r>     0.0146     8.9777   523.6233 </r>
       <r>     0.0683    11.7993   524.2561 </r>
       <r>     0.1219    16.1230   525.1207 </r>
       <r>     0.1755    18.3872   526.1069 </r>
       <r>     0.2292    18.1982   527.0829 </r>
       <r>     0.2828    18.0026   528.0483 </r>
       <r>     0.3364    17.8404   529.0051 </r>
       <r>     0.3900    17.6879   529.9538 </r>
       <r>     0.4437    18.7933   530.9617 </r>
       <r>     0.4973    20.3726   532.0543 </r>
       <r>     0.5509    21.1866   533.1905 </r>
       <r>     0.6046    21.4661   534.3417 </r>
       <r>     0.6582    21.3441   535.4864 </r>
       <r>     0.7118    20.4982   536.5858 </r>
       <r>     0.7655    18.7130   537.5894 </r>
       <r>     0.8191    15.4599   538.4185 </r>
       <r>     0.8727    11.8609   539.0546 </r>
       <r>     0.9264    10.7825   539.6329 </r>
       <r>     0.9800    12.1227   540.2830 </r>
       <r>     1.0336    13.0758   540.9843 </r>
       <r>     1.0872    12.2155   541.6394 </r>
       <r>     1.1409    10.1116   542.1817 </r>
       <r>     1.1945     8.1756   542.6202 </r>
       <r>     1.2481     6.7458   542.9820 </r>
       <r>     1.3018     5.2837   543.2653 </r>
       <r>     1.3554     4.8582   543.5259 </r>
       <r>     1.4090     6.7568   543.8883 </r>
       <r>     1.4627    10.9184   544.4738 </r>
       <r>     1.5163    16.0619   545.3352 </r>
       <r>     1.5699    18.7079   546.3385 </r>
       <r>     1.6236    17.4653   547.2752 </r>
       <r>     1.6772    16.1288   548.1402 </r>
       <r>     1.7308    17.3628   549.0714 </r>
       <r>     1.7844    19.2330   550.1029 </r>
       <r>     1.8381    18.5440   551.0974 </r>
       <r>     1.8917    14.8421   551.8934 </r>
       <r>     1.9453    10.8564   552.4757 </r>
       <r>     1.9990     8.7709   552.9460 </r>
       <r>     2.0526     9.4146   553.4510 </r>
       <r>     2.1062    12.0541   554.0974 </r>
       <r>     2.1599    14.2222   554.8602 </r>
       <r>     2.2135    15.5274   555.6929 </r>
       <r>     2.2671    17.2126   556.6160 </r>
       <r>     2.3208    18.8721   557.6282 </r>
       <r>     2.3744    19.9668   558.6990 </r>
       <r>     2.4280    21.4804   559.8510 </r>
       <r>     2.4816    23.2219   561.0964 </r>
       <r>     2.5353    23.8398   562.3750 </r>
       <r>     2.5889    24.2504   563.6755 </r>
       <r>     2.6425    24.5549   564.9924 </r>
       <r>     2.6962    22.4241   566.1951 </r>
       <r>     2.7498    18.0004   567.1604 </r>
       <r>     2.8034    13.7381   567.8972 </r>
       <r>     2.8571    10.6395   568.4678 </r>
       <r>     2.9107     8.6325   568.9308 </r>
       <r>     2.9643     7.7637   569.3472 </r>
       <r>     3.0180     7.3449   569.7411 </r>
       <r>     3.0716     7.1138   570.1226 </r>
       <r>     3.1252     8.1511   570.5598 </r>
       <r>     3.1788    10.2956   571.1119 </r>
       <r>     3.2325    12.2073   571.7666 </r>
       <r>     3.2861    12.6387   572.4444 </r>
       <r>     3.3397    11.0201   573.0354 </r>
       <r>     3.3934     9.0856   573.5227 </r>
       <r>     3.4470     9.3837   574.0260 </r>
       <r>     3.5006    12.4613   574.6943 </r>
       <r>     3.5543    16.4633   575.5772 </r>
       <r>     3.6079    18.6085   576.5752 </r>
       <r>     3.6615    18.1422   577.5482 </r>
       <r>     3.7152    17.1841   578.4698 </r>
       <r>     3.7688    16.0884   579.3326 </r>
       <r>     3.8224    13.2849   580.0451 </r>
       <r>     3.8760    10.4916   580.6078 </r>
       <r>     3.9297    10.5894   581.1757 </r>
       <r>     3.9833    12.9818   581.8719 </r>
       <r>     4.0369    14.8038   582.6658 </r>
       <r>     4.0906    14.7193   583.4553 </r>
       <r>     4.1442    13.8048   584.1956 </r>
       <r>     4.1978    12.8161   584.8830 </r>
       <r>     4.2515    10.8304   585.4638 </r>
       <r>     4.3051     8.0643   585.8963 </r>
       <r>     4.3587     7.8342   586.3164 </r>
       <r>     4.4124    11.6723   586.9424 </r>
       <r>     4.4660    16.0483   587.8031 </r>
       <r>     4.5196    19.3106   588.8388 </r>
       <r>     4.5732    24.3718   590.1458 </r>
       <r>     4.6269    30.4785   591.7804 </r>
       <r>     4.6805    32.6043   593.5290 </r>
       <r>     4.7341    29.9151   595.1334 </r>
       <r>     4.7878    25.9244   596.5237 </r>
       <r>     4.8414    22.8219   597.7477 </r>
       <r>     4.8950    21.8168   598.9178 </r>
       <r>     4.9487    23.9272   600.2010 </r>
       <r>     5.0023    28.5622   601.7328 </r>
       <r>     5.0559    33.3595   603.5219 </r>
       <r>     5.1096    34.3737   605.3654 </r>
       <r>     5.1632    30.9834   607.0270 </r>
       <r>     5.2168    27.7960   608.5178 </r>
       <r>     5.2704    25.5957   609.8905 </r>
       <r>     5.3241    20.3869   610.9839 </r>
       <r>     5.3777    12.1665   611.6364 </r>
       <r>     5.4313     5.0790   611.9087 </r>
       <r>     5.4850     1.4173   611.9848 </r>
       <r>     5.5386     0.2540   611.9984 </r>
       <r>     5.5922     0.0283   611.9999 </r>
       <r>     5.6459     0.0019   612.0000 </r>
       <r>     5.6995     0.0001   612.0000 </r>
       <r>     5.7531     0.0000   612.0000 </r>
       <r>     5.8068     0.0000   612.0000 </r>
       <r>     5.8604     0.0000   612.0000 </r>
       <r>     5.9140     0.0000   612.0000 </r>
       <r>     5.9676     0.0000   612.0000 </r>
       <r>     6.0213     0.0000   612.0000 </r>
       <r>     6.0749     0.0000   612.0000 </r>
       <r>     6.1285     0.0000   612.0000 </r>
       <r>     6.1822     0.0000   612.0000 </r>
       <r>     6.2358     0.0000   612.0000 </r>
       <r>     6.2894     0.0000   612.0000 </r>
       <r>     6.3431     0.0000   612.0000 </r>
      </set>
     </set>
    </array>
   </total>
  </dos>
 </calculation>
 <structure name="finalpos" >
  <crystal>
   <varray name="basis" >
    <v>      11.00258152       0.00000000       0.00000000 </v>
    <v>       5.50129076       9.52851510       0.00000000 </v>
    <v>       0.00000000       0.00000000      24.49178509 </v>
   </varray>
   <i name="volume">   2567.67623402 </i>
   <varray name="rec_basis" >
    <v>       0.09088776      -0.05247407       0.00000000 </v>
    <v>       0.00000000       0.10494815       0.00000000 </v>
    <v>       0.00000000       0.00000000       0.04083002 </v>
   </varray>
  </crystal>
  <varray name="positions" >
   <v>       0.08226675       0.08535222       0.39535306 </v>
   <v>       0.83026358       0.83059173       0.39726333 </v>
   <v>       0.74603888       0.25410376       0.60608494 </v>
   <v>       0.66511538       0.41835035       0.50142463 </v>
   <v>       0.74783059       0.00149584       0.60636213 </v>
   <v>       0.83180282       0.08322275       0.39830083 </v>
   <v>       0.58805569       0.58225014       0.39757504 </v>
   <v>       0.58522357       0.33063481       0.39806882 </v>
   <v>       0.41736589       0.16698722       0.50128661 </v>
   <v>       0.66635976       0.91454665       0.50194961 </v>
   <v>       0.33550082       0.83284729       0.39745930 </v>
   <v>       0.33446426       0.58138722       0.39664263 </v>
   <v>       0.25169880       0.25199038       0.60646702 </v>
   <v>       0.16502234       0.41977757       0.50103874 </v>
   <v>       0.33333417       0.33049420       0.39525102 </v>
   <v>       0.75007751       0.74886669       0.60360127 </v>
   <v>       0.16682640       0.16517330       0.50140095 </v>
   <v>       0.08098080       0.58126445       0.39673488 </v>
   <v>      -0.00048406       0.25392017       0.60835870 </v>
   <v>       0.08306641       0.83254851       0.39565113 </v>
   <v>       0.91868001       0.91378186       0.50111144 </v>
   <v>       0.00433265      -0.00213144       0.60462912 </v>
   <v>       0.91718445       0.16637179       0.50265645 </v>
   <v>       0.33586006       0.08162344       0.39585261 </v>
   <v>       0.83501219       0.57961015       0.40647932 </v>
   <v>       0.74744496       0.50331731       0.59897057 </v>
   <v>       0.49726994       0.75160014       0.59499014 </v>
   <v>       0.08183775       0.33280858       0.40522605 </v>
   <v>       0.83526922       0.33274227       0.40558405 </v>
   <v>       0.91582191       0.41773572       0.50389920 </v>
   <v>       0.66662277       0.16698720       0.50166917 </v>
   <v>       0.66621436       0.66627306       0.50146112 </v>
   <v>       0.41595524       0.91442047       0.49936621 </v>
   <v>       0.41557535       0.66786294       0.49745064 </v>
   <v>       0.49651593       0.50412450       0.59521737 </v>
   <v>       0.25217835      -0.00047041       0.59663740 </v>
   <v>       0.49836586       0.25391918       0.59698385 </v>
   <v>       0.41640338       0.41787653       0.49807606 </v>
   <v>       0.91599911       0.66526853       0.50096345 </v>
   <v>       0.49836704       0.00034451       0.59869841 </v>
   <v>      -0.00006911       0.50273830       0.59912980 </v>
   <v>       0.58394442       0.08128518       0.40393576 </v>
   <v>       0.16763559       0.91509921       0.49827225 </v>
   <v>       0.25024493       0.50378004       0.59538446 </v>
   <v>       0.16818944       0.66654958       0.49761092 </v>
   <v>       0.00256687       0.74868567       0.59635923 </v>
   <v>       0.58493178       0.83114174       0.40430871 </v>
   <v>       0.25083519       0.75084869       0.59280159 </v>
  </varray>
 </structure>
</modeling>
