unknown system                          
           1
    11.002582    0.000000    0.000000
     5.501291    9.528515    0.000000
     0.000000    0.000000   24.491785
   Au   Pd
  24  24
Direct configuration=     1
   0.08333333  0.08333333  0.40830017
   0.83333333  0.83333333  0.40830017
   0.75000000  0.25000000  0.59169983
   0.66666667  0.41666667  0.50000000
   0.75000000  0.00000000  0.59169983
   0.83333333  0.08333333  0.40830017
   0.58333333  0.58333333  0.40830017
   0.58333333  0.33333333  0.40830017
   0.41666667  0.16666667  0.50000000
   0.66666667  0.91666667  0.50000000
   0.33333333  0.83333333  0.40830017
   0.33333333  0.58333333  0.40830017
   0.25000000  0.25000000  0.59169983
   0.16666667  0.41666667  0.50000000
   0.33333333  0.33333333  0.40830017
   0.75000000  0.75000000  0.59169983
   0.16666667  0.16666667  0.50000000
   0.08333333  0.58333333  0.40830017
   0.00000000  0.25000000  0.59169983
   0.08333333  0.83333333  0.40830017
   0.91666667  0.91666667  0.50000000
   0.00000000  0.00000000  0.59169983
   0.91666667  0.16666667  0.50000000
   0.33333333  0.08333333  0.40830017
   0.83333333  0.58333333  0.40830017
   0.75000000  0.50000000  0.59169983
   0.50000000  0.75000000  0.59169983
   0.08333333  0.33333333  0.40830017
   0.83333333  0.33333333  0.40830017
   0.91666667  0.41666667  0.50000000
   0.66666667  0.16666667  0.50000000
   0.66666667  0.66666667  0.50000000
   0.41666667  0.91666667  0.50000000
   0.41666667  0.66666667  0.50000000
   0.50000000  0.50000000  0.59169983
   0.25000000  0.00000000  0.59169983
   0.50000000  0.25000000  0.59169983
   0.41666667  0.41666667  0.50000000
   0.91666667  0.66666667  0.50000000
   0.50000000  0.00000000  0.59169983
   0.00000000  0.50000000  0.59169983
   0.58333333  0.08333333  0.40830017
   0.16666667  0.91666667  0.50000000
   0.25000000  0.50000000  0.59169983
   0.16666667  0.66666667  0.50000000
   0.00000000  0.75000000  0.59169983
   0.58333333  0.83333333  0.40830017
   0.25000000  0.75000000  0.59169983
Direct configuration=     2
   0.08289179  0.08433518  0.40606284
   0.83207102  0.83261947  0.40616901
   0.74809855  0.25125776  0.59391529
   0.66603395  0.41806909  0.50041262
   0.74894090  0.00046724  0.59396623
   0.83193527  0.08446416  0.40607281
   0.58462151  0.58389669  0.40650648
   0.58382658  0.33230556  0.40640553
   0.41899898  0.16590906  0.50041399
   0.66514191  0.91639708  0.49969692
   0.33422145  0.83332446  0.40675465
   0.33337989  0.58328760  0.40671014
   0.25078542  0.24998312  0.59412661
   0.16498034  0.41895814  0.50038844
   0.33362117  0.33282516  0.40608116
   0.75025357  0.74874867  0.59354236
   0.16662344  0.16582500  0.50002936
   0.08223086  0.58308708  0.40642397
  -0.00022816  0.25121702  0.59395570
   0.08393719  0.83299380  0.40637028
   0.91806459  0.91478772  0.50043943
   0.00217456 -0.00189875  0.59390103
   0.91638554  0.16765565  0.49962653
   0.33434864  0.08272155  0.40609752
   0.83336685  0.58288356  0.40759433
   0.74967355  0.50088117  0.59261274
   0.49932069  0.75016380  0.59233906
   0.08196067  0.33406628  0.40709174
   0.83394503  0.33393667  0.40711050
   0.91579994  0.41834157  0.49974368
   0.66515600  0.16740503  0.50001358
   0.66669183  0.66658883  0.50007046
   0.41719995  0.91502016  0.50054372
   0.41607758  0.66734468  0.50087065
   0.49914746  0.50066914  0.59253790
   0.25139296 -0.00149339  0.59270816
   0.49974614  0.25064550  0.59271170
   0.41671595  0.41729672  0.50078218
   0.91693079  0.66539448  0.50025284
   0.49940289 -0.00022395  0.59290964
  -0.00054095  0.50083499  0.59266770
   0.58347191  0.08311088  0.40703163
   0.16832033  0.91514626  0.50055362
   0.25008750  0.50086622  0.59257094
   0.16737398  0.66663119  0.50085453
   0.00123226  0.74873658  0.59267001
   0.58368094  0.83294743  0.40738258
   0.25050680  0.74956868  0.59230724
Direct configuration=     3
   0.08160607  0.08725245  0.39954800
   0.82839529  0.83054077  0.39996331
   0.74256173  0.25492022  0.60036645
   0.66419156  0.42215280  0.50161411
   0.74585691  0.00182778  0.60056574
   0.82786428  0.08775698  0.39958699
   0.58837252  0.58553713  0.40128345
   0.58526286  0.32931279  0.40088854
   0.42579041  0.16370301  0.50161947
   0.66070200  0.91561209  0.49881438
   0.33680753  0.83329863  0.40225428
   0.33351544  0.58315443  0.40208015
   0.25307247  0.24993397  0.60119311
   0.16006997  0.42563064  0.50151953
   0.33445932  0.33134541  0.39961966
   0.75099195  0.74510496  0.59890761
   0.16649758  0.16337417  0.50011486
   0.07902057  0.58237004  0.40096070
  -0.00089254  0.25476086  0.60052455
   0.08569554  0.83200511  0.40075065
   0.92213518  0.90931643  0.50171898
   0.00850665 -0.00742771  0.60031066
   0.91556692  0.17053546  0.49853901
   0.33730510  0.08094012  0.39968367
   0.83346443  0.58157387  0.40553899
   0.74872295  0.50344704  0.59527104
   0.49734262  0.75064077  0.59420044
   0.07796361  0.33620055  0.40357291
   0.83572624  0.33569351  0.40364631
   0.91327613  0.42321871  0.49899731
   0.66075712  0.16955505  0.50005312
   0.66676509  0.66636217  0.50027562
   0.41875281  0.91022573  0.50212698
   0.41436223  0.66931897  0.50340590
   0.49666495  0.50261760  0.59497826
   0.25544909 -0.00584196  0.59564431
   0.49900692  0.25252512  0.59565814
   0.41685945  0.41913137  0.50305978
   0.91769988  0.66169002  0.50098907
   0.49766419 -0.00087606  0.59643247
  -0.00211615  0.50326638  0.59548602
   0.58387544  0.08246312  0.40333777
   0.17313563  0.91071900  0.50216571
   0.25034230  0.50338855  0.59510753
   0.16943359  0.66652789  0.50334282
   0.00482048  0.74505764  0.59549505
   0.58469314  0.83182370  0.40471065
   0.25198256  0.74831271  0.59407593
Direct configuration=     4
   0.08196252  0.08646149  0.39767949
   0.82925715  0.83119842  0.39837626
   0.74444368  0.25410708  0.60206948
   0.66400659  0.42130058  0.50115315
   0.74662645  0.00077339  0.60215402
   0.83009692  0.08517339  0.39810834
   0.58789280  0.58415675  0.39982294
   0.58412277  0.33221801  0.39954668
   0.41903496  0.16691993  0.50139070
   0.66524038  0.91304789  0.49925520
   0.33651276  0.83343294  0.40106714
   0.33470869  0.58210453  0.40120045
   0.25261702  0.25034652  0.60292025
   0.16416557  0.42104871  0.50115688
   0.33316589  0.33159054  0.39829466
   0.75023459  0.74719434  0.60053117
   0.16828500  0.16427694  0.50019525
   0.07969961  0.58245790  0.39940097
  -0.00105576  0.25403618  0.60218174
   0.08404136  0.83319643  0.39947915
   0.91998282  0.91132491  0.50148208
   0.00681054 -0.00539341  0.60205439
   0.91485484  0.16913986  0.49902146
   0.33687981  0.08179271  0.39823266
   0.83347708  0.58184986  0.40453842
   0.74820129  0.50297359  0.59641281
   0.49833506  0.74991462  0.59568637
   0.07985019  0.33525569  0.40288053
   0.83442479  0.33601313  0.40261102
   0.91391885  0.42117241  0.49935284
   0.66535548  0.16855434  0.50015014
   0.66631819  0.66682159  0.50035641
   0.41766944  0.91146231  0.50154808
   0.41544089  0.66802284  0.50232599
   0.49656230  0.50331072  0.59661033
   0.25491989 -0.00442472  0.59694242
   0.49821696  0.25287798  0.59715726
   0.41602568  0.41946840  0.50212809
   0.91488029  0.66560443  0.50079655
   0.49825950 -0.00156201  0.59781743
  -0.00116642  0.50243800  0.59693287
   0.58381927  0.08179385  0.40211073
   0.17093132  0.91245211  0.50143980
   0.25053206  0.50258502  0.59674841
   0.16996189  0.66623946  0.50223153
   0.00358264  0.74557052  0.59692509
   0.58422590  0.83207044  0.40361535
   0.25267051  0.74762938  0.59590702
Direct configuration=     5
   0.08211333  0.08612684  0.39688895
   0.82962180  0.83147667  0.39770480
   0.74523990  0.25376304  0.60279001
   0.66392833  0.42094002  0.50095812
   0.74695203  0.00032729  0.60282601
   0.83104152  0.08408031  0.39748274
   0.58768983  0.58357273  0.39920501
   0.58364041  0.33344717  0.39897896
   0.41617682  0.16828097  0.50129391
   0.66716051  0.91196302  0.49944171
   0.33638805  0.83348976  0.40056487
   0.33521353  0.58166034  0.40082827
   0.25242432  0.25052106  0.60365099
   0.16589836  0.41911015  0.50100344
   0.33261865  0.33169425  0.39773407
   0.74991416  0.74807832  0.60121808
   0.16904124  0.16465889  0.50022927
   0.07998690  0.58249507  0.39874107
  -0.00112482  0.25372958  0.60288288
   0.08334150  0.83370046  0.39894119
   0.91907219  0.91217468  0.50138185
   0.00609294 -0.00453273  0.60279213
   0.91455357  0.16854940  0.49922558
   0.33669987  0.08215343  0.39761876
   0.83348243  0.58196662  0.40411509
   0.74798059  0.50277328  0.59689588
   0.49875495  0.74960740  0.59631505
   0.08064838  0.33485593  0.40258759
   0.83387416  0.33614836  0.40217300
   0.91419077  0.42030665  0.49950325
   0.66730098  0.16813095  0.50019118
   0.66612912  0.66701597  0.50039059
   0.41721108  0.91198549  0.50130315
   0.41589726  0.66747447  0.50186909
   0.49651887  0.50360397  0.59730084
   0.25469599 -0.00382510  0.59749164
   0.49788274  0.25302728  0.59779152
   0.41567292  0.41961099  0.50173391
   0.91368735  0.66726056  0.50071509
   0.49851137 -0.00185222  0.59840339
  -0.00076460  0.50208753  0.59754501
   0.58379550  0.08151069  0.40159158
   0.16999871  0.91318536  0.50113267
   0.25061234  0.50224506  0.59744264
   0.17018540  0.66611743  0.50176135
   0.00305893  0.74578752  0.59753013
   0.58402822  0.83217483  0.40315194
   0.25296158  0.74734027  0.59668174
Direct configuration=     6
   0.08228421  0.08606847  0.39640882
   0.83031574  0.83171494  0.39714817
   0.74631148  0.25287234  0.60326434
   0.66422669  0.41993329  0.50079492
   0.74748059  0.00047431  0.60326402
   0.83116940  0.08402532  0.39712190
   0.58705883  0.58359846  0.39870439
   0.58409209  0.33269803  0.39868301
   0.41805220  0.16701080  0.50116705
   0.66587749  0.91491319  0.49974874
   0.33557953  0.83350164  0.40027152
   0.33436932  0.58234841  0.40062158
   0.25175465  0.25055563  0.60434636
   0.16505677  0.41985952  0.50087644
   0.33267188  0.33187688  0.39736261
   0.74984531  0.74846370  0.60183202
   0.16757131  0.16480514  0.50030283
   0.08066326  0.58280206  0.39841186
  -0.00082809  0.25293680  0.60331833
   0.08328514  0.83340224  0.39866494
   0.91889168  0.91339982  0.50136260
   0.00495059 -0.00346409  0.60318254
   0.91626272  0.16739754  0.49952457
   0.33602085  0.08239480  0.39717176
   0.83371579  0.58208370  0.40390444
   0.74806217  0.50239666  0.59721390
   0.49902532  0.74950442  0.59682563
   0.08137662  0.33407204  0.40267719
   0.83398612  0.33503808  0.40205041
   0.91532304  0.41896744  0.49992428
   0.66683592  0.16736448  0.50029078
   0.66572916  0.66678547  0.50045837
   0.41718509  0.91311883  0.50091314
   0.41603160  0.66756536  0.50114068
   0.49715453  0.50307322  0.59781172
   0.25372673 -0.00274048  0.59773721
   0.49831206  0.25257571  0.59797998
   0.41636694  0.41853316  0.50116153
   0.91539068  0.66602286  0.50060761
   0.49886550 -0.00150502  0.59854680
  -0.00030572  0.50156841  0.59778530
   0.58370949  0.08212921  0.40169965
   0.16818507  0.91468500  0.50082299
   0.25028929  0.50202703  0.59790137
   0.16912067  0.66622489  0.50110250
   0.00258464  0.74664647  0.59781718
   0.58401438  0.83227504  0.40293505
   0.25235126  0.74799878  0.59713695
Direct configuration=     7
   0.08232998  0.08605284  0.39628024
   0.83050157  0.83177875  0.39699911
   0.74659845  0.25263381  0.60339136
   0.66430660  0.41966369  0.50075122
   0.74762213  0.00051367  0.60338131
   0.83120364  0.08401060  0.39702526
   0.58688985  0.58360535  0.39857032
   0.58421305  0.33249741  0.39860376
   0.41855442  0.16667066  0.50113308
   0.66553390  0.91570323  0.49983096
   0.33536302  0.83350483  0.40019296
   0.33414325  0.58253267  0.40056623
   0.25157531  0.25056489  0.60453257
   0.16483139  0.42006019  0.50084243
   0.33268613  0.33192578  0.39726314
   0.74982688  0.74856690  0.60199643
   0.16717768  0.16484431  0.50032254
   0.08084439  0.58288428  0.39832370
  -0.00074862  0.25272450  0.60343494
   0.08327005  0.83332238  0.39859096
   0.91884334  0.91372791  0.50135744
   0.00464467 -0.00317791  0.60328709
   0.91672042  0.16708908  0.49960464
   0.33583901  0.08245944  0.39705206
   0.83377828  0.58211505  0.40384803
   0.74808402  0.50229581  0.59729907
   0.49909773  0.74947685  0.59696236
   0.08157163  0.33386212  0.40270118
   0.83401610  0.33474075  0.40201757
   0.91562625  0.41860880  0.50003703
   0.66671138  0.16715923  0.50031745
   0.66562205  0.66672374  0.50047652
   0.41717814  0.91342233  0.50080870
   0.41606758  0.66758971  0.50094561
   0.49732476  0.50293108  0.59794854
   0.25346716 -0.00245003  0.59780297
   0.49842703  0.25245479  0.59803045
   0.41655279  0.41824453  0.50100825
   0.91584682  0.66569141  0.50057883
   0.49896033 -0.00141204  0.59858521
  -0.00018283  0.50142939  0.59784965
   0.58368646  0.08229485  0.40172860
   0.16769939  0.91508660  0.50074006
   0.25020277  0.50196865  0.59802421
   0.16883554  0.66625367  0.50092606
   0.00245763  0.74687650  0.59789405
   0.58401067  0.83230187  0.40287697
   0.25218782  0.74817512  0.59725886
Direct configuration=     8
   0.08223818  0.08597670  0.39601899
   0.83030564  0.83188961  0.39685889
   0.74669041  0.25253412  0.60357809
   0.66489195  0.41880866  0.50077118
   0.74779994  0.00067755  0.60365326
   0.83116771  0.08424567  0.39690729
   0.58689700  0.58365656  0.39835355
   0.58437732  0.33196395  0.39850897
   0.41844850  0.16680203  0.50113123
   0.66579835  0.91551823  0.49996270
   0.33505722  0.83370985  0.40010093
   0.33397949  0.58261391  0.40044433
   0.25159254  0.25045497  0.60479942
   0.16504488  0.41989028  0.50088047
   0.33295068  0.33194348  0.39712929
   0.75011595  0.74818650  0.60213733
   0.16733980  0.16491448  0.50041723
   0.08091500  0.58270111  0.39816782
  -0.00066379  0.25267803  0.60374418
   0.08318807  0.83347919  0.39845805
   0.91874769  0.91370323  0.50137273
   0.00453472 -0.00322758  0.60346967
   0.91658355  0.16723533  0.49970537
   0.33576312  0.08235474  0.39686426
   0.83398974  0.58188773  0.40398040
   0.74828293  0.50217000  0.59731647
   0.49868680  0.74979545  0.59695946
   0.08150071  0.33385225  0.40290801
   0.83431215  0.33425677  0.40218799
   0.91557960  0.41843853  0.50029556
   0.66648725  0.16735247  0.50044478
   0.66587352  0.66690344  0.50053568
   0.41686736  0.91385728  0.50067266
   0.41553467  0.66812397  0.50080318
   0.49752831  0.50254250  0.59787637
   0.25326638 -0.00235105  0.59768318
   0.49866267  0.25229542  0.59792892
   0.41668892  0.41785794  0.50085175
   0.91582052  0.66567177  0.50055045
   0.49884500 -0.00100317  0.59855357
  -0.00034264  0.50147822  0.59785891
   0.58364701  0.08249476  0.40189381
   0.16788372  0.91483163  0.50072201
   0.25014843  0.50205708  0.59791949
   0.16847692  0.66652108  0.50082183
   0.00248497  0.74726036  0.59779832
   0.58423636  0.83235474  0.40298629
   0.25177479  0.74864022  0.59701570
Direct configuration=     9
   0.08214686  0.08590095  0.39575909
   0.83011071  0.83199990  0.39671939
   0.74678190  0.25243495  0.60376386
   0.66547428  0.41795803  0.50079105
   0.74797684  0.00084058  0.60392381
   0.83113197  0.08447953  0.39678992
   0.58690411  0.58370751  0.39813789
   0.58454075  0.33143324  0.39841466
   0.41834312  0.16693273  0.50112939
   0.66606144  0.91533419  0.50009377
   0.33475299  0.83391382  0.40000936
   0.33381658  0.58269474  0.40032305
   0.25160969  0.25034562  0.60506490
   0.16525726  0.41972125  0.50091830
   0.33321385  0.33196109  0.39699614
   0.75040353  0.74780806  0.60227750
   0.16750108  0.16498429  0.50051143
   0.08098525  0.58251889  0.39801274
  -0.00057940  0.25263179  0.60405182
   0.08310653  0.83363520  0.39832582
   0.91865252  0.91367868  0.50138794
   0.00442533 -0.00327700  0.60365130
   0.91644738  0.16738083  0.49980558
   0.33568762  0.08225057  0.39667742
   0.83420010  0.58166159  0.40411210
   0.74848080  0.50204485  0.59733378
   0.49827799  0.75011240  0.59695658
   0.08143015  0.33384244  0.40311376
   0.83460668  0.33377529  0.40235753
   0.91553319  0.41826913  0.50055276
   0.66626428  0.16754471  0.50057145
   0.66612369  0.66708220  0.50059453
   0.41655818  0.91428999  0.50053732
   0.41500451  0.66865548  0.50066148
   0.49773082  0.50215593  0.59780458
   0.25306663 -0.00225259  0.59756400
   0.49889710  0.25213688  0.59782791
   0.41682435  0.41747334  0.50069606
   0.91579435  0.66565223  0.50052221
   0.49873027 -0.00059640  0.59852209
  -0.00050163  0.50152679  0.59786813
   0.58360776  0.08269364  0.40205818
   0.16806710  0.91457797  0.50070406
   0.25009437  0.50214506  0.59781531
   0.16812015  0.66678711  0.50071813
   0.00251217  0.74764223  0.59770309
   0.58446089  0.83240734  0.40309504
   0.25136390  0.74910292  0.59677381
Direct configuration=    10
   0.08210109  0.08589619  0.39546592
   0.83003995  0.83206269  0.39658342
   0.74688090  0.25248945  0.60404128
   0.66518688  0.41828096  0.50080638
   0.74804446  0.00072931  0.60427724
   0.83127161  0.08432539  0.39669423
   0.58705551  0.58353253  0.39798731
   0.58456297  0.33152928  0.39830257
   0.41814785  0.16695943  0.50110972
   0.66630214  0.91506217  0.50029748
   0.33479985  0.83396705  0.39986899
   0.33399568  0.58259450  0.40018131
   0.25168858  0.25044355  0.60538885
   0.16535442  0.41971417  0.50098842
   0.33323637  0.33182301  0.39683746
   0.75041802  0.74782006  0.60241796
   0.16751242  0.16504099  0.50060351
   0.08087599  0.58241385  0.39784068
  -0.00048418  0.25257574  0.60448735
   0.08275851  0.83379433  0.39816053
   0.91844680  0.91387591  0.50135076
   0.00441034 -0.00316940  0.60388154
   0.91677577  0.16694368  0.49996026
   0.33565680  0.08233351  0.39646612
   0.83433140  0.58132029  0.40435112
   0.74842072  0.50200462  0.59732849
   0.49793343  0.75039013  0.59679491
   0.08147723  0.33373973  0.40343455
   0.83466166  0.33375216  0.40260927
   0.91554529  0.41826701  0.50087421
   0.66630619  0.16738102  0.50073304
   0.66610889  0.66699706  0.50069804
   0.41648066  0.91451177  0.50038061
   0.41521995  0.66847169  0.50053916
   0.49769605  0.50211954  0.59752611
   0.25296173 -0.00218273  0.59740162
   0.49892469  0.25216394  0.59769593
   0.41678274  0.41769339  0.50051421
   0.91579038  0.66556451  0.50047940
   0.49880132 -0.00045580  0.59845543
  -0.00044247  0.50159485  0.59786557
   0.58357647  0.08255246  0.40230488
   0.16796319  0.91467606  0.50063552
   0.25007525  0.50227914  0.59756721
   0.16800773  0.66670476  0.50057387
   0.00251907  0.74778138  0.59755072
   0.58452839  0.83241910  0.40329111
   0.25129133  0.74921558  0.59639572
Direct configuration=    11
   0.08201564  0.08588731  0.39491857
   0.82990784  0.83217993  0.39632959
   0.74706574  0.25259120  0.60455922
   0.66465031  0.41888386  0.50083500
   0.74817072  0.00052156  0.60493708
   0.83153231  0.08403763  0.39651559
   0.58733816  0.58320584  0.39770618
   0.58460446  0.33170858  0.39809331
   0.41778328  0.16700928  0.50107300
   0.66675153  0.91455432  0.50067779
   0.33488732  0.83406641  0.39960690
   0.33433006  0.58240734  0.39991667
   0.25183586  0.25062639  0.60599365
   0.16553580  0.41970094  0.50111933
   0.33327841  0.33156522  0.39654122
   0.75044509  0.74784246  0.60268018
   0.16753358  0.16514685  0.50077544
   0.08067200  0.58221773  0.39751947
  -0.00030641  0.25247108  0.60530047
   0.08210877  0.83409143  0.39785195
   0.91806271  0.91424414  0.50128136
   0.00438236 -0.00296851  0.60431140
   0.91738886  0.16612754  0.50024906
   0.33559927  0.08248836  0.39607162
   0.83457652  0.58068309  0.40479735
   0.74830854  0.50192950  0.59731861
   0.49729014  0.75090862  0.59649307
   0.08156512  0.33354797  0.40403345
   0.83476432  0.33370898  0.40307926
   0.91556788  0.41826305  0.50147435
   0.66638444  0.16707540  0.50103473
   0.66608127  0.66683810  0.50089129
   0.41633592  0.91492582  0.50008804
   0.41562216  0.66812855  0.50031080
   0.49763113  0.50205162  0.59700623
   0.25276589 -0.00205231  0.59709848
   0.49897620  0.25221447  0.59744954
   0.41670506  0.41810422  0.50017470
   0.91578295  0.66540074  0.50039946
   0.49893398 -0.00019332  0.59833098
  -0.00033204  0.50172192  0.59786078
   0.58351807  0.08228889  0.40276545
   0.16776919  0.91485920  0.50050755
   0.25003954  0.50252948  0.59710400
   0.16779785  0.66655101  0.50030455
   0.00253195  0.74804116  0.59726625
   0.58465440  0.83244105  0.40365715
   0.25115583  0.74942589  0.59568984
Direct configuration=    12
   0.08198899  0.08588453  0.39474784
   0.82986663  0.83221650  0.39625041
   0.74712339  0.25262294  0.60472078
   0.66448294  0.41907192  0.50084393
   0.74821010  0.00045675  0.60514290
   0.83161363  0.08394787  0.39645987
   0.58742632  0.58310394  0.39761849
   0.58461740  0.33176450  0.39802803
   0.41766957  0.16702483  0.50106154
   0.66689170  0.91439590  0.50079642
   0.33491461  0.83409741  0.39952515
   0.33443437  0.58234896  0.39983413
   0.25188180  0.25068342  0.60618230
   0.16559238  0.41969681  0.50116017
   0.33329153  0.33148481  0.39644882
   0.75045353  0.74784945  0.60276198
   0.16754017  0.16517987  0.50082906
   0.08060838  0.58215656  0.39741928
  -0.00025095  0.25243844  0.60555411
   0.08190610  0.83418410  0.39775569
   0.91794291  0.91435901  0.50125971
   0.00437363 -0.00290585  0.60444549
   0.91758010  0.16587296  0.50033915
   0.33558132  0.08253666  0.39594856
   0.83465298  0.58048433  0.40493654
   0.74827355  0.50190607  0.59731553
   0.49708948  0.75107035  0.59639892
   0.08159254  0.33348816  0.40422027
   0.83479634  0.33369551  0.40322587
   0.91557493  0.41826182  0.50166155
   0.66640884  0.16698007  0.50112883
   0.66607265  0.66678852  0.50095157
   0.41629077  0.91505497  0.49999678
   0.41574762  0.66802152  0.50023956
   0.49761088  0.50203043  0.59684407
   0.25270480 -0.00201163  0.59700392
   0.49899226  0.25223023  0.59737269
   0.41668083  0.41823237  0.50006880
   0.91578064  0.66534966  0.50037453
   0.49897536 -0.00011144  0.59829216
  -0.00029759  0.50176156  0.59785929
   0.58349985  0.08220667  0.40290911
   0.16770868  0.91491632  0.50046764
   0.25002840  0.50260757  0.59695951
   0.16773239  0.66650306  0.50022055
   0.00253597  0.74812220  0.59717751
   0.58469371  0.83244790  0.40377133
   0.25111356  0.74949150  0.59546965
Direct configuration=    13
   0.08208033  0.08596621  0.39450065
   0.82984061  0.83190422  0.39614566
   0.74711030  0.25266738  0.60500777
   0.66471387  0.41883269  0.50080219
   0.74822325  0.00042161  0.60553325
   0.83126902  0.08416575  0.39642984
   0.58754557  0.58317738  0.39750811
   0.58486060  0.33159032  0.39795658
   0.41771800  0.16703677  0.50104030
   0.66680491  0.91436131  0.50104911
   0.33501356  0.83390521  0.39936335
   0.33418267  0.58257436  0.39963382
   0.25195346  0.25087926  0.60651319
   0.16556554  0.41969030  0.50117777
   0.33315493  0.33147406  0.39628153
   0.75025350  0.74797043  0.60292103
   0.16722445  0.16528813  0.50093104
   0.08063050  0.58218690  0.39725835
  -0.00014030  0.25259861  0.60606506
   0.08219309  0.83373820  0.39757702
   0.91801308  0.91425212  0.50122177
   0.00438766 -0.00281829  0.60469541
   0.91747160  0.16604773  0.50055107
   0.33549072  0.08255364  0.39571422
   0.83455811  0.58047830  0.40521758
   0.74804322  0.50208756  0.59740659
   0.49715693  0.75117472  0.59616947
   0.08173683  0.33325157  0.40457409
   0.83484884  0.33360610  0.40356951
   0.91569192  0.41789211  0.50202914
   0.66653703  0.16701067  0.50125708
   0.66589303  0.66675948  0.50105339
   0.41632813  0.91492806  0.49982059
   0.41581762  0.66813698  0.49994702
   0.49743632  0.50227400  0.59656296
   0.25269666 -0.00173319  0.59688180
   0.49896345  0.25241218  0.59724475
   0.41659018  0.41828750  0.49977229
   0.91588144  0.66530686  0.50033702
   0.49896866 -0.00019503  0.59824497
  -0.00018081  0.50180690  0.59793467
   0.58364176  0.08211928  0.40321249
   0.16767914  0.91490686  0.50021079
   0.25012684  0.50264516  0.59672120
   0.16769624  0.66660063  0.49985261
   0.00245915  0.74812438  0.59700295
   0.58471018  0.83219188  0.40399216
   0.25115822  0.74946275  0.59510676
Direct configuration=    14
   0.08218518  0.08605997  0.39421691
   0.82981074  0.83154577  0.39602542
   0.74709526  0.25271839  0.60533719
   0.66497894  0.41855809  0.50075428
   0.74823834  0.00038126  0.60598131
   0.83087346  0.08441583  0.39639538
   0.58768244  0.58326168  0.39738141
   0.58513975  0.33139038  0.39787456
   0.41777360  0.16705047  0.50101592
   0.66670529  0.91432161  0.50133916
   0.33512715  0.83368459  0.39917763
   0.33389376  0.58283308  0.39940390
   0.25203570  0.25110404  0.60689300
   0.16553474  0.41968282  0.50119797
   0.33299814  0.33146173  0.39608950
   0.75002390  0.74810929  0.60310360
   0.16686204  0.16541239  0.50104810
   0.08065589  0.58222173  0.39707363
  -0.00001329  0.25278245  0.60665156
   0.08252250  0.83322638  0.39737194
   0.91809362  0.91412943  0.50117822
   0.00440376 -0.00271779  0.60498228
   0.91734707  0.16624835  0.50079432
   0.33538673  0.08257313  0.39544523
   0.83444921  0.58047139  0.40554017
   0.74777884  0.50229588  0.59751112
   0.49723434  0.75129451  0.59590610
   0.08190247  0.33298001  0.40498023
   0.83490910  0.33350347  0.40396396
   0.91582620  0.41746775  0.50245107
   0.66668416  0.16704579  0.50140429
   0.66568685  0.66672614  0.50117027
   0.41637101  0.91478238  0.49961835
   0.41589797  0.66826952  0.49961122
   0.49723596  0.50255357  0.59624028
   0.25268731 -0.00141359  0.59674163
   0.49893037  0.25262104  0.59709790
   0.41648612  0.41835079  0.49943195
   0.91599716  0.66525774  0.50029397
   0.49896097 -0.00029097  0.59819079
  -0.00004676  0.50185895  0.59802119
   0.58380465  0.08201897  0.40356072
   0.16764523  0.91489600  0.49991597
   0.25023984  0.50268832  0.59644767
   0.16765475  0.66671263  0.49943028
   0.00237097  0.74812689  0.59680258
   0.58472907  0.83189801  0.40424564
   0.25120948  0.74942975  0.59469022
Direct configuration=    15
   0.08212822  0.08587807  0.39420929
   0.82983986  0.83135385  0.39606112
   0.74692818  0.25282657  0.60546087
   0.66520519  0.41816938  0.50074557
   0.74819666  0.00052877  0.60616109
   0.83117088  0.08409554  0.39651865
   0.58761756  0.58318824  0.39737330
   0.58481258  0.33157851  0.39789498
   0.41770361  0.16709864  0.50102711
   0.66665999  0.91450205  0.50146073
   0.33504615  0.83370140  0.39901749
   0.33407464  0.58252585  0.39917478
   0.25212764  0.25118774  0.60696390
   0.16548085  0.41960605  0.50115514
   0.33302539  0.33153950  0.39599992
   0.75005266  0.74808226  0.60319100
   0.16699581  0.16514998  0.50113061
   0.08068391  0.58201990  0.39701982
  -0.00011840  0.25310465  0.60695650
   0.08252359  0.83344108  0.39722610
   0.91823164  0.91407488  0.50115061
   0.00451594 -0.00278581  0.60504169
   0.91710901  0.16631463  0.50098924
   0.33558687  0.08229941  0.39538645
   0.83453397  0.58047443  0.40570847
   0.74765245  0.50245182  0.59770082
   0.49746062  0.75118109  0.59577955
   0.08183693  0.33308510  0.40508432
   0.83507167  0.33342152  0.40416185
   0.91578622  0.41748055  0.50266643
   0.66684409  0.16706040  0.50145376
   0.66588289  0.66655882  0.50120611
   0.41613661  0.91483787  0.49954947
   0.41575902  0.66834277  0.49928336
   0.49716187  0.50283965  0.59610456
   0.25266732 -0.00116229  0.59671949
   0.49893689  0.25275775  0.59706147
   0.41651572  0.41816970  0.49915901
   0.91592316  0.66527945  0.50032252
   0.49873615 -0.00024838  0.59823469
  -0.00008524  0.50196897  0.59816132
   0.58385606  0.08196529  0.40371740
   0.16754693  0.91503476  0.49963140
   0.25035040  0.50268387  0.59635343
   0.16778432  0.66681700  0.49906921
   0.00226123  0.74808351  0.59671600
   0.58463939  0.83186950  0.40429894
   0.25114287  0.74956570  0.59454043
Direct configuration=    16
   0.08208781  0.08574902  0.39420388
   0.82986052  0.83121770  0.39608645
   0.74680964  0.25290332  0.60554861
   0.66536568  0.41789362  0.50073939
   0.74816710  0.00063341  0.60628863
   0.83138187  0.08386833  0.39660609
   0.58757154  0.58313615  0.39736754
   0.58458048  0.33171197  0.39790947
   0.41765396  0.16713281  0.50103505
   0.66662786  0.91463006  0.50154697
   0.33498869  0.83371333  0.39890389
   0.33420295  0.58230789  0.39901224
   0.25219287  0.25124712  0.60701419
   0.16544263  0.41955159  0.50112475
   0.33304473  0.33159467  0.39593636
   0.75007306  0.74806308  0.60325301
   0.16709072  0.16496383  0.50118915
   0.08070378  0.58187672  0.39698164
  -0.00019296  0.25333322  0.60717283
   0.08252436  0.83359339  0.39712264
   0.91832955  0.91403618  0.50113102
   0.00459553 -0.00283406  0.60508384
   0.91694012  0.16636165  0.50112753
   0.33572886  0.08210523  0.39534475
   0.83459410  0.58047660  0.40582787
   0.74756279  0.50256245  0.59783539
   0.49762115  0.75110063  0.59568977
   0.08179044  0.33315964  0.40515816
   0.83518699  0.33336338  0.40430223
   0.91575786  0.41748964  0.50281921
   0.66695756  0.16707076  0.50148885
   0.66602196  0.66644012  0.50123154
   0.41597032  0.91487723  0.49950061
   0.41566045  0.66839473  0.49905078
   0.49710931  0.50304261  0.59600827
   0.25265314 -0.00098402  0.59670379
   0.49894151  0.25285474  0.59703563
   0.41653672  0.41804124  0.49896538
   0.91587067  0.66529485  0.50034277
   0.49857665 -0.00021817  0.59826583
  -0.00011253  0.50204702  0.59826073
   0.58389253  0.08192721  0.40382855
   0.16747719  0.91513319  0.49942953
   0.25042882  0.50268072  0.59628657
   0.16787624  0.66689105  0.49881307
   0.00218338  0.74805274  0.59665458
   0.58457577  0.83184928  0.40433675
   0.25109562  0.74966214  0.59443417
Direct configuration=    17
   0.08205548  0.08583086  0.39433194
   0.82992211  0.83117403  0.39621004
   0.74672994  0.25307786  0.60561491
   0.66515371  0.41803798  0.50081896