 vasp.5.4.1 24Jun15 (build Mar 14 2019 10:18:33) complex                        
  
 executed on INTEL-19.0.2+OPENMPI date 2023.01.30  16:50:19
 running on   36 total cores
 distrk:  each k-point on   36 cores,    1 groups
 distr:  one band on NCORES_PER_BAND=   6 cores,    6 groups


--------------------------------------------------------------------------------------------------------


 INCAR:
 POTCAR:    PAW_PBE Au 04Oct2007                  
 POTCAR:    PAW_PBE Pd 04Jan2005                  
 POTCAR:    PAW_PBE Au 04Oct2007                  
  local pseudopotential read in
  partial core-charges read in
  partial kinetic energy density read in
  atomic valenz-charges read in
  non local Contribution for L=           2  read in
    real space projection operators read in
  non local Contribution for L=           2  read in
    real space projection operators read in
  non local Contribution for L=           0  read in
    real space projection operators read in
  non local Contribution for L=           0  read in
    real space projection operators read in
  non local Contribution for L=           1  read in
    real space projection operators read in
  non local Contribution for L=           1  read in
    real space projection operators read in
    PAW grid and wavefunctions read in
 
   number of l-projection  operators is LMAX  =           6
   number of lm-projection operators is LMMAX =          18
 
 POTCAR:    PAW_PBE Pd 04Jan2005                  
  local pseudopotential read in
  partial core-charges read in
  partial kinetic energy density read in
  atomic valenz-charges read in
  non local Contribution for L=           2  read in
    real space projection operators read in
  non local Contribution for L=           2  read in
    real space projection operators read in
  non local Contribution for L=           0  read in
    real space projection operators read in
  non local Contribution for L=           0  read in
    real space projection operators read in
  non local Contribution for L=           1  read in
    real space projection operators read in
  non local Contribution for L=           1  read in
    real space projection operators read in
    PAW grid and wavefunctions read in
 
   number of l-projection  operators is LMAX  =           6
   number of lm-projection operators is LMMAX =          18
 
 Optimization of the real space projectors (new method)

 maximal supplied QI-value         = 15.12
 optimisation between [QCUT,QGAM] = [ 10.13, 20.41] = [ 28.73,116.64] Ry 
 Optimized for a Real-space Cutoff    1.51 Angstroem

   l    n(q)    QCUT    max X(q) W(low)/X(q) W(high)/X(q)  e(spline) 
   2      8    10.129    60.898    0.46E-03    0.46E-03    0.14E-06
   2      8    10.129    58.894    0.47E-03    0.47E-03    0.14E-06
   0      9    10.129   109.617    0.16E-03    0.11E-03    0.54E-07
   0      9    10.129    75.026    0.15E-03    0.11E-03    0.52E-07
   1      9    10.129    16.344    0.96E-04    0.15E-03    0.14E-06
   1      9    10.129    10.160    0.81E-04    0.12E-03    0.11E-06
 Optimization of the real space projectors (new method)

 maximal supplied QI-value         = 14.36
 optimisation between [QCUT,QGAM] = [ 10.20, 20.39] = [ 29.12,116.47] Ry 
 Optimized for a Real-space Cutoff    1.51 Angstroem

   l    n(q)    QCUT    max X(q) W(low)/X(q) W(high)/X(q)  e(spline) 
   2      8    10.197    59.108    0.26E-03    0.14E-03    0.96E-07
   2      8    10.197    58.101    0.27E-03    0.14E-03    0.98E-07
   0      9    10.197   102.235    0.54E-04    0.60E-05    0.72E-07
   0      9    10.197    58.388    0.52E-04    0.60E-05    0.68E-07
   1      9    10.197    22.191    0.18E-03    0.25E-03    0.79E-07
   1      9    10.197    15.590    0.15E-03    0.21E-03    0.69E-07
  PAW_PBE Au 04Oct2007                  :
 energy of atom  1       EATOM= -926.0867
 kinetic energy error for atom=    0.0062 (will be added to EATOM!!)
  PAW_PBE Pd 04Jan2005                  :
 energy of atom  2       EATOM= -809.7530
 kinetic energy error for atom=    0.0091 (will be added to EATOM!!)
 
 
 POSCAR: Au Pd                                   
  positions in cartesian coordinates
  No initial velocities read in
 exchange correlation table for  LEXCH =        8
   RHO(1)=    0.500       N(1)  =     2000
   RHO(2)=  100.500       N(2)  =     4000

 VTST: version 3.2, (02/03/18)

 CHAIN: initializing optimizer
 
 OPT: Using VASP Conjugate-Gradient optimizer
 CHAIN: Read ICHAIN            0
 
 POSCAR: Au Pd                                   
  positions in cartesian coordinates
  No initial velocities read in
 


--------------------------------------------------------------------------------------------------------


 ion  position               nearest neighbor table
   1  0.083  0.083  0.408-  35 2.75  11 2.75  19 2.75  34 2.75   5 2.75  23 2.75  47 2.75  30 2.75
                             3 2.75
   2  0.500  0.750  0.592-  41 2.75  14 2.75  32 2.75  33 2.75   9 2.75  43 2.75  36 2.75  48 2.75
                            40 2.75
   3  0.917  0.167  0.500-  23 2.75  38 2.75  45 2.75  30 2.75  12 2.75  44 2.75   6 2.75  35 2.75
                            21 2.75  19 2.75   7 2.75   1 2.75
   4  0.833  0.833  0.408-  12 2.75   8 2.75  23 2.75  31 2.75  42 2.75  16 2.75  11 2.75  37 2.75
                            13 2.75
   5  0.083  0.333  0.408-  18 2.75   8 2.75   1 2.75  42 2.75  47 2.75  19 2.75  25 2.75  35 2.75
                             6 2.75
   6  0.917  0.417  0.500-  19 2.75   7 2.75   9 2.75  14 2.75   3 2.75  35 2.75  37 2.75  18 2.75
                            44 2.75  42 2.75  10 2.75   5 2.75
   7  0.000  0.250  0.592-   6 2.75  35 2.75  10 2.75  33 2.75   9 2.75  38 2.75  27 2.75  45 2.75
                             3 2.75
   8  0.083  0.583  0.408-  28 2.75   5 2.75  11 2.75  25 2.75   4 2.75  42 2.75  46 2.75  18 2.75
                            37 2.75
   9  0.750  0.500  0.592-  14 2.75   6 2.75   7 2.75   2 2.75  45 2.75  48 2.75  10 2.75  43 2.75
                            44 2.75
  10  0.000  0.500  0.592-  37 2.75  18 2.75  24 2.75  27 2.75   7 2.75  48 2.75   9 2.75  22 2.75
                             6 2.75
  11  0.083  0.833  0.408-  30 2.75   8 2.75  23 2.75   1 2.75  46 2.75  34 2.75   4 2.75  28 2.75
                            12 2.75
  12  0.917  0.917  0.500-   4 2.75  24 2.75  20 2.75  21 2.75   3 2.75  28 2.75  37 2.75  30 2.75
                            13 2.75  23 2.75  11 2.75  38 2.75
  13  0.667  0.917  0.500-  16 2.75  48 2.75  32 2.75  21 2.75  14 2.75  37 2.75  17 2.75  41 2.75
                            12 2.75  31 2.75   4 2.75  20 2.75
  14  0.667  0.667  0.500-  26 2.75   9 2.75   2 2.75  13 2.75   6 2.75  41 2.75  44 2.75  37 2.75
                            40 2.75  16 2.75  42 2.75  48 2.75
  15  0.583  0.333  0.408-  44 2.75  26 2.75  31 2.75  23 2.75  46 2.75  19 2.75  25 2.75  21 2.75
                            29 2.75
  16  0.583  0.833  0.408-  13 2.75  26 2.75  31 2.75  42 2.75  47 2.75   4 2.75  34 2.75  14 2.75
                            41 2.75
  17  0.417  0.167  0.500-  47 2.75  32 2.75  27 2.75  29 2.75  18 2.75  41 2.75  13 2.75  21 2.75
                            35 2.75  25 2.75  31 2.75  39 2.75
  18  0.167  0.417  0.500-   5 2.75  27 2.75  10 2.75  17 2.75  28 2.75  35 2.75  37 2.75   6 2.75
                            29 2.75   8 2.75  25 2.75  22 2.75
  19  0.833  0.333  0.408-   6 2.75   1 2.75  23 2.75  26 2.75  42 2.75  15 2.75   5 2.75   3 2.75
                            44 2.75
  20  0.750  0.000  0.592-  21 2.75  12 2.75  24 2.75  39 2.75  45 2.75  48 2.75  38 2.75  32 2.75
                            13 2.75
  21  0.667  0.167  0.500-  31 2.75  20 2.75  39 2.75  29 2.75  13 2.75  12 2.75  44 2.75  17 2.75
                             3 2.75  15 2.75  23 2.75  45 2.75
  22  0.250  0.500  0.592-  28 2.75  29 2.75  24 2.75  27 2.75  36 2.75  39 2.75  10 2.75  43 2.75
                            18 2.75
  23  0.833  0.083  0.408-   3 2.75   4 2.75  11 2.75  15 2.75  19 2.75   1 2.75  31 2.75  12 2.75
                            21 2.75
  24  0.000  0.750  0.592-  12 2.75  28 2.75  20 2.75  22 2.75  10 2.75  38 2.75  36 2.75  48 2.75
                            37 2.75
  25  0.333  0.333  0.408-  29 2.75   8 2.75  31 2.75  46 2.75  47 2.75   5 2.75  15 2.75  17 2.75
                            18 2.75
  26  0.583  0.583  0.408-  14 2.75  15 2.75  16 2.75  19 2.75  34 2.75  42 2.75  46 2.75  44 2.75
                            40 2.75
  27  0.250  0.250  0.592-  18 2.75  17 2.75  10 2.75  22 2.75  32 2.75  33 2.75   7 2.75  39 2.75
                            35 2.75
  28  0.167  0.667  0.500-   8 2.75  22 2.75  24 2.75  12 2.75  18 2.75  29 2.75  30 2.75  37 2.75
                            40 2.75  11 2.75  36 2.75  46 2.75
  29  0.417  0.417  0.500-  25 2.75  39 2.75  22 2.75  21 2.75  28 2.75  17 2.75  40 2.75  18 2.75
                            44 2.75  46 2.75  15 2.75  43 2.75
  30  0.167  0.917  0.500-  11 2.75  36 2.75  38 2.75  35 2.75   3 2.75  28 2.75  40 2.75  12 2.75
                            41 2.75   1 2.75  34 2.75  33 2.75
  31  0.583  0.083  0.408-  21 2.75  15 2.75  16 2.75   4 2.75  25 2.75  23 2.75  47 2.75  13 2.75
                            17 2.75
  32  0.500  0.000  0.592-  17 2.75  13 2.75   2 2.75  27 2.75  39 2.75  48 2.75  20 2.75  33 2.75
                            41 2.75
  33  0.250  0.000  0.592-  35 2.75  41 2.75  27 2.75   2 2.75  36 2.75   7 2.75  38 2.75  32 2.75
                            30 2.75
  34  0.333  0.833  0.408-  41 2.75  26 2.75   1 2.75  46 2.75  47 2.75  11 2.75  16 2.75  40 2.75
                            30 2.75
  35  0.167  0.167  0.500-   1 2.75  33 2.75   7 2.75  18 2.75  30 2.75   6 2.75  41 2.75   3 2.75
                            17 2.75   5 2.75  27 2.75  47 2.75
  36  0.250  0.750  0.592-  30 2.75  40 2.75  33 2.75  38 2.75  22 2.75  43 2.75  24 2.75   2 2.75
                            28 2.75
  37  0.917  0.667  0.500-  42 2.75  10 2.75  48 2.75  13 2.75  18 2.75   6 2.75  12 2.75  14 2.75
                            28 2.75   4 2.75  24 2.75   8 2.75
  38  0.000  0.000  0.592-   3 2.75  30 2.75  24 2.75   7 2.75  36 2.75  45 2.75  20 2.75  33 2.75
                            12 2.75
  39  0.500  0.250  0.592-  29 2.75  21 2.75  22 2.75  20 2.75  32 2.75  43 2.75  27 2.75  45 2.75
                            17 2.75
  40  0.417  0.667  0.500-  46 2.75  43 2.75  36 2.75  41 2.75  30 2.75  44 2.75  29 2.75  28 2.75
                            14 2.75  34 2.75  26 2.75   2 2.75
  41  0.417  0.917  0.500-  34 2.75   2 2.75  33 2.75  14 2.75  17 2.75  35 2.75  40 2.75  13 2.75
                            30 2.75  47 2.75  32 2.75  16 2.75
  42  0.833  0.583  0.408-  37 2.75   5 2.75  16 2.75  19 2.75   4 2.75  26 2.75   8 2.75   6 2.75
                            14 2.75
  43  0.500  0.500  0.592-  40 2.75  44 2.75  39 2.75   2 2.75  36 2.75  45 2.75  22 2.75   9 2.75
                            29 2.75
  44  0.667  0.417  0.500-  15 2.75  45 2.75  43 2.75  21 2.75  40 2.75  14 2.75   3 2.75  29 2.75
                             6 2.75  26 2.75   9 2.75  19 2.75
  45  0.750  0.250  0.592-  44 2.75   3 2.75  20 2.75  38 2.75  43 2.75   9 2.75   7 2.75  39 2.75
                            21 2.75
  46  0.333  0.583  0.408-  40 2.75  15 2.75  25 2.75  34 2.75  11 2.75   8 2.75  26 2.75  29 2.75
                            28 2.75
  47  0.333  0.083  0.408-  17 2.75  16 2.75   5 2.75  25 2.75  34 2.75  31 2.75   1 2.75  41 2.75
                            35 2.75
  48  0.750  0.750  0.592-  13 2.75  37 2.75   9 2.75  20 2.75  32 2.75  10 2.75   2 2.75  24 2.75
                            14 2.75
 
  LATTYP: Found a hexagonal cell.
 ALAT       =    11.0025815153
 C/A-ratio  =     2.2260035120
  
  Lattice vectors:
  
 A1 = (   5.5012907576,  -9.5285150994,   0.0000000000)
 A2 = ( -11.0025815153,   0.0000000000,   0.0000000000)
 A3 = (   0.0000000000,   0.0000000000, -24.4917850943)


Analysis of symmetry for initial positions (statically):
=====================================================================
 Subroutine PRICEL returns:
 Original cell was already a primitive cell.
 

 Routine SETGRP: Setting up the symmetry group for a 
 hexagonal supercell.


 Subroutine GETGRP returns: Found  1 space group operations
 (whereof  1 operations were pure point group operations)
 out of a pool of 24 trial point group operations.


The static configuration has the point symmetry C_1 .


Analysis of symmetry for dynamics (positions and initial velocities):
=====================================================================
 Subroutine PRICEL returns:
 Original cell was already a primitive cell.
 

 Routine SETGRP: Setting up the symmetry group for a 
 hexagonal supercell.


 Subroutine GETGRP returns: Found  1 space group operations
 (whereof  1 operations were pure point group operations)
 out of a pool of 24 trial point group operations.


The dynamic configuration has the point symmetry C_1 .


Analysis of constrained symmetry for selective dynamics:
=====================================================================
 Subroutine PRICEL returns:
 Original cell was already a primitive cell.
 

 Routine SETGRP: Setting up the symmetry group for a 
 hexagonal supercell.


 Subroutine GETGRP returns: Found  1 space group operations
 (whereof  1 operations were pure point group operations)
 out of a pool of 24 trial point group operations.


The constrained configuration has the point symmetry C_1 .
 
 
 KPOINTS: Automatic mesh                          

Automatic generation of k-mesh.
Space group operators:
 irot       det(A)        alpha          n_x          n_y          n_z        tau_x        tau_y        tau_z
    1     1.000000     0.000000     1.000000     0.000000     0.000000     0.000000     0.000000     0.000000
 
 Subroutine IBZKPT returns following result:
 ===========================================
 
 Found      6 irreducible k-points:
 
 Following reciprocal coordinates:
            Coordinates               Weight
  0.250000  0.250000  0.000000     16.000000
  0.000000  0.250000  0.000000     16.000000
 -0.250000  0.000000  0.000000     16.000000
 -0.250000  0.250000  0.000000     16.000000
  0.500000 -0.250000  0.000000     16.000000
 -0.250000  0.500000  0.000000     16.000000
 
 Following cartesian coordinates:
            Coordinates               Weight
  0.022722  0.013119  0.000000     16.000000
  0.000000  0.026237  0.000000     16.000000
 -0.022722  0.013119  0.000000     16.000000
 -0.022722  0.039356  0.000000     16.000000
  0.045444 -0.052474  0.000000     16.000000
 -0.022722  0.065593  0.000000     16.000000
 


--------------------------------------------------------------------------------------------------------




 Dimension of arrays:
   k-points           NKPTS =      6   k-points in BZ     NKDIM =      6   number of bands    NBANDS=    306
   number of dos      NEDOS =    301   number of ions     NIONS =     48
   non local maximal  LDIM  =      6   non local SUM 2l+1 LMDIM =     18
   total plane-waves  NPLWV = 349920
   max r-space proj   IRMAX =   2009   max aug-charges    IRDMAX=   8532
   dimension x,y,z NGX =    54 NGY =   54 NGZ =  120
   dimension x,y,z NGXF=   108 NGYF=  108 NGZF=  240
   support grid    NGXF=   108 NGYF=  108 NGZF=  240
   ions per type =              24  24
 NGX,Y,Z   is equivalent  to a cutoff of   8.16,  8.16,  8.15 a.u.
 NGXF,Y,Z  is equivalent  to a cutoff of  16.32, 16.32, 16.29 a.u.


 I would recommend the setting:
   dimension x,y,z NGX =    54 NGY =   54 NGZ =  120
 SYSTEM =  unknown system                          
 POSCAR =  Au Pd                                   

 Startparameter for this run:
   NWRITE =      1    write-flag & timer
   PREC   = normal    normal or accurate (medium, high low for compatibility)
   ISTART =      0    job   : 0-new  1-cont  2-samecut
   ICHARG =      2    charge: 1-file 2-atom 10-const
   ISPIN  =      1    spin polarized calculation?
   LNONCOLLINEAR =      F non collinear calculations
   LSORBIT =      F    spin-orbit coupling
   INIWAV =      1    electr: 0-lowe 1-rand  2-diag
   LASPH  =      F    aspherical Exc in radial PAW
   METAGGA=      F    non-selfconsistent MetaGGA calc.

 Electronic Relaxation 1
   ENCUT  =  400.0 eV  29.40 Ry    5.42 a.u.  17.94 17.94 39.94*2*pi/ulx,y,z
   ENINI  =  400.0     initial cutoff
   ENAUG  =  416.2 eV  augmentation charge cutoff
   NELM   =    500;   NELMIN=  2; NELMDL= -5     # of ELM steps 
   EDIFF  = 0.1E-05   stopping-criterion for ELM
   LREAL  =      T    real-space projection
   NLSPLINE    = F    spline interpolate recip. space projectors
   LCOMPAT=      F    compatible to vasp.4.4
   GGA_COMPAT  = T    GGA compatible to vasp.4.4-vasp.4.6
   LMAXPAW     = -100 max onsite density
   LMAXMIX     =    2 max onsite mixed and CHGCAR
   VOSKOWN=      1    Vosko Wilk Nusair interpolation
   ROPT   =   -0.00050  -0.00050
 Ionic relaxation
   EDIFFG = -.2E-01   stopping-criterion for IOM
   NSW    =    500    number of steps for IOM
   NBLOCK =      1;   KBLOCK =    500    inner block; outer block 
   IBRION =      2    ionic relax: 0-MD 1-quasi-New 2-CG
   NFREE  =      2    steps in history (QN), initial steepest desc. (CG)
   ISIF   =      0    stress and relaxation
   IWAVPR =     11    prediction:  0-non 1-charg 2-wave 3-comb
   ISYM   =      2    0-nonsym 1-usesym 2-fastsym
   LCORR  =      T    Harris-Foulkes like correction to forces

   POTIM  = 0.3500    time-step for ionic-motion
   TEIN   =    0.0    initial temperature
   TEBEG  =    0.0;   TEEND  =   0.0 temperature during run
   SMASS  =  -3.00    Nose mass-parameter (am)
   estimated Nose-frequenzy (Omega)   =  0.10E-29 period in steps =****** mass=  -0.277E-26a.u.
   SCALEE = 1.0000    scale energy and forces
   NPACO  =    256;   APACO  = 16.0  distance and # of slots for P.C.
   PSTRESS=    0.0 pullay stress

  Mass of Ions in am
   POMASS = 196.97106.42
  Ionic Valenz
   ZVAL   =  11.00 10.00
  Atomic Wigner-Seitz radii
   RWIGS  =  -1.00 -1.00
  virtual crystal weights 
   VCA    =   1.00  1.00
   NELECT =     504.0000    total number of electrons
   NUPDOWN=      -1.0000    fix difference up-down

 DOS related values:
   EMIN   =  10.00;   EMAX   =-10.00  energy-range for DOS
   EFERMI =   0.00
   ISMEAR =     0;   SIGMA  =   0.10  broadening in eV -4-tet -1-fermi 0-gaus

 Electronic relaxation 2 (details)
   IALGO  =     68    algorithm
   LDIAG  =      T    sub-space diagonalisation (order eigenvalues)
   LSUBROT=      F    optimize rotation matrix (better conditioning)
   TURBO    =      0    0=normal 1=particle mesh
   IRESTART =      0    0=no restart 2=restart with 2 vectors
   NREBOOT  =      0    no. of reboots
   NMIN     =      0    reboot dimension
   EREF     =   0.00    reference energy to select bands
   IMIX   =      4    mixing-type and parameters
     AMIX     =   0.40;   BMIX     =  1.00
     AMIX_MAG =   1.60;   BMIX_MAG =  1.00
     AMIN     =   0.10
     WC   =   100.;   INIMIX=   1;  MIXPRE=   1;  MAXMIX= -45

 Intra band minimization:
   WEIMIN = 0.0010     energy-eigenvalue tresh-hold
   EBREAK =  0.82E-09  absolut break condition
   DEPER  =   0.30     relativ break condition  

   TIME   =   0.40     timestep for ELM

  volume/ion in A,a.u.               =      53.49       360.99
  Fermi-wavevector in a.u.,A,eV,Ry     =   0.951418  1.797920 12.315955  0.905197
  Thomas-Fermi vector in A             =   2.079887
 
 Write flags
   LWAVE  =      F    write WAVECAR
   LCHARG =      F    write CHGCAR
   LVTOT  =      F    write LOCPOT, total local potential
   LVHAR  =      F    write LOCPOT, Hartree potential only
   LELF   =      F    write electronic localiz. function (ELF)
   LORBIT =      0    0 simple, 1 ext, 2 COOP (PROOUT)


 Dipole corrections
   LMONO  =      F    monopole corrections only (constant potential shift)
   LDIPOL =      T    correct potential (dipole corrections)
   IDIPOL =      3    1-x, 2-y, 3-z, 4-all directions 
   EPSILON=  1.0000000 bulk dielectric constant

 Exchange correlation treatment:
   GGA     =    PE    GGA type
   LEXCH   =     8    internal setting for exchange type
   VOSKOWN=      1    Vosko Wilk Nusair interpolation
   LHFCALC =     F    Hartree Fock is set to
   LHFONE  =     F    Hartree Fock one center treatment
   AEXX    =    0.0000 exact exchange contribution

 Linear response parameters
   LEPSILON=     F    determine dielectric tensor
   LRPA    =     F    only Hartree local field effects (RPA)
   LNABLA  =     F    use nabla operator in PAW spheres
   LVEL    =     F    velocity operator in full k-point grid
   LINTERFAST=   F  fast interpolation
   KINTER  =     0    interpolate to denser k-point grid
   CSHIFT  =0.1000    complex shift for real part using Kramers Kronig
   OMEGAMAX=  -1.0    maximum frequency
   DEG_THRESHOLD= 0.2000000E-02 threshold for treating states as degnerate
   RTIME   =    0.100 relaxation time in fs

 Orbital magnetization related:
   ORBITALMAG=     F  switch on orbital magnetization
   LCHIMAG   =     F  perturbation theory with respect to B field
   DQ        =  0.001000  dq finite difference perturbation B field



--------------------------------------------------------------------------------------------------------


 conjugate gradient relaxation of ions
   using selective dynamics as specified on POSCAR
   WARNING: If single coordinates had been selected the selection of coordinates
            is made according to the corresponding   d i r e c t   coordinates!
            Don't support selection of single cartesian coordinates -- sorry ...
  !
 charge density and potential will be updated during run
 non-spin polarized calculation
 RMM-DIIS sequential band-by-band and
  variant of blocked Davidson during initial phase
 perform sub-space diagonalisation
    before iterative eigenvector-optimisation
 modified Broyden-mixing scheme, WC =      100.0
 initial mixing is a Kerker type mixing with AMIX =  0.4000 and BMIX =      1.0000
 Hartree-type preconditioning will be used
 using additional bands           54
 real space projection scheme for non local part
 use partial core corrections
 calculate Harris-corrections to forces 
   (improved forces if not selfconsistent)
 use gradient corrections 
 use of overlap-Matrix (Vanderbilt PP)
 Gauss-broadening in eV      SIGMA  =   0.10


--------------------------------------------------------------------------------------------------------


  energy-cutoff  :      400.00
  volume of cell :     2567.68
      direct lattice vectors                 reciprocal lattice vectors
    11.002581515  0.000000000  0.000000000     0.090887761 -0.052474073  0.000000000
     5.501290758  9.528515099  0.000000000     0.000000000  0.104948147  0.000000000
     0.000000000  0.000000000 24.491785094     0.000000000  0.000000000  0.040830017

  length of vectors
    11.002581515 11.002581515 24.491785094     0.104948147  0.104948147  0.040830017


 
 k-points in units of 2pi/SCALE and weight: Automatic mesh                          
   0.02272194  0.01311852  0.00000000       0.167
   0.00000000  0.02623704  0.00000000       0.167
  -0.02272194  0.01311852  0.00000000       0.167
  -0.02272194  0.03935555  0.00000000       0.167
   0.04544388 -0.05247407  0.00000000       0.167
  -0.02272194  0.06559259  0.00000000       0.167
 
 k-points in reciprocal lattice and weights: Automatic mesh                          
   0.25000000  0.25000000  0.00000000       0.167
   0.00000000  0.25000000  0.00000000       0.167
  -0.25000000  0.00000000  0.00000000       0.167
  -0.25000000  0.25000000  0.00000000       0.167
   0.50000000 -0.25000000  0.00000000       0.167
  -0.25000000  0.50000000  0.00000000       0.167
 
 position of ions in fractional coordinates (direct lattice) 
   0.08333333  0.08333333  0.40830017
   0.50000000  0.75000000  0.59169983
   0.91666667  0.16666667  0.50000000
   0.83333333  0.83333333  0.40830017
   0.08333333  0.33333333  0.40830017
   0.91666667  0.41666667  0.50000000
   0.00000000  0.25000000  0.59169983
   0.08333333  0.58333333  0.40830017
   0.75000000  0.50000000  0.59169983
   0.00000000  0.50000000  0.59169983
   0.08333333  0.83333333  0.40830017
   0.91666667  0.91666667  0.50000000
   0.66666667  0.91666667  0.50000000
   0.66666667  0.66666667  0.50000000
   0.58333333  0.33333333  0.40830017
   0.58333333  0.83333333  0.40830017
   0.41666667  0.16666667  0.50000000
   0.16666667  0.41666667  0.50000000
   0.83333333  0.33333333  0.40830017
   0.75000000  0.00000000  0.59169983
   0.66666667  0.16666667  0.50000000
   0.25000000  0.50000000  0.59169983
   0.83333333  0.08333333  0.40830017
   0.00000000  0.75000000  0.59169983
   0.33333333  0.33333333  0.40830017
   0.58333333  0.58333333  0.40830017
   0.25000000  0.25000000  0.59169983
   0.16666667  0.66666667  0.50000000
   0.41666667  0.41666667  0.50000000
   0.16666667  0.91666667  0.50000000
   0.58333333  0.08333333  0.40830017
   0.50000000  0.00000000  0.59169983
   0.25000000  0.00000000  0.59169983
   0.33333333  0.83333333  0.40830017
   0.16666667  0.16666667  0.50000000
   0.25000000  0.75000000  0.59169983
   0.91666667  0.66666667  0.50000000
   0.00000000  0.00000000  0.59169983
   0.50000000  0.25000000  0.59169983
   0.41666667  0.66666667  0.50000000
   0.41666667  0.91666667  0.50000000
   0.83333333  0.58333333  0.40830017
   0.50000000  0.50000000  0.59169983
   0.66666667  0.41666667  0.50000000
   0.75000000  0.25000000  0.59169983
   0.33333333  0.58333333  0.40830017
   0.33333333  0.08333333  0.40830017
   0.75000000  0.75000000  0.59169983
 
 position of ions in cartesian coordinates  (Angst):
   1.37532269  0.79404292 10.00000000
   9.62725883  7.14638632 14.49178509
  11.00258152  1.58808585 12.24589255
  13.75322689  7.94042925 10.00000000
   2.75064538  3.17617170 10.00000000
  12.37790420  3.97021462 12.24589255
   1.37532269  2.38212877 14.49178509
   4.12596807  5.55830047 10.00000000
  11.00258152  4.76425755 14.49178509
   2.75064538  4.76425755 14.49178509
   5.50129076  7.94042925 10.00000000
  15.12854958  8.73447217 12.24589255
  12.37790420  8.73447217 12.24589255
  11.00258152  6.35234340 12.24589255
   8.25193614  3.17617170 10.00000000
  11.00258152  7.94042925 10.00000000
   5.50129076  1.58808585 12.24589255
   4.12596807  3.97021462 12.24589255
  11.00258152  3.17617170 10.00000000
   8.25193614  0.00000000 14.49178509
   8.25193614  1.58808585 12.24589255
   5.50129076  4.76425755 14.49178509
   9.62725883  0.79404292 10.00000000
   4.12596807  7.14638632 14.49178509
   5.50129076  3.17617170 10.00000000
   9.62725883  5.55830047 10.00000000
   4.12596807  2.38212877 14.49178509
   5.50129076  6.35234340 12.24589255
   6.87661345  3.97021462 12.24589255
   6.87661345  8.73447217 12.24589255
   6.87661345  0.79404292 10.00000000
   5.50129076  0.00000000 14.49178509
   2.75064538  0.00000000 14.49178509
   8.25193614  7.94042925 10.00000000
   2.75064538  1.58808585 12.24589255
   6.87661345  7.14638632 14.49178509
  13.75322689  6.35234340 12.24589255
   0.00000000  0.00000000 14.49178509
   6.87661345  2.38212877 14.49178509
   8.25193614  6.35234340 12.24589255
   9.62725883  8.73447217 12.24589255
  12.37790420  5.55830047 10.00000000
   8.25193614  4.76425755 14.49178509
   9.62725883  3.97021462 12.24589255
   9.62725883  2.38212877 14.49178509
   6.87661345  5.55830047 10.00000000
   4.12596807  0.79404292 10.00000000
  12.37790420  7.14638632 14.49178509
 


--------------------------------------------------------------------------------------------------------


 k-point  1 :   0.2500 0.2500 0.0000  plane waves:   46635
 k-point  2 :   0.0000 0.2500 0.0000  plane waves:   46635
 k-point  3 :  -0.2500 0.0000 0.0000  plane waves:   46635
 k-point  4 :  -0.2500 0.2500 0.0000  plane waves:   46644
 k-point  5 :   0.5000-0.2500 0.0000  plane waves:   46644
 k-point  6 :  -0.2500 0.5000 0.0000  plane waves:   46644

 maximum and minimum number of plane-waves per node :      7818     7732

 maximum number of plane-waves:     46644
 maximum index in each direction: 
   IXMAX=   18   IYMAX=   18   IZMAX=   39
   IXMIN=  -18   IYMIN=  -18   IZMIN=  -39

 WARNING: aliasing errors must be expected set NGX to  74 to avoid them
 WARNING: aliasing errors must be expected set NGY to  74 to avoid them
 WARNING: aliasing errors must be expected set NGZ to 158 to avoid them
 aliasing errors are usually negligible using standard VASP settings
 and one can safely disregard these warnings

 real space projection operators:
  total allocation   :      12803.06 KBytes
  max/ min on nodes  :       2145.66       2127.94


 parallel 3D FFT for wavefunctions:
    minimum data exchange during FFTs selected (reduces bandwidth)
 parallel 3D FFT for charge:
    minimum data exchange during FFTs selected (reduces bandwidth)


 total amount of memory used by VASP on root node    84353. kBytes
========================================================================

   base      :      30000. kBytes
   nonlr-proj:       4285. kBytes
   fftplans  :       4447. kBytes
   grid      :       6721. kBytes
   one-center:        124. kBytes
   wavefun   :      38776. kBytes
 
     INWAV:  cpu time    0.0000: real time    0.0000
 Broyden mixing: mesh for mixing (old mesh)
   NGX = 35   NGY = 35   NGZ = 79
  (NGX  =108   NGY  =108   NGZ  =240)
  gives a total of  96775 points

 initial charge density was supplied:
 charge density of overlapping atoms calculated
 number of electron     504.0000000 magnetization 
 keeping initial charge density in first step


--------------------------------------------------------------------------------------------------------


 Maximum index for non-local projection operator          355
 Maximum index for augmentation-charges          437 (set IRDMAX)


--------------------------------------------------------------------------------------------------------


 First call to EWALD:  gamma=   0.129
 Maximum number of real-space cells 4x 4x 2
 Maximum number of reciprocal cells 2x 2x 5

 FEWALD executed in parallel
    FEWALD:  cpu time    0.0021: real time    0.0021


----------------------------------------- Iteration    1(   1)  ---------------------------------------


    POTLOK:  cpu time    0.0470: real time    0.0472
    SETDIJ:  cpu time    0.0060: real time    0.0060
     EDDAV:  cpu time    6.7352: real time    6.7529
       DOS:  cpu time    0.0014: real time    0.0015
    --------------------------------------------
      LOOP:  cpu time    6.7923: real time    6.8134

 eigenvalue-minimisations  :  3672
 total energy-change (2. order) : 0.3199638E+04  (-0.1897794E+05)
 number of electron     504.0000000 magnetization 
 augmentation part      504.0000000 magnetization 

 DIPCOR: dipole corrections for dipol
 direction  3 min pos     1,
 dipolmoment           0.000000      0.000000      0.000001 electrons x Angstroem
 Tr[quadrupol]    -10210.068339

 energy correction for charged system         0.000000 eV
 dipol+quadrupol energy correction           -0.000000 eV
 added-field ion interaction          0.000000 eV  (added to PSCEN)


 Free energy of the ion-electron system (eV)
  ---------------------------------------------------
  alpha Z        PSCENC =       805.86936475
  Ewald energy   TEWEN  =    200174.39411977
  -Hartree energ DENC   =   -242589.13568208
  -exchange      EXHF   =         0.00000000
  -V(xc)+E(xc)   XCENC  =      -327.62625073
  PAW double counting   =     40340.05962942   -38292.62782345
  entropy T*S    EENTRO =        -0.12178670
  eigenvalues    EBANDS =      1429.04037272
  atomic energy  EATOM  =     41659.78587232
  Solvation  Ediel_sol  =         0.00000000
  ---------------------------------------------------
  free energy    TOTEN  =      3199.63781602 eV

  energy without entropy =     3199.75960272  energy(sigma->0) =     3199.69870937


--------------------------------------------------------------------------------------------------------




----------------------------------------- Iteration    1(   2)  ---------------------------------------


     EDDAV:  cpu time    8.1432: real time    8.2428
       DOS:  cpu time    0.0015: real time    0.0015
    --------------------------------------------
      LOOP:  cpu time    8.1452: real time    8.2486

 eigenvalue-minimisations  :  4380
 total energy-change (2. order) :-0.3184512E+04  (-0.2930002E+04)
 number of electron     504.0000000 magnetization 
 augmentation part      504.0000000 magnetization 

 DIPCOR: dipole corrections for dipol
 direction  3 min pos     1,
 dipolmoment           0.000000      0.000000      0.000001 electrons x Angstroem
 Tr[quadrupol]    -10210.068339

 energy correction for charged system         0.000000 eV
 dipol+quadrupol energy correction           -0.000000 eV
 added-field ion interaction          0.000000 eV  (added to PSCEN)


 Free energy of the ion-electron system (eV)
  ---------------------------------------------------
  alpha Z        PSCENC =       805.86936475
  Ewald energy   TEWEN  =    200174.39411977
  -Hartree energ DENC   =   -242589.13568208
  -exchange      EXHF   =         0.00000000
  -V(xc)+E(xc)   XCENC  =      -327.62625073
  PAW double counting   =     40340.05962942   -38292.62782345
  entropy T*S    EENTRO =        -0.12555578
  eigenvalues    EBANDS =     -1755.46767412
  atomic energy  EATOM  =     41659.78587232
  Solvation  Ediel_sol  =         0.00000000
  ---------------------------------------------------
  free energy    TOTEN  =        15.12600010 eV

  energy without entropy =       15.25155588  energy(sigma->0) =       15.18877799


--------------------------------------------------------------------------------------------------------




----------------------------------------- Iteration    1(   3)  ---------------------------------------


     EDDAV:  cpu time    7.8106: real time    7.8316
       DOS:  cpu time    0.0016: real time    0.0016
    --------------------------------------------
      LOOP:  cpu time    7.8130: real time    7.8375

 eigenvalue-minimisations  :  4140
 total energy-change (2. order) :-0.2160517E+03  (-0.2004889E+03)
 number of electron     504.0000000 magnetization 
 augmentation part      504.0000000 magnetization 

 DIPCOR: dipole corrections for dipol
 direction  3 min pos     1,
 dipolmoment           0.000000      0.000000      0.000001 electrons x Angstroem
 Tr[quadrupol]    -10210.068339

 energy correction for charged system         0.000000 eV
 dipol+quadrupol energy correction           -0.000000 eV
 added-field ion interaction          0.000000 eV  (added to PSCEN)


 Free energy of the ion-electron system (eV)
  ---------------------------------------------------
  alpha Z        PSCENC =       805.86936475
  Ewald energy   TEWEN  =    200174.39411977
  -Hartree energ DENC   =   -242589.13568208
  -exchange      EXHF   =         0.00000000
  -V(xc)+E(xc)   XCENC  =      -327.62625073
  PAW double counting   =     40340.05962942   -38292.62782345
  entropy T*S    EENTRO =        -0.20072039
  eigenvalues    EBANDS =     -1971.44424420
  atomic energy  EATOM  =     41659.78587232
  Solvation  Ediel_sol  =         0.00000000
  ---------------------------------------------------
  free energy    TOTEN  =      -200.92573459 eV

  energy without entropy =     -200.72501420  energy(sigma->0) =     -200.82537440


--------------------------------------------------------------------------------------------------------




----------------------------------------- Iteration    1(   4)  ---------------------------------------


     EDDAV:  cpu time    8.0670: real time    8.0880
       DOS:  cpu time    0.0016: real time    0.0016
    --------------------------------------------
      LOOP:  cpu time    8.0696: real time    8.0932

 eigenvalue-minimisations  :  4284
 total energy-change (2. order) :-0.5847094E+01  (-0.5784649E+01)
 number of electron     504.0000000 magnetization 
 augmentation part      504.0000000 magnetization 

 DIPCOR: dipole corrections for dipol
 direction  3 min pos     1,
 dipolmoment           0.000000      0.000000      0.000001 electrons x Angstroem
 Tr[quadrupol]    -10210.068339

 energy correction for charged system         0.000000 eV
 dipol+quadrupol energy correction           -0.000000 eV
 added-field ion interaction          0.000000 eV  (added to PSCEN)


 Free energy of the ion-electron system (eV)
  ---------------------------------------------------
  alpha Z        PSCENC =       805.86936475
  Ewald energy   TEWEN  =    200174.39411977
  -Hartree energ DENC   =   -242589.13568208
  -exchange      EXHF   =         0.00000000
  -V(xc)+E(xc)   XCENC  =      -327.62625073
  PAW double counting   =     40340.05962942   -38292.62782345
  entropy T*S    EENTRO =        -0.20726120
  eigenvalues    EBANDS =     -1977.28479788
  atomic energy  EATOM  =     41659.78587232
  Solvation  Ediel_sol  =         0.00000000
  ---------------------------------------------------
  free energy    TOTEN  =      -206.77282908 eV

  energy without entropy =     -206.56556788  energy(sigma->0) =     -206.66919848


--------------------------------------------------------------------------------------------------------




----------------------------------------- Iteration    1(   5)  ---------------------------------------


     EDDAV:  cpu time    8.2348: real time    8.2547
       DOS:  cpu time    0.0016: real time    0.0016
    CHARGE:  cpu time    0.2362: real time    0.2368
    MIXING:  cpu time    0.0022: real time    0.0024
    --------------------------------------------
      LOOP:  cpu time    8.4757: real time    8.4983

 eigenvalue-minimisations  :  4428
 total energy-change (2. order) :-0.1842761E+00  (-0.1837415E+00)
 number of electron     503.9998404 magnetization 
 augmentation part      191.3032241 magnetization 

 DIPCOR: dipole corrections for dipol
 direction  3 min pos     1,
 dipolmoment           0.000000      0.000000      0.000001 electrons x Angstroem
 Tr[quadrupol]    -10210.068339

 energy correction for charged system         0.000000 eV
 dipol+quadrupol energy correction           -0.000000 eV
 added-field ion interaction          0.000000 eV  (added to PSCEN)


 Broyden mixing:
  rms(total) = 0.62469E+01    rms(broyden)= 0.62468E+01
  rms(prec ) = 0.63900E+01
  weight for this iteration     100.00

 Free energy of the ion-electron system (eV)
  ---------------------------------------------------
  alpha Z        PSCENC =       805.86936475
  Ewald energy   TEWEN  =    200174.39411977
  -Hartree energ DENC   =   -242589.13568208
  -exchange      EXHF   =         0.00000000
  -V(xc)+E(xc)   XCENC  =      -327.62625073
  PAW double counting   =     40340.05962942   -38292.62782345
  entropy T*S    EENTRO =        -0.20688942
  eigenvalues    EBANDS =     -1977.46944572
  atomic energy  EATOM  =     41659.78587232
  Solvation  Ediel_sol  =         0.00000000
  ---------------------------------------------------
  free energy    TOTEN  =      -206.95710514 eV

  energy without entropy =     -206.75021572  energy(sigma->0) =     -206.85366043


--------------------------------------------------------------------------------------------------------




----------------------------------------- Iteration    1(   6)  ---------------------------------------


    POTLOK:  cpu time    0.0422: real time    0.0423
    SETDIJ:  cpu time    0.0056: real time    0.0063
    EDDIAG:  cpu time    1.2131: real time    1.2160
  RMM-DIIS:  cpu time    3.3429: real time    3.3547
    ORTHCH:  cpu time    0.2908: real time    0.2915
       DOS:  cpu time    0.0015: real time    0.0015
    CHARGE:  cpu time    0.2398: real time    0.2403
    MIXING:  cpu time    0.0019: real time    0.0020
    --------------------------------------------
      LOOP:  cpu time    5.1383: real time    5.1570

 eigenvalue-minimisations  :  3679
 total energy-change (2. order) : 0.3148068E+01  (-0.9917899E+01)
 number of electron     503.9998424 magnetization 
 augmentation part      191.0645577 magnetization 

 DIPCOR: dipole corrections for dipol
 direction  3 min pos     1,
 dipolmoment           0.000000      0.000000      0.681200 electrons x Angstroem
 Tr[quadrupol]    -10211.429399

 energy correction for charged system         0.000000 eV
 dipol+quadrupol energy correction           -0.016351 eV
 added-field ion interaction          0.215639 eV  (added to PSCEN)


 Broyden mixing:
  rms(total) = 0.58459E+01    rms(broyden)= 0.58458E+01
  rms(prec ) = 0.61784E+01
  weight for this iteration     100.00

 eigenvalues of (default mixing * dielectric matrix)
  average eigenvalue GAMMA=   0.6272
  0.6272

 Free energy of the ion-electron system (eV)
  ---------------------------------------------------
  alpha Z        PSCENC =       806.06865151
  Ewald energy   TEWEN  =    200174.39411977
  -Hartree energ DENC   =   -242335.49878106
  -exchange      EXHF   =         0.00000000
  -V(xc)+E(xc)   XCENC  =      -340.18423596
  PAW double counting   =     43919.87288317   -41931.78205642
  entropy T*S    EENTRO =        -0.24748128
  eigenvalues    EBANDS =     -2156.21800893
  atomic energy  EATOM  =     41659.78587232
  Solvation  Ediel_sol  =         0.00000000
  ---------------------------------------------------
  free energy    TOTEN  =      -203.80903689 eV

  energy without entropy =     -203.56155561  energy(sigma->0) =     -203.68529625


--------------------------------------------------------------------------------------------------------




----------------------------------------- Iteration    1(   7)  ---------------------------------------


    POTLOK:  cpu time    0.0413: real time    0.0423
    SETDIJ:  cpu time    0.0047: real time    0.0056
    EDDIAG:  cpu time    1.2135: real time    1.2164
  RMM-DIIS:  cpu time    3.3023: real time    3.3104
    ORTHCH:  cpu time    0.2910: real time    0.2918
       DOS:  cpu time    0.0015: real time    0.0015
    CHARGE:  cpu time    0.2350: real time    0.2355
    MIXING:  cpu time    0.0020: real time    0.0020
    --------------------------------------------
      LOOP:  cpu time    5.0920: real time    5.1078

 eigenvalue-minimisations  :  3679
 total energy-change (2. order) :-0.3284107E+01  (-0.5834035E+01)
 number of electron     503.9998373 magnetization 
 augmentation part      195.4442671 magnetization 

 DIPCOR: dipole corrections for dipol
 direction  3 min pos     1,
 dipolmoment           0.000000      0.000000     -0.831470 electrons x Angstroem
 Tr[quadrupol]    -10209.948579

 energy correction for charged system         0.000000 eV
 dipol+quadrupol energy correction           -0.024361 eV
 added-field ion interaction         -0.263208 eV  (added to PSCEN)


 Broyden mixing:
  rms(total) = 0.46116E+01    rms(broyden)= 0.46113E+01
  rms(prec ) = 0.51753E+01
  weight for this iteration     100.00

 eigenvalues of (default mixing * dielectric matrix)
  average eigenvalue GAMMA=   0.8491
  1.3618  0.3364

 Free energy of the ion-electron system (eV)
  ---------------------------------------------------
  alpha Z        PSCENC =       805.58179564
  Ewald energy   TEWEN  =    200174.39411977
  -Hartree energ DENC   =   -242192.62241725
  -exchange      EXHF   =         0.00000000
  -V(xc)+E(xc)   XCENC  =      -342.25440489
  PAW double counting   =     45125.62238288   -43160.28777907
  entropy T*S    EENTRO =        -0.23438737
  eigenvalues    EBANDS =     -2277.07832618
  atomic energy  EATOM  =     41659.78587232
  Solvation  Ediel_sol  =         0.00000000
  ---------------------------------------------------
  free energy    TOTEN  =      -207.09314415 eV

  energy without entropy =     -206.85875678  energy(sigma->0) =     -206.97595047


--------------------------------------------------------------------------------------------------------




----------------------------------------- Iteration    1(   8)  ---------------------------------------


    POTLOK:  cpu time    0.0412: real time    0.0421
    SETDIJ:  cpu time    0.0054: real time    0.0056
    EDDIAG:  cpu time    1.2460: real time    1.2513
  RMM-DIIS:  cpu time    3.2601: real time    3.3608
    ORTHCH:  cpu time    0.2881: real time    0.2887
       DOS:  cpu time    0.0015: real time    0.0015
    CHARGE:  cpu time    0.2356: real time    0.2362
    MIXING:  cpu time    0.0021: real time    0.0022
    --------------------------------------------
      LOOP:  cpu time    5.0809: real time    5.1909

 eigenvalue-minimisations  :  3678
 total energy-change (2. order) :-0.1733872E+02  (-0.8889761E+01)
 number of electron     503.9998362 magnetization 
 augmentation part      195.8168229 magnetization 

 DIPCOR: dipole corrections for dipol
 direction  3 min pos     1,
 dipolmoment           0.000000      0.000000      1.806801 electrons x Angstroem
 Tr[quadrupol]    -10211.313009

 energy correction for charged system         0.000000 eV
 dipol+quadrupol energy correction           -0.115033 eV
 added-field ion interaction          0.571956 eV  (added to PSCEN)


 Broyden mixing:
  rms(total) = 0.45657E+01    rms(broyden)= 0.45654E+01
  rms(prec ) = 0.55346E+01
  weight for this iteration     100.00

 eigenvalues of (default mixing * dielectric matrix)
  average eigenvalue GAMMA=   0.8654
  1.9342  0.3936  0.2683

 Free energy of the ion-electron system (eV)
  ---------------------------------------------------
  alpha Z        PSCENC =       806.32628650
  Ewald energy   TEWEN  =    200174.39411977
  -Hartree energ DENC   =   -242164.09673264
  -exchange      EXHF   =         0.00000000
  -V(xc)+E(xc)   XCENC  =      -344.39263664
  PAW double counting   =     46889.62723852   -44951.42894347
  entropy T*S    EENTRO =        -0.28490794
  eigenvalues    EBANDS =     -2294.36215935
  atomic energy  EATOM  =     41659.78587232
  Solvation  Ediel_sol  =         0.00000000
  ---------------------------------------------------
  free energy    TOTEN  =      -224.43186294 eV

  energy without entropy =     -224.14695500  energy(sigma->0) =     -224.28940897


--------------------------------------------------------------------------------------------------------




----------------------------------------- Iteration    1(   9)  ---------------------------------------


    POTLOK:  cpu time    0.0421: real time    0.0423
    SETDIJ:  cpu time    0.0058: real time    0.0058
    EDDIAG:  cpu time    1.2063: real time    1.2101
  RMM-DIIS:  cpu time    3.3207: real time    3.3601
    ORTHCH:  cpu time    0.2884: real time    0.2891
       DOS:  cpu time    0.0016: real time    0.0016
    CHARGE:  cpu time    0.2386: real time    0.2392
    MIXING:  cpu time    0.0021: real time    0.0021
    --------------------------------------------
      LOOP:  cpu time    5.1064: real time    5.1533

 eigenvalue-minimisations  :  3679
 total energy-change (2. order) : 0.1084126E+02  (-0.5575639E+01)
 number of electron     503.9998342 magnetization 
 augmentation part      198.1973630 magnetization 

 DIPCOR: dipole corrections for dipol
 direction  3 min pos     1,
 dipolmoment           0.000000      0.000000     -0.845931 electrons x Angstroem
 Tr[quadrupol]    -10212.665743

 energy correction for charged system         0.000000 eV
 dipol+quadrupol energy correction           -0.025216 eV
 added-field ion interaction         -0.267786 eV  (added to PSCEN)


 Broyden mixing:
  rms(total) = 0.36050E+01    rms(broyden)= 0.36047E+01
  rms(prec ) = 0.40691E+01
  weight for this iteration     100.00

 eigenvalues of (default mixing * dielectric matrix)
  average eigenvalue GAMMA=   0.8020
  2.2130  0.3405  0.3405  0.3142

 Free energy of the ion-electron system (eV)
  ---------------------------------------------------
  alpha Z        PSCENC =       805.57636293
  Ewald energy   TEWEN  =    200174.39411977
  -Hartree energ DENC   =   -242167.24653158
  -exchange      EXHF   =         0.00000000
  -V(xc)+E(xc)   XCENC  =      -346.09685825
  PAW double counting   =     48256.42871540   -46339.48837115
  entropy T*S    EENTRO =        -0.25762920
  eigenvalues    EBANDS =     -2256.68628698
  atomic energy  EATOM  =     41659.78587232
  Solvation  Ediel_sol  =         0.00000000
  ---------------------------------------------------
  free energy    TOTEN  =      -213.59060675 eV

  energy without entropy =     -213.33297755  energy(sigma->0) =     -213.46179215


--------------------------------------------------------------------------------------------------------




----------------------------------------- Iteration    1(  10)  ---------------------------------------


    POTLOK:  cpu time    0.0417: real time    0.0427
    SETDIJ:  cpu time    0.0055: real time    0.0055
    EDDIAG:  cpu time    1.2079: real time    1.2108
  RMM-DIIS:  cpu time    3.3322: real time    3.3403
    ORTHCH:  cpu time    0.2874: real time    0.2881
       DOS:  cpu time    0.0015: real time    0.0015
    CHARGE:  cpu time    0.2393: real time    0.2399
    MIXING:  cpu time    0.0022: real time    0.0022
    --------------------------------------------
      LOOP:  cpu time    5.1184: real time    5.1354

 eigenvalue-minimisations  :  3682
 total energy-change (2. order) : 0.1652672E+02  (-0.2316132E+01)
 number of electron     503.9998334 magnetization 
 augmentation part      199.3902127 magnetization 

 DIPCOR: dipole corrections for dipol
 direction  3 min pos     1,
 dipolmoment           0.000000      0.000000      0.409226 electrons x Angstroem
 Tr[quadrupol]    -10211.449912

 energy correction for charged system         0.000000 eV
 dipol+quadrupol energy correction           -0.005901 eV
 added-field ion interaction          0.129543 eV  (added to PSCEN)


 Broyden mixing:
  rms(total) = 0.21964E+01    rms(broyden)= 0.21960E+01
  rms(prec ) = 0.25341E+01
  weight for this iteration     100.00

 eigenvalues of (default mixing * dielectric matrix)
  average eigenvalue GAMMA=   0.7534
  2.2840  0.4514  0.4514  0.3483  0.2319

 Free energy of the ion-electron system (eV)
  ---------------------------------------------------
  alpha Z        PSCENC =       805.99300662
  Ewald energy   TEWEN  =    200174.39411977
  -Hartree energ DENC   =   -242128.69542834
  -exchange      EXHF   =         0.00000000
  -V(xc)+E(xc)   XCENC  =      -346.22141834
  PAW double counting   =     49025.14360666   -47117.29602482
  entropy T*S    EENTRO =        -0.18886297
  eigenvalues    EBANDS =     -2269.97875740
  atomic energy  EATOM  =     41659.78587232
  Solvation  Ediel_sol  =         0.00000000
  ---------------------------------------------------
  free energy    TOTEN  =      -197.06388652 eV

  energy without entropy =     -196.87502354  energy(sigma->0) =     -196.96945503


--------------------------------------------------------------------------------------------------------




----------------------------------------- Iteration    1(  11)  ---------------------------------------


    POTLOK:  cpu time    0.0411: real time    0.0421
    SETDIJ:  cpu time    0.0055: real time    0.0055
    EDDIAG:  cpu time    1.2105: real time    1.2134
  RMM-DIIS:  cpu time    3.3556: real time    3.3637
    ORTHCH:  cpu time    0.2889: real time    0.2896
       DOS:  cpu time    0.0015: real time    0.0015
    CHARGE:  cpu time    0.2311: real time    0.2317
    MIXING:  cpu time    0.0023: real time    0.0023
    --------------------------------------------
      LOOP:  cpu time    5.1371: real time    5.1530

 eigenvalue-minimisations  :  3681
 total energy-change (2. order) : 0.5117204E+01  (-0.1523893E+01)
 number of electron     503.9998341 magnetization 
 augmentation part      198.8246780 magnetization 

 DIPCOR: dipole corrections for dipol
 direction  3 min pos     1,
 dipolmoment           0.000000      0.000000      0.034122 electrons x Angstroem
 Tr[quadrupol]    -10212.416762

 energy correction for charged system         0.000000 eV
 dipol+quadrupol energy correction           -0.000041 eV
 added-field ion interaction          0.010802 eV  (added to PSCEN)


 Broyden mixing:
  rms(total) = 0.13159E+01    rms(broyden)= 0.13155E+01
  rms(prec ) = 0.14632E+01
  weight for this iteration     100.00

 eigenvalues of (default mixing * dielectric matrix)
  average eigenvalue GAMMA=   0.7065
  2.2299  0.5650  0.5650  0.3232  0.3232  0.2327

 Free energy of the ion-electron system (eV)
  ---------------------------------------------------
  alpha Z        PSCENC =       805.88012483
  Ewald energy   TEWEN  =    200174.39411977
  -Hartree energ DENC   =   -242187.95911290
  -exchange      EXHF   =         0.00000000
  -V(xc)+E(xc)   XCENC  =      -345.66234641
  PAW double counting   =     49237.52647999   -47328.27867964
  entropy T*S    EENTRO =        -0.21725945
  eigenvalues    EBANDS =     -2207.41588097
  atomic energy  EATOM  =     41659.78587232
  Solvation  Ediel_sol  =         0.00000000
  ---------------------------------------------------
  free energy    TOTEN  =      -191.94668246 eV

  energy without entropy =     -191.72942301  energy(sigma->0) =     -191.83805274


--------------------------------------------------------------------------------------------------------




----------------------------------------- Iteration    1(  12)  ---------------------------------------


    POTLOK:  cpu time    0.0408: real time    0.0417
    SETDIJ:  cpu time    0.0054: real time    0.0054
    EDDIAG:  cpu time    1.2179: real time    1.2208
  RMM-DIIS:  cpu time    3.3421: real time    3.3502
    ORTHCH:  cpu time    0.2879: real time    0.2886
       DOS:  cpu time    0.0015: real time    0.0015
    CHARGE:  cpu time    0.2336: real time    0.2343
    MIXING:  cpu time    0.0025: real time    0.0025
    --------------------------------------------
      LOOP:  cpu time    5.1324: real time    5.1484

 eigenvalue-minimisations  :  3681
 total energy-change (2. order) : 0.2977336E+01  (-0.4406780E+00)
 number of electron     503.9998357 magnetization 
 augmentation part      197.7433839 magnetization 

 DIPCOR: dipole corrections for dipol
 direction  3 min pos     1,
 dipolmoment           0.000000      0.000000      0.065197 electrons x Angstroem
 Tr[quadrupol]    -10212.604329

 energy correction for charged system         0.000000 eV
 dipol+quadrupol energy correction           -0.000150 eV
 added-field ion interaction          0.020639 eV  (added to PSCEN)


 Broyden mixing:
  rms(total) = 0.83219E+00    rms(broyden)= 0.83204E+00
  rms(prec ) = 0.90496E+00
  weight for this iteration     100.00

 eigenvalues of (default mixing * dielectric matrix)
  average eigenvalue GAMMA=   0.6766
  2.2376  0.5389  0.5389  0.5355  0.3277  0.3277  0.2302

 Free energy of the ion-electron system (eV)
  ---------------------------------------------------
  alpha Z        PSCENC =       805.88985311
  Ewald energy   TEWEN  =    200174.39411977
  -Hartree energ DENC   =   -242228.84792632
  -exchange      EXHF   =         0.00000000
  -V(xc)+E(xc)   XCENC  =      -344.72043744
  PAW double counting   =     49268.39333606   -47354.62057183
  entropy T*S    EENTRO =        -0.20942817
  eigenvalues    EBANDS =     -2169.03416405
  atomic energy  EATOM  =     41659.78587232
  Solvation  Ediel_sol  =         0.00000000
  ---------------------------------------------------
  free energy    TOTEN  =      -188.96934655 eV

  energy without entropy =     -188.75991838  energy(sigma->0) =     -188.86463247


--------------------------------------------------------------------------------------------------------




----------------------------------------- Iteration    1(  13)  ---------------------------------------


    POTLOK:  cpu time    0.0408: real time    0.0409
    SETDIJ:  cpu time    0.0053: real time    0.0053
    EDDIAG:  cpu time    1.2084: real time    1.2113
  RMM-DIIS:  cpu time    3.3075: real time    3.3173
    ORTHCH:  cpu time    0.2884: real time    0.2891
       DOS:  cpu time    0.0015: real time    0.0015
    CHARGE:  cpu time    0.2356: real time    0.2362
    MIXING:  cpu time    0.0026: real time    0.0026
    --------------------------------------------
      LOOP:  cpu time    5.0907: real time    5.1067

 eigenvalue-minimisations  :  3681
 total energy-change (2. order) : 0.7917567E-01  (-0.1485577E+00)
 number of electron     503.9998356 magnetization 
 augmentation part      197.4385559 magnetization 

 DIPCOR: dipole corrections for dipol
 direction  3 min pos     1,
 dipolmoment           0.000000      0.000000      0.028572 electrons x Angstroem
 Tr[quadrupol]    -10212.926359

 energy correction for charged system         0.000000 eV
 dipol+quadrupol energy correction           -0.000029 eV
 added-field ion interaction          0.009045 eV  (added to PSCEN)


 Broyden mixing:
  rms(total) = 0.79184E+00    rms(broyden)= 0.79166E+00
  rms(prec ) = 0.86432E+00
  weight for this iteration     100.00

 eigenvalues of (default mixing * dielectric matrix)
  average eigenvalue GAMMA=   0.6933
  2.2534  0.7430  0.7430  0.6986  0.3155  0.3155  0.2388  0.2388

 Free energy of the ion-electron system (eV)
  ---------------------------------------------------
  alpha Z        PSCENC =       805.87838014
  Ewald energy   TEWEN  =    200174.39411977
  -Hartree energ DENC   =   -242246.01010968
  -exchange      EXHF   =         0.00000000
  -V(xc)+E(xc)   XCENC  =      -344.51165817
  PAW double counting   =     49301.06967942   -47386.14941877
  entropy T*S    EENTRO =        -0.24141141
  eigenvalues    EBANDS =     -2153.10562450
  atomic energy  EATOM  =     41659.78587232
  Solvation  Ediel_sol  =         0.00000000
  ---------------------------------------------------
  free energy    TOTEN  =      -188.89017089 eV

  energy without entropy =     -188.64875948  energy(sigma->0) =     -188.76946518


--------------------------------------------------------------------------------------------------------




----------------------------------------- Iteration    1(  14)  ---------------------------------------


    POTLOK:  cpu time    0.0407: real time    0.0409
    SETDIJ:  cpu time    0.0054: real time    0.0054
    EDDIAG:  cpu time    1.2197: real time    1.2229
  RMM-DIIS:  cpu time    3.3342: real time    3.3422
    ORTHCH:  cpu time    0.2879: real time    0.2886
       DOS:  cpu time    0.0015: real time    0.0015
    CHARGE:  cpu time    0.2410: real time    0.2440
    MIXING:  cpu time    0.0030: real time    0.0030
    --------------------------------------------
      LOOP:  cpu time    5.1341: real time    5.1516

 eigenvalue-minimisations  :  3679
 total energy-change (2. order) :-0.2061087E-01  (-0.1004139E+00)
 number of electron     503.9998357 magnetization 
 augmentation part      197.4550239 magnetization 

 DIPCOR: dipole corrections for dipol
 direction  3 min pos     1,
 dipolmoment           0.000000      0.000000      0.071811 electrons x Angstroem
 Tr[quadrupol]    -10213.149919

 energy correction for charged system         0.000000 eV
 dipol+quadrupol energy correction           -0.000182 eV
 added-field ion interaction          0.022732 eV  (added to PSCEN)


 Broyden mixing:
  rms(total) = 0.75399E+00    rms(broyden)= 0.75383E+00
  rms(prec ) = 0.84834E+00
  weight for this iteration     100.00

 eigenvalues of (default mixing * dielectric matrix)
  average eigenvalue GAMMA=   0.6927
  2.2084  0.8955  0.8955  0.7306  0.3707  0.3707  0.2939  0.2556  0.2131

 Free energy of the ion-electron system (eV)
  ---------------------------------------------------
  alpha Z        PSCENC =       805.89191487
  Ewald energy   TEWEN  =    200174.39411977
  -Hartree energ DENC   =   -242256.10489073
  -exchange      EXHF   =         0.00000000
  -V(xc)+E(xc)   XCENC  =      -344.37140455
  PAW double counting   =     49331.97666003   -47416.17083494
  entropy T*S    EENTRO =        -0.24424703
  eigenvalues    EBANDS =     -2144.06797150
  atomic energy  EATOM  =     41659.78587232
  Solvation  Ediel_sol  =         0.00000000
  ---------------------------------------------------
  free energy    TOTEN  =      -188.91078176 eV

  energy without entropy =     -188.66653473  energy(sigma->0) =     -188.78865825


--------------------------------------------------------------------------------------------------------




----------------------------------------- Iteration    1(  15)  ---------------------------------------


    POTLOK:  cpu time    0.0414: real time    0.0426
    SETDIJ:  cpu time    0.0059: real time    0.0059
    EDDIAG:  cpu time    1.2246: real time    1.2295
  RMM-DIIS:  cpu time    3.3552: real time    3.3695
    ORTHCH:  cpu time    0.2756: real time    0.2765
       DOS:  cpu time    0.0016: real time    0.0016
    CHARGE:  cpu time    0.2308: real time    0.2315
    MIXING:  cpu time    0.0030: real time    0.0030
    --------------------------------------------
      LOOP:  cpu time    5.1388: real time    5.1641

 eigenvalue-minimisations  :  3681
 total energy-change (2. order) : 0.1091150E+00  (-0.4386637E-01)
 number of electron     503.9998357 magnetization 
 augmentation part      197.3589599 magnetization 

 DIPCOR: dipole corrections for dipol
 direction  3 min pos     1,
 dipolmoment           0.000000      0.000000      0.054485 electrons x Angstroem
 Tr[quadrupol]    -10213.324828

 energy correction for charged system         0.000000 eV
 dipol+quadrupol energy correction           -0.000105 eV
 added-field ion interaction          0.017248 eV  (added to PSCEN)


 Broyden mixing:
  rms(total) = 0.68463E+00    rms(broyden)= 0.68453E+00
  rms(prec ) = 0.77834E+00
  weight for this iteration     100.00

 eigenvalues of (default mixing * dielectric matrix)
  average eigenvalue GAMMA=   0.6807
  2.1232  1.0587  1.0587  0.7239  0.4271  0.4271  0.3211  0.2548  0.2060  0.2060

 Free energy of the ion-electron system (eV)
  ---------------------------------------------------
  alpha Z        PSCENC =       805.88650743
  Ewald energy   TEWEN  =    200174.39411977
  -Hartree energ DENC   =   -242267.77178455
  -exchange      EXHF   =         0.00000000
  -V(xc)+E(xc)   XCENC  =      -344.14980491
  PAW double counting   =     49328.93432860   -47411.67424518
  entropy T*S    EENTRO =        -0.23510827
  eigenvalues    EBANDS =     -2133.97155193
  atomic energy  EATOM  =     41659.78587232
  Solvation  Ediel_sol  =         0.00000000
  ---------------------------------------------------
  free energy    TOTEN  =      -188.80166672 eV

  energy without entropy =     -188.56655845  energy(sigma->0) =     -188.68411259


--------------------------------------------------------------------------------------------------------




----------------------------------------- Iteration    1(  16)  ---------------------------------------


    POTLOK:  cpu time    0.0417: real time    0.0421
    SETDIJ:  cpu time    0.0056: real time    0.0056
    EDDIAG:  cpu time    1.2052: real time    1.2838
  RMM-DIIS:  cpu time    3.3659: real time    3.3771
    ORTHCH:  cpu time    0.2755: real time    0.2762
       DOS:  cpu time    0.0015: real time    0.0015
    CHARGE:  cpu time    0.2326: real time    0.2331
    MIXING:  cpu time    0.0031: real time    0.0031
    --------------------------------------------
      LOOP:  cpu time    5.1318: real time    5.2252

 eigenvalue-minimisations  :  3679
 total energy-change (2. order) : 0.2798669E+00  (-0.3950506E-01)
 number of electron     503.9998360 magnetization 
 augmentation part      197.2563161 magnetization 

 DIPCOR: dipole corrections for dipol
 direction  3 min pos     1,
 dipolmoment           0.000000      0.000000      0.040896 electrons x Angstroem
 Tr[quadrupol]    -10213.603498

 energy correction for charged system         0.000000 eV
 dipol+quadrupol energy correction           -0.000059 eV
 added-field ion interaction          0.012946 eV  (added to PSCEN)


 Broyden mixing:
  rms(total) = 0.42152E+00    rms(broyden)= 0.42139E+00
  rms(prec ) = 0.47325E+00
  weight for this iteration     100.00

 eigenvalues of (default mixing * dielectric matrix)
  average eigenvalue GAMMA=   0.6933
  2.0802  1.3374  1.3374  0.5443  0.5443  0.4539  0.3311  0.3311  0.2653  0.2267
  0.1743

 Free energy of the ion-electron system (eV)
  ---------------------------------------------------
  alpha Z        PSCENC =       805.88225125
  Ewald energy   TEWEN  =    200174.39411977
  -Hartree energ DENC   =   -242284.57947503
  -exchange      EXHF   =         0.00000000
  -V(xc)+E(xc)   XCENC  =      -343.88628953
  PAW double counting   =     49327.47037259   -47408.42358236
  entropy T*S    EENTRO =        -0.25908568
  eigenvalues    EBANDS =     -2118.90598313
  atomic energy  EATOM  =     41659.78587232
  Solvation  Ediel_sol  =         0.00000000
  ---------------------------------------------------
  free energy    TOTEN  =      -188.52179981 eV

  energy without entropy =     -188.26271413  energy(sigma->0) =     -188.39225697


--------------------------------------------------------------------------------------------------------




----------------------------------------- Iteration    1(  17)  ---------------------------------------


    POTLOK:  cpu time    0.0412: real time    0.0413
    SETDIJ:  cpu time    0.0058: real time    0.0058
    EDDIAG:  cpu time    1.2004: real time    1.2033
  RMM-DIIS:  cpu time    3.3387: real time    3.3489
    ORTHCH:  cpu time    0.2753: real time    0.2759
       DOS:  cpu time    0.0016: real time    0.0016
    CHARGE:  cpu time    0.2352: real time    0.2358
    MIXING:  cpu time    0.0033: real time    0.0033
    --------------------------------------------
      LOOP:  cpu time    5.1021: real time    5.1184

 eigenvalue-minimisations  :  3681
 total energy-change (2. order) : 0.9131067E-01  (-0.1975147E-01)
 number of electron     503.9998361 magnetization 
 augmentation part      197.2039597 magnetization 

 DIPCOR: dipole corrections for dipol
 direction  3 min pos     1,
 dipolmoment           0.000000      0.000000      0.046234 electrons x Angstroem
 Tr[quadrupol]    -10213.888457

 energy correction for charged system         0.000000 eV
 dipol+quadrupol energy correction           -0.000075 eV
 added-field ion interaction          0.014636 eV  (added to PSCEN)


 Broyden mixing:
  rms(total) = 0.27473E+00    rms(broyden)= 0.27467E+00
  rms(prec ) = 0.30935E+00
  weight for this iteration     100.00

 eigenvalues of (default mixing * dielectric matrix)
  average eigenvalue GAMMA=   0.7199
  1.9837  1.9837  1.3919  0.6034  0.6034  0.3777  0.3777  0.3762  0.2734  0.2734
  0.2208  0.1738

 Free energy of the ion-electron system (eV)
  ---------------------------------------------------
  alpha Z        PSCENC =       805.88392476
  Ewald energy   TEWEN  =    200174.39411977
  -Hartree energ DENC   =   -242298.77956443
  -exchange      EXHF   =         0.00000000
  -V(xc)+E(xc)   XCENC  =      -343.73793524
  PAW double counting   =     49344.53629776   -47424.37983346
  entropy T*S    EENTRO =        -0.25330768
  eigenvalues    EBANDS =     -2105.88006294
  atomic energy  EATOM  =     41659.78587232
  Solvation  Ediel_sol  =         0.00000000
  ---------------------------------------------------
  free energy    TOTEN  =      -188.43048914 eV

  energy without entropy =     -188.17718146  energy(sigma->0) =     -188.30383530


--------------------------------------------------------------------------------------------------------




----------------------------------------- Iteration    1(  18)  ---------------------------------------


    POTLOK:  cpu time    0.0410: real time    0.0411
    SETDIJ:  cpu time    0.0055: real time    0.0056
    EDDIAG:  cpu time    1.1997: real time    1.2026
  RMM-DIIS:  cpu time    3.3338: real time    3.3444
    ORTHCH:  cpu time    0.2756: real time    0.2763
       DOS:  cpu time    0.0016: real time    0.0016
    CHARGE:  cpu time    0.2353: real time    0.2359
    MIXING:  cpu time    0.0033: real time    0.0033
    --------------------------------------------
      LOOP:  cpu time    5.0966: real time    5.1133

 eigenvalue-minimisations  :  3682
 total energy-change (2. order) : 0.5777917E-01  (-0.8328710E-02)
 number of electron     503.9998362 magnetization 
 augmentation part      197.1591910 magnetization 

 DIPCOR: dipole corrections for dipol
 direction  3 min pos     1,
 dipolmoment           0.000000      0.000000      0.053530 electrons x Angstroem
 Tr[quadrupol]    -10214.124734

 energy correction for charged system         0.000000 eV
 dipol+quadrupol energy correction           -0.000101 eV
 added-field ion interaction          0.016945 eV  (added to PSCEN)


 Broyden mixing:
  rms(total) = 0.17974E+00    rms(broyden)= 0.17970E+00
  rms(prec ) = 0.20963E+00
  weight for this iteration     100.00

 eigenvalues of (default mixing * dielectric matrix)
  average eigenvalue GAMMA=   0.7000
  2.0998  2.0998  1.3269  0.6183  0.6183  0.4042  0.4042  0.3212  0.3212  0.2684
  0.2230  0.2230  0.1720

 Free energy of the ion-electron system (eV)
  ---------------------------------------------------
  alpha Z        PSCENC =       805.88620870
  Ewald energy   TEWEN  =    200174.39411977
  -Hartree energ DENC   =   -242309.79933693
  -exchange      EXHF   =         0.00000000
  -V(xc)+E(xc)   XCENC  =      -343.62025330
  PAW double counting   =     49365.83869305   -47444.83250798
  entropy T*S    EENTRO =        -0.25592914
  eigenvalues    EBANDS =     -2095.76957644
  atomic energy  EATOM  =     41659.78587232
  Solvation  Ediel_sol  =         0.00000000
  ---------------------------------------------------
  free energy    TOTEN  =      -188.37270997 eV

  energy without entropy =     -188.11678082  energy(sigma->0) =     -188.24474540


--------------------------------------------------------------------------------------------------------




----------------------------------------- Iteration    1(  19)  ---------------------------------------


    POTLOK:  cpu time    0.0411: real time    0.0418
    SETDIJ:  cpu time    0.0055: real time    0.0063
    EDDIAG:  cpu time    1.2019: real time    1.2048
  RMM-DIIS:  cpu time    3.3166: real time    3.3248
    ORTHCH:  cpu time    0.2749: real time    0.2756
       DOS:  cpu time    0.0016: real time    0.0016
    CHARGE:  cpu time    0.2319: real time    0.2326
    MIXING:  cpu time    0.0035: real time    0.0035
    --------------------------------------------
      LOOP:  cpu time    5.0778: real time    5.0940

 eigenvalue-minimisations  :  3681
 total energy-change (2. order) : 0.2998995E-01  (-0.1518456E-02)
 number of electron     503.9998362 magnetization 
 augmentation part      197.1279765 magnetization 

 DIPCOR: dipole corrections for dipol
 direction  3 min pos     1,
 dipolmoment           0.000000      0.000000      0.048463 electrons x Angstroem
 Tr[quadrupol]    -10214.213467

 energy correction for charged system         0.000000 eV
 dipol+quadrupol energy correction           -0.000083 eV
 added-field ion interaction          0.015341 eV  (added to PSCEN)


 Broyden mixing:
  rms(total) = 0.97313E-01    rms(broyden)= 0.97299E-01
  rms(prec ) = 0.11156E+00
  weight for this iteration     100.00

 eigenvalues of (default mixing * dielectric matrix)
  average eigenvalue GAMMA=   0.7071
  2.1311  2.1311  1.3562  0.6743  0.6743  0.4856  0.4856  0.3718  0.3323  0.3323
  0.2775  0.2521  0.2227  0.1723

 Free energy of the ion-electron system (eV)
  ---------------------------------------------------
  alpha Z        PSCENC =       805.88462281
  Ewald energy   TEWEN  =    200174.39411977
  -Hartree energ DENC   =   -242313.74393055
  -exchange      EXHF   =         0.00000000
  -V(xc)+E(xc)   XCENC  =      -343.58166393
  PAW double counting   =     49371.94114204   -47450.68052409
  entropy T*S    EENTRO =        -0.25977336
  eigenvalues    EBANDS =     -2092.08258502
  atomic energy  EATOM  =     41659.78587232
  Solvation  Ediel_sol  =         0.00000000
  ---------------------------------------------------
  free energy    TOTEN  =      -188.34272001 eV

  energy without entropy =     -188.08294666  energy(sigma->0) =     -188.21283333


--------------------------------------------------------------------------------------------------------




----------------------------------------- Iteration    1(  20)  ---------------------------------------


    POTLOK:  cpu time    0.0411: real time    0.0412
    SETDIJ:  cpu time    0.0050: real time    0.0055
    EDDIAG:  cpu time    1.2103: real time    1.2132
  RMM-DIIS:  cpu time    3.3371: real time    3.3452
    ORTHCH:  cpu time    0.2750: real time    0.2758
       DOS:  cpu time    0.0016: real time    0.0016
    CHARGE:  cpu time    0.2256: real time    0.2331
    MIXING:  cpu time    0.0037: real time    0.0037
    --------------------------------------------
      LOOP:  cpu time    5.1001: real time    5.1230

 eigenvalue-minimisations  :  3681
 total energy-change (2. order) : 0.4964204E-02  (-0.8816237E-03)
 number of electron     503.9998362 magnetization 
 augmentation part      197.1022653 magnetization 

 DIPCOR: dipole corrections for dipol
 direction  3 min pos     1,
 dipolmoment           0.000000      0.000000      0.040346 electrons x Angstroem
 Tr[quadrupol]    -10214.349293

 energy correction for charged system         0.000000 eV
 dipol+quadrupol energy correction           -0.000057 eV
 added-field ion interaction          0.012772 eV  (added to PSCEN)


 Broyden mixing:
  rms(total) = 0.73263E-01    rms(broyden)= 0.73250E-01
  rms(prec ) = 0.81633E-01
  weight for this iteration     100.00

 eigenvalues of (default mixing * dielectric matrix)
  average eigenvalue GAMMA=   0.7056
  2.2132  2.0388  1.3962  0.7752  0.7752  0.5238  0.5238  0.4651  0.3497  0.3497
  0.2739  0.2739  0.2266  0.2266  0.1721

 Free energy of the ion-electron system (eV)
  ---------------------------------------------------
  alpha Z        PSCENC =       805.88207868
  Ewald energy   TEWEN  =    200174.39411977
  -Hartree energ DENC   =   -242319.12463977
  -exchange      EXHF   =         0.00000000
  -V(xc)+E(xc)   XCENC  =      -343.55888124
  PAW double counting   =     49380.12828366   -47458.74365911
  entropy T*S    EENTRO =        -0.26320107
  eigenvalues    EBANDS =     -2086.83772904
  atomic energy  EATOM  =     41659.78587232
  Solvation  Ediel_sol  =         0.00000000
  ---------------------------------------------------
  free energy    TOTEN  =      -188.33775581 eV

  energy without entropy =     -188.07455474  energy(sigma->0) =     -188.20615528


--------------------------------------------------------------------------------------------------------




----------------------------------------- Iteration    1(  21)  ---------------------------------------


    POTLOK:  cpu time    0.0410: real time    0.0411
    SETDIJ:  cpu time    0.0054: real time    0.0054
    EDDIAG:  cpu time    1.1893: real time    1.2077
  RMM-DIIS:  cpu time    3.3214: real time    3.3295
    ORTHCH:  cpu time    0.2747: real time    0.2754
       DOS:  cpu time    0.0015: real time    0.0015
    CHARGE:  cpu time    0.2375: real time    0.2381
    MIXING:  cpu time    0.0038: real time    0.0038
    --------------------------------------------
      LOOP:  cpu time    5.0753: real time    5.1057

 eigenvalue-minimisations  :  3682
 total energy-change (2. order) : 0.3256867E-02  (-0.3436942E-03)
 number of electron     503.9998362 magnetization 
 augmentation part      197.0866957 magnetization 

 DIPCOR: dipole corrections for dipol
 direction  3 min pos     1,
 dipolmoment           0.000000      0.000000      0.031510 electrons x Angstroem
 Tr[quadrupol]    -10214.427401

 energy correction for charged system         0.000000 eV
 dipol+quadrupol energy correction           -0.000035 eV
 added-field ion interaction          0.009975 eV  (added to PSCEN)


 Broyden mixing:
  rms(total) = 0.52892E-01    rms(broyden)= 0.52886E-01
  rms(prec ) = 0.58519E-01
  weight for this iteration     100.00

 eigenvalues of (default mixing * dielectric matrix)
  average eigenvalue GAMMA=   0.7195
  2.3409  1.9162  1.3876  0.9585  0.9585  0.6270  0.6270  0.4417  0.3738  0.3738
  0.3232  0.2772  0.2772  0.2342  0.2228  0.1721

 Free energy of the ion-electron system (eV)
  ---------------------------------------------------
  alpha Z        PSCENC =       805.87930396
  Ewald energy   TEWEN  =    200174.39411977
  -Hartree energ DENC   =   -242322.50042912
  -exchange      EXHF   =         0.00000000
  -V(xc)+E(xc)   XCENC  =      -343.54008172
  PAW double counting   =     49383.55016113   -47462.10645151
  entropy T*S    EENTRO =        -0.26390554
  eigenvalues    EBANDS =     -2083.53308822
  atomic energy  EATOM  =     41659.78587232
  Solvation  Ediel_sol  =         0.00000000
  ---------------------------------------------------
  free energy    TOTEN  =      -188.33449894 eV

  energy without entropy =     -188.07059340  energy(sigma->0) =     -188.20254617


--------------------------------------------------------------------------------------------------------




----------------------------------------- Iteration    1(  22)  ---------------------------------------


    POTLOK:  cpu time    0.0414: real time    0.0415
    SETDIJ:  cpu time    0.0054: real time    0.0054
    EDDIAG:  cpu time    1.1962: real time    1.1991
  RMM-DIIS:  cpu time    3.3643: real time    3.3724
    ORTHCH:  cpu time    0.2756: real time    0.2763
       DOS:  cpu time    0.0017: real time    0.0017
    CHARGE:  cpu time    0.2356: real time    0.2361
    MIXING:  cpu time    0.0039: real time    0.0039
    --------------------------------------------
      LOOP:  cpu time    5.1251: real time    5.1418

 eigenvalue-minimisations  :  3679
 total energy-change (2. order) : 0.1690105E-02  (-0.2866656E-03)
 number of electron     503.9998362 magnetization 
 augmentation part      197.0680465 magnetization 

 DIPCOR: dipole corrections for dipol
 direction  3 min pos     1,
 dipolmoment           0.000000      0.000000      0.032075 electrons x Angstroem
 Tr[quadrupol]    -10214.547281

 energy correction for charged system         0.000000 eV
 dipol+quadrupol energy correction           -0.000036 eV
 added-field ion interaction          0.010153 eV  (added to PSCEN)


 Broyden mixing:
  rms(total) = 0.37553E-01    rms(broyden)= 0.37545E-01
  rms(prec ) = 0.42425E-01
  weight for this iteration     100.00

 eigenvalues of (default mixing * dielectric matrix)
  average eigenvalue GAMMA=   0.7491
  2.4639  1.8390  1.8390  1.3077  0.8382  0.6690  0.6690  0.4477  0.4477  0.3478
  0.3478  0.3642  0.2663  0.2663  0.1721  0.2246  0.2246

 Free energy of the ion-electron system (eV)
  ---------------------------------------------------
  alpha Z        PSCENC =       805.87948146
  Ewald energy   TEWEN  =    200174.39411977
  -Hartree energ DENC   =   -242327.41432568
  -exchange      EXHF   =         0.00000000
  -V(xc)+E(xc)   XCENC  =      -343.51423794
  PAW double counting   =     49387.93416971   -47466.42753405
  entropy T*S    EENTRO =        -0.26375756
  eigenvalues    EBANDS =     -2078.70659686
  atomic energy  EATOM  =     41659.78587232
  Solvation  Ediel_sol  =         0.00000000
  ---------------------------------------------------
  free energy    TOTEN  =      -188.33280884 eV

  energy without entropy =     -188.06905128  energy(sigma->0) =     -188.20093006


--------------------------------------------------------------------------------------------------------




----------------------------------------- Iteration    1(  23)  ---------------------------------------


    POTLOK:  cpu time    0.0411: real time    0.0412
    SETDIJ:  cpu time    0.0055: real time    0.0055
    EDDIAG:  cpu time    1.2010: real time    1.2039
  RMM-DIIS:  cpu time    3.3206: real time    3.3327
[...]
    275       1.8303      0.00000
    276       1.8455      0.00000
    277       2.1722      0.00000
    278       2.2142      0.00000
    279       2.3099      0.00000
    280       2.3743      0.00000
    281       2.4859      0.00000
    282       2.5589      0.00000
    283       2.7113      0.00000
    284       2.9852      0.00000
    285       3.1283      0.00000
    286       3.2740      0.00000
    287       3.5413      0.00000
    288       3.6342      0.00000
    289       3.6789      0.00000
    290       3.8845      0.00000
    291       4.1464      0.00000
    292       4.1997      0.00000
    293       4.4207      0.00000
    294       4.5538      0.00000
    295       4.6236      0.00000
    296       4.6319      0.00000
    297       4.7169      0.00000
    298       4.7882      0.00000
    299       4.8409      0.00000
    300       4.8898      0.00000
    301       5.0215      0.00000
    302       5.0465      0.00000
    303       5.0631      0.00000
    304       5.1121      0.00000
    305       5.1568      0.00000
    306       5.2334      0.00000


--------------------------------------------------------------------------------------------------------


 soft charge-density along one line, spin component           1
         0         1         2         3         4         5         6         7         8         9
 total charge-density along one line
 
 pseudopotential strength for first ion, spin component:           1
 -8.070  -0.001   0.003  -0.002  -0.000  -8.216  -0.001   0.003
 -0.001  -7.996  -0.001  -0.003  -0.003  -0.001  -8.144  -0.001
  0.003  -0.001  -7.989   0.000  -0.002   0.003  -0.001  -8.137
 -0.002  -0.003   0.000  -7.992  -0.001  -0.002  -0.003   0.000
 -0.000  -0.003  -0.002  -0.001  -8.070  -0.000  -0.003  -0.002
 -8.216  -0.001   0.003  -0.002  -0.000  -8.346  -0.001   0.003
 -0.001  -8.144  -0.001  -0.003  -0.003  -0.001  -8.275  -0.001
  0.003  -0.001  -8.137   0.000  -0.002   0.003  -0.001  -8.269
 -0.002  -0.003   0.000  -8.140  -0.001  -0.002  -0.003   0.000
 -0.000  -0.003  -0.002  -0.001  -8.216  -0.000  -0.003  -0.002
  0.002  -0.000  -0.025   0.001  -0.002   0.002  -0.000  -0.025
  0.004  -0.001  -0.036   0.001  -0.002   0.004  -0.001  -0.036
 -0.006  -0.004  -0.002   0.000  -0.004  -0.006  -0.004  -0.002
  0.000   0.004  -0.007  -0.006  -0.000   0.000   0.004  -0.006
  0.004   0.000   0.004  -0.004  -0.006   0.004   0.000   0.004
 -0.007  -0.005  -0.003  -0.000  -0.005  -0.007  -0.004  -0.003
 -0.000   0.005  -0.007  -0.007  -0.000  -0.000   0.004  -0.007
  0.005  -0.000   0.004  -0.005  -0.007   0.005  -0.000   0.004
 total augmentation occupancy for first ion, spin component:           1
  4.674  -0.028  -0.137   0.001  -0.145  -2.848   0.015   0.137  -0.035   0.135  -0.132   0.035   0.032   0.010  -0.047  -0.008
 -0.028   4.098  -0.027  -0.054  -0.000   0.015  -1.862   0.018   0.038  -0.044   0.015   0.009  -0.138   0.004   0.006   0.003
 -0.137  -0.027   4.559  -0.004   0.084   0.137   0.018  -2.454   0.006  -0.083   1.069  -0.179   0.024  -0.234  -0.041  -0.003
  0.001  -0.054  -0.004   4.156  -0.004  -0.034   0.038   0.006  -1.897  -0.004  -0.023  -0.013   0.006  -0.002  -0.135  -0.000
 -0.145  -0.000   0.084  -0.004   4.504   0.135  -0.045  -0.083  -0.004  -2.691   0.084  -0.023  -0.005  -0.004   0.032  -0.004
 -2.848   0.015   0.137  -0.034   0.135   2.907  -0.006  -0.135   0.061  -0.125   0.117  -0.036  -0.027  -0.007   0.042   0.003
  0.015  -1.862   0.018   0.038  -0.045  -0.006   1.595  -0.013  -0.024   0.078  -0.017  -0.005   0.129  -0.007  -0.003  -0.005
  0.137   0.018  -2.454   0.006  -0.083  -0.135  -0.013   2.292  -0.006   0.081  -1.000   0.196  -0.022   0.243   0.038   0.001
 -0.035   0.038   0.006  -1.897  -0.004   0.061  -0.024  -0.006   1.609   0.008   0.022   0.010  -0.004   0.007   0.125   0.000
  0.135  -0.044  -0.083  -0.004  -2.691  -0.125   0.078   0.081   0.008   2.762  -0.074   0.023   0.008   0.003  -0.027   0.001
 -0.132   0.015   1.069  -0.023   0.084   0.117  -0.017  -1.000   0.022  -0.074   2.487  -0.540   0.009   0.113  -0.019  -0.000
  0.035   0.009  -0.179  -0.013  -0.023  -0.036  -0.005   0.196   0.010   0.023  -0.540   0.160  -0.013  -0.049   0.022   0.000
  0.032  -0.138   0.024   0.006  -0.005  -0.027   0.129  -0.022  -0.004   0.008   0.009  -0.013   0.205  -0.002   0.006  -0.006
  0.010   0.004  -0.234  -0.002  -0.004  -0.007  -0.007   0.243   0.007   0.003   0.113  -0.049  -0.002   0.097   0.003   0.000
 -0.047   0.006  -0.041  -0.135   0.032   0.042  -0.003   0.038   0.125  -0.027  -0.019   0.022   0.006   0.003   0.196  -0.000
 -0.008   0.003  -0.003  -0.000  -0.004   0.003  -0.005   0.001   0.000   0.001  -0.000   0.000  -0.006   0.000  -0.000   0.000
 -0.000   0.005  -0.001  -0.007   0.000   0.000  -0.001  -0.006   0.002  -0.000  -0.007   0.002  -0.000  -0.003   0.000   0.000
  0.006  -0.000   0.005   0.003  -0.008  -0.002   0.000  -0.002  -0.005   0.003   0.000  -0.001  -0.000  -0.000  -0.006   0.000


------------------------ aborting loop because EDIFF is reached ----------------------------------------


    CHARGE:  cpu time    0.2365: real time    0.2371
    FORLOC:  cpu time    0.0164: real time    0.0165
    FORNL :  cpu time    1.2911: real time    1.2944
    FORCOR:  cpu time    0.0574: real time    0.0576
    FORHAR:  cpu time    0.0249: real time    0.0249
    MIXING:  cpu time    0.0026: real time    0.0027
    OFIELD:  cpu time    0.0000: real time    0.0000

 VOLUME and BASIS-vectors are now :
 -----------------------------------------------------------------------------
  energy-cutoff  :      400.00
  volume of cell :     2567.68
      direct lattice vectors                 reciprocal lattice vectors
    11.002581515  0.000000000  0.000000000     0.090887761 -0.052474073  0.000000000
     5.501290758  9.528515099  0.000000000     0.000000000  0.104948147  0.000000000
     0.000000000  0.000000000 24.491785094     0.000000000  0.000000000  0.040830017

  length of vectors
    11.002581515 11.002581515 24.491785094     0.104948147  0.104948147  0.040830017


 FORCES acting on ions
    electron-ion (+dipol)            ewald-force                    non-local-force                 convergence-correction
 -----------------------------------------------------------------------------------------------
   -.186E+02 0.724E+01 0.221E+04   0.196E+02 -.787E+01 -.221E+04   -.572E+00 0.446E+00 -.328E+00   0.479E-02 0.674E-02 -.551E-02
   0.174E+02 -.947E+01 -.223E+04   -.178E+02 0.101E+02 0.223E+04   0.400E+00 -.669E+00 0.314E+00   0.960E-02 0.314E-02 0.251E-01
   -.507E+01 -.670E+01 -.957E+02   0.531E+01 0.658E+01 0.968E+02   -.230E+00 0.103E+00 -.110E+01   0.397E-02 0.176E-01 0.121E-01
   0.120E+02 0.371E+01 0.220E+04   -.126E+02 -.386E+01 -.220E+04   0.407E+00 0.981E-01 0.815E-01   -.740E-02 0.591E-02 -.145E-02
   -.134E+02 -.168E+01 0.221E+04   0.139E+02 0.129E+01 -.221E+04   -.286E+00 0.342E+00 0.201E+00   -.238E-02 -.676E-02 -.200E-02
   -.249E+01 -.266E+01 -.610E+02   0.249E+01 0.301E+01 0.604E+02   0.155E-01 -.348E+00 0.668E+00   -.208E-01 -.416E-02 0.977E-02
   -.701E+01 0.186E+02 -.231E+04   0.746E+01 -.196E+02 0.231E+04   -.472E+00 0.101E+01 0.783E-01   0.946E-02 0.109E-01 0.639E-03
   -.538E+01 0.921E+01 0.221E+04   0.554E+01 -.931E+01 -.221E+04   -.472E-01 0.789E-02 -.372E+00   -.144E-01 -.496E-02 -.136E-01
   0.225E+02 -.957E+01 -.229E+04   -.233E+02 0.939E+01 0.229E+04   0.733E+00 0.187E+00 -.133E+00   0.881E-02 -.454E-02 0.576E-02
   -.866E+01 0.306E+01 -.231E+04   0.851E+01 -.271E+01 0.231E+04   0.163E+00 -.336E+00 0.192E-01   -.134E-01 -.128E-01 0.531E-02
   -.142E+02 0.147E+02 0.221E+04   0.154E+02 -.152E+02 -.221E+04   -.892E+00 0.276E+00 -.140E+00   -.348E-02 0.138E-01 -.170E-01
   0.108E+02 0.552E+01 -.928E+02   -.988E+01 -.638E+01 0.933E+02   -.863E+00 0.841E+00 -.531E+00   -.229E-01 0.586E-02 0.120E-01
   -.577E+01 0.785E+00 -.411E+02   0.535E+01 -.118E+01 0.418E+02   0.408E+00 0.393E+00 -.744E+00   0.897E-02 -.888E-03 0.194E-01
   0.323E+01 0.426E+01 -.285E+01   -.337E+01 -.460E+01 0.230E+01   0.156E+00 0.337E+00 0.529E+00   -.148E-01 -.131E-01 0.189E-01
   0.183E+02 -.146E+02 0.222E+04   -.192E+02 0.153E+02 -.222E+04   0.576E+00 -.434E+00 -.774E-01   0.953E-02 -.109E-01 -.754E-02
   0.124E+02 -.104E+01 0.222E+04   -.132E+02 0.125E+01 -.222E+04   0.541E+00 -.160E+00 0.160E+00   0.372E-03 0.445E-02 -.531E-02
   0.106E-01 -.977E+00 0.441E+02   -.560E+00 0.929E+00 -.442E+02   0.561E+00 0.493E-01 0.784E-01   -.522E-03 -.213E-02 0.254E-01
   0.301E+01 -.109E+02 -.375E+02   -.266E+01 0.110E+02 0.376E+02   -.328E+00 -.704E-01 -.115E+00   -.122E-01 -.150E-01 0.184E-01
   0.154E+01 -.214E+02 0.221E+04   -.189E+01 0.225E+02 -.221E+04   0.293E+00 -.721E+00 0.627E-01   0.203E-02 -.519E-03 0.551E-02
   0.118E+02 -.107E+02 -.235E+04   -.121E+02 0.112E+02 0.235E+04   0.295E+00 -.474E+00 -.249E+00   -.107E-02 0.676E-03 0.103E-02
   0.183E+01 0.508E+01 -.399E+02   -.197E+01 -.397E+01 0.406E+02   0.116E+00 -.109E+01 -.675E+00   -.176E-03 -.118E-01 0.219E-01
   -.240E+02 0.464E+01 -.225E+04   0.251E+02 -.504E+01 0.225E+04   -.112E+01 0.414E+00 0.274E+00   0.561E-02 -.211E-01 0.366E-01
   0.121E+02 0.263E+00 0.220E+04   -.128E+02 -.322E+00 -.220E+04   0.458E+00 0.354E-01 0.439E+00   -.245E-02 0.340E-02 -.138E-02
   -.164E+02 -.842E-01 -.227E+04   0.165E+02 0.207E+00 0.227E+04   -.137E+00 -.123E+00 0.363E+00   -.124E-01 0.101E-01 0.988E-02
   -.687E+01 0.334E+01 0.203E+04   0.731E+01 -.351E+01 -.203E+04   -.352E+00 0.101E+00 -.151E+01   -.821E-02 -.160E-01 -.112E-01
   0.724E+01 -.787E+01 0.203E+04   -.756E+01 0.795E+01 -.202E+04   0.200E+00 -.819E-02 -.188E+01   0.803E-02 0.672E-03 0.405E-02
   -.106E+02 0.160E+02 -.198E+04   0.107E+02 -.166E+02 0.198E+04   -.818E-01 0.598E+00 0.151E+01   0.236E-03 -.699E-02 0.203E-01
   0.732E+01 0.695E+01 0.200E+01   -.651E+01 -.687E+01 -.204E+01   -.794E+00 -.825E-01 0.249E-01   -.113E-01 -.190E-02 0.137E-01
   0.415E+01 -.226E+01 0.283E+02   -.370E+01 0.300E+01 -.283E+02   -.451E+00 -.737E+00 -.351E-01   0.505E-02 -.436E-02 0.219E-01
   -.372E+01 0.392E+01 0.257E+02   0.438E+01 -.431E+01 -.250E+02   -.657E+00 0.366E+00 -.674E+00   0.378E-02 0.191E-01 0.386E-02
   0.148E+02 -.689E+01 0.202E+04   -.151E+02 0.716E+01 -.202E+04   0.182E+00 -.193E+00 -.140E+01   -.295E-02 -.284E-02 -.298E-02
   0.155E+02 -.256E+01 -.199E+04   -.158E+02 0.268E+01 0.199E+04   0.300E+00 -.135E+00 0.156E+01   0.525E-02 0.681E-02 0.111E-01
   -.899E+01 0.128E+02 -.196E+04   0.895E+01 -.127E+02 0.195E+04   0.359E-01 -.115E+00 0.175E+01   0.115E-01 0.116E-01 0.186E-01
   -.908E+01 0.111E+02 0.203E+04   0.920E+01 -.113E+02 -.203E+04   -.902E-01 0.569E-01 -.210E+01   0.942E-02 0.729E-02 -.116E-01
   0.113E+01 -.474E+01 0.385E+00   -.789E+00 0.387E+01 0.139E-02   -.342E+00 0.849E+00 -.401E+00   -.103E-01 0.109E-01 0.130E-01
   -.163E+02 0.609E+00 -.193E+04   0.163E+02 -.409E+00 0.193E+04   -.749E-01 -.202E+00 0.182E+01   0.146E-01 0.284E-03 0.295E-01
   -.539E+01 0.488E+01 -.367E+02   0.532E+01 -.487E+01 0.367E+02   0.998E-01 -.790E-02 -.316E-01   -.186E-01 0.119E-01 0.544E-02
   -.174E+02 0.756E+01 -.203E+04   0.179E+02 -.772E+01 0.203E+04   -.491E+00 0.156E+00 0.167E+01   -.113E-01 0.106E-01 0.213E-02
   0.611E+01 -.842E+01 -.199E+04   -.610E+01 0.862E+01 0.199E+04   -.898E-02 -.195E+00 0.143E+01   -.978E-02 -.316E-03 0.160E-01
   -.368E+01 0.542E+00 0.600E+02   0.314E+01 -.666E+00 -.604E+02   0.501E+00 0.130E+00 0.380E+00   0.374E-01 -.595E-02 0.170E-01
   -.146E+01 0.333E+01 0.305E+02   0.521E+00 -.306E+01 -.305E+02   0.934E+00 -.253E+00 0.672E-02   0.445E-02 -.139E-01 0.154E-01
   0.721E+01 -.192E+01 0.201E+04   -.729E+01 0.202E+01 -.201E+04   0.787E-02 -.100E+00 -.120E+01   -.339E-02 -.192E-02 0.300E-03
   0.779E+01 -.681E+01 -.194E+04   -.799E+01 0.648E+01 0.194E+04   0.187E+00 0.335E+00 0.183E+01   0.659E-02 -.529E-02 0.889E-02
   -.234E+01 -.688E+01 -.346E+01   0.169E+01 0.728E+01 0.389E+01   0.645E+00 -.390E+00 -.435E+00   0.191E-01 0.104E-01 0.767E-02
   0.128E+02 -.796E+01 -.202E+04   -.132E+02 0.826E+01 0.202E+04   0.376E+00 -.301E+00 0.172E+01   0.207E-02 -.147E-02 -.396E-02
   -.958E+01 0.260E+01 0.203E+04   0.984E+01 -.271E+01 -.202E+04   -.103E+00 0.126E+00 -.200E+01   0.843E-02 0.101E-02 -.170E-01
   -.894E+01 0.303E+01 0.203E+04   0.903E+01 -.308E+01 -.203E+04   -.238E-01 0.579E-01 -.176E+01   0.102E-02 0.158E-02 -.988E-02
   0.143E+02 -.771E+01 -.199E+04   -.142E+02 0.781E+01 0.199E+04   -.909E-01 -.105E+00 0.148E+01   -.104E-02 0.110E-01 0.104E-01
 -----------------------------------------------------------------------------------------------
   -.886E-01 -.498E-01 -.972E+00   -.551E-13 -.888E-15 0.227E-12   0.845E-01 0.575E-01 0.572E+00   -.521E-02 0.161E-01 0.336E+00
 
 
 POSITION                                       TOTAL-FORCE (eV/Angst)
 -----------------------------------------------------------------------------------
      1.37532      0.79404     10.00000         0.342349     -0.175737     -0.139086
      9.60520      7.16692     14.90176        -0.003297     -0.000958     -0.001127
     11.02597      1.58544     12.56154         0.014303      0.005724      0.002099
     13.75323      7.94043     10.00000        -0.186110     -0.052445     -0.118927
      2.75065      3.17617     10.00000         0.200832     -0.054623     -0.209240
     12.38974      3.98110     12.50260        -0.004908     -0.003236      0.008261
      1.38942      2.34854     15.04926        -0.008600     -0.004094      0.006765
      4.12597      5.55830     10.00000         0.098637     -0.102426     -0.063368
     10.97119      4.75698     15.03349        -0.000536     -0.000135      0.002987
      2.74890      4.76198     15.06975        -0.006905     -0.000475     -0.001150
      5.50129      7.94043     10.00000         0.292326     -0.184881     -0.141781
     15.15673      8.70474     12.55484        -0.006853     -0.011345      0.006462
     12.36911      8.72930     12.49320         0.003076     -0.001281     -0.005534
     10.98750      6.34183     12.44179        -0.000698     -0.011529     -0.003325
      8.25194      3.17617     10.00000        -0.294926      0.236240     -0.181675
     11.00258      7.94043     10.00000        -0.224171      0.049924     -0.275031
      5.48613      1.58801     12.39941         0.010621     -0.000977     -0.000553
      4.15202      3.97895     12.48193         0.009938      0.001502     -0.002669
     11.00258      3.17617     10.00000        -0.061916      0.366414     -0.151426
      8.23323      0.01918     15.08709         0.000897     -0.002825      0.013087
      8.25051      1.61430     12.49381        -0.017398      0.001832     -0.001237
      5.53691      4.75327     14.94689         0.004814     -0.006614      0.002327
      9.62726      0.79404     10.00000        -0.204707     -0.020040     -0.236896
      4.13516      7.14186     15.00212        -0.004444      0.009913      0.008023
      5.50129      3.17617     10.00000         0.080796     -0.082317      0.159911
      9.62726      5.55830     10.00000        -0.114206      0.069373      0.220692
      4.13461      2.35364     14.82951         0.004315     -0.000733      0.002334
      5.53772      6.35012     12.43761         0.001835     -0.002421      0.003726
      6.89433      4.01177     12.41131        -0.002948     -0.001703      0.002695
      6.90260      8.72106     12.41118         0.009575     -0.001559      0.004074
      6.87661      0.79404     10.00000        -0.131751      0.078073      0.178503
      5.47866      0.01655     14.82288         0.001761     -0.002413     -0.001650
      2.74369      0.00143     14.77316         0.001709     -0.004128     -0.001973
      8.25194      7.94043     10.00000         0.041589     -0.132228      0.196316
      2.75679      1.56493     12.43996        -0.008715     -0.002387     -0.000058
      6.88471      7.15530     14.74453         0.001171     -0.001933     -0.003248
     13.76607      6.34342     12.48802         0.006973      0.005386     -0.001228
      0.01933     -0.01605     14.89174        -0.000488      0.005018      0.013480
      6.86522      2.38408     14.82848        -0.002218      0.001026     -0.001529
      8.24670      6.35321     12.36777         0.003833     -0.001615      0.001135
      9.58710      8.72344     12.40265        -0.004004      0.002039      0.003351
     12.37790      5.55830     10.00000        -0.081258     -0.002399      0.301935
      8.24563      4.76180     14.75885        -0.005916      0.000567     -0.003287
      9.62484      3.98831     12.44717         0.009262      0.012616      0.002744
      9.60388      2.39158     14.88229         0.000413     -0.006252      0.014744
      6.87661      5.55830     10.00000         0.165581      0.020629      0.225486
      4.12597      0.79404     10.00000         0.070473      0.006556      0.159851
     12.36670      7.15596     14.86740        -0.000110      0.002874      0.005009
 -----------------------------------------------------------------------------------
    total drift:                               -0.009265      0.023797     -0.062921


--------------------------------------------------------------------------------------------------------



  FREE ENERGIE OF THE ION-ELECTRON SYSTEM (eV)
  ---------------------------------------------------
  free  energy   TOTEN  =      -191.96542617 eV

  energy  without entropy=     -191.71880134  energy(sigma->0) =     -191.84211376
 
 d Force = 0.3459927E-03[ 0.127E-04, 0.679E-03]  d Energy = 0.3022707E-03 0.437E-04
 d Force = 0.4256686E+02[ 0.426E+02, 0.426E+02]  d Ewald  = 0.4256686E+02 0.495E-06


--------------------------------------------------------------------------------------------------------


    POTLOK:  cpu time    0.0485: real time    0.0486


--------------------------------------------------------------------------------------------------------


 stress matrix after NEB project (eV)
      0.00000      0.00000      0.00000
      0.00000      0.00000      0.00000
      0.00000      0.00000      0.00000
  FORCES: max atom, RMS     0.017538    0.008119
  FORCE total and by dimension    0.056250    0.017398
  Stress total and by dimension    0.000000    0.000000
 Conjugate gradient step on ions:
 trial-energy change:   -0.000302  1 .order   -0.000346   -0.000679   -0.000013
  (g-gl).g = 0.249E-03      g.g   = 0.251E-03  gl.gl    = 0.789E-03
 g(Force)  = 0.251E-03   g(Stress)= 0.000E+00 ortho     =-0.588E-05
 gamma     =   0.31507
 trial     =   2.72335
 opt step  =   2.81042  (harmonic =   2.77506) maximal distance =0.00258989
 next E    =  -191.965426   (d E  =  -0.00030)


--------------------------------------------------------------------------------------------------------


  
 reached required accuracy - stopping structural energy minimisation
     LOOP+:  cpu time   43.9542: real time   44.2185
    4ORBIT:  cpu time    0.0000: real time    0.0000

 total amount of memory used by VASP on root node    84353. kBytes
========================================================================

   base      :      30000. kBytes
   nonlr-proj:       4285. kBytes
   fftplans  :       4447. kBytes
   grid      :       6721. kBytes
   one-center:        124. kBytes
   wavefun   :      38776. kBytes
 
  
  
 General timing and accounting informations for this job:
 ========================================================
  
                  Total CPU time used (sec):     1479.404
                            User time (sec):     1406.801
                          System time (sec):       72.603
                         Elapsed time (sec):     1489.098
  
                   Maximum memory used (kb):      837224.
                   Average memory used (kb):           0.
  
                          Minor page faults:       703762
                          Major page faults:            0
                 Voluntary context switches:         9837
