<?xml version="1.0" encoding="ISO-8859-1"?>
<modeling>
 <generator>
  <i name="program" type="string">vasp </i>
  <i name="version" type="string">5.4.1  </i>
  <i name="subversion" type="string">24Jun15 (build Mar 14 2019 10:18:33) complex                          parallel </i>
  <i name="platform" type="string">INTEL-19.0.2+OPENMPI-3.1.3 </i>
  <i name="date" type="string">2023 01 30 </i>
  <i name="time" type="string">16:50:19 </i>
 </generator>
 <incar>
  <i type="int" name="ISTART">     0</i>
  <i type="string" name="PREC">normal</i>
  <i type="string" name="ALGO"> Fast</i>
  <i type="int" name="NELM">   500</i>
  <i type="int" name="IBRION">     2</i>
  <i type="int" name="NFREE">     2</i>
  <i name="EDIFF">      0.00000100</i>
  <i name="EDIFFG">     -0.02000000</i>
  <i type="int" name="NSW">   500</i>
  <i type="int" name="ISIF">     0</i>
  <i type="int" name="ISYM">     2</i>
  <i name="ENCUT">    400.00000000</i>
  <i name="POTIM">      0.35000000</i>
  <i type="string" name="LREAL"> Auto</i>
  <i type="logical" name="LPLANE"> T  </i>
  <i type="int" name="ISMEAR">     0</i>
  <i name="SIGMA">      0.10000000</i>
  <i type="int" name="NWRITE">     1</i>
  <i type="logical" name="LWAVE"> F  </i>
  <i type="logical" name="LCHARG"> F  </i>
  <i type="logical" name="LVTOT"> F  </i>
  <i type="logical" name="LORBIT"> F  </i>
  <i type="logical" name="LAECHG"> F  </i>
  <v type="int" name="KPOINT_BSE">    -1     0     0     0</v>
  <i type="int" name="NELM">   500</i>
  <i type="string" name="GGA"> PE          ! optPBE-vdW XC-functional</i>
  <i type="int" name="VOSKOWN">     1</i>
  <i type="logical" name="LDIPOL"> T  </i>
  <i type="logical" name="LMONO"> F  </i>
  <i type="int" name="IDIPOL">     3</i>
  <v name="DIPOL">      0.00000000      0.00000000      0.50000000</v>
 </incar>
 <kpoints>
  <generation param="Monkhorst-Pack">
   <v type="int" name="divisions">       2        2        1 </v>
   <v name="usershift">      0.00000000       0.00000000       0.00000000 </v>
   <v name="genvec1">      0.50000000      -0.00000000       0.00000000 </v>
   <v name="genvec2">      0.00000000       0.50000000       0.00000000 </v>
   <v name="genvec3">      0.00000000       0.00000000       1.00000000 </v>
   <v name="shift">      0.50000000       0.50000000       0.00000000 </v>
  </generation>
  <varray name="kpointlist" >
   <v>       0.25000000       0.25000000       0.00000000 </v>
   <v>       0.00000000       0.25000000       0.00000000 </v>
   <v>      -0.25000000       0.00000000       0.00000000 </v>
   <v>      -0.25000000       0.25000000       0.00000000 </v>
   <v>       0.50000000      -0.25000000       0.00000000 </v>
   <v>      -0.25000000       0.50000000       0.00000000 </v>
  </varray>
  <varray name="weights" >
   <v>       0.16666667 </v>
   <v>       0.16666667 </v>
   <v>       0.16666667 </v>
   <v>       0.16666667 </v>
   <v>       0.16666667 </v>
   <v>       0.16666667 </v>
  </varray>
 </kpoints>
 <parameters>
  <separator name="general" >
   <i type="string" name="SYSTEM">unknown system</i>
   <i type="logical" name="LCOMPAT"> F  </i>
  </separator>
  <separator name="electronic" >
   <i type="string" name="PREC">normal</i>
   <i name="ENMAX">    400.00000000</i>
   <i name="ENAUG">    416.23000000</i>
   <i name="EDIFF">      0.00000100</i>
   <i type="int" name="IALGO">    68</i>
   <i type="int" name="IWAVPR">    11</i>
   <i type="int" name="NBANDS">   306</i>
   <i name="NELECT">    504.00000000</i>
   <i type="int" name="TURBO">     0</i>
   <i type="int" name="IRESTART">     0</i>
   <i type="int" name="NREBOOT">     0</i>
   <i type="int" name="NMIN">     0</i>
   <i name="EREF">      0.00000000</i>
   <separator name="electronic smearing" >
    <i type="int" name="ISMEAR">     0</i>
    <i name="SIGMA">      0.10000000</i>
    <i name="KSPACING">      0.50000000</i>
    <i type="logical" name="KGAMMA"> T  </i>
   </separator>
   <separator name="electronic projectors" >
    <i type="logical" name="LREAL"> T  </i>
    <v name="ROPT">     -0.00050000     -0.00050000</v>
    <i type="int" name="LMAXPAW">  -100</i>
    <i type="int" name="LMAXMIX">     2</i>
    <i type="logical" name="NLSPLINE"> F  </i>
   </separator>
   <separator name="electronic startup" >
    <i type="int" name="ISTART">     0</i>
    <i type="int" name="ICHARG">     2</i>
    <i type="int" name="INIWAV">     1</i>
   </separator>
   <separator name="electronic spin" >
    <i type="int" name="ISPIN">     1</i>
    <i type="logical" name="LNONCOLLINEAR"> F  </i>
    <v name="MAGMOM">      1.00000000      1.00000000      1.00000000      1.00000000      1.00000000      1.00000000      1.00000000      1.00000000      1.00000000      1.00000000      1.00000000      1.00000000      1.00000000      1.00000000      1.00000000      1.00000000      1.00000000      1.00000000      1.00000000      1.00000000
      1.00000000      1.00000000      1.00000000      1.00000000      1.00000000      1.00000000      1.00000000      1.00000000      1.00000000      1.00000000      1.00000000      1.00000000      1.00000000      1.00000000      1.00000000      1.00000000      1.00000000      1.00000000      1.00000000      1.00000000
      1.00000000      1.00000000      1.00000000      1.00000000      1.00000000      1.00000000      1.00000000      1.00000000</v>
    <i name="NUPDOWN">     -1.00000000</i>
    <i type="logical" name="LSORBIT"> F  </i>
    <v name="SAXIS">      0.00000000      0.00000000      1.00000000</v>
    <i type="logical" name="LSPIRAL"> F  </i>
    <v name="QSPIRAL">      0.00000000      0.00000000      0.00000000</v>
    <i type="logical" name="LZEROZ"> F  </i>
   </separator>
   <separator name="electronic exchange-correlation" >
    <i type="logical" name="LASPH"> F  </i>
    <i type="logical" name="LMETAGGA"> F  </i>
   </separator>
   <separator name="electronic convergence" >
    <i type="int" name="NELM">   500</i>
    <i type="int" name="NELMDL">    -5</i>
    <i type="int" name="NELMIN">     2</i>
    <i name="ENINI">    400.00000000</i>
    <separator name="electronic convergence detail" >
     <i type="logical" name="LDIAG"> T  </i>
     <i type="logical" name="LSUBROT"> F  </i>
     <i name="WEIMIN">      0.00100000</i>
     <i name="EBREAK">      0.00000000</i>
     <i name="DEPER">      0.30000000</i>
     <i type="int" name="NRMM">     4</i>
     <i name="TIME">      0.40000000</i>
    </separator>
   </separator>
   <separator name="electronic mixer" >
    <i name="AMIX">      0.40000000</i>
    <i name="BMIX">      1.00000000</i>
    <i name="AMIN">      0.10000000</i>
    <i name="AMIX_MAG">      1.60000000</i>
    <i name="BMIX_MAG">      1.00000000</i>
    <separator name="electronic mixer details" >
     <i type="int" name="IMIX">     4</i>
     <i type="logical" name="MIXFIRST"> F  </i>
     <i type="int" name="MAXMIX">   -45</i>
     <i name="WC">    100.00000000</i>
     <i type="int" name="INIMIX">     1</i>
     <i type="int" name="MIXPRE">     1</i>
     <i type="int" name="MREMOVE">     5</i>
    </separator>
   </separator>
   <separator name="electronic dipolcorrection" >
    <i type="logical" name="LDIPOL"> T  </i>
    <i type="logical" name="LMONO"> F  </i>
    <i type="int" name="IDIPOL">     3</i>
    <i name="EPSILON">      1.00000000</i>
    <v name="DIPOL">      0.00000000      0.00000000      0.50000000</v>
    <i name="EFIELD">      0.00000000</i>
   </separator>
  </separator>
  <separator name="grids" >
   <i type="int" name="NGX">    54</i>
   <i type="int" name="NGY">    54</i>
   <i type="int" name="NGZ">   120</i>
   <i type="int" name="NGXF">   108</i>
   <i type="int" name="NGYF">   108</i>
   <i type="int" name="NGZF">   240</i>
   <i type="logical" name="ADDGRID"> F  </i>
  </separator>
  <separator name="ionic" >
   <i type="int" name="NSW">   500</i>
   <i type="int" name="IBRION">     2</i>
   <i type="int" name="ISIF">     0</i>
   <i name="PSTRESS">      0.00000000</i>
   <i name="EDIFFG">     -0.02000000</i>
   <i type="int" name="NFREE">     2</i>
   <i name="POTIM">      0.35000000</i>
   <i name="SMASS">     -3.00000000</i>
   <i name="SCALEE">      1.00000000</i>
  </separator>
  <separator name="ionic md" >
   <i name="TEBEG">      0.00010000</i>
   <i name="TEEND">      0.00010000</i>
   <i type="int" name="NBLOCK">     1</i>
   <i type="int" name="KBLOCK">   500</i>
   <i type="int" name="NPACO">   256</i>
   <i name="APACO">     16.00000000</i>
  </separator>
  <separator name="symmetry" >
   <i type="int" name="ISYM">     2</i>
   <i name="SYMPREC">      0.00001000</i>
  </separator>
  <separator name="dos" >
   <i type="logical" name="LORBIT"> F  </i>
   <v name="RWIGS">     -1.00000000     -1.00000000</v>
   <i type="int" name="NEDOS">   301</i>
   <i name="EMIN">     10.00000000</i>
   <i name="EMAX">    -10.00000000</i>
   <i name="EFERMI">      0.00000000</i>
  </separator>
  <separator name="writing" >
   <i type="int" name="NWRITE">     1</i>
   <i type="logical" name="LWAVE"> F  </i>
   <i type="logical" name="LCHARG"> F  </i>
   <i type="logical" name="LPARD"> F  </i>
   <i type="logical" name="LVTOT"> F  </i>
   <i type="logical" name="LVHAR"> F  </i>
   <i type="logical" name="LELF"> F  </i>
   <i type="logical" name="LOPTICS"> F  </i>
   <v name="STM">      0.00000000      0.00000000      0.00000000      0.00000000      0.00000000      0.00000000      0.00000000</v>
  </separator>
  <separator name="performance" >
   <i type="int" name="NPAR">     6</i>
   <i type="int" name="NSIM">     4</i>
   <i type="int" name="NBLK">    -1</i>
   <i type="logical" name="LPLANE"> T  </i>
   <i type="logical" name="LSCALAPACK"> T  </i>
   <i type="logical" name="LSCAAWARE"> F  </i>
   <i type="logical" name="LSCALU"> F  </i>
   <i type="logical" name="LASYNC"> F  </i>
   <i type="logical" name="LORBITALREAL"> F  </i>
  </separator>
  <separator name="miscellaneous" >
   <i type="int" name="IDIOT">     3</i>
   <i type="logical" name="LMUSIC"> F  </i>
   <v name="POMASS">    196.96600000    106.42000000</v>
   <v name="DARWINR">      0.00000000      0.00000000</v>
   <v name="DARWINV">      1.00000000      1.00000000</v>
   <i type="logical" name="LCORR"> T  </i>
  </separator>
  <i type="logical" name="GGA_COMPAT"> T  </i>
  <i type="logical" name="LBERRY"> F  </i>
  <i type="int" name="ICORELEVEL">     0</i>
  <i type="logical" name="LDAU"> F  </i>
  <i type="int" name="I_CONSTRAINED_M">     0</i>
  <separator name="electronic exchange-correlation" >
   <i type="string" name="GGA">PE</i>
   <i type="int" name="VOSKOWN">     1</i>
   <i type="logical" name="LHFCALC"> F  </i>
   <i type="string" name="PRECFOCK"></i>
   <i type="logical" name="LSYMGRAD"> F  </i>
   <i type="logical" name="LHFONE"> F  </i>
   <i type="logical" name="LRHFCALC"> F  </i>
   <i type="logical" name="LTHOMAS"> F  </i>
   <i type="logical" name="LMODELHF"> F  </i>
   <i name="ENCUT4O">     -1.00000000</i>
   <i type="int" name="EXXOEP">     0</i>
   <i type="int" name="FOURORBIT">     0</i>
   <i name="AEXX">      0.00000000</i>
   <i name="HFALPHA">      0.00000000</i>
   <i name="MCALPHA">      0.00000000</i>
   <i name="ALDAX">      1.00000000</i>
   <i name="AGGAX">      1.00000000</i>
   <i name="ALDAC">      1.00000000</i>
   <i name="AGGAC">      1.00000000</i>
   <i type="int" name="NKREDX">     1</i>
   <i type="int" name="NKREDY">     1</i>
   <i type="int" name="NKREDZ">     1</i>
   <i type="logical" name="SHIFTRED"> F  </i>
   <i type="logical" name="ODDONLY"> F  </i>
   <i type="logical" name="EVENONLY"> F  </i>
   <i type="int" name="LMAXFOCK">     0</i>
   <i type="int" name="NMAXFOCKAE">     0</i>
   <i type="logical" name="LFOCKAEDFT"> F  </i>
   <i name="HFSCREEN">      0.00000000</i>
   <i name="HFSCREENC">      0.00000000</i>
   <i type="int" name="NBANDSGWLOW">     0</i>
  </separator>
  <separator name="vdW DFT" >
   <i type="logical" name="LUSE_VDW"> F  </i>
   <i name="Zab_VDW">     -0.84910000</i>
   <i name="PARAM1">      0.12340000</i>
   <i name="PARAM2">      1.00000000</i>
   <i name="PARAM3">      0.00000000</i>
  </separator>
  <separator name="model GW" >
   <i type="int" name="MODEL_GW">     0</i>
   <i name="MODEL_EPS0">     32.09595293</i>
   <i name="MODEL_ALPHA">      1.00000000</i>
  </separator>
  <separator name="linear response parameters" >
   <i type="logical" name="LEPSILON"> F  </i>
   <i type="logical" name="LRPA"> F  </i>
   <i type="logical" name="LNABLA"> F  </i>
   <i type="logical" name="LVEL"> F  </i>
   <i type="int" name="KINTER">     0</i>
   <i name="CSHIFT">      0.10000000</i>
   <i name="OMEGAMAX">     -1.00000000</i>
   <i name="DEG_THRESHOLD">      0.00200000</i>
  </separator>
  <separator name="orbital magnetization" >
   <i type="logical" name="NUCIND"> F  </i>
   <v name="MAGPOS">      0.00000000      0.00000000      0.00000000</v>
   <i type="logical" name="LNICSALL"> T  </i>
   <i type="logical" name="ORBITALMAG"> F  </i>
   <i type="logical" name="LMAGBLOCH"> F  </i>
   <i type="logical" name="LCHIMAG"> F  </i>
   <i type="logical" name="LGAUGE"> T  </i>
   <i type="int" name="MAGATOM">     0</i>
   <v name="MAGDIPOL">      0.00000000      0.00000000      0.00000000</v>
   <v name="AVECCONST">      0.00000000      0.00000000      0.00000000</v>
  </separator>
  <separator name="response functions" >
   <i type="logical" name="LADDER"> F  </i>
   <i type="logical" name="LFXC"> F  </i>
   <i type="logical" name="LHARTREE"> T  </i>
   <i type="int" name="IBSE">     0</i>
   <v type="int" name="KPOINT">    -1     0     0     0</v>
   <i type="logical" name="LTCTE"> F  </i>
   <i type="logical" name="LTETE"> F  </i>
   <i type="logical" name="LTRIPLET"> F  </i>
   <i type="logical" name="LFXCEPS"> F  </i>
   <i type="logical" name="LFXHEG"> F  </i>
   <i type="int" name="NATURALO">     0</i>
   <i type="logical" name="L2ORDER"> F  </i>
   <i type="logical" name="LUSEW"> F  </i>
   <i name="ENCUTGW">     -2.00000000</i>
   <i name="ENCUTGWSOFT">     -2.00000000</i>
   <i name="ENCUTLF">     -1.00000000</i>
   <i type="int" name="LMAXMP2">    -1</i>
   <i name="SCISSOR">      0.00000000</i>
   <i type="int" name="NOMEGA">     0</i>
   <i type="int" name="NOMEGAR">     0</i>
   <i type="int" name="NBANDSGW">    -1</i>
   <i type="int" name="NBANDSO">    -1</i>
   <i type="int" name="NBANDSV">    -1</i>
   <i type="int" name="NELM">   500</i>
   <i type="int" name="NELMHF">     1</i>
   <i type="int" name="DIM">     3</i>
   <i type="int" name="ANTIRES">     0</i>
   <i name="OMEGAMAX">    -30.00000000</i>
   <i name="OMEGAMIN">    -30.00000000</i>
   <i name="OMEGATL">   -200.00000000</i>
   <i type="int" name="OMEGAGRID">     0</i>
   <i name="CSHIFT">     -0.10000000</i>
   <i type="logical" name="SELFENERGY"> F  </i>
   <i type="logical" name="LSPECTRAL"> F  </i>
   <i type="logical" name="LSPECTRALGW"> F  </i>
   <i type="logical" name="LSINGLES"> F  </i>
   <i type="logical" name="LFERMIGW"> F  </i>
   <i type="logical" name="ODDONLYGW"> F  </i>
   <i type="logical" name="EVENONLYGW"> F  </i>
   <i type="int" name="NKREDLFX">     1</i>
   <i type="int" name="NKREDLFY">     1</i>
   <i type="int" name="NKREDLFZ">     1</i>
   <i type="int" name="MAXMEM">  1800</i>
   <i type="int" name="TELESCOPE">     0</i>
   <i type="int" name="TAUPAR">     1</i>
   <i type="int" name="OMEGAPAR">    -1</i>
   <i name="LAMBDA">      1.00000000</i>
  </separator>
  <separator name="External order field" >
   <i name="OFIELD_KAPPA">      0.00000000</i>
   <v name="OFIELD_K">      0.00000000      0.00000000      0.00000000</v>
   <i name="OFIELD_Q6_NEAR">      0.00000000</i>
   <i name="OFIELD_Q6_FAR">      0.00000000</i>
   <i name="OFIELD_A">      0.00000000</i>
  </separator>
 </parameters>
 <atominfo>
  <atoms>      48 </atoms>
  <types>       2 </types>
  <array name="atoms" >
   <dimension dim="1">ion</dimension>
   <field type="string">element</field>
   <field type="int">atomtype</field>
   <set>
    <rc><c>Au</c><c>   1</c></rc>
    <rc><c>Au</c><c>   1</c></rc>
    <rc><c>Au</c><c>   1</c></rc>
    <rc><c>Au</c><c>   1</c></rc>
    <rc><c>Au</c><c>   1</c></rc>
    <rc><c>Au</c><c>   1</c></rc>
    <rc><c>Au</c><c>   1</c></rc>
    <rc><c>Au</c><c>   1</c></rc>
    <rc><c>Au</c><c>   1</c></rc>
    <rc><c>Au</c><c>   1</c></rc>
    <rc><c>Au</c><c>   1</c></rc>
    <rc><c>Au</c><c>   1</c></rc>
    <rc><c>Au</c><c>   1</c></rc>
    <rc><c>Au</c><c>   1</c></rc>
    <rc><c>Au</c><c>   1</c></rc>
    <rc><c>Au</c><c>   1</c></rc>
    <rc><c>Au</c><c>   1</c></rc>
    <rc><c>Au</c><c>   1</c></rc>
    <rc><c>Au</c><c>   1</c></rc>
    <rc><c>Au</c><c>   1</c></rc>
    <rc><c>Au</c><c>   1</c></rc>
    <rc><c>Au</c><c>   1</c></rc>
    <rc><c>Au</c><c>   1</c></rc>
    <rc><c>Au</c><c>   1</c></rc>
    <rc><c>Pd</c><c>   2</c></rc>
    <rc><c>Pd</c><c>   2</c></rc>
    <rc><c>Pd</c><c>   2</c></rc>
    <rc><c>Pd</c><c>   2</c></rc>
    <rc><c>Pd</c><c>   2</c></rc>
    <rc><c>Pd</c><c>   2</c></rc>
    <rc><c>Pd</c><c>   2</c></rc>
    <rc><c>Pd</c><c>   2</c></rc>
    <rc><c>Pd</c><c>   2</c></rc>
    <rc><c>Pd</c><c>   2</c></rc>
    <rc><c>Pd</c><c>   2</c></rc>
    <rc><c>Pd</c><c>   2</c></rc>
    <rc><c>Pd</c><c>   2</c></rc>
    <rc><c>Pd</c><c>   2</c></rc>
    <rc><c>Pd</c><c>   2</c></rc>
    <rc><c>Pd</c><c>   2</c></rc>
    <rc><c>Pd</c><c>   2</c></rc>
    <rc><c>Pd</c><c>   2</c></rc>
    <rc><c>Pd</c><c>   2</c></rc>
    <rc><c>Pd</c><c>   2</c></rc>
    <rc><c>Pd</c><c>   2</c></rc>
    <rc><c>Pd</c><c>   2</c></rc>
    <rc><c>Pd</c><c>   2</c></rc>
    <rc><c>Pd</c><c>   2</c></rc>
   </set>
  </array>
  <array name="atomtypes" >
   <dimension dim="1">type</dimension>
   <field type="int">atomspertype</field>
   <field type="string">element</field>
   <field>mass</field>
   <field>valence</field>
   <field type="string">pseudopotential</field>
   <set>
    <rc><c>  24</c><c>Au</c><c>    196.96600000</c><c>     11.00000000</c><c>  PAW_PBE Au 04Oct2007                  </c></rc>
    <rc><c>  24</c><c>Pd</c><c>    106.42000000</c><c>     10.00000000</c><c>  PAW_PBE Pd 04Jan2005                  </c></rc>
   </set>
  </array>
 </atominfo>
 <structure name="initialpos" >
  <crystal>
   <varray name="basis" >
    <v>      11.00258152       0.00000000       0.00000000 </v>
    <v>       5.50129076       9.52851510       0.00000000 </v>
    <v>       0.00000000       0.00000000      24.49178509 </v>
   </varray>
   <i name="volume">   2567.67623402 </i>
   <varray name="rec_basis" >
    <v>       0.09088776      -0.05247407       0.00000000 </v>
    <v>       0.00000000       0.10494815       0.00000000 </v>
    <v>       0.00000000       0.00000000       0.04083002 </v>
   </varray>
  </crystal>
  <varray name="positions" >
   <v>       0.08333333       0.08333333       0.40830017 </v>
   <v>       0.50000000       0.75000000       0.59169983 </v>
   <v>       0.91666667       0.16666667       0.50000000 </v>
   <v>       0.83333333       0.83333333       0.40830017 </v>
   <v>       0.08333333       0.33333333       0.40830017 </v>
   <v>       0.91666667       0.41666667       0.50000000 </v>
   <v>       0.00000000       0.25000000       0.59169983 </v>
   <v>       0.08333333       0.58333333       0.40830017 </v>
   <v>       0.75000000       0.50000000       0.59169983 </v>
   <v>       0.00000000       0.50000000       0.59169983 </v>
   <v>       0.08333333       0.83333333       0.40830017 </v>
   <v>       0.91666667       0.91666667       0.50000000 </v>
   <v>       0.66666667       0.91666667       0.50000000 </v>
   <v>       0.66666667       0.66666667       0.50000000 </v>
   <v>       0.58333333       0.33333333       0.40830017 </v>
   <v>       0.58333333       0.83333333       0.40830017 </v>
   <v>       0.41666667       0.16666667       0.50000000 </v>
   <v>       0.16666667       0.41666667       0.50000000 </v>
   <v>       0.83333333       0.33333333       0.40830017 </v>
   <v>       0.75000000       0.00000000       0.59169983 </v>
   <v>       0.66666667       0.16666667       0.50000000 </v>
   <v>       0.25000000       0.50000000       0.59169983 </v>
   <v>       0.83333333       0.08333333       0.40830017 </v>
   <v>       0.00000000       0.75000000       0.59169983 </v>
   <v>       0.33333333       0.33333333       0.40830017 </v>
   <v>       0.58333333       0.58333333       0.40830017 </v>
   <v>       0.25000000       0.25000000       0.59169983 </v>
   <v>       0.16666667       0.66666667       0.50000000 </v>
   <v>       0.41666667       0.41666667       0.50000000 </v>
   <v>       0.16666667       0.91666667       0.50000000 </v>
   <v>       0.58333333       0.08333333       0.40830017 </v>
   <v>       0.50000000       0.00000000       0.59169983 </v>
   <v>       0.25000000       0.00000000       0.59169983 </v>
   <v>       0.33333333       0.83333333       0.40830017 </v>
   <v>       0.16666667       0.16666667       0.50000000 </v>
   <v>       0.25000000       0.75000000       0.59169983 </v>
   <v>       0.91666667       0.66666667       0.50000000 </v>
   <v>       0.00000000       0.00000000       0.59169983 </v>
   <v>       0.50000000       0.25000000       0.59169983 </v>
   <v>       0.41666667       0.66666667       0.50000000 </v>
   <v>       0.41666667       0.91666667       0.50000000 </v>
   <v>       0.83333333       0.58333333       0.40830017 </v>
   <v>       0.50000000       0.50000000       0.59169983 </v>
   <v>       0.66666667       0.41666667       0.50000000 </v>
   <v>       0.75000000       0.25000000       0.59169983 </v>
   <v>       0.33333333       0.58333333       0.40830017 </v>
   <v>       0.33333333       0.08333333       0.40830017 </v>
   <v>       0.75000000       0.75000000       0.59169983 </v>
  </varray>
  <varray name="selective"  type="logical" >
   <v type="logical" >  F  F  F </v>
   <v type="logical" >  T  T  T </v>
   <v type="logical" >  T  T  T </v>
   <v type="logical" >  F  F  F </v>
   <v type="logical" >  F  F  F </v>
   <v type="logical" >  T  T  T </v>
   <v type="logical" >  T  T  T </v>
   <v type="logical" >  F  F  F </v>
   <v type="logical" >  T  T  T </v>
   <v type="logical" >  T  T  T </v>
   <v type="logical" >  F  F  F </v>
   <v type="logical" >  T  T  T </v>
   <v type="logical" >  T  T  T </v>
   <v type="logical" >  T  T  T </v>
   <v type="logical" >  F  F  F </v>
   <v type="logical" >  F  F  F </v>
   <v type="logical" >  T  T  T </v>
   <v type="logical" >  T  T  T </v>
   <v type="logical" >  F  F  F </v>
   <v type="logical" >  T  T  T </v>
   <v type="logical" >  T  T  T </v>
   <v type="logical" >  T  T  T </v>
   <v type="logical" >  F  F  F </v>
   <v type="logical" >  T  T  T </v>
   <v type="logical" >  F  F  F </v>
   <v type="logical" >  F  F  F </v>
   <v type="logical" >  T  T  T </v>
   <v type="logical" >  T  T  T </v>
   <v type="logical" >  T  T  T </v>
   <v type="logical" >  T  T  T </v>
   <v type="logical" >  F  F  F </v>
   <v type="logical" >  T  T  T </v>
   <v type="logical" >  T  T  T </v>
   <v type="logical" >  F  F  F </v>
   <v type="logical" >  T  T  T </v>
   <v type="logical" >  T  T  T </v>
   <v type="logical" >  T  T  T </v>
   <v type="logical" >  T  T  T </v>
   <v type="logical" >  T  T  T </v>
   <v type="logical" >  T  T  T </v>
   <v type="logical" >  T  T  T </v>
   <v type="logical" >  F  F  F </v>
   <v type="logical" >  T  T  T </v>
   <v type="logical" >  T  T  T </v>
   <v type="logical" >  T  T  T </v>
   <v type="logical" >  F  F  F </v>
   <v type="logical" >  F  F  F </v>
   <v type="logical" >  T  T  T </v>
  </varray>
  <nose>
   <v>      -3.00000000       0.00000000       0.00010000       0.00010000 </v>
  </nose>
 </structure>
 <calculation>
  <scstep>
   <time name="dav">    6.74    6.75</time>
   <time name="total">    6.79    6.81</time>
   <dipole>
    <v name="dipole">      0.00000000       0.00000000       0.00000148 </v>
    <i name="Tr[quadrupol]"> -10210.06833907 </i>
    <i name="Echarged">      0.00000000 </i>
    <i name="Edipol_quadrupol">      0.00000000 </i>
    <i name="Eion">      0.00000000 </i>
   </dipole>
   <energy>
    <i name="alphaZ">    805.86936475 </i>
    <i name="ewald"> 200174.39411977 </i>
    <i name="hartreedc">-242589.13568208 </i>
    <i name="XCdc">   -327.62625073 </i>
    <i name="pawpsdc">  40340.05962942 </i>
    <i name="pawaedc"> -38292.62782345 </i>
    <i name="eentropy">     -0.12178670 </i>
    <i name="bandstr">   1429.04037272 </i>
    <i name="atom">  41659.78587232 </i>
    <i name="e_fr_energy">   3199.63781602 </i>
    <i name="e_wo_entrp">   3199.75960272 </i>
    <i name="e_0_energy">   3199.69870937 </i>
   </energy>
  </scstep>
  <scstep>
   <time name="dav">    8.14    8.24</time>
   <time name="total">    8.15    8.25</time>
   <dipole>
    <v name="dipole">      0.00000000       0.00000000       0.00000148 </v>
    <i name="Tr[quadrupol]"> -10210.06833907 </i>
    <i name="Echarged">      0.00000000 </i>
    <i name="Edipol_quadrupol">      0.00000000 </i>
    <i name="Eion">      0.00000000 </i>
   </dipole>
   <energy>
    <i name="e_fr_energy">     15.12600010 </i>
    <i name="e_wo_entrp">     15.25155588 </i>
    <i name="e_0_energy">     15.18877799 </i>
   </energy>
  </scstep>
  <scstep>
   <time name="dav">    7.81    7.83</time>
   <time name="total">    7.81    7.84</time>
   <dipole>
    <v name="dipole">      0.00000000       0.00000000       0.00000148 </v>
    <i name="Tr[quadrupol]"> -10210.06833907 </i>
    <i name="Echarged">      0.00000000 </i>
    <i name="Edipol_quadrupol">      0.00000000 </i>
    <i name="Eion">      0.00000000 </i>
   </dipole>
   <energy>
    <i name="e_fr_energy">   -200.92573459 </i>
    <i name="e_wo_entrp">   -200.72501420 </i>
    <i name="e_0_energy">   -200.82537440 </i>
   </energy>
  </scstep>
  <scstep>
   <time name="dav">    8.07    8.09</time>
   <time name="total">    8.07    8.09</time>
   <dipole>
    <v name="dipole">      0.00000000       0.00000000       0.00000148 </v>
    <i name="Tr[quadrupol]"> -10210.06833907 </i>
    <i name="Echarged">      0.00000000 </i>
    <i name="Edipol_quadrupol">      0.00000000 </i>
    <i name="Eion">      0.00000000 </i>
   </dipole>
   <energy>
    <i name="e_fr_energy">   -206.77282908 </i>
    <i name="e_wo_entrp">   -206.56556788 </i>
    <i name="e_0_energy">   -206.66919848 </i>
   </energy>
  </scstep>
  <scstep>
   <time name="dav">    8.23    8.25</time>
   <time name="total">    8.48    8.50</time>
   <dipole>
    <v name="dipole">      0.00000000       0.00000000       0.00000148 </v>
    <i name="Tr[quadrupol]"> -10210.06833907 </i>
    <i name="Echarged">      0.00000000 </i>
    <i name="Edipol_quadrupol">      0.00000000 </i>
    <i name="Eion">      0.00000000 </i>
   </dipole>
   <energy>
    <i name="e_fr_energy">   -206.95710514 </i>
    <i name="e_wo_entrp">   -206.75021572 </i>
    <i name="e_0_energy">   -206.85366043 </i>
   </energy>
  </scstep>
  <scstep>
   <time name="diag">    1.21    1.22</time>
   <time name="diis">    3.34    3.35</time>
   <time name="orth">    0.29    0.29</time>
   <time name="total">    5.14    5.16</time>
   <dipole>
    <v name="dipole">      0.00000000       0.00000000       0.68119963 </v>
    <i name="Tr[quadrupol]"> -10211.42939945 </i>
    <i name="Echarged">      0.00000000 </i>
    <i name="Edipol_quadrupol">      0.00000000 </i>
    <i name="Eion">      0.00000000 </i>
   </dipole>
   <energy>
    <i name="e_fr_energy">   -203.80903689 </i>
    <i name="e_wo_entrp">   -203.56155561 </i>
    <i name="e_0_energy">   -203.68529625 </i>
   </energy>
  </scstep>
  <scstep>
   <time name="diag">    1.21    1.22</time>
   <time name="diis">    3.30    3.31</time>
   <time name="orth">    0.29    0.29</time>
   <time name="total">    5.09    5.11</time>
   <dipole>
    <v name="dipole">      0.00000000       0.00000000      -0.83146987 </v>
    <i name="Tr[quadrupol]"> -10209.94857855 </i>
    <i name="Echarged">      0.00000000 </i>
    <i name="Edipol_quadrupol">      0.00000000 </i>
    <i name="Eion">      0.00000000 </i>
   </dipole>
   <energy>
    <i name="e_fr_energy">   -207.09314415 </i>
    <i name="e_wo_entrp">   -206.85875678 </i>
    <i name="e_0_energy">   -206.97595047 </i>
   </energy>
  </scstep>
  <scstep>
   <time name="diag">    1.25    1.25</time>
   <time name="diis">    3.26    3.36</time>
   <time name="orth">    0.29    0.29</time>
   <time name="total">    5.08    5.19</time>
   <dipole>
    <v name="dipole">      0.00000000       0.00000000       1.80680111 </v>
    <i name="Tr[quadrupol]"> -10211.31300858 </i>
    <i name="Echarged">      0.00000000 </i>
    <i name="Edipol_quadrupol">      0.00000000 </i>
    <i name="Eion">      0.00000000 </i>
   </dipole>
   <energy>
    <i name="e_fr_energy">   -224.43186294 </i>
    <i name="e_wo_entrp">   -224.14695500 </i>
    <i name="e_0_energy">   -224.28940897 </i>
   </energy>
  </scstep>
  <scstep>
   <time name="diag">    1.21    1.21</time>
   <time name="diis">    3.32    3.36</time>
   <time name="orth">    0.29    0.29</time>
   <time name="total">    5.11    5.15</time>
   <dipole>
    <v name="dipole">      0.00000000       0.00000000      -0.84593146 </v>
    <i name="Tr[quadrupol]"> -10212.66574282 </i>
    <i name="Echarged">      0.00000000 </i>
    <i name="Edipol_quadrupol">      0.00000000 </i>
    <i name="Eion">      0.00000000 </i>
   </dipole>
   <energy>
    <i name="e_fr_energy">   -213.59060675 </i>
    <i name="e_wo_entrp">   -213.33297755 </i>
    <i name="e_0_energy">   -213.46179215 </i>
   </energy>
  </scstep>
  <scstep>
   <time name="diag">    1.21    1.21</time>
   <time name="diis">    3.33    3.34</time>
   <time name="orth">    0.29    0.29</time>
   <time name="total">    5.12    5.14</time>
   <dipole>
    <v name="dipole">      0.00000000       0.00000000       0.40922610 </v>
    <i name="Tr[quadrupol]"> -10211.44991243 </i>
    <i name="Echarged">      0.00000000 </i>
    <i name="Edipol_quadrupol">      0.00000000 </i>
    <i name="Eion">      0.00000000 </i>
   </dipole>
   <energy>
    <i name="e_fr_energy">   -197.06388652 </i>
    <i name="e_wo_entrp">   -196.87502354 </i>
    <i name="e_0_energy">   -196.96945503 </i>
   </energy>
  </scstep>
  <scstep>
   <time name="diag">    1.21    1.21</time>
   <time name="diis">    3.36    3.36</time>
   <time name="orth">    0.29    0.29</time>
   <time name="total">    5.14    5.15</time>
   <dipole>
    <v name="dipole">      0.00000000       0.00000000       0.03412205 </v>
    <i name="Tr[quadrupol]"> -10212.41676211 </i>
    <i name="Echarged">      0.00000000 </i>
    <i name="Edipol_quadrupol">      0.00000000 </i>
    <i name="Eion">      0.00000000 </i>
   </dipole>
   <energy>
    <i name="e_fr_energy">   -191.94668246 </i>
    <i name="e_wo_entrp">   -191.72942301 </i>
    <i name="e_0_energy">   -191.83805274 </i>
   </energy>
  </scstep>
  <scstep>
   <time name="diag">    1.22    1.22</time>
   <time name="diis">    3.34    3.35</time>
   <time name="orth">    0.29    0.29</time>
   <time name="total">    5.13    5.15</time>
   <dipole>
    <v name="dipole">      0.00000000       0.00000000       0.06519713 </v>
    <i name="Tr[quadrupol]"> -10212.60432905 </i>
    <i name="Echarged">      0.00000000 </i>
    <i name="Edipol_quadrupol">      0.00000000 </i>
    <i name="Eion">      0.00000000 </i>
   </dipole>
   <energy>
    <i name="e_fr_energy">   -188.96934655 </i>
    <i name="e_wo_entrp">   -188.75991838 </i>
    <i name="e_0_energy">   -188.86463247 </i>
   </energy>
  </scstep>
  <scstep>
   <time name="diag">    1.21    1.21</time>
   <time name="diis">    3.31    3.32</time>
   <time name="orth">    0.29    0.29</time>
   <time name="total">    5.09    5.11</time>
   <dipole>
    <v name="dipole">      0.00000000       0.00000000       0.02857185 </v>
    <i name="Tr[quadrupol]"> -10212.92635882 </i>
    <i name="Echarged">      0.00000000 </i>
    <i name="Edipol_quadrupol">      0.00000000 </i>
    <i name="Eion">      0.00000000 </i>
   </dipole>
   <energy>
    <i name="e_fr_energy">   -188.89017089 </i>
    <i name="e_wo_entrp">   -188.64875948 </i>
    <i name="e_0_energy">   -188.76946518 </i>
   </energy>
  </scstep>
  <scstep>
   <time name="diag">    1.22    1.22</time>
   <time name="diis">    3.33    3.34</time>
   <time name="orth">    0.29    0.29</time>
   <time name="total">    5.13    5.15</time>
   <dipole>
    <v name="dipole">      0.00000000       0.00000000       0.07181107 </v>
    <i name="Tr[quadrupol]"> -10213.14991878 </i>
    <i name="Echarged">      0.00000000 </i>
    <i name="Edipol_quadrupol">      0.00000000 </i>
    <i name="Eion">      0.00000000 </i>
   </dipole>
   <energy>
    <i name="e_fr_energy">   -188.91078176 </i>
    <i name="e_wo_entrp">   -188.66653473 </i>
    <i name="e_0_energy">   -188.78865825 </i>
   </energy>
  </scstep>
  <scstep>
   <time name="diag">    1.22    1.23</time>
   <time name="diis">    3.36    3.37</time>
   <time name="orth">    0.28    0.28</time>
   <time name="total">    5.14    5.16</time>
   <dipole>
    <v name="dipole">      0.00000000       0.00000000       0.05448546 </v>
    <i name="Tr[quadrupol]"> -10213.32482828 </i>
    <i name="Echarged">      0.00000000 </i>
    <i name="Edipol_quadrupol">      0.00000000 </i>
    <i name="Eion">      0.00000000 </i>
   </dipole>
   <energy>
    <i name="e_fr_energy">   -188.80166672 </i>
    <i name="e_wo_entrp">   -188.56655845 </i>
    <i name="e_0_energy">   -188.68411259 </i>
   </energy>
  </scstep>
  <scstep>
   <time name="diag">    1.21    1.28</time>
   <time name="diis">    3.37    3.38</time>
   <time name="orth">    0.28    0.28</time>
   <time name="total">    5.13    5.23</time>
   <dipole>
    <v name="dipole">      0.00000000       0.00000000       0.04089593 </v>
    <i name="Tr[quadrupol]"> -10213.60349806 </i>
    <i name="Echarged">      0.00000000 </i>
    <i name="Edipol_quadrupol">      0.00000000 </i>
    <i name="Eion">      0.00000000 </i>
   </dipole>
   <energy>
    <i name="e_fr_energy">   -188.52179981 </i>
    <i name="e_wo_entrp">   -188.26271413 </i>
    <i name="e_0_energy">   -188.39225697 </i>
   </energy>
  </scstep>
  <scstep>
   <time name="diag">    1.20    1.20</time>
   <time name="diis">    3.34    3.35</time>
   <time name="orth">    0.28    0.28</time>
   <time name="total">    5.10    5.12</time>
   <dipole>
    <v name="dipole">      0.00000000       0.00000000       0.04623433 </v>
    <i name="Tr[quadrupol]"> -10213.88845696 </i>
    <i name="Echarged">      0.00000000 </i>
    <i name="Edipol_quadrupol">      0.00000000 </i>
    <i name="Eion">      0.00000000 </i>
   </dipole>
   <energy>
    <i name="e_fr_energy">   -188.43048914 </i>
    <i name="e_wo_entrp">   -188.17718146 </i>
    <i name="e_0_energy">   -188.30383530 </i>
   </energy>
  </scstep>
  <scstep>
   <time name="diag">    1.20    1.20</time>
   <time name="diis">    3.33    3.34</time>
   <time name="orth">    0.28    0.28</time>
   <time name="total">    5.10    5.11</time>
   <dipole>
    <v name="dipole">      0.00000000       0.00000000       0.05353028 </v>
    <i name="Tr[quadrupol]"> -10214.12473380 </i>
    <i name="Echarged">      0.00000000 </i>
    <i name="Edipol_quadrupol">      0.00000000 </i>
    <i name="Eion">      0.00000000 </i>
   </dipole>
   <energy>
    <i name="e_fr_energy">   -188.37270997 </i>
    <i name="e_wo_entrp">   -188.11678082 </i>
    <i name="e_0_energy">   -188.24474540 </i>
   </energy>
  </scstep>
  <scstep>
   <time name="diag">    1.20    1.20</time>
   <time name="diis">    3.32    3.32</time>
   <time name="orth">    0.27    0.28</time>
   <time name="total">    5.08    5.09</time>
   <dipole>
    <v name="dipole">      0.00000000       0.00000000       0.04846294 </v>
    <i name="Tr[quadrupol]"> -10214.21346688 </i>
    <i name="Echarged">      0.00000000 </i>
    <i name="Edipol_quadrupol">      0.00000000 </i>
    <i name="Eion">      0.00000000 </i>
   </dipole>
   <energy>
    <i name="e_fr_energy">   -188.34272001 </i>
    <i name="e_wo_entrp">   -188.08294666 </i>
    <i name="e_0_energy">   -188.21283333 </i>
   </energy>
  </scstep>
  <scstep>
   <time name="diag">    1.21    1.21</time>
   <time name="diis">    3.34    3.35</time>
   <time name="orth">    0.27    0.28</time>
   <time name="total">    5.10    5.12</time>
   <dipole>
    <v name="dipole">      0.00000000       0.00000000       0.04034582 </v>
    <i name="Tr[quadrupol]"> -10214.34929331 </i>
    <i name="Echarged">      0.00000000 </i>
    <i name="Edipol_quadrupol">      0.00000000 </i>
    <i name="Eion">      0.00000000 </i>
   </dipole>
   <energy>
    <i name="e_fr_energy">   -188.33775581 </i>
    <i name="e_wo_entrp">   -188.07455474 </i>
    <i name="e_0_energy">   -188.20615528 </i>
   </energy>
  </scstep>
  <scstep>
   <time name="diag">    1.19    1.21</time>
   <time name="diis">    3.32    3.33</time>
   <time name="orth">    0.27    0.28</time>
   <time name="total">    5.08    5.11</time>
   <dipole>
    <v name="dipole">      0.00000000       0.00000000       0.03150984 </v>
    <i name="Tr[quadrupol]"> -10214.42740107 </i>
    <i name="Echarged">      0.00000000 </i>
    <i name="Edipol_quadrupol">      0.00000000 </i>
    <i name="Eion">      0.00000000 </i>
   </dipole>
   <energy>
    <i name="e_fr_energy">   -188.33449894 </i>
    <i name="e_wo_entrp">   -188.07059340 </i>
    <i name="e_0_energy">   -188.20254617 </i>
   </energy>
  </scstep>
  <scstep>
   <time name="diag">    1.20    1.20</time>
   <time name="diis">    3.36    3.37</time>
   <time name="orth">    0.28    0.28</time>
   <time name="total">    5.13    5.14</time>
   <dipole>
    <v name="dipole">      0.00000000       0.00000000       0.03207457 </v>
    <i name="Tr[quadrupol]"> -10214.54728067 </i>
    <i name="Echarged">      0.00000000 </i>
    <i name="Edipol_quadrupol">      0.00000000 </i>
    <i name="Eion">      0.00000000 </i>
   </dipole>
   <energy>
    <i name="e_fr_energy">   -188.33280884 </i>
    <i name="e_wo_entrp">   -188.06905128 </i>
    <i name="e_0_energy">   -188.20093006 </i>
   </energy>
  </scstep>
  <scstep>
   <time name="diag">    1.20    1.20</time>
   <time name="diis">    3.32    3.33</time>
   <time name="orth">    0.27    0.30</time>
   <time name="total">    5.08    5.15</time>
   <dipole>
    <v name="dipole">      0.00000000       0.00000000       0.03295951 </v>
    <i name="Tr[quadrupol]"> -10214.68853365 </i>
    <i name="Echarged">      0.00000000 </i>
    <i name="Edipol_quadrupol">      0.00000000 </i>
    <i name="Eion">      0.00000000 </i>
   </dipole>
   <energy>
    <i name="e_fr_energy">   -188.33188334 </i>
    <i name="e_wo_entrp">   -188.06816056 </i>
    <i name="e_0_energy">   -188.20002195 </i>
   </energy>
  </scstep>
  <scstep>
   <time name="diag">    1.20    1.23</time>
   <time name="diis">    3.34    3.35</time>
   <time name="orth">    0.27    0.28</time>
   <time name="total">    5.10    5.14</time>
   <dipole>
    <v name="dipole">      0.00000000       0.00000000       0.02993158 </v>
    <i name="Tr[quadrupol]"> -10214.79662518 </i>
    <i name="Echarged">      0.00000000 </i>
    <i name="Edipol_quadrupol">      0.00000000 </i>
    <i name="Eion">      0.00000000 </i>
   </dipole>
   <energy>
    <i name="e_fr_energy">   -188.33169962 </i>
    <i name="e_wo_entrp">   -188.06726127 </i>
    <i name="e_0_energy">   -188.19948045 </i>
   </energy>
  </scstep>
  <scstep>
   <time name="diag">    1.20    1.20</time>
   <time name="diis">    3.34    3.35</time>
   <time name="orth">    0.27    0.28</time>
   <time name="total">    5.11    5.12</time>
   <dipole>
    <v name="dipole">      0.00000000       0.00000000       0.02871047 </v>
    <i name="Tr[quadrupol]"> -10214.84264635 </i>
    <i name="Echarged">      0.00000000 </i>
    <i name="Edipol_quadrupol">      0.00000000 </i>
    <i name="Eion">      0.00000000 </i>
   </dipole>
   <energy>
    <i name="e_fr_energy">   -188.33182983 </i>
    <i name="e_wo_entrp">   -188.06743368 </i>
    <i name="e_0_energy">   -188.19963176 </i>
   </energy>
  </scstep>
  <scstep>
   <time name="diag">    1.20    1.21</time>
   <time name="diis">    3.34    3.35</time>
   <time name="orth">    0.27    0.27</time>
   <time name="total">    5.11    5.13</time>
   <dipole>
    <v name="dipole">      0.00000000       0.00000000       0.02627714 </v>
    <i name="Tr[quadrupol]"> -10214.89012016 </i>
    <i name="Echarged">      0.00000000 </i>
    <i name="Edipol_quadrupol">      0.00000000 </i>
    <i name="Eion">      0.00000000 </i>
   </dipole>
   <energy>
    <i name="e_fr_energy">   -188.33201945 </i>
    <i name="e_wo_entrp">   -188.06760836 </i>
    <i name="e_0_energy">   -188.19981390 </i>
   </energy>
  </scstep>
  <scstep>
   <time name="diag">    1.20    1.20</time>
   <time name="diis">    3.36    3.37</time>
   <time name="orth">    0.28    0.28</time>
   <time name="total">    5.12    5.14</time>
   <dipole>
    <v name="dipole">      0.00000000       0.00000000       0.02427766 </v>
    <i name="Tr[quadrupol]"> -10214.97878925 </i>
    <i name="Echarged">      0.00000000 </i>
    <i name="Edipol_quadrupol">      0.00000000 </i>
    <i name="Eion">      0.00000000 </i>
   </dipole>
   <energy>
    <i name="e_fr_energy">   -188.33258378 </i>
    <i name="e_wo_entrp">   -188.06827252 </i>
    <i name="e_0_energy">   -188.20042815 </i>
   </energy>
  </scstep>
  <scstep>
   <time name="diag">    1.21    1.21</time>
   <time name="diis">    3.32    3.33</time>
   <time name="orth">    0.28    0.28</time>
   <time name="total">    5.09    5.11</time>
   <dipole>
    <v name="dipole">      0.00000000       0.00000000       0.02353409 </v>
    <i name="Tr[quadrupol]"> -10215.00993041 </i>
    <i name="Echarged">      0.00000000 </i>
    <i name="Edipol_quadrupol">      0.00000000 </i>
    <i name="Eion">      0.00000000 </i>
   </dipole>
   <energy>
    <i name="e_fr_energy">   -188.33286646 </i>
    <i name="e_wo_entrp">   -188.06858670 </i>
    <i name="e_0_energy">   -188.20072658 </i>
   </energy>
  </scstep>
  <scstep>
   <time name="diag">    1.20    1.20</time>
   <time name="diis">    3.21    3.22</time>
   <time name="orth">    0.27    0.28</time>
   <time name="total">    4.97    4.99</time>
   <dipole>
    <v name="dipole">      0.00000000       0.00000000       0.02196484 </v>
    <i name="Tr[quadrupol]"> -10215.07169410 </i>
    <i name="Echarged">      0.00000000 </i>
    <i name="Edipol_quadrupol">      0.00000000 </i>
    <i name="Eion">      0.00000000 </i>
   </dipole>
   <energy>
    <i name="e_fr_energy">   -188.33347599 </i>
    <i name="e_wo_entrp">   -188.06920176 </i>
    <i name="e_0_energy">   -188.20133888 </i>
   </energy>
  </scstep>
  <scstep>
   <time name="diag">    1.20    1.20</time>
   <time name="diis">    3.23    3.23</time>
   <time name="orth">    0.27    0.28</time>
   <time name="total">    4.99    5.00</time>
   <dipole>
    <v name="dipole">      0.00000000       0.00000000       0.02053953 </v>
    <i name="Tr[quadrupol]"> -10215.11469259 </i>
    <i name="Echarged">      0.00000000 </i>
    <i name="Edipol_quadrupol">      0.00000000 </i>
    <i name="Eion">      0.00000000 </i>
   </dipole>
   <energy>
    <i name="e_fr_energy">   -188.33391061 </i>
    <i name="e_wo_entrp">   -188.06964769 </i>
    <i name="e_0_energy">   -188.20177915 </i>
   </energy>
  </scstep>
  <scstep>
   <time name="diag">    1.20    1.20</time>
   <time name="diis">    3.32    3.42</time>
   <time name="orth">    0.27    0.28</time>
   <time name="total">    5.09    5.19</time>
   <dipole>
    <v name="dipole">      0.00000000       0.00000000       0.01771292 </v>
    <i name="Tr[quadrupol]"> -10215.20170235 </i>
    <i name="Echarged">      0.00000000 </i>
    <i name="Edipol_quadrupol">      0.00000000 </i>
    <i name="Eion">      0.00000000 </i>
   </dipole>
   <energy>
    <i name="e_fr_energy">   -188.33471439 </i>
    <i name="e_wo_entrp">   -188.07041721 </i>
    <i name="e_0_energy">   -188.20256580 </i>
   </energy>
  </scstep>
  <scstep>
   <time name="diag">    1.20    1.21</time>
   <time name="diis">    2.76    2.77</time>
   <time name="orth">    0.27    0.28</time>
   <time name="total">    4.53    4.55</time>
   <dipole>
    <v name="dipole">      0.00000000       0.00000000       0.01674007 </v>
    <i name="Tr[quadrupol]"> -10215.22745074 </i>
    <i name="Echarged">      0.00000000 </i>
    <i name="Edipol_quadrupol">      0.00000000 </i>
    <i name="Eion">      0.00000000 </i>
   </dipole>
   <energy>
    <i name="e_fr_energy">   -188.33490154 </i>
    <i name="e_wo_entrp">   -188.07060723 </i>
    <i name="e_0_energy">   -188.20275438 </i>
   </energy>
  </scstep>
  <scstep>
   <time name="diag">    1.19    1.21</time>
   <time name="diis">    2.50    2.51</time>
   <time name="orth">    0.27    0.28</time>
   <time name="total">    4.26    4.30</time>
   <dipole>
    <v name="dipole">      0.00000000       0.00000000       0.01594824 </v>
    <i name="Tr[quadrupol]"> -10215.24625500 </i>
    <i name="Echarged">      0.00000000 </i>
    <i name="Edipol_quadrupol">      0.00000000 </i>
    <i name="Eion">      0.00000000 </i>
   </dipole>
   <energy>
    <i name="e_fr_energy">   -188.33503565 </i>
    <i name="e_wo_entrp">   -188.07076533 </i>
    <i name="e_0_energy">   -188.20290049 </i>
   </energy>
  </scstep>
  <scstep>
   <time name="diag">    1.20    1.21</time>
   <time name="diis">    2.18    2.19</time>
   <time name="orth">    0.27    0.28</time>
   <time name="total">    3.95    3.96</time>
   <dipole>
    <v name="dipole">      0.00000000       0.00000000       0.01556391 </v>
    <i name="Tr[quadrupol]"> -10215.25438480 </i>
    <i name="Echarged">      0.00000000 </i>
    <i name="Edipol_quadrupol">      0.00000000 </i>
    <i name="Eion">      0.00000000 </i>
   </dipole>
   <energy>
    <i name="e_fr_energy">   -188.33509205 </i>
    <i name="e_wo_entrp">   -188.07082375 </i>
    <i name="e_0_energy">   -188.20295790 </i>
   </energy>
  </scstep>
  <scstep>
   <time name="diag">    1.20    1.21</time>
   <time name="diis">    2.09    2.10</time>
   <time name="orth">    0.27    0.27</time>
   <time name="total">    3.86    3.87</time>
   <dipole>
    <v name="dipole">      0.00000000       0.00000000       0.01501607 </v>
    <i name="Tr[quadrupol]"> -10215.26384347 </i>
    <i name="Echarged">      0.00000000 </i>
    <i name="Edipol_quadrupol">      0.00000000 </i>
    <i name="Eion">      0.00000000 </i>
   </dipole>
   <energy>
    <i name="e_fr_energy">   -188.33515565 </i>
    <i name="e_wo_entrp">   -188.07088883 </i>
    <i name="e_0_energy">   -188.20302224 </i>
   </energy>
  </scstep>
  <scstep>
   <time name="diag">    1.21    1.21</time>
   <time name="diis">    2.03    2.04</time>
   <time name="orth">    0.27    0.27</time>
   <time name="total">    3.80    3.82</time>
   <dipole>
    <v name="dipole">      0.00000000       0.00000000       0.01477221 </v>
    <i name="Tr[quadrupol]"> -10215.26759365 </i>
    <i name="Echarged">      0.00000000 </i>
    <i name="Edipol_quadrupol">      0.00000000 </i>
    <i name="Eion">      0.00000000 </i>
   </dipole>
   <energy>
    <i name="e_fr_energy">   -188.33518007 </i>
    <i name="e_wo_entrp">   -188.07091902 </i>
    <i name="e_0_energy">   -188.20304955 </i>
   </energy>
  </scstep>
  <scstep>
   <time name="diag">    1.20    1.21</time>
   <time name="diis">    2.07    2.07</time>
   <time name="orth">    0.28    0.28</time>
   <time name="total">    3.84    3.86</time>
   <dipole>
    <v name="dipole">      0.00000000       0.00000000       0.01430121 </v>
    <i name="Tr[quadrupol]"> -10215.27420489 </i>
    <i name="Echarged">      0.00000000 </i>
    <i name="Edipol_quadrupol">      0.00000000 </i>
    <i name="Eion">      0.00000000 </i>
   </dipole>
   <energy>
    <i name="e_fr_energy">   -188.33521346 </i>
    <i name="e_wo_entrp">   -188.07095162 </i>
    <i name="e_0_energy">   -188.20308254 </i>
   </energy>
  </scstep>
  <scstep>
   <time name="diag">    1.20    1.21</time>
   <time name="diis">    1.75    1.76</time>
   <time name="orth">    0.28    0.28</time>
   <time name="total">    3.52    3.54</time>
   <dipole>
    <v name="dipole">      0.00000000       0.00000000       0.01408670 </v>
    <i name="Tr[quadrupol]"> -10215.27732672 </i>
    <i name="Echarged">      0.00000000 </i>
    <i name="Edipol_quadrupol">      0.00000000 </i>
    <i name="Eion">      0.00000000 </i>
   </dipole>
   <energy>
    <i name="e_fr_energy">   -188.33522208 </i>
    <i name="e_wo_entrp">   -188.07096265 </i>
    <i name="e_0_energy">   -188.20309236 </i>
   </energy>
  </scstep>
  <scstep>
   <time name="diag">    1.21    1.21</time>
   <time name="diis">    1.81    1.81</time>
   <time name="orth">    0.28    0.28</time>
   <time name="total">    3.58    3.59</time>
   <dipole>
    <v name="dipole">      0.00000000       0.00000000       0.01387593 </v>
    <i name="Tr[quadrupol]"> -10215.28052318 </i>
    <i name="Echarged">      0.00000000 </i>
    <i name="Edipol_quadrupol">      0.00000000 </i>
    <i name="Eion">      0.00000000 </i>
   </dipole>
   <energy>
    <i name="e_fr_energy">   -188.33522626 </i>
    <i name="e_wo_entrp">   -188.07096390 </i>
    <i name="e_0_energy">   -188.20309508 </i>
   </energy>
  </scstep>
  <scstep>
   <time name="diag">    1.20    1.21</time>
   <time name="diis">    1.55    1.56</time>
   <time name="orth">    0.28    0.28</time>
   <time name="total">    3.33    3.34</time>
   <dipole>
    <v name="dipole">      0.00000000       0.00000000       0.01375583 </v>
    <i name="Tr[quadrupol]"> -10215.28254819 </i>
    <i name="Echarged">      0.00000000 </i>
    <i name="Edipol_quadrupol">      0.00000000 </i>
    <i name="Eion">      0.00000000 </i>
   </dipole>
   <energy>
    <i name="e_fr_energy">   -188.33522731 </i>
    <i name="e_wo_entrp">   -188.07096632 </i>
    <i name="e_0_energy">   -188.20309681 </i>
   </energy>
  </scstep>
  <scstep>
   <time name="diag">    1.20    1.20</time>
   <time name="diis">    1.41    1.42</time>
   <time name="orth">    0.28    0.28</time>
   <time name="total">    2.93    2.95</time>
   <dipole>
    <v name="dipole">      0.00000000       0.00000000       0.01366911 </v>
    <i name="Tr[quadrupol]"> -10215.28403196 </i>
    <i name="Echarged">      0.00000000 </i>
    <i name="Edipol_quadrupol">      0.00000000 </i>
    <i name="Eion">      0.00000000 </i>
   </dipole>
   <energy>
    <i name="alphaZ">    805.87368475 </i>
    <i name="ewald"> 200174.39411977 </i>
    <i name="hartreedc">-242354.12428341 </i>
    <i name="XCdc">   -343.43929439 </i>
    <i name="pawpsdc">  49386.35100958 </i>
    <i name="pawaedc"> -47464.83760505 </i>
    <i name="eentropy">     -0.26426219 </i>
    <i name="bandstr">  -2052.07446915 </i>
    <i name="atom">  41659.78587232 </i>
    <i name="e_fr_energy">   -188.33522776 </i>
    <i name="e_wo_entrp">   -188.07096557 </i>
    <i name="e_0_energy">   -188.20309667 </i>
   </energy>
  </scstep>
  <structure>
   <crystal>
    <varray name="basis" >
     <v>      11.00258152       0.00000000       0.00000000 </v>
     <v>       5.50129076       9.52851510       0.00000000 </v>
     <v>       0.00000000       0.00000000      24.49178509 </v>
    </varray>
    <i name="volume">   2567.67623402 </i>
    <varray name="rec_basis" >
     <v>       0.09088776      -0.05247407       0.00000000 </v>
     <v>       0.00000000       0.10494815       0.00000000 </v>
     <v>       0.00000000       0.00000000       0.04083002 </v>
    </varray>
   </crystal>
   <varray name="positions" >
    <v>       0.08333333       0.08333333       0.40830017 </v>
    <v>       0.50000000       0.75000000       0.59169983 </v>
    <v>       0.91666667       0.16666667       0.50000000 </v>
    <v>       0.83333333       0.83333333       0.40830017 </v>
    <v>       0.08333333       0.33333333       0.40830017 </v>
    <v>       0.91666667       0.41666667       0.50000000 </v>
    <v>       0.00000000       0.25000000       0.59169983 </v>
    <v>       0.08333333       0.58333333       0.40830017 </v>
    <v>       0.75000000       0.50000000       0.59169983 </v>
    <v>       0.00000000       0.50000000       0.59169983 </v>
    <v>       0.08333333       0.83333333       0.40830017 </v>
    <v>       0.91666667       0.91666667       0.50000000 </v>
    <v>       0.66666667       0.91666667       0.50000000 </v>
    <v>       0.66666667       0.66666667       0.50000000 </v>
    <v>       0.58333333       0.33333333       0.40830017 </v>
    <v>       0.58333333       0.83333333       0.40830017 </v>
    <v>       0.41666667       0.16666667       0.50000000 </v>
    <v>       0.16666667       0.41666667       0.50000000 </v>
    <v>       0.83333333       0.33333333       0.40830017 </v>
    <v>       0.75000000       0.00000000       0.59169983 </v>
    <v>       0.66666667       0.16666667       0.50000000 </v>
    <v>       0.25000000       0.50000000       0.59169983 </v>
    <v>       0.83333333       0.08333333       0.40830017 </v>
    <v>       0.00000000       0.75000000       0.59169983 </v>
    <v>       0.33333333       0.33333333       0.40830017 </v>
    <v>       0.58333333       0.58333333       0.40830017 </v>
    <v>       0.25000000       0.25000000       0.59169983 </v>
    <v>       0.16666667       0.66666667       0.50000000 </v>
    <v>       0.41666667       0.41666667       0.50000000 </v>
    <v>       0.16666667       0.91666667       0.50000000 </v>
    <v>       0.58333333       0.08333333       0.40830017 </v>
    <v>       0.50000000       0.00000000       0.59169983 </v>
    <v>       0.25000000       0.00000000       0.59169983 </v>
    <v>       0.33333333       0.83333333       0.40830017 </v>
    <v>       0.16666667       0.16666667       0.50000000 </v>
    <v>       0.25000000       0.75000000       0.59169983 </v>
    <v>       0.91666667       0.66666667       0.50000000 </v>
    <v>       0.00000000       0.00000000       0.59169983 </v>
    <v>       0.50000000       0.25000000       0.59169983 </v>
    <v>       0.41666667       0.66666667       0.50000000 </v>
    <v>       0.41666667       0.91666667       0.50000000 </v>
    <v>       0.83333333       0.58333333       0.40830017 </v>
    <v>       0.50000000       0.50000000       0.59169983 </v>
    <v>       0.66666667       0.41666667       0.50000000 </v>
    <v>       0.75000000       0.25000000       0.59169983 </v>
    <v>       0.33333333       0.58333333       0.40830017 </v>
    <v>       0.33333333       0.08333333       0.40830017 </v>
    <v>       0.75000000       0.75000000       0.59169983 </v>
   </varray>
  </structure>
  <varray name="forces" >
   <v>       0.54498362      -0.30263869      -1.39019762 </v>
   <v>      -0.27316684       0.28173171       1.28391973 </v>
   <v>       0.13144971      -0.13378486       0.64380890 </v>
   <v>      -0.24165102      -0.17974660      -1.64846691 </v>
   <v>       0.23891164      -0.15021061      -1.63085177 </v>
   <v>      -0.03827919       0.26054005      -0.26136075 </v>
   <v>       0.15265018      -0.51646131       1.56266349 </v>
   <v>       0.14707575      -0.04989036      -1.35840672 </v>
   <v>      -0.39200818      -0.07438210       1.61105795 </v>
   <v>       0.01341362       0.14714916       1.64330899 </v>
   <v>       0.48766912      -0.30269050      -1.36082928 </v>
   <v>       0.52151826      -0.40941148       0.36898261 </v>
   <v>      -0.40104665      -0.12802147       0.26523247 </v>
   <v>      -0.18182235      -0.08030748      -0.24788728 </v>
   <v>      -0.34888523       0.38543157      -1.36010909 </v>
   <v>      -0.37391450       0.05720611      -1.52401197 </v>
   <v>      -0.32168319      -0.00943667       0.03682356 </v>
   <v>       0.39988769      -0.12837704      -0.05472645 </v>
   <v>      -0.14908021       0.51105547      -1.63358757 </v>
   <v>      -0.12051745       0.18688508       1.80871012 </v>
   <v>      -0.23780122       0.66000073       0.33516691 </v>
   <v>       0.49878980      -0.09932947       1.33319026 </v>
   <v>      -0.26087375       0.01439634      -1.92400151 </v>
   <v>       0.13664400       0.05115923       1.37118410 </v>
   <v>       0.14521151      -0.09373192      -0.83161510 </v>
   <v>      -0.24242939       0.09860509      -0.60938808 </v>
   <v>       0.11991175      -0.37927231       0.85605429 </v>
   <v>       0.56921355       0.02158752      -0.02111897 </v>
   <v>       0.24926458       0.41822149       0.02477848 </v>
   <v>       0.43124395      -0.24577349       0.31056570 </v>
   <v>      -0.22733715       0.12607616      -1.06318104 </v>
   <v>      -0.20119765       0.13185775       0.82621990 </v>
   <v>      -0.02713305      -0.02606003       0.52135208 </v>
   <v>       0.05206942      -0.16149502      -0.38092633 </v>
   <v>       0.27592356      -0.58442970       0.15362128 </v>
   <v>       0.14855930       0.13674946       0.43866428 </v>
   <v>      -0.04967172      -0.01733630      -0.02502865 </v>
   <v>       0.31711808      -0.10016515       0.80800227 </v>
   <v>       0.01839352       0.11357571       0.83711987 </v>
   <v>      -0.30436155      -0.03475997      -0.17508747 </v>
   <v>      -0.57279103       0.14710592       0.00621386 </v>
   <v>      -0.08843612       0.03750710      -0.88864712 </v>
   <v>      -0.14467831      -0.12190383       0.52129261 </v>
   <v>      -0.43929017       0.26656456       0.13699777 </v>
   <v>      -0.21556176       0.15007013       0.87208411 </v>
   <v>       0.23804196       0.01194250      -0.43165681 </v>
   <v>       0.04966883      -0.01922404      -0.69180488 </v>
   <v>      -0.03399574       0.13342156       0.93587580 </v>
  </varray>
  <energy>
   <i name="e_fr_energy">   -188.33522776 </i>
   <i name="e_wo_entrp">   -188.20309667 </i>
   <i name="e_0_energy">     -0.26426219 </i>
  </energy>
  <time name="totalsc">  211.85  213.11</time>
 </calculation>
 <calculation>
  <scstep>
   <time name="dav">    6.82    6.84</time>
   <time name="total">    7.11    7.13</time>
   <dipole>
    <v name="dipole">      0.00000000       0.00000000       0.01357699 </v>
    <i name="Tr[quadrupol]"> -10217.58841629 </i>
    <i name="Echarged">      0.00000000 </i>
    <i name="Edipol_quadrupol">      0.00000000 </i>
    <i name="Eion">      0.00000000 </i>
   </dipole>
   <energy>
    <i name="alphaZ">    805.86722631 </i>
    <i name="ewald"> 198866.67179597 </i>
    <i name="hartreedc">-241054.77770403 </i>
    <i name="XCdc">   -344.53881056 </i>
    <i name="pawpsdc">  49386.34164342 </i>
    <i name="pawaedc"> -47464.82843305 </i>
    <i name="eentropy">     -0.26151560 </i>
    <i name="bandstr">  -2043.18861512 </i>
    <i name="atom">  41659.78587232 </i>
    <i name="e_fr_energy">   -188.92854032 </i>
    <i name="e_wo_entrp">   -188.66702473 </i>
    <i name="e_0_energy">   -188.79778252 </i>
   </energy>
  </scstep>
  <scstep>
   <time name="diag">    1.20    1.20</time>
   <time name="diis">    3.33    3.33</time>
   <time name="orth">    0.28    0.28</time>
   <time name="total">    5.08    5.10</time>
   <dipole>
    <v name="dipole">      0.00000000       0.00000000       0.05764111 </v>
    <i name="Tr[quadrupol]"> -10217.44380921 </i>
    <i name="Echarged">      0.00000000 </i>
    <i name="Edipol_quadrupol">      0.00000000 </i>
    <i name="Eion">      0.00000000 </i>
   </dipole>
   <energy>
    <i name="e_fr_energy">   -189.14601202 </i>
    <i name="e_wo_entrp">   -188.88861534 </i>
    <i name="e_0_energy">   -189.01731368 </i>
   </energy>
  </scstep>
  <scstep>
   <time name="diag">    1.20    1.21</time>
   <time name="diis">    3.40    3.41</time>
   <time name="orth">    0.28    0.28</time>
   <time name="total">    5.16    5.18</time>
   <dipole>
    <v name="dipole">      0.00000000       0.00000000      -0.08160335 </v>
    <i name="Tr[quadrupol]"> -10217.61562806 </i>
    <i name="Echarged">      0.00000000 </i>
    <i name="Edipol_quadrupol">      0.00000000 </i>
    <i name="Eion">      0.00000000 </i>
   </dipole>
   <energy>
    <i name="e_fr_energy">   -189.29555758 </i>
    <i name="e_wo_entrp">   -189.04257536 </i>
    <i name="e_0_energy">   -189.16906647 </i>
   </energy>
  </scstep>
  <scstep>
   <time name="diag">    1.22    1.22</time>
   <time name="diis">    3.40    3.41</time>
   <time name="orth">    0.28    0.28</time>
   <time name="total">    5.18    5.19</time>
   <dipole>
    <v name="dipole">      0.00000000       0.00000000       0.03581695 </v>
    <i name="Tr[quadrupol]"> -10217.65983394 </i>
    <i name="Echarged">      0.00000000 </i>
    <i name="Edipol_quadrupol">      0.00000000 </i>
    <i name="Eion">      0.00000000 </i>
   </dipole>
   <energy>
    <i name="e_fr_energy">   -189.15187804 </i>
    <i name="e_wo_entrp">   -188.89101937 </i>
    <i name="e_0_energy">   -189.02144871 </i>
   </energy>
  </scstep>
  <scstep>
   <time name="diag">    1.20    1.20</time>
   <time name="diis">    3.31    3.34</time>
   <time name="orth">    0.28    0.28</time>
   <time name="total">    5.07    5.11</time>
   <dipole>
    <v name="dipole">      0.00000000       0.00000000       0.00302764 </v>
    <i name="Tr[quadrupol]"> -10217.61316689 </i>
    <i name="Echarged">      0.00000000 </i>
    <i name="Edipol_quadrupol">      0.00000000 </i>
    <i name="Eion">      0.00000000 </i>
   </dipole>
   <energy>
    <i name="e_fr_energy">   -189.12576936 </i>
    <i name="e_wo_entrp">   -188.86379447 </i>
    <i name="e_0_energy">   -188.99478191 </i>
   </energy>
  </scstep>
  <scstep>
   <time name="diag">    1.20    1.20</time>
   <time name="diis">    3.33    3.33</time>
   <time name="orth">    0.28    0.28</time>
   <time name="total">    5.09    5.10</time>
   <dipole>
    <v name="dipole">      0.00000000       0.00000000       0.03267404 </v>
    <i name="Tr[quadrupol]"> -10217.60087737 </i>
    <i name="Echarged">      0.00000000 </i>
    <i name="Edipol_quadrupol">      0.00000000 </i>
    <i name="Eion">      0.00000000 </i>
   </dipole>
   <energy>
    <i name="e_fr_energy">   -189.13329675 </i>
    <i name="e_wo_entrp">   -188.87443546 </i>
    <i name="e_0_energy">   -189.00386611 </i>
   </energy>
  </scstep>
  <scstep>
   <time name="diag">    1.20    1.20</time>
   <time name="diis">    3.33    3.34</time>
   <time name="orth">    0.28    0.28</time>
   <time name="total">    5.09    5.11</time>
   <dipole>
    <v name="dipole">      0.00000000       0.00000000       0.03095224 </v>
    <i name="Tr[quadrupol]"> -10217.62187417 </i>
    <i name="Echarged">      0.00000000 </i>
    <i name="Edipol_quadrupol">      0.00000000 </i>
    <i name="Eion">      0.00000000 </i>
   </dipole>
   <energy>
    <i name="e_fr_energy">   -189.11951202 </i>
    <i name="e_wo_entrp">   -188.85724754 </i>
    <i name="e_0_energy">   -188.98837978 </i>
   </energy>
  </scstep>
  <scstep>
   <time name="diag">    1.19    1.28</time>
   <time name="diis">    3.37    3.37</time>
   <time name="orth">    0.28    0.28</time>
   <time name="total">    5.12    5.22</time>
   <dipole>
    <v name="dipole">      0.00000000       0.00000000       0.02261034 </v>
    <i name="Tr[quadrupol]"> -10217.60420890 </i>
    <i name="Echarged">      0.00000000 </i>
    <i name="Edipol_quadrupol">      0.00000000 </i>
    <i name="Eion">      0.00000000 </i>
   </dipole>
   <energy>
    <i name="e_fr_energy">   -189.11834523 </i>
    <i name="e_wo_entrp">   -188.85584952 </i>
    <i name="e_0_energy">   -188.98709737 </i>
   </energy>
  </scstep>
  <scstep>
   <time name="diag">    1.20    1.20</time>
   <time name="diis">    3.34    3.35</time>
   <time name="orth">    0.28    0.28</time>
   <time name="total">    5.11    5.13</time>
   <dipole>
    <v name="dipole">      0.00000000       0.00000000       0.01988147 </v>
    <i name="Tr[quadrupol]"> -10217.59658156 </i>
    <i name="Echarged">      0.00000000 </i>
    <i name="Edipol_quadrupol">      0.00000000 </i>
    <i name="Eion">      0.00000000 </i>
   </dipole>
   <energy>
    <i name="e_fr_energy">   -189.11759174 </i>
    <i name="e_wo_entrp">   -188.85507786 </i>
    <i name="e_0_energy">   -188.98633480 </i>
   </energy>
  </scstep>
  <scstep>
   <time name="diag">    1.19    1.20</time>
   <time name="diis">    3.30    3.30</time>
   <time name="orth">    0.28    0.28</time>
   <time name="total">    5.05    5.07</time>
   <dipole>
    <v name="dipole">      0.00000000       0.00000000       0.02099739 </v>
    <i name="Tr[quadrupol]"> -10217.59663089 </i>
    <i name="Echarged">      0.00000000 </i>
    <i name="Edipol_quadrupol">      0.00000000 </i>
    <i name="Eion">      0.00000000 </i>
   </dipole>
   <energy>
    <i name="e_fr_energy">   -189.11747809 </i>
    <i name="e_wo_entrp">   -188.85444186 </i>
    <i name="e_0_energy">   -188.98595997 </i>
   </energy>
  </scstep>
  <scstep>
   <time name="diag">    1.20    1.20</time>
   <time name="diis">    3.33    3.34</time>
   <time name="orth">    0.28    0.28</time>
   <time name="total">    5.09    5.11</time>
   <dipole>
    <v name="dipole">      0.00000000       0.00000000       0.02117737 </v>
    <i name="Tr[quadrupol]"> -10217.59477066 </i>
    <i name="Echarged">      0.00000000 </i>
    <i name="Edipol_quadrupol">      0.00000000 </i>
    <i name="Eion">      0.00000000 </i>
   </dipole>
   <energy>
    <i name="e_fr_energy">   -189.11742291 </i>
    <i name="e_wo_entrp">   -188.85475124 </i>
    <i name="e_0_energy">   -188.98608708 </i>
   </energy>
  </scstep>
  <scstep>
   <time name="diag">    1.21    1.21</time>
   <time name="diis">    3.32    3.34</time>
   <time name="orth">    0.28    0.28</time>
   <time name="total">    5.09    5.12</time>
   <dipole>
    <v name="dipole">      0.00000000       0.00000000       0.02102270 </v>
    <i name="Tr[quadrupol]"> -10217.59658301 </i>
    <i name="Echarged">      0.00000000 </i>
    <i name="Edipol_quadrupol">      0.00000000 </i>
    <i name="Eion">      0.00000000 </i>
   </dipole>
   <energy>
    <i name="e_fr_energy">   -189.11741634 </i>
    <i name="e_wo_entrp">   -188.85455326 </i>
    <i name="e_0_energy">   -188.98598480 </i>
   </energy>
  </scstep>
  <scstep>
   <time name="diag">    1.20    1.20</time>
   <time name="diis">    3.24    3.25</time>
   <time name="orth">    0.28    0.28</time>
   <time name="total">    5.01    5.03</time>
   <dipole>
    <v name="dipole">      0.00000000       0.00000000       0.02098103 </v>
    <i name="Tr[quadrupol]"> -10217.59863301 </i>
    <i name="Echarged">      0.00000000 </i>
    <i name="Edipol_quadrupol">      0.00000000 </i>
    <i name="Eion">      0.00000000 </i>
   </dipole>
   <energy>
    <i name="e_fr_energy">   -189.11741199 </i>
    <i name="e_wo_entrp">   -188.85465018 </i>
    <i name="e_0_energy">   -188.98603108 </i>
   </energy>
  </scstep>
  <scstep>
   <time name="diag">    1.19    1.20</time>
   <time name="diis">    2.91    2.92</time>
   <time name="orth">    0.28    0.28</time>
   <time name="total">    4.67    4.68</time>
   <dipole>
    <v name="dipole">      0.00000000       0.00000000       0.02093593 </v>
    <i name="Tr[quadrupol]"> -10217.60030263 </i>
    <i name="Echarged">      0.00000000 </i>
    <i name="Edipol_quadrupol">      0.00000000 </i>
    <i name="Eion">      0.00000000 </i>
   </dipole>
   <energy>
    <i name="e_fr_energy">   -189.11740653 </i>
    <i name="e_wo_entrp">   -188.85465800 </i>
    <i name="e_0_energy">   -188.98603227 </i>
   </energy>
  </scstep>
  <scstep>
   <time name="diag">    1.20    1.20</time>
   <time name="diis">    2.16    2.17</time>
   <time name="orth">    0.27    0.28</time>
   <time name="total">    3.69    3.70</time>
   <dipole>
    <v name="dipole">      0.00000000       0.00000000       0.02103585 </v>
    <i name="Tr[quadrupol]"> -10217.60257572 </i>
    <i name="Echarged">      0.00000000 </i>
    <i name="Edipol_quadrupol">      0.00000000 </i>
    <i name="Eion">      0.00000000 </i>
   </dipole>
   <energy>
    <i name="alphaZ">    805.86604624 </i>
    <i name="ewald"> 198866.67179597 </i>
    <i name="hartreedc">-241055.40970789 </i>
    <i name="XCdc">   -344.50588754 </i>
    <i name="pawpsdc">  49158.37259644 </i>
    <i name="pawaedc"> -47235.37825706 </i>
    <i name="eentropy">     -0.26273602 </i>
    <i name="bandstr">  -2044.25712917 </i>
    <i name="atom">  41659.78587232 </i>
    <i name="e_fr_energy">   -189.11740670 </i>
    <i name="e_wo_entrp">   -188.85467068 </i>
    <i name="e_0_energy">   -188.98603869 </i>
   </energy>
  </scstep>
  <structure>
   <crystal>
    <varray name="basis" >
     <v>      11.00258152       0.00000000       0.00000000 </v>
     <v>       5.50129076       9.52851510       0.00000000 </v>
     <v>       0.00000000       0.00000000      24.49178509 </v>
    </varray>
    <i name="volume">   2567.67623402 </i>
    <varray name="rec_basis" >
     <v>       0.09088776      -0.05247407       0.00000000 </v>
     <v>       0.00000000       0.10494815       0.00000000 </v>
     <v>       0.00000000       0.00000000       0.04083002 </v>
    </varray>
   </crystal>
   <varray name="positions" >
    <v>       0.08333333       0.08333333       0.40830017 </v>
    <v>       0.49866234       0.75099848       0.59347013 </v>
    <v>       0.91730719       0.16619252       0.50088770 </v>
    <v>       0.83333333       0.83333333       0.40830017 </v>
    <v>       0.08333333       0.33333333       0.40830017 </v>
    <v>       0.91608749       0.41759004       0.49963963 </v>
    <v>       0.00138372       0.24816962       0.59385447 </v>
    <v>       0.08333333       0.58333333       0.40830017 </v>
    <v>       0.74892863       0.49973638       0.59392120 </v>
    <v>      -0.00021958       0.50052151       0.59396566 </v>
    <v>       0.08333333       0.83333333       0.40830017 </v>
    <v>       0.91899284       0.91521568       0.50050876 </v>
    <v>       0.66566261       0.91621295       0.50036571 </v>
    <v>       0.66625091       0.66638205       0.49965821 </v>
    <v>       0.58333333       0.33333333       0.40830017 </v>
    <v>       0.58333333       0.83333333       0.40830017 </v>
    <v>       0.41569606       0.16663322       0.50005077 </v>
    <v>       0.16812152       0.41621169       0.49992454 </v>
    <v>       0.83333333       0.33333333       0.40830017 </v>
    <v>       0.74929893       0.00066234       0.59419372 </v>
    <v>       0.66476724       0.16900576       0.50046214 </v>
    <v>       0.25170693       0.49964797       0.59353807 </v>
    <v>       0.83333333       0.08333333       0.40830017 </v>
    <v>       0.00032874       0.75018131       0.59359045 </v>
    <v>       0.33333333       0.33333333       0.40830017 </v>
    <v>       0.58333333       0.58333333       0.40830017 </v>
    <v>       0.25104013       0.24865583       0.59288018 </v>
    <v>       0.16837548       0.66674317       0.49997088 </v>
    <v>       0.41669062       0.41814888       0.50003417 </v>
    <v>       0.16842579       0.91579562       0.50042822 </v>
    <v>       0.58333333       0.08333333       0.40830017 </v>
    <v>       0.49914881       0.00046731       0.59283904 </v>
    <v>       0.24996290      -0.00009236       0.59241868 </v>
    <v>       0.33333333       0.83333333       0.40830017 </v>
    <v>       0.16854918       0.16459540       0.50021182 </v>
    <v>       0.25021364       0.75048465       0.59230467 </v>
    <v>       0.91654493       0.66660523       0.49996549 </v>
    <v>       0.00115082      -0.00035499       0.59281392 </v>
    <v>       0.49985519       0.25040252       0.59285407 </v>
    <v>       0.41579410       0.66654347       0.49975859 </v>
    <v>       0.41464794       0.91718802       0.50000857 </v>
    <v>       0.83333333       0.58333333       0.40830017 </v>
    <v>       0.49977196       0.49956796       0.59241860 </v>
    <v>       0.66484600       0.41761139       0.50018890 </v>
    <v>       0.74907245       0.25053186       0.59290228 </v>
    <v>       0.33333333       0.58333333       0.40830017 </v>
    <v>       0.33333333       0.08333333       0.40830017 </v>
    <v>       0.74965923       0.75047286       0.59299024 </v>
   </varray>
  </structure>
  <varray name="forces" >
   <v>       0.49811396      -0.29373154      -1.29015465 </v>
   <v>      -0.13426691       0.14340821       0.91988393 </v>
   <v>       0.09738663      -0.01863297       0.62551994 </v>
   <v>      -0.23385136      -0.12277671      -1.52932228 </v>
   <v>       0.24608172      -0.18319606      -1.56857734 </v>
   <v>       0.01306122       0.07515543       0.35397785 </v>
   <v>       0.12840881      -0.18577381       1.13830805 </v>
   <v>       0.15189907      -0.03967345      -1.31531305 </v>
   <v>      -0.19414170      -0.04860157       1.14125078 </v>
   <v>       0.00049275       0.00108872       1.12169255 </v>
   <v>       0.49427111      -0.26981073      -1.33797440 </v>
   <v>       0.16062777      -0.17203841       0.56115285 </v>
   <v>      -0.11408039       0.02931902       0.47084972 </v>
   <v>      -0.23935897      -0.06419123       0.23765117 </v>
   <v>      -0.34107250       0.36625449      -1.37865145 </v>
   <v>      -0.37732466       0.08961076      -1.51068288 </v>
   <v>      -0.11185900      -0.01344139       0.19292953 </v>
   <v>       0.20118646      -0.00159204       0.37042947 </v>
   <v>      -0.18653971       0.44711761      -1.52454605 </v>
   <v>      -0.05885257       0.13322927       1.26651086 </v>
   <v>      -0.13774828       0.17096761       0.46704010 </v>
   <v>       0.23744417      -0.06404532       1.00780326 </v>
   <v>      -0.26753492       0.01454217      -1.70135134 </v>
   <v>       0.09838912       0.00072111       1.03818682 </v>
   <v>       0.16960281      -0.10412644      -0.83561277 </v>
   <v>      -0.25262740       0.08883532      -0.64586464 </v>
   <v>       0.07651660      -0.18396783       0.68566846 </v>
   <v>       0.31517416      -0.05660637       0.23156864 </v>
   <v>       0.07621486       0.30014055       0.16023983 </v>
   <v>       0.26544668      -0.15282852       0.27137458 </v>
   <v>      -0.20224289       0.11608046      -0.96252497 </v>
   <v>      -0.12490266       0.08726052       0.65585524 </v>
   <v>       0.00281028      -0.02649180       0.52682612 </v>
   <v>       0.04685238      -0.15924779      -0.41796252 </v>
   <v>       0.06718826      -0.25075322       0.28184602 </v>
   <v>       0.09098063       0.06958405       0.41595335 </v>
   <v>       0.05059658      -0.04586073       0.29350763 </v>
   <v>       0.15938711      -0.09285655       0.70489343 </v>
   <v>      -0.03010201       0.05154661       0.68204124 </v>
   <v>      -0.08896871       0.01689354       0.02772982 </v>
   <v>      -0.33709735      -0.03617187       0.14937002 </v>
   <v>      -0.07586163       0.05666287      -0.94193163 </v>
   <v>      -0.06979556      -0.03227750       0.48016305 </v>
   <v>      -0.15852262       0.21329582       0.27935197 </v>
   <v>      -0.11667585       0.08207457       0.73283069 </v>
   <v>       0.22904892       0.01050167      -0.50208852 </v>
   <v>       0.05399238      -0.01811318      -0.72894516 </v>
   <v>      -0.07774679       0.07251667       0.69909666 </v>
  </varray>
  <energy>
   <i name="e_fr_energy">   -189.11740670 </i>
   <i name="e_wo_entrp">   -188.98603869 </i>
   <i name="e_0_energy">     -0.26273602 </i>
  </energy>
  <time name="totalsc">   79.02   79.49</time>
 </calculation>
 <calculation>
  <scstep>
   <time name="dav">    6.80    6.85</time>
   <time name="total">    7.10    7.15</time>
   <dipole>
    <v name="dipole">      0.00000000       0.00000000       0.02094549 </v>
    <i name="Tr[quadrupol]"> -10225.58931513 </i>
    <i name="Echarged">      0.00000000 </i>
    <i name="Edipol_quadrupol">      0.00000000 </i>
    <i name="Eion">      0.00000000 </i>
   </dipole>
   <energy>
    <i name="alphaZ">    805.83630442 </i>
    <i name="ewald"> 194994.03005593 </i>
    <i name="hartreedc">-237204.48439081 </i>
    <i name="XCdc">   -347.24447717 </i>
    <i name="pawpsdc">  49158.32594689 </i>
    <i name="pawaedc"> -47235.33178365 </i>
    <i name="eentropy">     -0.25027366 </i>
    <i name="bandstr">  -2018.97234887 </i>
    <i name="atom">  41659.78587232 </i>
    <i name="e_fr_energy">   -188.30509460 </i>
    <i name="e_wo_entrp">   -188.05482095 </i>
    <i name="e_0_energy">   -188.17995777 </i>
   </energy>
  </scstep>
  <scstep>
   <time name="diag">    1.21    1.22</time>
   <time name="diis">    3.34    3.35</time>
   <time name="orth">    0.28    0.28</time>
   <time name="total">    5.11    5.13</time>
   <dipole>
    <v name="dipole">      0.00000000       0.00000000       0.11939075 </v>
    <i name="Tr[quadrupol]"> -10225.06823024 </i>
    <i name="Echarged">      0.00000000 </i>
    <i name="Edipol_quadrupol">      0.00000000 </i>
    <i name="Eion">      0.00000000 </i>
   </dipole>
   <energy>
    <i name="e_fr_energy">   -190.25461060 </i>
    <i name="e_wo_entrp">   -190.01234783 </i>
    <i name="e_0_energy">   -190.13347921 </i>
   </energy>
  </scstep>
  <scstep>
   <time name="diag">    1.20    1.21</time>
   <time name="diis">    3.44    3.45</time>
   <time name="orth">    0.28    0.28</time>
   <time name="total">    5.21    5.23</time>
   <dipole>
    <v name="dipole">      0.00000000       0.00000000      -0.14613022 </v>
    <i name="Tr[quadrupol]"> -10225.67617644 </i>
    <i name="Echarged">      0.00000000 </i>
    <i name="Edipol_quadrupol">      0.00000000 </i>
    <i name="Eion">      0.00000000 </i>
   </dipole>
   <energy>
    <i name="e_fr_energy">   -190.82321481 </i>
    <i name="e_wo_entrp">   -190.59523762 </i>
    <i name="e_0_energy">   -190.70922621 </i>
   </energy>
  </scstep>
  <scstep>
   <time name="diag">    1.19    1.20</time>
   <time name="diis">    3.37    3.38</time>
   <time name="orth">    0.28    0.28</time>
   <time name="total">    5.12    5.14</time>
   <dipole>
    <v name="dipole">      0.00000000       0.00000000       0.10655622 </v>
    <i name="Tr[quadrupol]"> -10225.62247825 </i>
    <i name="Echarged">      0.00000000 </i>
    <i name="Edipol_quadrupol">      0.00000000 </i>
    <i name="Eion">      0.00000000 </i>
   </dipole>
   <energy>
    <i name="e_fr_energy">   -190.22422105 </i>
    <i name="e_wo_entrp">   -189.98593770 </i>
    <i name="e_0_energy">   -190.10507937 </i>
   </energy>
  </scstep>
  <scstep>
   <time name="diag">    1.20    1.21</time>
   <time name="diis">    3.34    3.35</time>
   <time name="orth">    0.28    0.28</time>
   <time name="total">    5.10    5.12</time>
   <dipole>
    <v name="dipole">      0.00000000       0.00000000      -0.02169267 </v>
    <i name="Tr[quadrupol]"> -10225.57378019 </i>
    <i name="Echarged">      0.00000000 </i>
    <i name="Edipol_quadrupol">      0.00000000 </i>
    <i name="Eion">      0.00000000 </i>
   </dipole>
   <energy>
    <i name="e_fr_energy">   -190.11211810 </i>
    <i name="e_wo_entrp">   -189.85487881 </i>
    <i name="e_0_energy">   -189.98349846 </i>
   </energy>
  </scstep>
  <scstep>
   <time name="diag">    1.20    1.22</time>
   <time name="diis">    3.27    3.28</time>
   <time name="orth">    0.28    0.28</time>
   <time name="total">    5.04    5.07</time>
   <dipole>
    <v name="dipole">      0.00000000       0.00000000       0.10254574 </v>
    <i name="Tr[quadrupol]"> -10225.61966455 </i>
    <i name="Echarged">      0.00000000 </i>
    <i name="Edipol_quadrupol">      0.00000000 </i>
    <i name="Eion">      0.00000000 </i>
   </dipole>
   <energy>
[...]
       <r>    -9.3896     0.0000     0.0000 </r>
       <r>    -9.3356     0.0000     0.0000 </r>
       <r>    -9.2815     0.0000     0.0000 </r>
       <r>    -9.2275     0.0000     0.0000 </r>
       <r>    -9.1735     0.0001     0.0000 </r>
       <r>    -9.1194     0.0027     0.0002 </r>
       <r>    -9.0654     0.0366     0.0021 </r>
       <r>    -9.0113     0.2878     0.0177 </r>
       <r>    -8.9573     1.3131     0.0887 </r>
       <r>    -8.9032     3.4963     0.2776 </r>
       <r>    -8.8492     5.5585     0.5780 </r>
       <r>    -8.7951     5.8182     0.8925 </r>
       <r>    -8.7411     5.3340     1.1808 </r>
       <r>    -8.6870     5.4196     1.4737 </r>
       <r>    -8.6330     4.8906     1.7380 </r>
       <r>    -8.5789     3.1259     1.9070 </r>
       <r>    -8.5249     1.3552     1.9802 </r>
       <r>    -8.4708     0.6054     2.0129 </r>
       <r>    -8.4168     0.9307     2.0632 </r>
       <r>    -8.3627     1.8287     2.1620 </r>
       <r>    -8.3087     2.6579     2.3057 </r>
       <r>    -8.2547     3.4110     2.4901 </r>
       <r>    -8.2006     4.1761     2.7158 </r>
       <r>    -8.1466     4.5215     2.9601 </r>
       <r>    -8.0925     4.6727     3.2127 </r>
       <r>    -8.0385     4.9128     3.4782 </r>
       <r>    -7.9844     4.9277     3.7445 </r>
       <r>    -7.9304     5.1908     4.0251 </r>
       <r>    -7.8763     6.7223     4.3884 </r>
       <r>    -7.8223     9.0069     4.8752 </r>
       <r>    -7.7682     9.5474     5.3912 </r>
       <r>    -7.7142     7.3341     5.7876 </r>
       <r>    -7.6601     5.2637     6.0721 </r>
       <r>    -7.6061     6.5076     6.4238 </r>
       <r>    -7.5520    10.0171     6.9652 </r>
       <r>    -7.4980    12.2630     7.6280 </r>
       <r>    -7.4439    12.2126     8.2880 </r>
       <r>    -7.3899    11.6717     8.9188 </r>
       <r>    -7.3359    12.3097     9.5841 </r>
       <r>    -7.2818    14.7890    10.3834 </r>
       <r>    -7.2278    18.2445    11.3695 </r>
       <r>    -7.1737    19.9841    12.4496 </r>
       <r>    -7.1197    19.9515    13.5279 </r>
       <r>    -7.0656    22.0622    14.7203 </r>
       <r>    -7.0116    27.4935    16.2062 </r>
       <r>    -6.9575    32.9628    17.9878 </r>
       <r>    -6.9035    35.8922    19.9276 </r>
       <r>    -6.8494    36.1305    21.8804 </r>
       <r>    -6.7954    34.9272    23.7681 </r>
       <r>    -6.7413    34.8037    25.6491 </r>
       <r>    -6.6873    37.6764    27.6854 </r>
       <r>    -6.6332    43.2343    30.0221 </r>
       <r>    -6.5792    49.1355    32.6777 </r>
       <r>    -6.5252    53.8758    35.5896 </r>
       <r>    -6.4711    58.4520    38.7487 </r>
       <r>    -6.4171    62.5683    42.1303 </r>
       <r>    -6.3630    64.6324    45.6235 </r>
       <r>    -6.3090    64.8749    49.1298 </r>
       <r>    -6.2549    64.4230    52.6117 </r>
       <r>    -6.2009    64.4181    56.0933 </r>
       <r>    -6.1468    65.3960    59.6278 </r>
       <r>    -6.0928    66.9664    63.2471 </r>
       <r>    -6.0387    69.1346    66.9836 </r>
       <r>    -5.9847    71.6183    70.8544 </r>
       <r>    -5.9306    73.8441    74.8454 </r>
       <r>    -5.8766    75.2738    78.9137 </r>
       <r>    -5.8225    74.5099    82.9408 </r>
       <r>    -5.7685    70.7016    86.7620 </r>
       <r>    -5.7144    66.4517    90.3535 </r>
       <r>    -5.6604    65.6739    93.9030 </r>
       <r>    -5.6064    68.5475    97.6078 </r>
       <r>    -5.5523    72.0594   101.5024 </r>
       <r>    -5.4983    74.2029   105.5128 </r>
       <r>    -5.4442    76.2404   109.6334 </r>
       <r>    -5.3902    80.0037   113.9573 </r>
       <r>    -5.3361    83.7535   118.4839 </r>
       <r>    -5.2821    84.4264   123.0469 </r>
       <r>    -5.2280    82.1811   127.4886 </r>
       <r>    -5.1740    80.1451   131.8202 </r>
       <r>    -5.1199    80.7126   136.1825 </r>
       <r>    -5.0659    82.5248   140.6427 </r>
       <r>    -5.0118    83.2839   145.1439 </r>
       <r>    -4.9578    82.8492   149.6217 </r>
       <r>    -4.9037    82.1997   154.0643 </r>
       <r>    -4.8497    82.0588   158.4994 </r>
       <r>    -4.7956    82.1651   162.9401 </r>
       <r>    -4.7416    82.9198   167.4217 </r>
       <r>    -4.6876    85.6399   172.0503 </r>
       <r>    -4.6335    89.6778   176.8971 </r>
       <r>    -4.5795    92.9327   181.9198 </r>
       <r>    -4.5254    93.7728   186.9880 </r>
       <r>    -4.4714    92.0094   191.9608 </r>
       <r>    -4.4173    89.1100   196.7769 </r>
       <r>    -4.3633    86.8698   201.4720 </r>
       <r>    -4.3092    85.8024   206.1093 </r>
       <r>    -4.2552    84.6931   210.6867 </r>
       <r>    -4.2011    83.5853   215.2043 </r>
       <r>    -4.1471    83.5079   219.7176 </r>
       <r>    -4.0930    83.3988   224.2251 </r>
       <r>    -4.0390    83.5125   228.7387 </r>
       <r>    -3.9849    85.7895   233.3753 </r>
       <r>    -3.9309    89.4609   238.2104 </r>
       <r>    -3.8768    92.6735   243.2192 </r>
       <r>    -3.8228    95.9566   248.4053 </r>
       <r>    -3.7688    99.5054   253.7833 </r>
       <r>    -3.7147   100.8032   259.2314 </r>
       <r>    -3.6607    99.4674   264.6073 </r>
       <r>    -3.6066    98.9576   269.9557 </r>
       <r>    -3.5526   100.5912   275.3923 </r>
       <r>    -3.4985   101.6308   280.8852 </r>
       <r>    -3.4445   100.1108   286.2959 </r>
       <r>    -3.3904    98.0003   291.5925 </r>
       <r>    -3.3364    98.1963   296.8997 </r>
       <r>    -3.2823    99.9188   302.3000 </r>
       <r>    -3.2283    99.7889   307.6933 </r>
       <r>    -3.1742    96.9095   312.9310 </r>
       <r>    -3.1202    93.5003   317.9844 </r>
       <r>    -3.0661    91.8545   322.9488 </r>
       <r>    -3.0121    92.8607   327.9677 </r>
       <r>    -2.9580    95.1223   333.1088 </r>
       <r>    -2.9040    96.4616   338.3222 </r>
       <r>    -2.8500    95.6627   343.4925 </r>
       <r>    -2.7959    92.8194   348.5091 </r>
       <r>    -2.7419    89.8931   353.3676 </r>
       <r>    -2.6878    88.6130   358.1568 </r>
       <r>    -2.6338    89.0426   362.9693 </r>
       <r>    -2.5797    90.3669   367.8534 </r>
       <r>    -2.5257    91.9307   372.8220 </r>
       <r>    -2.4716    93.8153   377.8924 </r>
       <r>    -2.4176    95.5277   383.0554 </r>
       <r>    -2.3635    96.1981   388.2546 </r>
       <r>    -2.3095    95.9271   393.4392 </r>
       <r>    -2.2554    94.9405   398.5704 </r>
       <r>    -2.2014    93.3564   403.6161 </r>
       <r>    -2.1473    91.8550   408.5805 </r>
       <r>    -2.0933    90.6496   413.4799 </r>
       <r>    -2.0392    88.9761   418.2888 </r>
       <r>    -1.9852    87.5891   423.0227 </r>
       <r>    -1.9312    88.7301   427.8183 </r>
       <r>    -1.8771    91.1164   432.7429 </r>
       <r>    -1.8231    91.8714   437.7082 </r>
       <r>    -1.7690    92.5582   442.7107 </r>
       <r>    -1.7150    95.5649   447.8757 </r>
       <r>    -1.6609    98.9927   453.2260 </r>
       <r>    -1.6069   100.2829   458.6460 </r>
       <r>    -1.5528    99.1660   464.0056 </r>
       <r>    -1.4988    96.7559   469.2350 </r>
       <r>    -1.4447    94.5039   474.3426 </r>
       <r>    -1.3907    93.3424   479.3875 </r>
       <r>    -1.3366    92.5620   484.3902 </r>
       <r>    -1.2826    89.9807   489.2534 </r>
       <r>    -1.2285    84.7438   493.8335 </r>
       <r>    -1.1745    77.2418   498.0082 </r>
       <r>    -1.1205    66.9483   501.6266 </r>
       <r>    -1.0664    53.5987   504.5234 </r>
       <r>    -1.0124    39.6501   506.6664 </r>
       <r>    -0.9583    27.8333   508.1707 </r>
       <r>    -0.9043    19.0546   509.2005 </r>
       <r>    -0.8502    13.8181   509.9474 </r>
       <r>    -0.7962    11.3474   510.5607 </r>
       <r>    -0.7421    10.3399   511.1195 </r>
       <r>    -0.6881    11.1704   511.7232 </r>
       <r>    -0.6340    13.6882   512.4630 </r>
       <r>    -0.5800    16.7601   513.3689 </r>
       <r>    -0.5259    20.0926   514.4548 </r>
       <r>    -0.4719    21.9732   515.6424 </r>
       <r>    -0.4178    19.5854   516.7009 </r>
       <r>    -0.3638    14.7578   517.4985 </r>
       <r>    -0.3097    12.8062   518.1907 </r>
       <r>    -0.2557    15.1815   519.0112 </r>
       <r>    -0.2017    18.7174   520.0228 </r>
       <r>    -0.1476    20.1635   521.1126 </r>
       <r>    -0.0936    18.4158   522.1079 </r>
       <r>    -0.0395    14.5757   522.8957 </r>
       <r>     0.0145    11.1998   523.5010 </r>
       <r>     0.0686    10.3911   524.0626 </r>
       <r>     0.1226    12.6055   524.7439 </r>
       <r>     0.1767    16.1671   525.6177 </r>
       <r>     0.2307    18.7486   526.6310 </r>
       <r>     0.2848    20.2400   527.7249 </r>
       <r>     0.3388    21.0758   528.8640 </r>
       <r>     0.3929    20.6239   529.9786 </r>
       <r>     0.4469    19.6413   531.0402 </r>
       <r>     0.5010    19.2168   532.0788 </r>
       <r>     0.5550    19.2599   533.1197 </r>
       <r>     0.6091    19.6446   534.1815 </r>
       <r>     0.6631    19.9421   535.2593 </r>
       <r>     0.7171    19.6974   536.3239 </r>
       <r>     0.7712    19.0640   537.3542 </r>
       <r>     0.8252    17.2937   538.2889 </r>
       <r>     0.8793    14.0790   539.0498 </r>
       <r>     0.9333    11.5903   539.6762 </r>
       <r>     0.9874    10.9910   540.2703 </r>
       <r>     1.0414    11.2590   540.8788 </r>
       <r>     1.0955    10.9872   541.4726 </r>
       <r>     1.1495     9.7020   541.9970 </r>
       <r>     1.2036     8.2616   542.4435 </r>
       <r>     1.2576     7.7415   542.8619 </r>
       <r>     1.3117     7.7522   543.2809 </r>
       <r>     1.3657     7.4095   543.6813 </r>
       <r>     1.4198     7.7076   544.0979 </r>
       <r>     1.4738    10.0471   544.6409 </r>
       <r>     1.5279    13.6863   545.3806 </r>
       <r>     1.5819    15.9236   546.2413 </r>
       <r>     1.6359    15.8991   547.1006 </r>
       <r>     1.6900    15.8455   547.9570 </r>
       <r>     1.7440    16.4304   548.8450 </r>
       <r>     1.7981    16.5552   549.7397 </r>
       <r>     1.8521    16.0586   550.6077 </r>
       <r>     1.9062    14.8256   551.4089 </r>
       <r>     1.9602    13.6166   552.1449 </r>
       <r>     2.0143    13.5910   552.8794 </r>
       <r>     2.0683    13.8584   553.6284 </r>
       <r>     2.1224    13.9583   554.3828 </r>
       <r>     2.1764    15.0660   555.1971 </r>
       <r>     2.2305    16.4832   556.0880 </r>
       <r>     2.2845    17.3661   557.0266 </r>
       <r>     2.3386    19.2109   558.0648 </r>
       <r>     2.3926    21.5454   559.2293 </r>
       <r>     2.4467    22.3898   560.4394 </r>
       <r>     2.5007    21.6376   561.6089 </r>
       <r>     2.5547    20.4347   562.7133 </r>
       <r>     2.6088    20.4163   563.8167 </r>
       <r>     2.6628    21.8719   564.9989 </r>
       <r>     2.7169    22.7292   566.2273 </r>
       <r>     2.7709    20.5557   567.3383 </r>
       <r>     2.8250    15.9108   568.1982 </r>
       <r>     2.8790    11.8426   568.8383 </r>
       <r>     2.9331     9.2227   569.3367 </r>
       <r>     2.9871     6.8299   569.7058 </r>
       <r>     3.0412     4.8225   569.9665 </r>
       <r>     3.0952     4.7732   570.2245 </r>
       <r>     3.1493     6.9127   570.5981 </r>
       <r>     3.2033     9.6931   571.1220 </r>
       <r>     3.2574    11.4731   571.7421 </r>
       <r>     3.3114    10.9407   572.3334 </r>
       <r>     3.3655     9.3911   572.8409 </r>
       <r>     3.4195     9.6484   573.3624 </r>
       <r>     3.4735    11.1830   573.9668 </r>
       <r>     3.5276    12.6745   574.6518 </r>
       <r>     3.5816    15.1059   575.4682 </r>
       <r>     3.6357    18.4284   576.4642 </r>
       <r>     3.6897    20.2822   577.5604 </r>
       <r>     3.7438    19.6063   578.6201 </r>
       <r>     3.7978    17.5027   579.5661 </r>
       <r>     3.8519    14.9394   580.3735 </r>
       <r>     3.9059    12.4661   581.0473 </r>
       <r>     3.9600    11.5074   581.6692 </r>
       <r>     4.0140    12.5313   582.3465 </r>
       <r>     4.0681    13.1014   583.0546 </r>
       <r>     4.1221    12.3087   583.7198 </r>
       <r>     4.1762    11.5819   584.3458 </r>
       <r>     4.2302    10.9291   584.9365 </r>
       <r>     4.2842     9.8638   585.4696 </r>
       <r>     4.3383     9.1697   585.9652 </r>
       <r>     4.3923    10.0524   586.5085 </r>
       <r>     4.4464    12.1020   587.1626 </r>
       <r>     4.5004    14.5062   587.9466 </r>
       <r>     4.5545    19.0056   588.9738 </r>
       <r>     4.6085    25.7123   590.3634 </r>
       <r>     4.6626    29.3826   591.9515 </r>
       <r>     4.7166    27.2026   593.4217 </r>
       <r>     4.7707    23.9498   594.7161 </r>
       <r>     4.8247    23.7675   596.0007 </r>
       <r>     4.8788    25.8577   597.3982 </r>
       <r>     4.9328    28.2561   598.9254 </r>
       <r>     4.9869    31.1442   600.6086 </r>
       <r>     5.0409    35.1144   602.5064 </r>
       <r>     5.0950    37.1106   604.5122 </r>
       <r>     5.1490    34.9782   606.4026 </r>
       <r>     5.2030    31.4301   608.1013 </r>
       <r>     5.2571    27.6658   609.5966 </r>
       <r>     5.3111    21.8286   610.7764 </r>
       <r>     5.3652    13.8382   611.5243 </r>
       <r>     5.4192     6.3913   611.8697 </r>
       <r>     5.4733     1.9767   611.9765 </r>
       <r>     5.5273     0.3854   611.9974 </r>
       <r>     5.5814     0.0456   611.9998 </r>
       <r>     5.6354     0.0032   612.0000 </r>
       <r>     5.6895     0.0001   612.0000 </r>
       <r>     5.7435     0.0000   612.0000 </r>
       <r>     5.7976     0.0000   612.0000 </r>
       <r>     5.8516     0.0000   612.0000 </r>
       <r>     5.9057     0.0000   612.0000 </r>
       <r>     5.9597     0.0000   612.0000 </r>
       <r>     6.0138     0.0000   612.0000 </r>
       <r>     6.0678     0.0000   612.0000 </r>
       <r>     6.1218     0.0000   612.0000 </r>
       <r>     6.1759     0.0000   612.0000 </r>
       <r>     6.2299     0.0000   612.0000 </r>
       <r>     6.2840     0.0000   612.0000 </r>
       <r>     6.3380     0.0000   612.0000 </r>
      </set>
     </set>
    </array>
   </total>
  </dos>
 </calculation>
 <structure name="finalpos" >
  <crystal>
   <varray name="basis" >
    <v>      11.00258152       0.00000000       0.00000000 </v>
    <v>       5.50129076       9.52851510       0.00000000 </v>
    <v>       0.00000000       0.00000000      24.49178509 </v>
   </varray>
   <i name="volume">   2567.67623402 </i>
   <varray name="rec_basis" >
    <v>       0.09088776      -0.05247407       0.00000000 </v>
    <v>       0.00000000       0.10494815       0.00000000 </v>
    <v>       0.00000000       0.00000000       0.04083002 </v>
   </varray>
  </crystal>
  <varray name="positions" >
   <v>       0.08333333       0.08333333       0.40830017 </v>
   <v>       0.49691794       0.75215503       0.60843923 </v>
   <v>       0.91893127       0.16638890       0.51288791 </v>
   <v>       0.83333333       0.83333333       0.40830017 </v>
   <v>       0.08333333       0.33333333       0.40830017 </v>
   <v>       0.91717089       0.41780921       0.51048129 </v>
   <v>       0.00304407       0.24647507       0.61446160 </v>
   <v>       0.08333333       0.58333333       0.40830017 </v>
   <v>       0.74752931       0.49923595       0.61381762 </v>
   <v>      -0.00003913       0.49976073       0.61529828 </v>
   <v>       0.08333333       0.83333333       0.40830017 </v>
   <v>       0.92078782       0.91354658       0.51261417 </v>
   <v>       0.66613893       0.91612407       0.51009758 </v>
   <v>       0.66584723       0.66556318       0.50799848 </v>
   <v>       0.58333333       0.33333333       0.40830017 </v>
   <v>       0.58333333       0.83333333       0.40830017 </v>
   <v>       0.41529245       0.16665891       0.50626829 </v>
   <v>       0.16857618       0.41758372       0.50963759 </v>
   <v>       0.83333333       0.33333333       0.40830017 </v>
   <v>       0.74729357       0.00201292       0.61600625 </v>
   <v>       0.66516145       0.16941801       0.51012254 </v>
   <v>       0.25381365       0.49884732       0.61028180 </v>
   <v>       0.83333333       0.08333333       0.40830017 </v>
   <v>       0.00107314       0.74952506       0.61253696 </v>
   <v>       0.33333333       0.33333333       0.40830017 </v>
   <v>       0.58333333       0.58333333       0.40830017 </v>
   <v>       0.25228057       0.24701036       0.60548898 </v>
   <v>       0.17009498       0.66643287       0.50782797 </v>
   <v>       0.41609689       0.42102740       0.50675412 </v>
   <v>       0.16973221       0.91525928       0.50674871 </v>
   <v>       0.58333333       0.08333333       0.40830017 </v>
   <v>       0.49707500       0.00173640       0.60521833 </v>
   <v>       0.24929270       0.00015037       0.60318835 </v>
   <v>       0.33333333       0.83333333       0.40830017 </v>
   <v>       0.16844048       0.16423669       0.50792398 </v>
   <v>       0.25026837       0.75093509       0.60201932 </v>
   <v>       0.91830183       0.66573031       0.50988624 </v>
   <v>       0.00259950      -0.00168460       0.60803008 </v>
   <v>       0.49886203       0.25020526       0.60544694 </v>
   <v>       0.41614551       0.66675728       0.50497642 </v>
   <v>       0.41359548       0.91550903       0.50640039 </v>
   <v>       0.83333333       0.58333333       0.40830017 </v>
   <v>       0.49955551       0.49974206       0.60260411 </v>
   <v>       0.66549794       0.41856525       0.50821832 </v>
   <v>       0.74737968       0.25099152       0.60764420 </v>
   <v>       0.33333333       0.58333333       0.40830017 </v>
   <v>       0.33333333       0.08333333       0.40830017 </v>
   <v>       0.74847902       0.75100489       0.60703632 </v>
  </varray>
  <varray name="selective"  type="logical" >
   <v type="logical" >  F  F  F </v>
   <v type="logical" >  T  T  T </v>
   <v type="logical" >  T  T  T </v>
   <v type="logical" >  F  F  F </v>
   <v type="logical" >  F  F  F </v>
   <v type="logical" >  T  T  T </v>
   <v type="logical" >  T  T  T </v>
   <v type="logical" >  F  F  F </v>
   <v type="logical" >  T  T  T </v>
   <v type="logical" >  T  T  T </v>
   <v type="logical" >  F  F  F </v>
   <v type="logical" >  T  T  T </v>
   <v type="logical" >  T  T  T </v>
   <v type="logical" >  T  T  T </v>
   <v type="logical" >  F  F  F </v>
   <v type="logical" >  F  F  F </v>
   <v type="logical" >  T  T  T </v>
   <v type="logical" >  T  T  T </v>
   <v type="logical" >  F  F  F </v>
   <v type="logical" >  T  T  T </v>
   <v type="logical" >  T  T  T </v>
   <v type="logical" >  T  T  T </v>
   <v type="logical" >  F  F  F </v>
   <v type="logical" >  T  T  T </v>
   <v type="logical" >  F  F  F </v>
   <v type="logical" >  F  F  F </v>
   <v type="logical" >  T  T  T </v>
   <v type="logical" >  T  T  T </v>
   <v type="logical" >  T  T  T </v>
   <v type="logical" >  T  T  T </v>
   <v type="logical" >  F  F  F </v>
   <v type="logical" >  T  T  T </v>
   <v type="logical" >  T  T  T </v>
   <v type="logical" >  F  F  F </v>
   <v type="logical" >  T  T  T </v>
   <v type="logical" >  T  T  T </v>
   <v type="logical" >  T  T  T </v>
   <v type="logical" >  T  T  T </v>
   <v type="logical" >  T  T  T </v>
   <v type="logical" >  T  T  T </v>
   <v type="logical" >  T  T  T </v>
   <v type="logical" >  F  F  F </v>
   <v type="logical" >  T  T  T </v>
   <v type="logical" >  T  T  T </v>
   <v type="logical" >  T  T  T </v>
   <v type="logical" >  F  F  F </v>
   <v type="logical" >  F  F  F </v>
   <v type="logical" >  T  T  T </v>
  </varray>
  <nose>
   <v>      -3.00000000       0.00000000       0.00010000       0.00010000 </v>
  </nose>
 </structure>
</modeling>
