unknown system                          
           1
    11.002582    0.000000    0.000000
     5.501291    9.528515    0.000000
     0.000000    0.000000   24.491785
   Au   Pd
  24  24
Direct configuration=     1
   0.08333333  0.08333333  0.40830017
   0.50000000  0.75000000  0.59169983
   0.91666667  0.16666667  0.50000000
   0.83333333  0.83333333  0.40830017
   0.08333333  0.33333333  0.40830017
   0.91666667  0.41666667  0.50000000
   0.00000000  0.25000000  0.59169983
   0.08333333  0.58333333  0.40830017
   0.75000000  0.50000000  0.59169983
   0.00000000  0.50000000  0.59169983
   0.08333333  0.83333333  0.40830017
   0.91666667  0.91666667  0.50000000
   0.66666667  0.91666667  0.50000000
   0.66666667  0.66666667  0.50000000
   0.58333333  0.33333333  0.40830017
   0.58333333  0.83333333  0.40830017
   0.41666667  0.16666667  0.50000000
   0.16666667  0.41666667  0.50000000
   0.83333333  0.33333333  0.40830017
   0.75000000  0.00000000  0.59169983
   0.66666667  0.16666667  0.50000000
   0.25000000  0.50000000  0.59169983
   0.83333333  0.08333333  0.40830017
   0.00000000  0.75000000  0.59169983
   0.33333333  0.33333333  0.40830017
   0.58333333  0.58333333  0.40830017
   0.25000000  0.25000000  0.59169983
   0.16666667  0.66666667  0.50000000
   0.41666667  0.41666667  0.50000000
   0.16666667  0.91666667  0.50000000
   0.58333333  0.08333333  0.40830017
   0.50000000  0.00000000  0.59169983
   0.25000000  0.00000000  0.59169983
   0.33333333  0.83333333  0.40830017
   0.16666667  0.16666667  0.50000000
   0.25000000  0.75000000  0.59169983
   0.91666667  0.66666667  0.50000000
   0.00000000  0.00000000  0.59169983
   0.50000000  0.25000000  0.59169983
   0.41666667  0.66666667  0.50000000
   0.41666667  0.91666667  0.50000000
   0.83333333  0.58333333  0.40830017
   0.50000000  0.50000000  0.59169983
   0.66666667  0.41666667  0.50000000
   0.75000000  0.25000000  0.59169983
   0.33333333  0.58333333  0.40830017
   0.33333333  0.08333333  0.40830017
   0.75000000  0.75000000  0.59169983
Direct configuration=     2
   0.08333333  0.08333333  0.40830017
   0.49866234  0.75099848  0.59347013
   0.91730719  0.16619252  0.50088770
   0.83333333  0.83333333  0.40830017
   0.08333333  0.33333333  0.40830017
   0.91608749  0.41759004  0.49963963
   0.00138372  0.24816962  0.59385447
   0.08333333  0.58333333  0.40830017
   0.74892863  0.49973638  0.59392120
  -0.00021958  0.50052151  0.59396566
   0.08333333  0.83333333  0.40830017
   0.91899284  0.91521568  0.50050876
   0.66566261  0.91621295  0.50036571
   0.66625091  0.66638205  0.49965821
   0.58333333  0.33333333  0.40830017
   0.58333333  0.83333333  0.40830017
   0.41569606  0.16663322  0.50005077
   0.16812152  0.41621169  0.49992454
   0.83333333  0.33333333  0.40830017
   0.74929893  0.00066234  0.59419372
   0.66476724  0.16900576  0.50046214
   0.25170693  0.49964797  0.59353807
   0.83333333  0.08333333  0.40830017
   0.00032874  0.75018131  0.59359045
   0.33333333  0.33333333  0.40830017
   0.58333333  0.58333333  0.40830017
   0.25104013  0.24865583  0.59288018
   0.16837548  0.66674317  0.49997088
   0.41669062  0.41814888  0.50003417
   0.16842579  0.91579562  0.50042822
   0.58333333  0.08333333  0.40830017
   0.49914881  0.00046731  0.59283904
   0.24996290 -0.00009236  0.59241868
   0.33333333  0.83333333  0.40830017
   0.16854918  0.16459540  0.50021182
   0.25021364  0.75048465  0.59230467
   0.91654493  0.66660523  0.49996549
   0.00115082 -0.00035499  0.59281392
   0.49985519  0.25040252  0.59285407
   0.41579410  0.66654347  0.49975859
   0.41464794  0.91718802  0.50000857
   0.83333333  0.58333333  0.40830017
   0.49977196  0.49956796  0.59241860
   0.66484600  0.41761139  0.50018890
   0.74907245  0.25053186  0.59290228
   0.33333333  0.58333333  0.40830017
   0.33333333  0.08333333  0.40830017
   0.74965923  0.75047286  0.59299024
Direct configuration=     3
   0.08333333  0.08333333  0.40830017
   0.49464935  0.75399392  0.59878103
   0.91922877  0.16477009  0.50355080
   0.83333333  0.83333333  0.40830017
   0.08333333  0.33333333  0.40830017
   0.91434996  0.42036017  0.49855852
   0.00553486  0.24267847  0.60031838
   0.08333333  0.58333333  0.40830017
   0.74571452  0.49894553  0.60058529
  -0.00087834  0.50208604  0.60076317
   0.08333333  0.83333333  0.40830017
   0.92597136  0.91086271  0.50203505
   0.66265043  0.91485179  0.50146284
   0.66500365  0.66552820  0.49863283
   0.58333333  0.33333333  0.40830017
   0.58333333  0.83333333  0.40830017
   0.41278423  0.16653289  0.50020309
   0.17248607  0.41484675  0.49969817
   0.83333333  0.33333333  0.40830017
   0.74719573  0.00264935  0.60167540
   0.65906897  0.17602306  0.50184854
   0.25682774  0.49859187  0.59905277
   0.83333333  0.08333333  0.40830017
   0.00131496  0.75072525  0.59926232
   0.33333333  0.33333333  0.40830017
   0.58333333  0.58333333  0.40830017
   0.25416051  0.24462331  0.59642122
   0.17350192  0.66697270  0.49988352
   0.41676248  0.42259551  0.50013666
   0.17370316  0.91318250  0.50171286
   0.58333333  0.08333333  0.40830017
   0.49659525  0.00186926  0.59625668
   0.24985160 -0.00036944  0.59457524
   0.33333333  0.83333333  0.40830017
   0.17419673  0.15838159  0.50084727
   0.25085457  0.75193861  0.59411919
   0.91617973  0.66642090  0.49986196
   0.00460327 -0.00141997  0.59615620
   0.49942077  0.25161009  0.59631679
   0.41317638  0.66617390  0.49903434
   0.40859176  0.91875209  0.50003427
   0.83333333  0.58333333  0.40830017
   0.49908785  0.49827185  0.59457491
   0.65938402  0.42044558  0.50075558
   0.74628981  0.25212744  0.59650963
   0.33333333  0.58333333  0.40830017
   0.33333333  0.08333333  0.40830017
   0.74863692  0.75189143  0.59686146
Direct configuration=     4
   0.08333333  0.08333333  0.40830017
   0.49495170  0.75382566  0.60074588
   0.91924180  0.16553874  0.50539553
   0.83333333  0.83333333  0.40830017
   0.08333333  0.33333333  0.40830017
   0.91521170  0.41934613  0.50100802
   0.00543545  0.24378514  0.60290312
   0.08333333  0.58333333  0.40830017
   0.74577558  0.49894810  0.60303727
  -0.00049037  0.50111303  0.60313255
   0.08333333  0.83333333  0.40830017
   0.92495103  0.91108894  0.50412715
   0.66273932  0.91615070  0.50339631
   0.66316121  0.66548881  0.50063465
   0.58333333  0.33333333  0.40830017
   0.58333333  0.83333333  0.40830017
   0.41416593  0.16614795  0.50131494
   0.17184352  0.41593439  0.50184636
   0.83333333  0.33333333  0.40830017
   0.74693054  0.00313739  0.60439342
   0.65980244  0.17379677  0.50355604
   0.25632585  0.49856645  0.60131304
   0.83333333  0.08333333  0.40830017
   0.00174584  0.75055888  0.60159060
   0.33333333  0.33333333  0.40830017
   0.58333333  0.58333333  0.40830017
   0.25410503  0.24505895  0.59797521
   0.17395877  0.66589495  0.50124780
   0.41506922  0.42383296  0.50107207
   0.17380321  0.91294223  0.50242695
   0.58333333  0.08333333  0.40830017
   0.49638133  0.00205464  0.59774269
   0.25028898 -0.00057218  0.59614317
   0.33333333  0.83333333  0.40830017
   0.17209399  0.15973830  0.50200777
   0.25097706  0.75169297  0.59528000
   0.91727633  0.66602027  0.50158193
   0.00471886 -0.00215464  0.59796532
   0.49906834  0.25117421  0.59791356
   0.41431295  0.66679710  0.49974010
   0.41005338  0.91638300  0.50091207
   0.83333333  0.58333333  0.40830017
   0.49914244  0.49893143  0.59579897
   0.66008844  0.42165374  0.50202420
   0.74637422  0.25195930  0.59823938
   0.33333333  0.58333333  0.40830017
   0.33333333  0.08333333  0.40830017
   0.74781126  0.75204154  0.59830263
Direct configuration=     5
   0.08333333  0.08333333  0.40830017
   0.49560905  0.75345984  0.60501780
   0.91927011  0.16720992  0.50940629
   0.83333333  0.83333333  0.40830017
   0.08333333  0.33333333  0.40830017
   0.91708527  0.41714145  0.50633362
   0.00521931  0.24619121  0.60852277
   0.08333333  0.58333333  0.40830017
   0.74590832  0.49895367  0.60836826
   0.00035315  0.49899754  0.60828397
   0.08333333  0.83333333  0.40830017
   0.92273267  0.91158080  0.50867572
   0.66293260  0.91897474  0.50759999
   0.65915545  0.66540316  0.50498692
   0.58333333  0.33333333  0.40830017
   0.58333333  0.83333333  0.40830017
   0.41716996  0.16531103  0.50373228
   0.17044651  0.41829910  0.50651686
   0.83333333  0.33333333  0.40830017
   0.74635399  0.00419847  0.61030282
   0.66139712  0.16895646  0.50726841
   0.25523465  0.49851119  0.60622723
   0.83333333  0.08333333  0.40830017
   0.00268264  0.75019716  0.60665266
   0.33333333  0.33333333  0.40830017
   0.58333333  0.58333333  0.40830017
   0.25398442  0.24600611  0.60135382
   0.17495202  0.66355174  0.50421397
   0.41138780  0.42652337  0.50310580
   0.17402073  0.91241986  0.50397948
   0.58333333  0.08333333  0.40830017
   0.49591624  0.00245769  0.60097353
   0.25123991 -0.00101297  0.59955209
   0.33333333  0.83333333  0.40830017
   0.16752230  0.16268799  0.50453088
   0.25124336  0.75115890  0.59780377
   0.91966054  0.66514923  0.50532144
   0.00497016 -0.00375192  0.60189864
   0.49830208  0.25022655  0.60138520
   0.41678401  0.66815203  0.50127453
   0.41323118  0.91123223  0.50282055
   0.83333333  0.58333333  0.40830017
   0.49926113  0.50036547  0.59846027
   0.66161997  0.42428048  0.50478239
   0.74655774  0.25159373  0.60200014
   0.33333333  0.58333333  0.40830017
   0.33333333  0.08333333  0.40830017
   0.74601613  0.75236791  0.60143597
Direct configuration=     6
   0.08333333  0.08333333  0.40830017
   0.49575278  0.75337986  0.60595180
   0.91927630  0.16757530  0.51028319
   0.83333333  0.83333333  0.40830017
   0.08333333  0.33333333  0.40830017
   0.91749489  0.41665943  0.50749799
   0.00517206  0.24671727  0.60975143
   0.08333333  0.58333333  0.40830017
   0.74593735  0.49895489  0.60953380
   0.00053757  0.49853502  0.60941025
   0.08333333  0.83333333  0.40830017
   0.92224766  0.91168833  0.50967020
   0.66297486  0.91959218  0.50851907
   0.65827965  0.66538443  0.50593848
   0.58333333  0.33333333  0.40830017
   0.58333333  0.83333333  0.40830017
   0.41782675  0.16512805  0.50426080
   0.17014107  0.41881611  0.50753800
   0.83333333  0.33333333  0.40830017
   0.74622793  0.00443046  0.61159483
   0.66174577  0.16789820  0.50808007
   0.25499607  0.49849911  0.60730164
   0.83333333  0.08333333  0.40830017
   0.00288746  0.75011808  0.60775940
   0.33333333  0.33333333  0.40830017
   0.58333333  0.58333333  0.40830017
   0.25395805  0.24621319  0.60209250
   0.17516917  0.66303943  0.50486248
   0.41058290  0.42711159  0.50355045
   0.17406829  0.91230565  0.50431892
   0.58333333  0.08333333  0.40830017
   0.49581455  0.00254581  0.60167990
   0.25144781 -0.00110934  0.60029740
   0.33333333  0.83333333  0.40830017
   0.16652276  0.16333290  0.50508252
   0.25130159  0.75104214  0.59835556
   0.92018181  0.66495879  0.50613903
   0.00502511 -0.00410115  0.60275860
   0.49813454  0.25001936  0.60214422
   0.41732428  0.66844827  0.50161002
   0.41392597  0.91010609  0.50323781
   0.83333333  0.58333333  0.40830017
   0.49928708  0.50067900  0.59904213
   0.66195482  0.42485478  0.50538543
   0.74659786  0.25151381  0.60282238
   0.33333333  0.58333333  0.40830017
   0.33333333  0.08333333  0.40830017
   0.74562365  0.75243927  0.60212103
Direct configuration=     7
   0.08333333  0.08333333  0.40830017
   0.49650901  0.75264350  0.60794224
   0.91724167  0.16714415  0.51167337
   0.83333333  0.83333333  0.40830017
   0.08333333  0.33333333  0.40830017
   0.91709820  0.41832856  0.50978870
   0.00428104  0.24680763  0.61215086
   0.08333333  0.58333333  0.40830017
   0.74712762  0.49912073  0.61178150
  -0.00012562  0.49964098  0.61161549
   0.08333333  0.83333333  0.40830017
   0.92133578  0.91264796  0.51129718
   0.66610326  0.91538095  0.50972936
   0.66435714  0.66644257  0.50790021
   0.58333333  0.33333333  0.40830017
   0.58333333  0.83333333  0.40830017
   0.41372757  0.16687885  0.50523858
   0.16893232  0.41720427  0.50938903
   0.83333333  0.33333333  0.40830017
   0.74719711  0.00316128  0.61413008
   0.66481327  0.16958363  0.50933202
   0.25411417  0.49877199  0.60946212
   0.83333333  0.08333333  0.40830017
   0.00179374  0.74908607  0.60993387
   0.33333333  0.33333333  0.40830017
   0.58333333  0.58333333  0.40830017
   0.25328724  0.24687821  0.60350361
   0.17170873  0.66607595  0.50652807
   0.41473755  0.42333855  0.50500065
   0.17077555  0.91375349  0.50520333
   0.58333333  0.08333333  0.40830017
   0.49596183  0.00224457  0.60335927
   0.25071533 -0.00020460  0.60163543
   0.33333333  0.83333333  0.40830017
   0.16786737  0.16425307  0.50656189
   0.25170572  0.75009905  0.59963624
   0.91848706  0.66536186  0.50809418
   0.00435684 -0.00288006  0.60481563
   0.49776229  0.25065074  0.60375134
   0.41551154  0.66760984  0.50295865
   0.41414218  0.91345171  0.50464805
   0.83333333  0.58333333  0.40830017
   0.49891062  0.50087124  0.60022262
   0.66422328  0.41949737  0.50671872
   0.74726233  0.25124967  0.60460598
   0.33333333  0.58333333  0.40830017
   0.33333333  0.08333333  0.40830017
   0.74701891  0.75154268  0.60366009
Direct configuration=     8
   0.08333333  0.08333333  0.40830017
   0.49661805  0.75253732  0.60822926
   0.91694827  0.16708197  0.51187383
   0.83333333  0.83333333  0.40830017
   0.08333333  0.33333333  0.40830017
   0.91704100  0.41856925  0.51011902
   0.00415255  0.24682066  0.61249687
   0.08333333  0.58333333  0.40830017
   0.74729925  0.49914465  0.61210562
  -0.00022125  0.49980047  0.61193348
   0.08333333  0.83333333  0.40830017
   0.92120429  0.91278633  0.51153179
   0.66655438  0.91477369  0.50990388
   0.66523352  0.66659516  0.50818309
   0.58333333  0.33333333  0.40830017
   0.58333333  0.83333333  0.40830017
   0.41313647  0.16713132  0.50537958
   0.16875802  0.41697185  0.50965595
   0.83333333  0.33333333  0.40830017
   0.74733686  0.00297827  0.61449566
   0.66525561  0.16982667  0.50951255
   0.25398699  0.49881134  0.60977366
   0.83333333  0.08333333  0.40830017
   0.00163602  0.74893725  0.61024743
   0.33333333  0.33333333  0.40830017
   0.58333333  0.58333333  0.40830017
   0.25319051  0.24697411  0.60370709
   0.17120973  0.66651382  0.50676824
   0.41533665  0.42279448  0.50520977
   0.17030074  0.91396227  0.50533086
   0.58333333  0.08333333  0.40830017
   0.49598307  0.00220113  0.60360143
   0.25060971 -0.00007414  0.60182838
   0.33333333  0.83333333  0.40830017
   0.16806127  0.16438576  0.50677522
   0.25176400  0.74996305  0.59982092
   0.91824267  0.66541999  0.50837611
   0.00426047 -0.00270397  0.60511225
   0.49770861  0.25074179  0.60398309
   0.41525014  0.66748894  0.50315313
   0.41417336  0.91393415  0.50485141
   0.83333333  0.58333333  0.40830017
   0.49885633  0.50089896  0.60039285
   0.66455039  0.41872483  0.50691098
   0.74735815  0.25121158  0.60486318
   0.33333333  0.58333333  0.40830017
   0.33333333  0.08333333  0.40830017
   0.74722011  0.75141339  0.60388202
Direct configuration=     9
   0.08333333  0.08333333  0.40830017
   0.49675369  0.75224381  0.60870638
   0.91829970  0.16669069  0.51190809
   0.83333333  0.83333333  0.40830017
   0.08333333  0.33333333  0.40830017
   0.91634061  0.41839804  0.51041137
   0.00363597  0.24621286  0.61323009
   0.08333333  0.58333333  0.40830017
   0.74755873  0.49912307  0.61284115
  -0.00056563  0.50044593  0.61290734
   0.08333333  0.83333333  0.40830017
   0.92048609  0.91316959  0.51180383
   0.66647370  0.91612891  0.50969765
   0.66672880  0.66521870  0.50823079
   0.58333333  0.33333333  0.40830017
   0.58333333  0.83333333  0.40830017
   0.41463507  0.16658912  0.50559977
   0.16832191  0.41769679  0.50972510
   0.83333333  0.33333333  0.40830017
   0.74761316  0.00221607  0.61520907
   0.66445304  0.16947168  0.50960118
   0.25386463  0.49899396  0.61033090
   0.83333333  0.08333333  0.40830017
   0.00090023  0.74911766  0.61099518
   0.33333333  0.33333333  0.40830017
   0.58333333  0.58333333  0.40830017
   0.25253786  0.24714115  0.60452747
   0.16955244  0.66669021  0.50729297
   0.41655374  0.42057258  0.50589899
   0.16885862  0.91576757  0.50579051
   0.58333333  0.08333333  0.40830017
   0.49659190  0.00201362  0.60418826
   0.24995333  0.00019536  0.60210965
   0.33333333  0.83333333  0.40830017
   0.16776213  0.16402099  0.50728367
   0.25141755  0.75009479  0.60045850
   0.91857716  0.66554655  0.50879258
   0.00397582 -0.00208321  0.60614696
   0.49828289  0.25079178  0.60444981
   0.41599380  0.66687951  0.50385421
   0.41356589  0.91576667  0.50558697
   0.83333333  0.58333333  0.40830017
   0.49897140  0.50049446  0.60094964
   0.66542692  0.41835476  0.50723573
   0.74748579  0.25133148  0.60601435
   0.33333333  0.58333333  0.40830017
   0.33333333  0.08333333  0.40830017
   0.74844594  0.75107341  0.60521677
Direct configuration=    10
   0.08333333  0.08333333  0.40830017
   0.49678914  0.75216712  0.60883105
   0.91865281  0.16658845  0.51191704
   0.83333333  0.83333333  0.40830017
   0.08333333  0.33333333  0.40830017
   0.91615761  0.41835331  0.51048776
   0.00350100  0.24605405  0.61342168
   0.08333333  0.58333333  0.40830017
   0.74762653  0.49911743  0.61303334
  -0.00065562  0.50061459  0.61316179
   0.08333333  0.83333333  0.40830017
   0.92029843  0.91326973  0.51187491
   0.66645262  0.91648302  0.50964376
   0.66711950  0.66485904  0.50824325
   0.58333333  0.33333333  0.40830017
   0.58333333  0.83333333  0.40830017
   0.41502664  0.16644744  0.50565731
   0.16820795  0.41788621  0.50974316
   0.83333333  0.33333333  0.40830017
   0.74768536  0.00201692  0.61539547
   0.66424334  0.16937893  0.50962434
   0.25383266  0.49904167  0.61047650
   0.83333333  0.08333333  0.40830017
   0.00070798  0.74916480  0.61119056
   0.33333333  0.33333333  0.40830017
   0.58333333  0.58333333  0.40830017
   0.25236732  0.24718480  0.60474182
   0.16911941  0.66673630  0.50743008
   0.41687175  0.41999202  0.50607907
   0.16848181  0.91623928  0.50591061
   0.58333333  0.08333333  0.40830017
   0.49675098  0.00196463  0.60434159
   0.24978183  0.00026577  0.60218314
   0.33333333  0.83333333  0.40830017
   0.16768397  0.16392568  0.50741652
   0.25132703  0.75012921  0.60062509
   0.91866456  0.66557962  0.50890140
   0.00390144 -0.00192100  0.60641732
   0.49843294  0.25080484  0.60457176
   0.41618812  0.66672027  0.50403739
   0.41340717  0.91624550  0.50577916
   0.83333333  0.58333333  0.40830017
   0.49900147  0.50038877  0.60109512
   0.66565595  0.41825807  0.50732058
   0.74751914  0.25136281  0.60631514
   0.33333333  0.58333333  0.40830017
   0.33333333  0.08333333  0.40830017
   0.74876624  0.75098457  0.60556552
Direct configuration=    11
   0.08333333  0.08333333  0.40830017
   0.49695609  0.75222900  0.60879458
   0.91860081  0.16653910  0.51196584
   0.83333333  0.83333333  0.40830017
   0.08333333  0.33333333  0.40830017
   0.91685421  0.41753119  0.51038678
   0.00315261  0.24619769  0.61377759
   0.08333333  0.58333333  0.40830017
   0.74747563  0.49918391  0.61336886
  -0.00044104  0.50007399  0.61379987
   0.08333333  0.83333333  0.40830017
   0.92008494  0.91381025  0.51199938
   0.66609320  0.91655041  0.50953385
   0.66592437  0.66548775  0.50805469
   0.58333333  0.33333333  0.40830017
   0.58333333  0.83333333  0.40830017
   0.41501604  0.16662557  0.50582229
   0.16861074  0.41763881  0.50958497
   0.83333333  0.33333333  0.40830017
   0.74759242  0.00210718  0.61562016
   0.66472159  0.16909607  0.50968160
   0.25390880  0.49897148  0.61054901
   0.83333333  0.08333333  0.40830017
   0.00084884  0.74982771  0.61157483
   0.33333333  0.33333333  0.40830017
   0.58333333  0.58333333  0.40830017
   0.25207444  0.24729578  0.60509353
   0.16969472  0.66621807  0.50761344
   0.41609143  0.42031393  0.50636601
   0.16899006  0.91591324  0.50617214
   0.58333333  0.08333333  0.40830017
   0.49720583  0.00177600  0.60459295
   0.24976405  0.00001671  0.60237069
   0.33333333  0.83333333  0.40830017
   0.16773950  0.16446069  0.50757288
   0.25071929  0.75058306  0.60094721
   0.91858585  0.66575032  0.50900207
   0.00340255 -0.00197389  0.60696640
   0.49890821  0.25049853  0.60483385
   0.41645273  0.66690190  0.50441039
   0.41354872  0.91575510  0.50614377
   0.83333333  0.58333333  0.40830017
   0.49939465  0.50000438  0.60146781
   0.66570335  0.41840806  0.50749223
   0.74757740  0.25109541  0.60683436
   0.33333333  0.58333333  0.40830017
   0.33333333  0.08333333  0.40830017
   0.74853920  0.75124618  0.60626725
Direct configuration=    12
   0.08333333  0.08333333  0.40830017
   0.49702625  0.75225500  0.60877926
   0.91857895  0.16651837  0.51198634
   0.83333333  0.83333333  0.40830017
   0.08333333  0.33333333  0.40830017
   0.91714693  0.41718573  0.51034435
   0.00300621  0.24625805  0.61392714
   0.08333333  0.58333333  0.40830017
   0.74741222  0.49921185  0.61350985
  -0.00035087  0.49984683  0.61406799
   0.08333333  0.83333333  0.40830017
   0.91999523  0.91403738  0.51205169
   0.66594217  0.91657873  0.50948766
   0.66542217  0.66575194  0.50797546
   0.58333333  0.33333333  0.40830017
   0.58333333  0.83333333  0.40830017
   0.41501158  0.16670042  0.50589161
   0.16878000  0.41753484  0.50951849
   0.83333333  0.33333333  0.40830017
   0.74755337  0.00214511  0.61571457
   0.66492256  0.16897721  0.50970565
   0.25394079  0.49894199  0.61057948
   0.83333333  0.08333333  0.40830017
   0.00090803  0.75010626  0.61173630
   0.33333333  0.33333333  0.40830017
   0.58333333  0.58333333  0.40830017
   0.25195137  0.24734242  0.60524132
   0.16993647  0.66600031  0.50769049
   0.41576353  0.42044920  0.50648658
   0.16920363  0.91577624  0.50628204
   0.58333333  0.08333333  0.40830017
   0.49739696  0.00169673  0.60469858
   0.24975658 -0.00008795  0.60244950
   0.33333333  0.83333333  0.40830017
   0.16776283  0.16468550  0.50763858
   0.25046392  0.75077378  0.60108257
   0.91855277  0.66582205  0.50904437
   0.00319291 -0.00199612  0.60719713
   0.49910792  0.25036982  0.60494398
   0.41656392  0.66697822  0.50456713
   0.41360820  0.91554903  0.50629698
   0.83333333  0.58333333  0.40830017
   0.49955987  0.49984285  0.60162442
   0.66572327  0.41847109  0.50756436
   0.74760188  0.25098305  0.60705254
   0.33333333  0.58333333  0.40830017
   0.33333333  0.08333333  0.40830017
   0.74844379  0.75135611  0.60656212
Direct configuration=    13
   0.08333333  0.08333333  0.40830017
   0.49704472  0.75221341  0.60870390
   0.91854900  0.16640075  0.51223243
   0.83333333  0.83333333  0.40830017
   0.08333333  0.33333333  0.40830017
   0.91713602  0.41772866  0.51030429
   0.00294527  0.24619333  0.61410234
   0.08333333  0.58333333  0.40830017
   0.74734982  0.49933545  0.61362511
  -0.00027797  0.49986751  0.61444172
   0.08333333  0.83333333  0.40830017
   0.92052720  0.91372480  0.51218084
   0.66590568  0.91606083  0.50961445
   0.66561896  0.66574156  0.50794407
   0.58333333  0.33333333  0.40830017
   0.58333333  0.83333333  0.40830017
   0.41491266  0.16664271  0.50607583
   0.16862586  0.41748675  0.50949178
   0.83333333  0.33333333  0.40830017
   0.74741678  0.00227031  0.61579993
   0.66491199  0.16945286  0.50983050
   0.25390296  0.49885727  0.61052219
   0.83333333  0.08333333  0.40830017
   0.00100694  0.74994464  0.61195967
   0.33333333  0.33333333  0.40830017
   0.58333333  0.58333333  0.40830017
   0.25218683  0.24715279  0.60534220
   0.17030038  0.66619205  0.50773413
   0.41577194  0.42095714  0.50659640
   0.16970491  0.91522983  0.50641438
   0.58333333  0.08333333  0.40830017
   0.49738005  0.00181851  0.60481491
   0.24967229 -0.00005835  0.60263235
   0.33333333  0.83333333  0.40830017
   0.16820451  0.16459057  0.50771272
   0.25045628  0.75089421  0.60132138
   0.91814076  0.66575606  0.50924107
   0.00275607 -0.00168141  0.60744522
   0.49906595  0.25021050  0.60508682
   0.41623827  0.66691716  0.50475840
   0.41346491  0.91549725  0.50640778
   0.83333333  0.58333333  0.40830017
   0.49970273  0.49976132  0.60186665
   0.66541476  0.41856891  0.50773935
   0.74766918  0.25077714  0.60722250
   0.33333333  0.58333333  0.40830017
   0.33333333  0.08333333  0.40830017
   0.74840694  0.75134278  0.60676194
Direct configuration=    14
   0.08333333  0.08333333  0.40830017
   0.49705022  0.75220105  0.60868149
   0.91854010  0.16636579  0.51230558
   0.83333333  0.83333333  0.40830017
   0.08333333  0.33333333  0.40830017
   0.91713278  0.41789004  0.51029239
   0.00292716  0.24617409  0.61415441
   0.08333333  0.58333333  0.40830017
   0.74733127  0.49937219  0.61365938
  -0.00025630  0.49987365  0.61455281
   0.08333333  0.83333333  0.40830017
   0.92068533  0.91363188  0.51221923
   0.66589483  0.91590689  0.50965214
   0.66567746  0.66573847  0.50793475
   0.58333333  0.33333333  0.40830017
   0.58333333  0.83333333  0.40830017
   0.41488326  0.16662555  0.50613058
   0.16858004  0.41747246  0.50948384
   0.83333333  0.33333333  0.40830017
   0.74737619  0.00230752  0.61582530
   0.66490885  0.16959424  0.50986761
   0.25389172  0.49883209  0.61050516
   0.83333333  0.08333333  0.40830017
   0.00103634  0.74989660  0.61202607
   0.33333333  0.33333333  0.40830017
   0.58333333  0.58333333  0.40830017
   0.25225682  0.24709643  0.60537219
   0.17040855  0.66624905  0.50774710
   0.41577444  0.42110812  0.50662904
   0.16985392  0.91506742  0.50645372
   0.58333333  0.08333333  0.40830017
   0.49737502  0.00185471  0.60484949
   0.24964724 -0.00004954  0.60268670
   0.33333333  0.83333333  0.40830017
   0.16833579  0.16456235  0.50773476
   0.25045401  0.75093001  0.60139236
   0.91801830  0.66573644  0.50929954
   0.00262622 -0.00158787  0.60751896
   0.49905347  0.25016315  0.60512928
   0.41614148  0.66689901  0.50481526
   0.41342232  0.91548186  0.50644072
   0.83333333  0.58333333  0.40830017
   0.49974519  0.49973709  0.60193865
   0.66532305  0.41859799  0.50779136
   0.74768919  0.25071593  0.60727302
   0.33333333  0.58333333  0.40830017
   0.33333333  0.08333333  0.40830017
   0.74839598  0.75133881  0.60682134
Direct configuration=    15
   0.08333333  0.08333333  0.40830017
   0.49701515  0.75219250  0.60859252
   0.91894065  0.16644566  0.51257658
   0.83333333  0.83333333  0.40830017
   0.08333333  0.33333333  0.40830017
   0.91690788  0.41807344  0.51032804
   0.00296546  0.24629277  0.61425897
   0.08333333  0.58333333  0.40830017
   0.74745774  0.49931653  0.61371344
  -0.00020665  0.49990345  0.61486985
   0.08333333  0.83333333  0.40830017
   0.92092918  0.91319650  0.51236473
   0.66600441  0.91599228  0.50985657
   0.66581381  0.66538569  0.50795313
   0.58333333  0.33333333  0.40830017
   0.58333333  0.83333333  0.40830017
   0.41530201  0.16654487  0.50624410
   0.16847875  0.41772827  0.50952910
   0.83333333  0.33333333  0.40830017
   0.74735145  0.00219462  0.61586951
   0.66466707  0.16961881  0.50999361
   0.25391245  0.49874550  0.61040285
   0.83333333  0.08333333  0.40830017
   0.00100175  0.74967233  0.61220370
   0.33333333  0.33333333  0.40830017
   0.58333333  0.58333333  0.40830017
   0.25237536  0.24696168  0.60543966
   0.17029774  0.66634894  0.50775831
   0.41586961  0.42129774  0.50668755
   0.16994960  0.91507337  0.50656072
   0.58333333  0.08333333  0.40830017
   0.49727230  0.00188007  0.60497202
   0.24947486  0.00009515  0.60289442
   0.33333333  0.83333333  0.40830017
   0.16830771  0.16426866  0.50781416
   0.25047696  0.75093651  0.60167382
   0.91802122  0.66580640  0.50953272
   0.00243842 -0.00145266  0.60771099
   0.49886570  0.25019910  0.60524411
   0.41615495  0.66676240  0.50490504
   0.41337305  0.91541751  0.50644937
   0.83333333  0.58333333  0.40830017
   0.49972400  0.49972340  0.60220719
   0.66527183  0.41885004  0.50795761
   0.74763569  0.25077953  0.60740584
   0.33333333  0.58333333  0.40830017
   0.33333333  0.08333333  0.40830017
   0.74845747  0.75126084  0.60691393
Direct configuration=    16
   0.08333333  0.08333333  0.40830017
   0.49700761  0.75219066  0.60857339
   0.91902679  0.16646283  0.51263486
   0.83333333  0.83333333  0.40830017
   0.08333333  0.33333333  0.40830017
   0.91685952  0.41811288  0.51033570
   0.00297370  0.24631829  0.61428146
   0.08333333  0.58333333  0.40830017
   0.74748494  0.49930456  0.61372507
  -0.00019598  0.49990986  0.61493804
   0.08333333  0.83333333  0.40830017
   0.92098162  0.91310286  0.51239602
   0.66602797  0.91601064  0.50990054
   0.66584314  0.66530981  0.50795708
   0.58333333  0.33333333  0.40830017
   0.58333333  0.83333333  0.40830017
   0.41539207  0.16652752  0.50626851
   0.16845697  0.41778329  0.50953884
   0.83333333  0.33333333  0.40830017
   0.74734613  0.00217034  0.61587902
   0.66461507  0.16962409  0.51002071
   0.25391691  0.49872688  0.61038085
   0.83333333  0.08333333  0.40830017
   0.00099431  0.74962410  0.61224190
   0.33333333  0.33333333  0.40830017
   0.58333333  0.58333333  0.40830017
   0.25240085  0.24693271  0.60545417
   0.17027391  0.66637042  0.50776072
   0.41589007  0.42133852  0.50670013
   0.16997017  0.91507464  0.50658373
   0.58333333  0.08333333  0.40830017
   0.49725020  0.00188553  0.60499837
   0.24943778  0.00012627  0.60293910
   0.33333333  0.83333333  0.40830017
   0.16830167  0.16420550  0.50783123
   0.25048189  0.75093791  0.60173435
   0.91802185  0.66582144  0.50958287
   0.00239803 -0.00142358  0.60775229
   0.49882531  0.25020683  0.60526881
   0.41615784  0.66673303  0.50492435
   0.41336246  0.91540367  0.50645123
   0.83333333  0.58333333  0.40830017
   0.49971944  0.49972045  0.60226494
   0.66526081  0.41890425  0.50799337
   0.74762418  0.25079321  0.60743440
   0.33333333  0.58333333  0.40830017
   0.33333333  0.08333333  0.40830017
   0.74847070  0.75124407  0.60693384
Direct configuration=    17
   0.08333333  0.08333333  0.40830017
   0.49698196  0.75221300  0.60849195
   0.91899576  0.16644560  0.51279267
   0.83333333  0.83333333  0.40830017