<?xml version="1.0" encoding="ISO-8859-1"?>
<modeling>
 <generator>
  <i name="program" type="string">vasp </i>
  <i name="version" type="string">5.4.1  </i>
  <i name="subversion" type="string">24Jun15 (build Mar 14 2019 10:18:33) complex                          parallel </i>
  <i name="platform" type="string">INTEL-19.0.2+OPENMPI-3.1.3 </i>
  <i name="date" type="string">2023 01 21 </i>
  <i name="time" type="string">19:13:42 </i>
 </generator>
 <incar>
  <i type="int" name="ISTART">     0</i>
  <i type="string" name="PREC">normal</i>
  <i type="string" name="ALGO"> Fast</i>
  <i type="int" name="NELM">   500</i>
  <i type="int" name="IBRION">     2</i>
  <i type="int" name="NFREE">     2</i>
  <i name="EDIFF">      0.00000100</i>
  <i name="EDIFFG">     -0.02000000</i>
  <i type="int" name="NSW">   500</i>
  <i type="int" name="ISIF">     0</i>
  <i type="int" name="ISYM">     2</i>
  <i name="ENCUT">    400.00000000</i>
  <i name="POTIM">      0.35000000</i>
  <i type="string" name="LREAL"> Auto</i>
  <i type="logical" name="LPLANE"> T  </i>
  <i type="int" name="ISMEAR">     0</i>
  <i name="SIGMA">      0.10000000</i>
  <i type="int" name="NWRITE">     1</i>
  <i type="logical" name="LWAVE"> F  </i>
  <i type="logical" name="LCHARG"> F  </i>
  <i type="logical" name="LVTOT"> F  </i>
  <i type="logical" name="LORBIT"> F  </i>
  <i type="logical" name="LAECHG"> F  </i>
  <v type="int" name="KPOINT_BSE">    -1     0     0     0</v>
  <i type="int" name="NELM">   500</i>
  <i type="string" name="GGA"> PE          ! optPBE-vdW XC-functional</i>
  <i type="int" name="VOSKOWN">     1</i>
  <i type="logical" name="LDIPOL"> T  </i>
  <i type="logical" name="LMONO"> F  </i>
  <i type="int" name="IDIPOL">     3</i>
  <v name="DIPOL">      0.00000000      0.00000000      0.50000000</v>
 </incar>
 <kpoints>
  <generation param="Monkhorst-Pack">
   <v type="int" name="divisions">       2        2        1 </v>
   <v name="usershift">      0.00000000       0.00000000       0.00000000 </v>
   <v name="genvec1">      0.50000000       0.00000000       0.00000000 </v>
   <v name="genvec2">      0.00000000       0.50000000       0.00000000 </v>
   <v name="genvec3">      0.00000000       0.00000000       1.00000000 </v>
   <v name="shift">      0.50000000       0.50000000       0.00000000 </v>
  </generation>
  <varray name="kpointlist" >
   <v>       0.25000000       0.25000000       0.00000000 </v>
   <v>       0.00000000       0.25000000       0.00000000 </v>
   <v>      -0.25000000       0.00000000       0.00000000 </v>
   <v>      -0.25000000       0.25000000       0.00000000 </v>
   <v>       0.50000000      -0.25000000       0.00000000 </v>
   <v>      -0.25000000       0.50000000       0.00000000 </v>
  </varray>
  <varray name="weights" >
   <v>       0.16666667 </v>
   <v>       0.16666667 </v>
   <v>       0.16666667 </v>
   <v>       0.16666667 </v>
   <v>       0.16666667 </v>
   <v>       0.16666667 </v>
  </varray>
 </kpoints>
 <parameters>
  <separator name="general" >
   <i type="string" name="SYSTEM">unknown system</i>
   <i type="logical" name="LCOMPAT"> F  </i>
  </separator>
  <separator name="electronic" >
   <i type="string" name="PREC">normal</i>
   <i name="ENMAX">    400.00000000</i>
   <i name="ENAUG">    605.39200000</i>
   <i name="EDIFF">      0.00000100</i>
   <i type="int" name="IALGO">    68</i>
   <i type="int" name="IWAVPR">    11</i>
   <i type="int" name="NBANDS">   336</i>
   <i name="NELECT">    552.00000000</i>
   <i type="int" name="TURBO">     0</i>
   <i type="int" name="IRESTART">     0</i>
   <i type="int" name="NREBOOT">     0</i>
   <i type="int" name="NMIN">     0</i>
   <i name="EREF">      0.00000000</i>
   <separator name="electronic smearing" >
    <i type="int" name="ISMEAR">     0</i>
    <i name="SIGMA">      0.10000000</i>
    <i name="KSPACING">      0.50000000</i>
    <i type="logical" name="KGAMMA"> T  </i>
   </separator>
   <separator name="electronic projectors" >
    <i type="logical" name="LREAL"> T  </i>
    <v name="ROPT">     -0.00050000     -0.00050000     -0.00050000</v>
    <i type="int" name="LMAXPAW">  -100</i>
    <i type="int" name="LMAXMIX">     2</i>
    <i type="logical" name="NLSPLINE"> F  </i>
   </separator>
   <separator name="electronic startup" >
    <i type="int" name="ISTART">     0</i>
    <i type="int" name="ICHARG">     2</i>
    <i type="int" name="INIWAV">     1</i>
   </separator>
   <separator name="electronic spin" >
    <i type="int" name="ISPIN">     1</i>
    <i type="logical" name="LNONCOLLINEAR"> F  </i>
    <v name="MAGMOM">      1.00000000      1.00000000      1.00000000      1.00000000      1.00000000      1.00000000      1.00000000      1.00000000      1.00000000      1.00000000      1.00000000      1.00000000      1.00000000      1.00000000      1.00000000      1.00000000      1.00000000      1.00000000      1.00000000      1.00000000
      1.00000000      1.00000000      1.00000000      1.00000000      1.00000000      1.00000000      1.00000000      1.00000000      1.00000000      1.00000000      1.00000000      1.00000000      1.00000000      1.00000000      1.00000000      1.00000000      1.00000000      1.00000000      1.00000000      1.00000000
      1.00000000      1.00000000      1.00000000      1.00000000      1.00000000      1.00000000      1.00000000      1.00000000      1.00000000      1.00000000      1.00000000      1.00000000      1.00000000      1.00000000      1.00000000      1.00000000</v>
    <i name="NUPDOWN">     -1.00000000</i>
    <i type="logical" name="LSORBIT"> F  </i>
    <v name="SAXIS">      0.00000000      0.00000000      1.00000000</v>
    <i type="logical" name="LSPIRAL"> F  </i>
    <v name="QSPIRAL">      0.00000000      0.00000000      0.00000000</v>
    <i type="logical" name="LZEROZ"> F  </i>
   </separator>
   <separator name="electronic exchange-correlation" >
    <i type="logical" name="LASPH"> F  </i>
    <i type="logical" name="LMETAGGA"> F  </i>
   </separator>
   <separator name="electronic convergence" >
    <i type="int" name="NELM">   500</i>
    <i type="int" name="NELMDL">    -5</i>
    <i type="int" name="NELMIN">     2</i>
    <i name="ENINI">    400.00000000</i>
    <separator name="electronic convergence detail" >
     <i type="logical" name="LDIAG"> T  </i>
     <i type="logical" name="LSUBROT"> F  </i>
     <i name="WEIMIN">      0.00100000</i>
     <i name="EBREAK">      0.00000000</i>
     <i name="DEPER">      0.30000000</i>
     <i type="int" name="NRMM">     4</i>
     <i name="TIME">      0.40000000</i>
    </separator>
   </separator>
   <separator name="electronic mixer" >
    <i name="AMIX">      0.40000000</i>
    <i name="BMIX">      1.00000000</i>
    <i name="AMIN">      0.10000000</i>
    <i name="AMIX_MAG">      1.60000000</i>
    <i name="BMIX_MAG">      1.00000000</i>
    <separator name="electronic mixer details" >
     <i type="int" name="IMIX">     4</i>
     <i type="logical" name="MIXFIRST"> F  </i>
     <i type="int" name="MAXMIX">   -45</i>
     <i name="WC">    100.00000000</i>
     <i type="int" name="INIMIX">     1</i>
     <i type="int" name="MIXPRE">     1</i>
     <i type="int" name="MREMOVE">     5</i>
    </separator>
   </separator>
   <separator name="electronic dipolcorrection" >
    <i type="logical" name="LDIPOL"> T  </i>
    <i type="logical" name="LMONO"> F  </i>
    <i type="int" name="IDIPOL">     3</i>
    <i name="EPSILON">      1.00000000</i>
    <v name="DIPOL">      0.00000000      0.00000000      0.50000000</v>
    <i name="EFIELD">      0.00000000</i>
   </separator>
  </separator>
  <separator name="grids" >
   <i type="int" name="NGX">    54</i>
   <i type="int" name="NGY">    54</i>
   <i type="int" name="NGZ">   128</i>
   <i type="int" name="NGXF">   108</i>
   <i type="int" name="NGYF">   108</i>
   <i type="int" name="NGZF">   256</i>
   <i type="logical" name="ADDGRID"> F  </i>
  </separator>
  <separator name="ionic" >
   <i type="int" name="NSW">   500</i>
   <i type="int" name="IBRION">     2</i>
   <i type="int" name="ISIF">     0</i>
   <i name="PSTRESS">      0.00000000</i>
   <i name="EDIFFG">     -0.02000000</i>
   <i type="int" name="NFREE">     2</i>
   <i name="POTIM">      0.35000000</i>
   <i name="SMASS">     -3.00000000</i>
   <i name="SCALEE">      1.00000000</i>
  </separator>
  <separator name="ionic md" >
   <i name="TEBEG">      0.00010000</i>
   <i name="TEEND">      0.00010000</i>
   <i type="int" name="NBLOCK">     1</i>
   <i type="int" name="KBLOCK">   500</i>
   <i type="int" name="NPACO">   256</i>
   <i name="APACO">     16.00000000</i>
  </separator>
  <separator name="symmetry" >
   <i type="int" name="ISYM">     2</i>
   <i name="SYMPREC">      0.00001000</i>
  </separator>
  <separator name="dos" >
   <i type="logical" name="LORBIT"> F  </i>
   <v name="RWIGS">     -1.00000000     -1.00000000     -1.00000000</v>
   <i type="int" name="NEDOS">   301</i>
   <i name="EMIN">     10.00000000</i>
   <i name="EMAX">    -10.00000000</i>
   <i name="EFERMI">      0.00000000</i>
  </separator>
  <separator name="writing" >
   <i type="int" name="NWRITE">     1</i>
   <i type="logical" name="LWAVE"> F  </i>
   <i type="logical" name="LCHARG"> F  </i>
   <i type="logical" name="LPARD"> F  </i>
   <i type="logical" name="LVTOT"> F  </i>
   <i type="logical" name="LVHAR"> F  </i>
   <i type="logical" name="LELF"> F  </i>
   <i type="logical" name="LOPTICS"> F  </i>
   <v name="STM">      0.00000000      0.00000000      0.00000000      0.00000000      0.00000000      0.00000000      0.00000000</v>
  </separator>
  <separator name="performance" >
   <i type="int" name="NPAR">     6</i>
   <i type="int" name="NSIM">     4</i>
   <i type="int" name="NBLK">    -1</i>
   <i type="logical" name="LPLANE"> T  </i>
   <i type="logical" name="LSCALAPACK"> T  </i>
   <i type="logical" name="LSCAAWARE"> F  </i>
   <i type="logical" name="LSCALU"> F  </i>
   <i type="logical" name="LASYNC"> F  </i>
   <i type="logical" name="LORBITALREAL"> F  </i>
  </separator>
  <separator name="miscellaneous" >
   <i type="int" name="IDIOT">     3</i>
   <i type="logical" name="LMUSIC"> F  </i>
   <v name="POMASS">    196.96600000     16.00000000    106.42000000</v>
   <v name="DARWINR">      0.00000000      0.00000000      0.00000000</v>
   <v name="DARWINV">      1.00000000      1.00000000      1.00000000</v>
   <i type="logical" name="LCORR"> T  </i>
  </separator>
  <i type="logical" name="GGA_COMPAT"> T  </i>
  <i type="logical" name="LBERRY"> F  </i>
  <i type="int" name="ICORELEVEL">     0</i>
  <i type="logical" name="LDAU"> F  </i>
  <i type="int" name="I_CONSTRAINED_M">     0</i>
  <separator name="electronic exchange-correlation" >
   <i type="string" name="GGA">PE</i>
   <i type="int" name="VOSKOWN">     1</i>
   <i type="logical" name="LHFCALC"> F  </i>
   <i type="string" name="PRECFOCK"></i>
   <i type="logical" name="LSYMGRAD"> F  </i>
   <i type="logical" name="LHFONE"> F  </i>
   <i type="logical" name="LRHFCALC"> F  </i>
   <i type="logical" name="LTHOMAS"> F  </i>
   <i type="logical" name="LMODELHF"> F  </i>
   <i name="ENCUT4O">     -1.00000000</i>
   <i type="int" name="EXXOEP">     0</i>
   <i type="int" name="FOURORBIT">     0</i>
   <i name="AEXX">      0.00000000</i>
   <i name="HFALPHA">      0.00000000</i>
   <i name="MCALPHA">      0.00000000</i>
   <i name="ALDAX">      1.00000000</i>
   <i name="AGGAX">      1.00000000</i>
   <i name="ALDAC">      1.00000000</i>
   <i name="AGGAC">      1.00000000</i>
   <i type="int" name="NKREDX">     1</i>
   <i type="int" name="NKREDY">     1</i>
   <i type="int" name="NKREDZ">     1</i>
   <i type="logical" name="SHIFTRED"> F  </i>
   <i type="logical" name="ODDONLY"> F  </i>
   <i type="logical" name="EVENONLY"> F  </i>
   <i type="int" name="LMAXFOCK">     0</i>
   <i type="int" name="NMAXFOCKAE">     0</i>
   <i type="logical" name="LFOCKAEDFT"> F  </i>
   <i name="HFSCREEN">      0.00000000</i>
   <i name="HFSCREENC">      0.00000000</i>
   <i type="int" name="NBANDSGWLOW">     0</i>
  </separator>
  <separator name="vdW DFT" >
   <i type="logical" name="LUSE_VDW"> F  </i>
   <i name="Zab_VDW">     -0.84910000</i>
   <i name="PARAM1">      0.12340000</i>
   <i name="PARAM2">      1.00000000</i>
   <i name="PARAM3">      0.00000000</i>
  </separator>
  <separator name="model GW" >
   <i type="int" name="MODEL_GW">     0</i>
   <i name="MODEL_EPS0">     29.42037089</i>
   <i name="MODEL_ALPHA">      1.00000000</i>
  </separator>
  <separator name="linear response parameters" >
   <i type="logical" name="LEPSILON"> F  </i>
   <i type="logical" name="LRPA"> F  </i>
   <i type="logical" name="LNABLA"> F  </i>
   <i type="logical" name="LVEL"> F  </i>
   <i type="int" name="KINTER">     0</i>
   <i name="CSHIFT">      0.10000000</i>
   <i name="OMEGAMAX">     -1.00000000</i>
   <i name="DEG_THRESHOLD">      0.00200000</i>
  </separator>
  <separator name="orbital magnetization" >
   <i type="logical" name="NUCIND"> F  </i>
   <v name="MAGPOS">      0.00000000      0.00000000      0.00000000</v>
   <i type="logical" name="LNICSALL"> T  </i>
   <i type="logical" name="ORBITALMAG"> F  </i>
   <i type="logical" name="LMAGBLOCH"> F  </i>
   <i type="logical" name="LCHIMAG"> F  </i>
   <i type="logical" name="LGAUGE"> T  </i>
   <i type="int" name="MAGATOM">     0</i>
   <v name="MAGDIPOL">      0.00000000      0.00000000      0.00000000</v>
   <v name="AVECCONST">      0.00000000      0.00000000      0.00000000</v>
  </separator>
  <separator name="response functions" >
   <i type="logical" name="LADDER"> F  </i>
   <i type="logical" name="LFXC"> F  </i>
   <i type="logical" name="LHARTREE"> T  </i>
   <i type="int" name="IBSE">     0</i>
   <v type="int" name="KPOINT">    -1     0     0     0</v>
   <i type="logical" name="LTCTE"> F  </i>
   <i type="logical" name="LTETE"> F  </i>
   <i type="logical" name="LTRIPLET"> F  </i>
   <i type="logical" name="LFXCEPS"> F  </i>
   <i type="logical" name="LFXHEG"> F  </i>
   <i type="int" name="NATURALO">     0</i>
   <i type="logical" name="L2ORDER"> F  </i>
   <i type="logical" name="LUSEW"> F  </i>
   <i name="ENCUTGW">     -2.00000000</i>
   <i name="ENCUTGWSOFT">     -2.00000000</i>
   <i name="ENCUTLF">     -1.00000000</i>
   <i type="int" name="LMAXMP2">    -1</i>
   <i name="SCISSOR">      0.00000000</i>
   <i type="int" name="NOMEGA">     0</i>
   <i type="int" name="NOMEGAR">     0</i>
   <i type="int" name="NBANDSGW">    -1</i>
   <i type="int" name="NBANDSO">    -1</i>
   <i type="int" name="NBANDSV">    -1</i>
   <i type="int" name="NELM">   500</i>
   <i type="int" name="NELMHF">     1</i>
   <i type="int" name="DIM">     3</i>
   <i type="int" name="ANTIRES">     0</i>
   <i name="OMEGAMAX">    -30.00000000</i>
   <i name="OMEGAMIN">    -30.00000000</i>
   <i name="OMEGATL">   -200.00000000</i>
   <i type="int" name="OMEGAGRID">     0</i>
   <i name="CSHIFT">     -0.10000000</i>
   <i type="logical" name="SELFENERGY"> F  </i>
   <i type="logical" name="LSPECTRAL"> F  </i>
   <i type="logical" name="LSPECTRALGW"> F  </i>
   <i type="logical" name="LSINGLES"> F  </i>
   <i type="logical" name="LFERMIGW"> F  </i>
   <i type="logical" name="ODDONLYGW"> F  </i>
   <i type="logical" name="EVENONLYGW"> F  </i>
   <i type="int" name="NKREDLFX">     1</i>
   <i type="int" name="NKREDLFY">     1</i>
   <i type="int" name="NKREDLFZ">     1</i>
   <i type="int" name="MAXMEM">  1800</i>
   <i type="int" name="TELESCOPE">     0</i>
   <i type="int" name="TAUPAR">     1</i>
   <i type="int" name="OMEGAPAR">    -1</i>
   <i name="LAMBDA">      1.00000000</i>
  </separator>
  <separator name="External order field" >
   <i name="OFIELD_KAPPA">      0.00000000</i>
   <v name="OFIELD_K">      0.00000000      0.00000000      0.00000000</v>
   <i name="OFIELD_Q6_NEAR">      0.00000000</i>
   <i name="OFIELD_Q6_FAR">      0.00000000</i>
   <i name="OFIELD_A">      0.00000000</i>
  </separator>
 </parameters>
 <atominfo>
  <atoms>      56 </atoms>
  <types>       3 </types>
  <array name="atoms" >
   <dimension dim="1">ion</dimension>
   <field type="string">element</field>
   <field type="int">atomtype</field>
   <set>
    <rc><c>Au</c><c>   1</c></rc>
    <rc><c>Au</c><c>   1</c></rc>
    <rc><c>Au</c><c>   1</c></rc>
    <rc><c>Au</c><c>   1</c></rc>
    <rc><c>Au</c><c>   1</c></rc>
    <rc><c>Au</c><c>   1</c></rc>
    <rc><c>Au</c><c>   1</c></rc>
    <rc><c>Au</c><c>   1</c></rc>
    <rc><c>Au</c><c>   1</c></rc>
    <rc><c>Au</c><c>   1</c></rc>
    <rc><c>Au</c><c>   1</c></rc>
    <rc><c>Au</c><c>   1</c></rc>
    <rc><c>Au</c><c>   1</c></rc>
    <rc><c>Au</c><c>   1</c></rc>
    <rc><c>Au</c><c>   1</c></rc>
    <rc><c>Au</c><c>   1</c></rc>
    <rc><c>Au</c><c>   1</c></rc>
    <rc><c>Au</c><c>   1</c></rc>
    <rc><c>Au</c><c>   1</c></rc>
    <rc><c>Au</c><c>   1</c></rc>
    <rc><c>Au</c><c>   1</c></rc>
    <rc><c>Au</c><c>   1</c></rc>
    <rc><c>Au</c><c>   1</c></rc>
    <rc><c>Au</c><c>   1</c></rc>
    <rc><c>O </c><c>   2</c></rc>
    <rc><c>O </c><c>   2</c></rc>
    <rc><c>O </c><c>   2</c></rc>
    <rc><c>O </c><c>   2</c></rc>
    <rc><c>O </c><c>   2</c></rc>
    <rc><c>O </c><c>   2</c></rc>
    <rc><c>O </c><c>   2</c></rc>
    <rc><c>O </c><c>   2</c></rc>
    <rc><c>Pd</c><c>   3</c></rc>
    <rc><c>Pd</c><c>   3</c></rc>
    <rc><c>Pd</c><c>   3</c></rc>
    <rc><c>Pd</c><c>   3</c></rc>
    <rc><c>Pd</c><c>   3</c></rc>
    <rc><c>Pd</c><c>   3</c></rc>
    <rc><c>Pd</c><c>   3</c></rc>
    <rc><c>Pd</c><c>   3</c></rc>
    <rc><c>Pd</c><c>   3</c></rc>
    <rc><c>Pd</c><c>   3</c></rc>
    <rc><c>Pd</c><c>   3</c></rc>
    <rc><c>Pd</c><c>   3</c></rc>
    <rc><c>Pd</c><c>   3</c></rc>
    <rc><c>Pd</c><c>   3</c></rc>
    <rc><c>Pd</c><c>   3</c></rc>
    <rc><c>Pd</c><c>   3</c></rc>
    <rc><c>Pd</c><c>   3</c></rc>
    <rc><c>Pd</c><c>   3</c></rc>
    <rc><c>Pd</c><c>   3</c></rc>
    <rc><c>Pd</c><c>   3</c></rc>
    <rc><c>Pd</c><c>   3</c></rc>
    <rc><c>Pd</c><c>   3</c></rc>
    <rc><c>Pd</c><c>   3</c></rc>
    <rc><c>Pd</c><c>   3</c></rc>
   </set>
  </array>
  <array name="atomtypes" >
   <dimension dim="1">type</dimension>
   <field type="int">atomspertype</field>
   <field type="string">element</field>
   <field>mass</field>
   <field>valence</field>
   <field type="string">pseudopotential</field>
   <set>
    <rc><c>  24</c><c>Au</c><c>    196.96600000</c><c>     11.00000000</c><c>  PAW_PBE Au 04Oct2007                  </c></rc>
    <rc><c>   8</c><c>O </c><c>     16.00000000</c><c>      6.00000000</c><c>  PAW_PBE O 08Apr2002                   </c></rc>
    <rc><c>  24</c><c>Pd</c><c>    106.42000000</c><c>     10.00000000</c><c>  PAW_PBE Pd 04Jan2005                  </c></rc>
   </set>
  </array>
 </atominfo>
 <structure name="initialpos" >
  <crystal>
   <varray name="basis" >
    <v>      11.00258152       0.00000000       0.00000000 </v>
    <v>       5.50129076       9.52851510       0.00000000 </v>
    <v>       0.00000000       0.00000000      26.19178509 </v>
   </varray>
   <i name="volume">   2745.90128299 </i>
   <varray name="rec_basis" >
    <v>       0.09088776      -0.05247407       0.00000000 </v>
    <v>       0.00000000       0.10494815       0.00000000 </v>
    <v>       0.00000000       0.00000000       0.03817991 </v>
   </varray>
  </crystal>
  <varray name="positions" >
   <v>       0.08333333       0.08333333       0.38179910 </v>
   <v>       0.83333333       0.08333333       0.38179910 </v>
   <v>       0.83333333       0.83333333       0.38179910 </v>
   <v>       0.00000000       0.25000000       0.55329505 </v>
   <v>       0.08333333       0.58333333       0.38179910 </v>
   <v>       0.66666667       0.91666667       0.46754708 </v>
   <v>       0.75000000       0.00000000       0.55329505 </v>
   <v>       0.91666667       0.16666667       0.46754708 </v>
   <v>       0.66666667       0.16666667       0.46754708 </v>
   <v>       0.91666667       0.91666667       0.46754708 </v>
   <v>       0.25000000       0.00000000       0.55329505 </v>
   <v>       0.50000000       0.75000000       0.55329505 </v>
   <v>       0.33333333       0.08333333       0.38179910 </v>
   <v>       0.33333333       0.33333333       0.38179910 </v>
   <v>       0.16666667       0.41666667       0.46754708 </v>
   <v>       0.25000000       0.25000000       0.55329505 </v>
   <v>       0.16666667       0.66666667       0.46754708 </v>
   <v>       0.66666667       0.66666667       0.46754708 </v>
   <v>       0.41666667       0.66666667       0.46754708 </v>
   <v>       0.75000000       0.75000000       0.55329505 </v>
   <v>       0.58333333       0.08333333       0.38179910 </v>
   <v>       0.58333333       0.58333333       0.38179910 </v>
   <v>       0.50000000       0.00000000       0.55329505 </v>
   <v>       0.58333333       0.33333333       0.38179910 </v>
   <v>       0.83333333       0.08333333       0.61820090 </v>
   <v>       0.08333333       0.58333333       0.61820090 </v>
   <v>       0.33333333       0.08333333       0.61820090 </v>
   <v>       0.33333333       0.33333333       0.61820090 </v>
   <v>       0.58333333       0.33333333       0.61820090 </v>
   <v>       0.58333333       0.58333333       0.61820090 </v>
   <v>       0.58333333       0.08333333       0.61820090 </v>
   <v>       0.58333333       0.83333333       0.61820090 </v>
   <v>       0.25000000       0.75000000       0.55329505 </v>
   <v>       0.16666667       0.91666667       0.46754708 </v>
   <v>       0.75000000       0.50000000       0.55329505 </v>
   <v>       0.25000000       0.50000000       0.55329505 </v>
   <v>       0.33333333       0.58333333       0.38179910 </v>
   <v>       0.16666667       0.16666667       0.46754708 </v>
   <v>       0.83333333       0.58333333       0.38179910 </v>
   <v>       0.00000000       0.75000000       0.55329505 </v>
   <v>       0.08333333       0.83333333       0.38179910 </v>
   <v>       0.00000000       0.50000000       0.55329505 </v>
   <v>       0.91666667       0.66666667       0.46754708 </v>
   <v>       0.91666667       0.41666667       0.46754708 </v>
   <v>       0.08333333       0.33333333       0.38179910 </v>
   <v>       0.00000000       0.00000000       0.55329505 </v>
   <v>       0.41666667       0.41666667       0.46754708 </v>
   <v>       0.33333333       0.83333333       0.38179910 </v>
   <v>       0.58333333       0.83333333       0.38179910 </v>
   <v>       0.41666667       0.91666667       0.46754708 </v>
   <v>       0.75000000       0.25000000       0.55329505 </v>
   <v>       0.66666667       0.41666667       0.46754708 </v>
   <v>       0.83333333       0.33333333       0.38179910 </v>
   <v>       0.50000000       0.50000000       0.55329505 </v>
   <v>       0.41666667       0.16666667       0.46754708 </v>
   <v>       0.50000000       0.25000000       0.55329505 </v>
  </varray>
  <varray name="selective"  type="logical" >
   <v type="logical" >  F  F  F </v>
   <v type="logical" >  F  F  F </v>
   <v type="logical" >  F  F  F </v>
   <v type="logical" >  T  T  T </v>
   <v type="logical" >  F  F  F </v>
   <v type="logical" >  T  T  T </v>
   <v type="logical" >  T  T  T </v>
   <v type="logical" >  T  T  T </v>
   <v type="logical" >  T  T  T </v>
   <v type="logical" >  T  T  T </v>
   <v type="logical" >  T  T  T </v>
   <v type="logical" >  T  T  T </v>
   <v type="logical" >  F  F  F </v>
   <v type="logical" >  F  F  F </v>
   <v type="logical" >  T  T  T </v>
   <v type="logical" >  T  T  T </v>
   <v type="logical" >  T  T  T </v>
   <v type="logical" >  T  T  T </v>
   <v type="logical" >  T  T  T </v>
   <v type="logical" >  T  T  T </v>
   <v type="logical" >  F  F  F </v>
   <v type="logical" >  F  F  F </v>
   <v type="logical" >  T  T  T </v>
   <v type="logical" >  F  F  F </v>
   <v type="logical" >  T  T  T </v>
   <v type="logical" >  T  T  T </v>
   <v type="logical" >  T  T  T </v>
   <v type="logical" >  T  T  T </v>
   <v type="logical" >  T  T  T </v>
   <v type="logical" >  T  T  T </v>
   <v type="logical" >  T  T  T </v>
   <v type="logical" >  T  T  T </v>
   <v type="logical" >  T  T  T </v>
   <v type="logical" >  T  T  T </v>
   <v type="logical" >  T  T  T </v>
   <v type="logical" >  T  T  T </v>
   <v type="logical" >  F  F  F </v>
   <v type="logical" >  T  T  T </v>
   <v type="logical" >  F  F  F </v>
   <v type="logical" >  T  T  T </v>
   <v type="logical" >  F  F  F </v>
   <v type="logical" >  T  T  T </v>
   <v type="logical" >  T  T  T </v>
   <v type="logical" >  T  T  T </v>
   <v type="logical" >  F  F  F </v>
   <v type="logical" >  T  T  T </v>
   <v type="logical" >  T  T  T </v>
   <v type="logical" >  F  F  F </v>
   <v type="logical" >  F  F  F </v>
   <v type="logical" >  T  T  T </v>
   <v type="logical" >  T  T  T </v>
   <v type="logical" >  T  T  T </v>
   <v type="logical" >  F  F  F </v>
   <v type="logical" >  T  T  T </v>
   <v type="logical" >  T  T  T </v>
   <v type="logical" >  T  T  T </v>
  </varray>
  <nose>
   <v>      -3.00000000       0.00000000       0.00010000       0.00010000 </v>
  </nose>
 </structure>
 <calculation>
  <scstep>
   <time name="dav">    8.55    8.58</time>
   <time name="total">    8.61    8.64</time>
   <dipole>
    <v name="dipole">      0.00000000       0.00000000       0.00011500 </v>
    <i name="Tr[quadrupol]"> -11352.46954460 </i>
    <i name="Echarged">      0.00000000 </i>
    <i name="Edipol_quadrupol">      0.00000000 </i>
    <i name="Eion">      0.00000000 </i>
   </dipole>
   <energy>
    <i name="alphaZ">    862.57863582 </i>
    <i name="ewald"> 255404.70527347 </i>
    <i name="hartreedc">-300979.28462243 </i>
    <i name="XCdc">   -109.72533333 </i>
    <i name="pawpsdc">  43112.45544455 </i>
    <i name="pawaedc"> -41079.41300390 </i>
    <i name="eentropy">     -0.11867406 </i>
    <i name="bandstr">   1329.75711577 </i>
    <i name="atom">  45117.89144060 </i>
    <i name="e_fr_energy">   3658.84627649 </i>
    <i name="e_wo_entrp">   3658.96495055 </i>
    <i name="e_0_energy">   3658.90561352 </i>
   </energy>
  </scstep>
  <scstep>
   <time name="dav">   10.01   10.04</time>
   <time name="total">   10.01   10.04</time>
   <dipole>
    <v name="dipole">      0.00000000       0.00000000       0.00011500 </v>
    <i name="Tr[quadrupol]"> -11352.46954460 </i>
    <i name="Echarged">      0.00000000 </i>
    <i name="Edipol_quadrupol">      0.00000000 </i>
    <i name="Eion">      0.00000000 </i>
   </dipole>
   <energy>
    <i name="e_fr_energy">     54.65262242 </i>
    <i name="e_wo_entrp">     54.79987422 </i>
    <i name="e_0_energy">     54.72624832 </i>
   </energy>
  </scstep>
  <scstep>
   <time name="dav">    9.75    9.84</time>
   <time name="total">    9.75    9.85</time>
   <dipole>
    <v name="dipole">      0.00000000       0.00000000       0.00011500 </v>
    <i name="Tr[quadrupol]"> -11352.46954460 </i>
    <i name="Echarged">      0.00000000 </i>
    <i name="Edipol_quadrupol">      0.00000000 </i>
    <i name="Eion">      0.00000000 </i>
   </dipole>
   <energy>
    <i name="e_fr_energy">   -250.84477207 </i>
    <i name="e_wo_entrp">   -250.40421989 </i>
    <i name="e_0_energy">   -250.62449598 </i>
   </energy>
  </scstep>
  <scstep>
   <time name="dav">    9.59    9.62</time>
   <time name="total">    9.59    9.62</time>
   <dipole>
    <v name="dipole">      0.00000000       0.00000000       0.00011500 </v>
    <i name="Tr[quadrupol]"> -11352.46954460 </i>
    <i name="Echarged">      0.00000000 </i>
    <i name="Edipol_quadrupol">      0.00000000 </i>
    <i name="Eion">      0.00000000 </i>
   </dipole>
   <energy>
    <i name="e_fr_energy">   -262.43573400 </i>
    <i name="e_wo_entrp">   -261.97750578 </i>
    <i name="e_0_energy">   -262.20661989 </i>
   </energy>
  </scstep>
  <scstep>
   <time name="dav">   10.23   10.25</time>
   <time name="total">   10.49   10.52</time>
   <dipole>
    <v name="dipole">      0.00000000       0.00000000       0.00011500 </v>
    <i name="Tr[quadrupol]"> -11352.46954460 </i>
    <i name="Echarged">      0.00000000 </i>
    <i name="Edipol_quadrupol">      0.00000000 </i>
    <i name="Eion">      0.00000000 </i>
   </dipole>
   <energy>
    <i name="e_fr_energy">   -262.79980236 </i>
    <i name="e_wo_entrp">   -262.33996054 </i>
    <i name="e_0_energy">   -262.56988145 </i>
   </energy>
  </scstep>
  <scstep>
   <time name="diag">    1.57    1.57</time>
   <time name="diis">    4.13    4.14</time>
   <time name="orth">    0.44    0.44</time>
   <time name="total">    6.42    6.46</time>
   <dipole>
    <v name="dipole">      0.00000000       0.00000000       4.78271481 </v>
    <i name="Tr[quadrupol]"> -11347.73347408 </i>
    <i name="Echarged">      0.00000000 </i>
    <i name="Edipol_quadrupol">      0.00000000 </i>
    <i name="Eion">      0.00000000 </i>
   </dipole>
   <energy>
    <i name="e_fr_energy">   -407.48199982 </i>
    <i name="e_wo_entrp">   -407.30114017 </i>
    <i name="e_0_energy">   -407.39156999 </i>
   </energy>
  </scstep>
  <scstep>
   <time name="diag">    1.55    1.57</time>
   <time name="diis">    4.08    4.09</time>
   <time name="orth">    0.44    0.44</time>
   <time name="total">    6.37    6.41</time>
   <dipole>
    <v name="dipole">      0.00000000       0.00000000      -0.41676983 </v>
    <i name="Tr[quadrupol]"> -11348.16001421 </i>
    <i name="Echarged">      0.00000000 </i>
    <i name="Edipol_quadrupol">      0.00000000 </i>
    <i name="Eion">      0.00000000 </i>
   </dipole>
   <energy>
    <i name="e_fr_energy">   -248.48941649 </i>
    <i name="e_wo_entrp">   -248.22278053 </i>
    <i name="e_0_energy">   -248.35609851 </i>
   </energy>
  </scstep>
  <scstep>
   <time name="diag">    1.56    1.56</time>
   <time name="diis">    3.97    4.06</time>
   <time name="orth">    0.44    0.44</time>
   <time name="total">    6.27    6.37</time>
   <dipole>
    <v name="dipole">      0.00000000       0.00000000       1.97250667 </v>
    <i name="Tr[quadrupol]"> -11350.91276283 </i>
    <i name="Echarged">      0.00000000 </i>
    <i name="Edipol_quadrupol">      0.00000000 </i>
    <i name="Eion">      0.00000000 </i>
   </dipole>
   <energy>
    <i name="e_fr_energy">   -247.93089729 </i>
    <i name="e_wo_entrp">   -247.72251358 </i>
    <i name="e_0_energy">   -247.82670544 </i>
   </energy>
  </scstep>
  <scstep>
   <time name="diag">    1.56    1.56</time>
   <time name="diis">    4.07    4.09</time>
   <time name="orth">    0.44    0.44</time>
   <time name="total">    6.37    6.40</time>
   <dipole>
    <v name="dipole">      0.00000000       0.00000000       1.59360994 </v>
    <i name="Tr[quadrupol]"> -11345.87888848 </i>
    <i name="Echarged">      0.00000000 </i>
    <i name="Edipol_quadrupol">      0.00000000 </i>
    <i name="Eion">      0.00000000 </i>
   </dipole>
   <energy>
    <i name="e_fr_energy">   -282.88526455 </i>
    <i name="e_wo_entrp">   -282.72482129 </i>
    <i name="e_0_energy">   -282.80504292 </i>
   </energy>
  </scstep>
  <scstep>
   <time name="diag">    1.55    1.56</time>
   <time name="diis">    4.10    4.11</time>
   <time name="orth">    0.44    0.44</time>
   <time name="total">    6.38    6.40</time>
   <dipole>
    <v name="dipole">      0.00000000       0.00000000       1.69389144 </v>
    <i name="Tr[quadrupol]"> -11348.35185397 </i>
    <i name="Echarged">      0.00000000 </i>
    <i name="Edipol_quadrupol">      0.00000000 </i>
    <i name="Eion">      0.00000000 </i>
   </dipole>
   <energy>
    <i name="e_fr_energy">   -244.20291126 </i>
    <i name="e_wo_entrp">   -244.01635832 </i>
    <i name="e_0_energy">   -244.10963479 </i>
   </energy>
  </scstep>
  <scstep>
   <time name="diag">    1.56    1.57</time>
   <time name="diis">    4.03    4.03</time>
   <time name="orth">    0.43    0.43</time>
   <time name="total">    6.33    6.35</time>
   <dipole>
    <v name="dipole">      0.00000000       0.00000000       1.71455887 </v>
    <i name="Tr[quadrupol]"> -11349.39148428 </i>
    <i name="Echarged">      0.00000000 </i>
    <i name="Edipol_quadrupol">      0.00000000 </i>
    <i name="Eion">      0.00000000 </i>
   </dipole>
   <energy>
    <i name="e_fr_energy">   -233.86139892 </i>
    <i name="e_wo_entrp">   -233.68653884 </i>
    <i name="e_0_energy">   -233.77396888 </i>
   </energy>
  </scstep>
  <scstep>
   <time name="diag">    1.55    1.56</time>
   <time name="diis">    4.11    4.12</time>
   <time name="orth">    0.43    0.44</time>
   <time name="total">    6.40    6.42</time>
   <dipole>
    <v name="dipole">      0.00000000       0.00000000       1.44813683 </v>
    <i name="Tr[quadrupol]"> -11349.66448580 </i>
    <i name="Echarged">      0.00000000 </i>
    <i name="Edipol_quadrupol">      0.00000000 </i>
    <i name="Eion">      0.00000000 </i>
   </dipole>
   <energy>
    <i name="e_fr_energy">   -226.43735605 </i>
    <i name="e_wo_entrp">   -226.23628690 </i>
    <i name="e_0_energy">   -226.33682148 </i>
   </energy>
  </scstep>
  <scstep>
   <time name="diag">    1.55    1.56</time>
   <time name="diis">    4.10    4.11</time>
   <time name="orth">    0.43    0.43</time>
   <time name="total">    6.40    6.42</time>
   <dipole>
    <v name="dipole">      0.00000000       0.00000000       1.31374106 </v>
    <i name="Tr[quadrupol]"> -11349.59805498 </i>
    <i name="Echarged">      0.00000000 </i>
    <i name="Edipol_quadrupol">      0.00000000 </i>
    <i name="Eion">      0.00000000 </i>
   </dipole>
   <energy>
    <i name="e_fr_energy">   -222.55058131 </i>
    <i name="e_wo_entrp">   -222.30852687 </i>
    <i name="e_0_energy">   -222.42955409 </i>
   </energy>
  </scstep>
  <scstep>
   <time name="diag">    1.55    1.55</time>
   <time name="diis">    4.15    4.16</time>
   <time name="orth">    0.43    0.45</time>
   <time name="total">    6.43    6.49</time>
   <dipole>
    <v name="dipole">      0.00000000       0.00000000       1.28840287 </v>
    <i name="Tr[quadrupol]"> -11349.56245954 </i>
    <i name="Echarged">      0.00000000 </i>
    <i name="Edipol_quadrupol">      0.00000000 </i>
    <i name="Eion">      0.00000000 </i>
   </dipole>
   <energy>
    <i name="e_fr_energy">   -221.28794773 </i>
    <i name="e_wo_entrp">   -221.02603137 </i>
    <i name="e_0_energy">   -221.15698955 </i>
   </energy>
  </scstep>
  <scstep>
   <time name="diag">    1.55    1.57</time>
   <time name="diis">    4.11    4.13</time>
   <time name="orth">    0.43    0.43</time>
   <time name="total">    6.40    6.45</time>
   <dipole>
    <v name="dipole">      0.00000000       0.00000000       1.27665881 </v>
    <i name="Tr[quadrupol]"> -11349.54873632 </i>
    <i name="Echarged">      0.00000000 </i>
    <i name="Edipol_quadrupol">      0.00000000 </i>
    <i name="Eion">      0.00000000 </i>
   </dipole>
   <energy>
    <i name="e_fr_energy">   -220.76231942 </i>
    <i name="e_wo_entrp">   -220.47824734 </i>
    <i name="e_0_energy">   -220.62028338 </i>
   </energy>
  </scstep>
  <scstep>
   <time name="diag">    1.56    1.57</time>
   <time name="diis">    4.10    4.12</time>
   <time name="orth">    0.43    0.43</time>
   <time name="total">    6.41    6.43</time>
   <dipole>
    <v name="dipole">      0.00000000       0.00000000       1.26117715 </v>
    <i name="Tr[quadrupol]"> -11349.38516271 </i>
    <i name="Echarged">      0.00000000 </i>
    <i name="Edipol_quadrupol">      0.00000000 </i>
    <i name="Eion">      0.00000000 </i>
   </dipole>
   <energy>
    <i name="e_fr_energy">   -220.72503341 </i>
    <i name="e_wo_entrp">   -220.44973188 </i>
    <i name="e_0_energy">   -220.58738265 </i>
   </energy>
  </scstep>
  <scstep>
   <time name="diag">    1.56    1.56</time>
   <time name="diis">    4.13    4.14</time>
   <time name="orth">    0.43    0.43</time>
   <time name="total">    6.43    6.45</time>
   <dipole>
    <v name="dipole">      0.00000000       0.00000000       1.31534707 </v>
    <i name="Tr[quadrupol]"> -11349.55315191 </i>
    <i name="Echarged">      0.00000000 </i>
    <i name="Edipol_quadrupol">      0.00000000 </i>
    <i name="Eion">      0.00000000 </i>
   </dipole>
   <energy>
    <i name="e_fr_energy">   -220.88682722 </i>
    <i name="e_wo_entrp">   -220.61322684 </i>
    <i name="e_0_energy">   -220.75002703 </i>
   </energy>
  </scstep>
  <scstep>
   <time name="diag">    1.55    1.56</time>
   <time name="diis">    4.14    4.15</time>
   <time name="orth">    0.43    0.43</time>
   <time name="total">    6.42    6.44</time>
   <dipole>
    <v name="dipole">      0.00000000       0.00000000       1.33164739 </v>
    <i name="Tr[quadrupol]"> -11349.69037645 </i>
    <i name="Echarged">      0.00000000 </i>
    <i name="Edipol_quadrupol">      0.00000000 </i>
    <i name="Eion">      0.00000000 </i>
   </dipole>
   <energy>
    <i name="e_fr_energy">   -220.70797546 </i>
    <i name="e_wo_entrp">   -220.43442416 </i>
    <i name="e_0_energy">   -220.57119981 </i>
   </energy>
  </scstep>
  <scstep>
   <time name="diag">    1.56    1.56</time>
   <time name="diis">    4.13    4.14</time>
   <time name="orth">    0.43    0.43</time>
   <time name="total">    6.42    6.44</time>
   <dipole>
    <v name="dipole">      0.00000000       0.00000000       1.32609517 </v>
    <i name="Tr[quadrupol]"> -11349.95068859 </i>
    <i name="Echarged">      0.00000000 </i>
    <i name="Edipol_quadrupol">      0.00000000 </i>
    <i name="Eion">      0.00000000 </i>
   </dipole>
   <energy>
    <i name="e_fr_energy">   -220.78356929 </i>
    <i name="e_wo_entrp">   -220.47894898 </i>
    <i name="e_0_energy">   -220.63125913 </i>
   </energy>
  </scstep>
  <scstep>
   <time name="diag">    1.56    1.57</time>
   <time name="diis">    4.12    4.13</time>
   <time name="orth">    0.43    0.43</time>
   <time name="total">    6.42    6.44</time>
   <dipole>
    <v name="dipole">      0.00000000       0.00000000       1.29623738 </v>
    <i name="Tr[quadrupol]"> -11350.05501260 </i>
    <i name="Echarged">      0.00000000 </i>
    <i name="Edipol_quadrupol">      0.00000000 </i>
    <i name="Eion">      0.00000000 </i>
   </dipole>
   <energy>
    <i name="e_fr_energy">   -220.49906503 </i>
    <i name="e_wo_entrp">   -220.17625945 </i>
    <i name="e_0_energy">   -220.33766224 </i>
   </energy>
  </scstep>
  <scstep>
   <time name="diag">    1.53    1.60</time>
   <time name="diis">    4.08    4.10</time>
   <time name="orth">    0.43    0.43</time>
   <time name="total">    6.35    6.44</time>
   <dipole>
    <v name="dipole">      0.00000000       0.00000000       1.28102060 </v>
    <i name="Tr[quadrupol]"> -11350.08187318 </i>
    <i name="Echarged">      0.00000000 </i>
    <i name="Edipol_quadrupol">      0.00000000 </i>
    <i name="Eion">      0.00000000 </i>
   </dipole>
   <energy>
    <i name="e_fr_energy">   -220.46388525 </i>
    <i name="e_wo_entrp">   -220.12569450 </i>
    <i name="e_0_energy">   -220.29478987 </i>
   </energy>
  </scstep>
  <scstep>
   <time name="diag">    1.55    1.55</time>
   <time name="diis">    4.16    4.17</time>
   <time name="orth">    0.43    0.43</time>
   <time name="total">    6.44    6.46</time>
   <dipole>
    <v name="dipole">      0.00000000       0.00000000       1.27754896 </v>
    <i name="Tr[quadrupol]"> -11350.06938113 </i>
    <i name="Echarged">      0.00000000 </i>
    <i name="Edipol_quadrupol">      0.00000000 </i>
    <i name="Eion">      0.00000000 </i>
   </dipole>
   <energy>
    <i name="e_fr_energy">   -220.44791659 </i>
    <i name="e_wo_entrp">   -220.12290611 </i>
    <i name="e_0_energy">   -220.28541135 </i>
   </energy>
  </scstep>
  <scstep>
   <time name="diag">    1.56    1.56</time>
   <time name="diis">    4.14    4.15</time>
   <time name="orth">    0.43    0.43</time>
   <time name="total">    6.43    6.45</time>
   <dipole>
    <v name="dipole">      0.00000000       0.00000000       1.27772678 </v>
    <i name="Tr[quadrupol]"> -11350.09252995 </i>
    <i name="Echarged">      0.00000000 </i>
    <i name="Edipol_quadrupol">      0.00000000 </i>
    <i name="Eion">      0.00000000 </i>
   </dipole>
   <energy>
    <i name="e_fr_energy">   -220.43844115 </i>
    <i name="e_wo_entrp">   -220.11865566 </i>
    <i name="e_0_energy">   -220.27854841 </i>
   </energy>
  </scstep>
  <scstep>
   <time name="diag">    1.55    1.56</time>
   <time name="diis">    4.18    4.19</time>
   <time name="orth">    0.43    0.43</time>
   <time name="total">    6.47    6.49</time>
   <dipole>
    <v name="dipole">      0.00000000       0.00000000       1.28794387 </v>
    <i name="Tr[quadrupol]"> -11350.16963875 </i>
    <i name="Echarged">      0.00000000 </i>
    <i name="Edipol_quadrupol">      0.00000000 </i>
    <i name="Eion">      0.00000000 </i>
   </dipole>
   <energy>
    <i name="e_fr_energy">   -220.43515009 </i>
    <i name="e_wo_entrp">   -220.11779684 </i>
    <i name="e_0_energy">   -220.27647347 </i>
   </energy>
  </scstep>
  <scstep>
   <time name="diag">    1.55    1.56</time>
   <time name="diis">    4.12    4.14</time>
   <time name="orth">    0.43    0.43</time>
   <time name="total">    6.40    6.44</time>
   <dipole>
    <v name="dipole">      0.00000000       0.00000000       1.29209956 </v>
    <i name="Tr[quadrupol]"> -11350.23303282 </i>
    <i name="Echarged">      0.00000000 </i>
    <i name="Edipol_quadrupol">      0.00000000 </i>
    <i name="Eion">      0.00000000 </i>
   </dipole>
   <energy>
    <i name="e_fr_energy">   -220.42988208 </i>
    <i name="e_wo_entrp">   -220.11384003 </i>
    <i name="e_0_energy">   -220.27186105 </i>
   </energy>
  </scstep>
  <scstep>
   <time name="diag">    1.54    1.56</time>
   <time name="diis">    4.12    4.13</time>
   <time name="orth">    0.43    0.43</time>
   <time name="total">    6.39    6.43</time>
   <dipole>
    <v name="dipole">      0.00000000       0.00000000       1.29173564 </v>
    <i name="Tr[quadrupol]"> -11350.27210306 </i>
    <i name="Echarged">      0.00000000 </i>
    <i name="Edipol_quadrupol">      0.00000000 </i>
    <i name="Eion">      0.00000000 </i>
   </dipole>
   <energy>
    <i name="e_fr_energy">   -220.42952372 </i>
    <i name="e_wo_entrp">   -220.11192188 </i>
    <i name="e_0_energy">   -220.27072280 </i>
   </energy>
  </scstep>
  <scstep>
   <time name="diag">    1.55    1.56</time>
   <time name="diis">    4.02    4.12</time>
   <time name="orth">    0.43    0.43</time>
   <time name="total">    6.31    6.42</time>
   <dipole>
    <v name="dipole">      0.00000000       0.00000000       1.29152137 </v>
    <i name="Tr[quadrupol]"> -11350.31825254 </i>
    <i name="Echarged">      0.00000000 </i>
    <i name="Edipol_quadrupol">      0.00000000 </i>
    <i name="Eion">      0.00000000 </i>
   </dipole>
   <energy>
    <i name="e_fr_energy">   -220.42939553 </i>
    <i name="e_wo_entrp">   -220.10940008 </i>
    <i name="e_0_energy">   -220.26939780 </i>
   </energy>
  </scstep>
  <scstep>
   <time name="diag">    1.55    1.55</time>
   <time name="diis">    4.18    4.19</time>
   <time name="orth">    0.43    0.43</time>
   <time name="total">    6.47    6.49</time>
   <dipole>
    <v name="dipole">      0.00000000       0.00000000       1.29417736 </v>
    <i name="Tr[quadrupol]"> -11350.35472362 </i>
    <i name="Echarged">      0.00000000 </i>
    <i name="Edipol_quadrupol">      0.00000000 </i>
    <i name="Eion">      0.00000000 </i>
   </dipole>
   <energy>
    <i name="e_fr_energy">   -220.42980502 </i>
    <i name="e_wo_entrp">   -220.11148621 </i>
    <i name="e_0_energy">   -220.27064561 </i>
   </energy>
  </scstep>
  <scstep>
   <time name="diag">    1.55    1.56</time>
   <time name="diis">    4.14    4.15</time>
   <time name="orth">    0.43    0.43</time>
   <time name="total">    6.43    6.45</time>
   <dipole>
    <v name="dipole">      0.00000000       0.00000000       1.29924361 </v>
    <i name="Tr[quadrupol]"> -11350.40271205 </i>
    <i name="Echarged">      0.00000000 </i>
    <i name="Edipol_quadrupol">      0.00000000 </i>
    <i name="Eion">      0.00000000 </i>
   </dipole>
   <energy>
    <i name="e_fr_energy">   -220.43027163 </i>
    <i name="e_wo_entrp">   -220.11193650 </i>
    <i name="e_0_energy">   -220.27110407 </i>
   </energy>
  </scstep>
  <scstep>
   <time name="diag">    1.55    1.56</time>
   <time name="diis">    4.15    4.16</time>
   <time name="orth">    0.43    0.43</time>
   <time name="total">    6.44    6.46</time>
   <dipole>
    <v name="dipole">      0.00000000       0.00000000       1.30224776 </v>
    <i name="Tr[quadrupol]"> -11350.42675511 </i>
    <i name="Echarged">      0.00000000 </i>
    <i name="Edipol_quadrupol">      0.00000000 </i>
    <i name="Eion">      0.00000000 </i>
   </dipole>
   <energy>
    <i name="e_fr_energy">   -220.43050161 </i>
    <i name="e_wo_entrp">   -220.11235397 </i>
    <i name="e_0_energy">   -220.27142779 </i>
   </energy>
  </scstep>
  <scstep>
   <time name="diag">    1.56    1.56</time>
   <time name="diis">    4.21    4.22</time>
   <time name="orth">    0.43    0.43</time>
   <time name="total">    6.50    6.52</time>
   <dipole>
    <v name="dipole">      0.00000000       0.00000000       1.30643193 </v>
    <i name="Tr[quadrupol]"> -11350.45960214 </i>
    <i name="Echarged">      0.00000000 </i>
    <i name="Edipol_quadrupol">      0.00000000 </i>
    <i name="Eion">      0.00000000 </i>
   </dipole>
   <energy>
    <i name="e_fr_energy">   -220.43083147 </i>
    <i name="e_wo_entrp">   -220.11257338 </i>
    <i name="e_0_energy">   -220.27170243 </i>
   </energy>
  </scstep>
  <scstep>
   <time name="diag">    1.55    1.56</time>
   <time name="diis">    4.20    4.21</time>
   <time name="orth">    0.43    0.43</time>
   <time name="total">    6.49    6.51</time>
   <dipole>
    <v name="dipole">      0.00000000       0.00000000       1.31052694 </v>
    <i name="Tr[quadrupol]"> -11350.48752342 </i>
    <i name="Echarged">      0.00000000 </i>
    <i name="Edipol_quadrupol">      0.00000000 </i>
    <i name="Eion">      0.00000000 </i>
   </dipole>
   <energy>
    <i name="e_fr_energy">   -220.43110881 </i>
    <i name="e_wo_entrp">   -220.11282801 </i>
    <i name="e_0_energy">   -220.27196841 </i>
   </energy>
  </scstep>
  <scstep>
   <time name="diag">    1.53    1.60</time>
   <time name="diis">    4.23    4.24</time>
   <time name="orth">    0.43    0.43</time>
   <time name="total">    6.51   10.24</time>
   <dipole>
    <v name="dipole">      0.00000000       0.00000000       1.31551931 </v>
    <i name="Tr[quadrupol]"> -11350.52226058 </i>
    <i name="Echarged">      0.00000000 </i>
    <i name="Edipol_quadrupol">      0.00000000 </i>
    <i name="Eion">      0.00000000 </i>
   </dipole>
   <energy>
    <i name="e_fr_energy">   -220.43146347 </i>
    <i name="e_wo_entrp">   -220.11295818 </i>
    <i name="e_0_energy">   -220.27221082 </i>
   </energy>
  </scstep>
  <scstep>
   <time name="diag">    1.56    1.56</time>
   <time name="diis">    4.04    4.06</time>
   <time name="orth">    0.43    0.43</time>
   <time name="total">    6.34    6.37</time>
   <dipole>
    <v name="dipole">      0.00000000       0.00000000       1.32050484 </v>
    <i name="Tr[quadrupol]"> -11350.55386161 </i>
    <i name="Echarged">      0.00000000 </i>
    <i name="Edipol_quadrupol">      0.00000000 </i>
    <i name="Eion">      0.00000000 </i>
   </dipole>
   <energy>
    <i name="e_fr_energy">   -220.43177158 </i>
    <i name="e_wo_entrp">   -220.11325235 </i>
    <i name="e_0_energy">   -220.27251197 </i>
   </energy>
  </scstep>
  <scstep>
   <time name="diag">    1.55    1.56</time>
   <time name="diis">    3.71    3.72</time>
   <time name="orth">    0.43    0.43</time>
   <time name="total">    6.00    6.02</time>
   <dipole>
    <v name="dipole">      0.00000000       0.00000000       1.32472661 </v>
    <i name="Tr[quadrupol]"> -11350.57756036 </i>
    <i name="Echarged">      0.00000000 </i>
    <i name="Edipol_quadrupol">      0.00000000 </i>
    <i name="Eion">      0.00000000 </i>
   </dipole>
   <energy>
    <i name="e_fr_energy">   -220.43198961 </i>
    <i name="e_wo_entrp">   -220.11353465 </i>
    <i name="e_0_energy">   -220.27276213 </i>
   </energy>
  </scstep>
  <scstep>
   <time name="diag">    1.55    1.55</time>
   <time name="diis">    3.84    3.85</time>
   <time name="orth">    0.43    0.43</time>
   <time name="total">    6.13    6.15</time>
   <dipole>
    <v name="dipole">      0.00000000       0.00000000       1.33057006 </v>
    <i name="Tr[quadrupol]"> -11350.60947262 </i>
    <i name="Echarged">      0.00000000 </i>
    <i name="Edipol_quadrupol">      0.00000000 </i>
    <i name="Eion">      0.00000000 </i>
   </dipole>
   <energy>
    <i name="e_fr_energy">   -220.43225911 </i>
    <i name="e_wo_entrp">   -220.11369901 </i>
    <i name="e_0_energy">   -220.27297906 </i>
   </energy>
  </scstep>
  <scstep>
   <time name="diag">    1.55    1.55</time>
   <time name="diis">    3.70    3.71</time>
   <time name="orth">    0.43    0.43</time>
   <time name="total">    5.99    6.01</time>
   <dipole>
    <v name="dipole">      0.00000000       0.00000000       1.33538041 </v>
    <i name="Tr[quadrupol]"> -11350.63577994 </i>
    <i name="Echarged">      0.00000000 </i>
    <i name="Edipol_quadrupol">      0.00000000 </i>
    <i name="Eion">      0.00000000 </i>
   </dipole>
   <energy>
    <i name="e_fr_energy">   -220.43242552 </i>
    <i name="e_wo_entrp">   -220.11383474 </i>
    <i name="e_0_energy">   -220.27313013 </i>
   </energy>
  </scstep>
  <scstep>
   <time name="diag">    1.54    1.55</time>
   <time name="diis">    3.18    3.19</time>
   <time name="orth">    0.43    0.43</time>
   <time name="total">    5.47    5.48</time>
   <dipole>
    <v name="dipole">      0.00000000       0.00000000       1.33862506 </v>
    <i name="Tr[quadrupol]"> -11350.65070111 </i>
    <i name="Echarged">      0.00000000 </i>
    <i name="Edipol_quadrupol">      0.00000000 </i>
    <i name="Eion">      0.00000000 </i>
   </dipole>
   <energy>
    <i name="e_fr_energy">   -220.43249878 </i>
    <i name="e_wo_entrp">   -220.11388963 </i>
    <i name="e_0_energy">   -220.27319421 </i>
   </energy>
  </scstep>
  <scstep>
   <time name="diag">    1.56    1.56</time>
   <time name="diis">    2.86    2.95</time>
   <time name="orth">    0.43    0.43</time>
   <time name="total">    5.16    5.25</time>
   <dipole>
    <v name="dipole">      0.00000000       0.00000000       1.34165806 </v>
    <i name="Tr[quadrupol]"> -11350.66379485 </i>
    <i name="Echarged">      0.00000000 </i>
    <i name="Edipol_quadrupol">      0.00000000 </i>
    <i name="Eion">      0.00000000 </i>
   </dipole>
   <energy>
    <i name="e_fr_energy">   -220.43254768 </i>
    <i name="e_wo_entrp">   -220.11393139 </i>
    <i name="e_0_energy">   -220.27323954 </i>
   </energy>
  </scstep>
  <scstep>
   <time name="diag">    1.55    1.56</time>
   <time name="diis">    2.59    2.60</time>
   <time name="orth">    0.43    0.43</time>
   <time name="total">    4.88    4.90</time>
   <dipole>
    <v name="dipole">      0.00000000       0.00000000       1.34400589 </v>
    <i name="Tr[quadrupol]"> -11350.67200698 </i>
    <i name="Echarged">      0.00000000 </i>
    <i name="Edipol_quadrupol">      0.00000000 </i>
    <i name="Eion">      0.00000000 </i>
   </dipole>
   <energy>
    <i name="e_fr_energy">   -220.43257973 </i>
    <i name="e_wo_entrp">   -220.11399579 </i>
    <i name="e_0_energy">   -220.27328776 </i>
   </energy>
  </scstep>
  <scstep>
   <time name="diag">    1.55    1.56</time>
   <time name="diis">    2.50    2.51</time>
   <time name="orth">    0.43    0.43</time>
   <time name="total">    4.80    4.81</time>
   <dipole>
    <v name="dipole">      0.00000000       0.00000000       1.34581752 </v>
    <i name="Tr[quadrupol]"> -11350.67796302 </i>
    <i name="Echarged">      0.00000000 </i>
    <i name="Edipol_quadrupol">      0.00000000 </i>
    <i name="Eion">      0.00000000 </i>
   </dipole>
   <energy>
    <i name="e_fr_energy">   -220.43260185 </i>
    <i name="e_wo_entrp">   -220.11400477 </i>
    <i name="e_0_energy">   -220.27330331 </i>
   </energy>
  </scstep>
  <scstep>
   <time name="diag">    1.55    1.55</time>
   <time name="diis">    2.47    2.48</time>
   <time name="orth">    0.43    0.43</time>
   <time name="total">    4.76    4.78</time>
   <dipole>
    <v name="dipole">      0.00000000       0.00000000       1.34774700 </v>
    <i name="Tr[quadrupol]"> -11350.68285514 </i>
    <i name="Echarged">      0.00000000 </i>
    <i name="Edipol_quadrupol">      0.00000000 </i>
    <i name="Eion">      0.00000000 </i>
   </dipole>
   <energy>
    <i name="e_fr_energy">   -220.43262718 </i>
    <i name="e_wo_entrp">   -220.11400898 </i>
    <i name="e_0_energy">   -220.27331808 </i>
   </energy>
  </scstep>
  <scstep>
   <time name="diag">    1.55    1.56</time>
   <time name="diis">    2.50    2.50</time>
   <time name="orth">    0.43    0.43</time>
   <time name="total">    4.79    4.81</time>
   <dipole>
    <v name="dipole">      0.00000000       0.00000000       1.34991580 </v>
    <i name="Tr[quadrupol]"> -11350.68777028 </i>
    <i name="Echarged">      0.00000000 </i>
    <i name="Edipol_quadrupol">      0.00000000 </i>
    <i name="Eion">      0.00000000 </i>
   </dipole>
   <energy>
    <i name="e_fr_energy">   -220.43265294 </i>
    <i name="e_wo_entrp">   -220.11402657 </i>
    <i name="e_0_energy">   -220.27333976 </i>
   </energy>
  </scstep>
  <scstep>
   <time name="diag">    1.55    1.56</time>
   <time name="diis">    2.47    2.47</time>
   <time name="orth">    0.43    0.43</time>
   <time name="total">    4.77    4.78</time>
   <dipole>
    <v name="dipole">      0.00000000       0.00000000       1.35207361 </v>
    <i name="Tr[quadrupol]"> -11350.69208372 </i>
    <i name="Echarged">      0.00000000 </i>
    <i name="Edipol_quadrupol">      0.00000000 </i>
    <i name="Eion">      0.00000000 </i>
   </dipole>
   <energy>
    <i name="e_fr_energy">   -220.43267412 </i>
    <i name="e_wo_entrp">   -220.11403733 </i>
    <i name="e_0_energy">   -220.27335572 </i>
   </energy>
  </scstep>
  <scstep>
   <time name="diag">    1.56    1.56</time>
   <time name="diis">    2.44    2.44</time>
   <time name="orth">    0.43    0.43</time>
   <time name="total">    4.74    4.75</time>
   <dipole>
    <v name="dipole">      0.00000000       0.00000000       1.35327903 </v>
    <i name="Tr[quadrupol]"> -11350.69432633 </i>
    <i name="Echarged">      0.00000000 </i>
    <i name="Edipol_quadrupol">      0.00000000 </i>
    <i name="Eion">      0.00000000 </i>
   </dipole>
   <energy>
    <i name="e_fr_energy">   -220.43268331 </i>
    <i name="e_wo_entrp">   -220.11403728 </i>
    <i name="e_0_energy">   -220.27336029 </i>
   </energy>
  </scstep>
  <scstep>
   <time name="diag">    1.55    1.55</time>
   <time name="diis">    2.08    2.09</time>
   <time name="orth">    0.43    0.43</time>
   <time name="total">    4.37    4.39</time>
   <dipole>
    <v name="dipole">      0.00000000       0.00000000       1.35418775 </v>
    <i name="Tr[quadrupol]"> -11350.69584122 </i>
    <i name="Echarged">      0.00000000 </i>
    <i name="Edipol_quadrupol">      0.00000000 </i>
    <i name="Eion">      0.00000000 </i>
   </dipole>
   <energy>
    <i name="e_fr_energy">   -220.43268881 </i>
    <i name="e_wo_entrp">   -220.11403444 </i>
    <i name="e_0_energy">   -220.27336162 </i>
   </energy>
  </scstep>
  <scstep>
   <time name="diag">    1.56    1.56</time>
   <time name="diis">    2.02    2.04</time>
   <time name="orth">    0.43    0.43</time>
   <time name="total">    4.31    4.34</time>
   <dipole>
    <v name="dipole">      0.00000000       0.00000000       1.35452089 </v>
    <i name="Tr[quadrupol]"> -11350.69625914 </i>
    <i name="Echarged">      0.00000000 </i>
    <i name="Edipol_quadrupol">      0.00000000 </i>
    <i name="Eion">      0.00000000 </i>
   </dipole>
   <energy>
    <i name="e_fr_energy">   -220.43269098 </i>
    <i name="e_wo_entrp">   -220.11403459 </i>
    <i name="e_0_energy">   -220.27336279 </i>
   </energy>
  </scstep>
  <scstep>
   <time name="diag">    1.53    1.60</time>
   <time name="diis">    1.85    1.85</time>
   <time name="orth">    0.43    0.43</time>
   <time name="total">    4.12    4.20</time>
   <dipole>
    <v name="dipole">      0.00000000       0.00000000       1.35479204 </v>
    <i name="Tr[quadrupol]"> -11350.69658137 </i>
    <i name="Echarged">      0.00000000 </i>
    <i name="Edipol_quadrupol">      0.00000000 </i>
    <i name="Eion">      0.00000000 </i>
   </dipole>
   <energy>
    <i name="e_fr_energy">   -220.43269238 </i>
    <i name="e_wo_entrp">   -220.11403491 </i>
    <i name="e_0_energy">   -220.27336365 </i>
   </energy>
  </scstep>
  <scstep>
   <time name="diag">    1.55    1.56</time>
   <time name="diis">    1.77    1.78</time>
   <time name="orth">    0.43    0.43</time>
   <time name="total">    3.81    3.82</time>
   <dipole>
    <v name="dipole">      0.00000000       0.00000000       1.35497542 </v>
    <i name="Tr[quadrupol]"> -11350.69678509 </i>
    <i name="Echarged">      0.00000000 </i>
    <i name="Edipol_quadrupol">      0.00000000 </i>
    <i name="Eion">      0.00000000 </i>
   </dipole>
   <energy>
    <i name="alphaZ">    887.90076033 </i>
    <i name="ewald"> 255404.70527347 </i>
    <i name="hartreedc">-300415.78396808 </i>
    <i name="XCdc">   -124.19726143 </i>
    <i name="pawpsdc">  52852.79158945 </i>
    <i name="pawaedc"> -50951.38198133 </i>
    <i name="eentropy">     -0.31866009 </i>
    <i name="bandstr">  -2992.03988622 </i>
    <i name="atom">  45117.89144060 </i>
    <i name="e_fr_energy">   -220.43269329 </i>
    <i name="e_wo_entrp">   -220.11403320 </i>
    <i name="e_0_energy">   -220.27336325 </i>
   </energy>
  </scstep>
  <structure>
   <crystal>
    <varray name="basis" >
     <v>      11.00258152       0.00000000       0.00000000 </v>
     <v>       5.50129076       9.52851510       0.00000000 </v>
     <v>       0.00000000       0.00000000      26.19178509 </v>
    </varray>
    <i name="volume">   2745.90128299 </i>
    <varray name="rec_basis" >
     <v>       0.09088776      -0.05247407       0.00000000 </v>
     <v>       0.00000000       0.10494815       0.00000000 </v>
     <v>       0.00000000       0.00000000       0.03817991 </v>
    </varray>
   </crystal>
   <varray name="positions" >
    <v>       0.08333333       0.08333333       0.38179910 </v>
    <v>       0.83333333       0.08333333       0.38179910 </v>
    <v>       0.83333333       0.83333333       0.38179910 </v>
    <v>       0.00000000       0.25000000       0.55329505 </v>
    <v>       0.08333333       0.58333333       0.38179910 </v>
    <v>       0.66666667       0.91666667       0.46754708 </v>
    <v>       0.75000000       0.00000000       0.55329505 </v>
    <v>       0.91666667       0.16666667       0.46754708 </v>
    <v>       0.66666667       0.16666667       0.46754708 </v>
    <v>       0.91666667       0.91666667       0.46754708 </v>
    <v>       0.25000000       0.00000000       0.55329505 </v>
    <v>       0.50000000       0.75000000       0.55329505 </v>
    <v>       0.33333333       0.08333333       0.38179910 </v>
    <v>       0.33333333       0.33333333       0.38179910 </v>
    <v>       0.16666667       0.41666667       0.46754708 </v>
    <v>       0.25000000       0.25000000       0.55329505 </v>
    <v>       0.16666667       0.66666667       0.46754708 </v>
    <v>       0.66666667       0.66666667       0.46754708 </v>
    <v>       0.41666667       0.66666667       0.46754708 </v>
    <v>       0.75000000       0.75000000       0.55329505 </v>
    <v>       0.58333333       0.08333333       0.38179910 </v>
    <v>       0.58333333       0.58333333       0.38179910 </v>
    <v>       0.50000000       0.00000000       0.55329505 </v>
    <v>       0.58333333       0.33333333       0.38179910 </v>
    <v>       0.83333333       0.08333333       0.61820090 </v>
    <v>       0.08333333       0.58333333       0.61820090 </v>
    <v>       0.33333333       0.08333333       0.61820090 </v>
    <v>       0.33333333       0.33333333       0.61820090 </v>
    <v>       0.58333333       0.33333333       0.61820090 </v>
    <v>       0.58333333       0.58333333       0.61820090 </v>
    <v>       0.58333333       0.08333333       0.61820090 </v>
    <v>       0.58333333       0.83333333       0.61820090 </v>
    <v>       0.25000000       0.75000000       0.55329505 </v>
    <v>       0.16666667       0.91666667       0.46754708 </v>
    <v>       0.75000000       0.50000000       0.55329505 </v>
    <v>       0.25000000       0.50000000       0.55329505 </v>
    <v>       0.33333333       0.58333333       0.38179910 </v>
    <v>       0.16666667       0.16666667       0.46754708 </v>
    <v>       0.83333333       0.58333333       0.38179910 </v>
    <v>       0.00000000       0.75000000       0.55329505 </v>
    <v>       0.08333333       0.83333333       0.38179910 </v>
    <v>       0.00000000       0.50000000       0.55329505 </v>
    <v>       0.91666667       0.66666667       0.46754708 </v>
    <v>       0.91666667       0.41666667       0.46754708 </v>
    <v>       0.08333333       0.33333333       0.38179910 </v>
    <v>       0.00000000       0.00000000       0.55329505 </v>
    <v>       0.41666667       0.41666667       0.46754708 </v>
    <v>       0.33333333       0.83333333       0.38179910 </v>
    <v>       0.58333333       0.83333333       0.38179910 </v>
    <v>       0.41666667       0.91666667       0.46754708 </v>
    <v>       0.75000000       0.25000000       0.55329505 </v>
    <v>       0.66666667       0.41666667       0.46754708 </v>
    <v>       0.83333333       0.33333333       0.38179910 </v>
    <v>       0.50000000       0.50000000       0.55329505 </v>
    <v>       0.41666667       0.16666667       0.46754708 </v>
    <v>       0.50000000       0.25000000       0.55329505 </v>
   </varray>
  </structure>
  <varray name="forces" >
   <v>       0.18807186      -0.05039451      -1.21375785 </v>
   <v>       0.26488758      -0.02771262      -1.85064668 </v>
   <v>      -0.14781656      -0.36952538      -1.58463263 </v>
   <v>      -0.23472935       0.30650299       1.11400551 </v>
   <v>      -0.18090041       0.05149127      -1.45292228 </v>
   <v>      -0.44648215      -0.00571086       0.02250921 </v>
   <v>       0.48779664      -0.22246758       2.59286955 </v>
   <v>       0.22874693       0.45402408       0.34501239 </v>
   <v>      -0.37137419       0.78738424       0.54882583 </v>
   <v>       0.44442960      -0.54183243       0.57604916 </v>
   <v>      -0.70041383      -0.18988184       1.58556591 </v>
   <v>      -0.68521727      -0.35320215       2.29450836 </v>
   <v>      -0.13479257      -0.29353061      -1.05832745 </v>
   <v>       0.02819952       0.10917142      -1.34929339 </v>
   <v>      -0.36343737      -0.26022971       0.27845392 </v>
   <v>      -0.20302779       0.48730587       2.24881862 </v>
   <v>       0.23638923       0.03530617       0.38017710 </v>
   <v>       0.29441559      -0.42872865      -0.42247395 </v>
   <v>      -0.24200453      -0.00817788       0.32640453 </v>
   <v>       0.53727423      -0.74732694       2.03978985 </v>
   <v>      -0.30392765      -0.12717135      -1.67463481 </v>
   <v>       0.09848654      -0.00890152      -1.44673668 </v>
   <v>       0.09630026       0.21595517       2.13935623 </v>
   <v>       0.08846131       0.41410860      -1.37898632 </v>
   <v>       0.75472576      -0.10491076      -2.81401687 </v>
   <v>      -0.05088288       0.15202893      -3.45065476 </v>
   <v>      -0.74049142      -0.02398437      -1.70148346 </v>
   <v>       0.11832341       0.42153046      -2.51430313 </v>
   <v>       0.07830186       0.33512088      -3.04148172 </v>
   <v>       0.01089686      -0.49396257      -2.73160283 </v>
   <v>       0.13212819       0.27997923      -1.85505536 </v>
   <v>       0.34860207      -0.32269891      -1.58239129 </v>
   <v>      -0.29709638       0.01814594       0.70677331 </v>
   <v>       0.20168521       0.10051059       0.55722895 </v>
   <v>      -0.18556078      -0.10962380       1.58891482 </v>
   <v>      -0.16669182       0.20741174       2.86065392 </v>
   <v>       0.05079541       0.13248836      -0.80145589 </v>
   <v>       0.17290808       0.08853772      -0.05995006 </v>
   <v>       0.01524887      -0.17148830      -0.62708150 </v>
   <v>       0.13154784      -0.63592873       1.87537425 </v>
   <v>       0.29398870      -0.05838814      -0.81117825 </v>
   <v>       0.24926431       0.50352676       1.61454086 </v>
   <v>      -0.25732014      -0.27289663       0.29331772 </v>
   <v>       0.00714278       0.12353262       0.34825780 </v>
   <v>      -0.33008848       0.13084928      -0.63637008 </v>
   <v>      -0.11173565      -0.07187238       1.72169457 </v>
   <v>       0.12832597      -0.01011544       0.88904222 </v>
   <v>      -0.06989246       0.02111328      -0.62413090 </v>
   <v>      -0.10746427      -0.02730186      -0.81882627 </v>
   <v>      -0.14475207       0.11141770      -0.04923588 </v>
   <v>      -0.00958101       0.18338386       2.84854335 </v>
   <v>       0.10286016      -0.17426027       0.32440566 </v>
   <v>       0.22478632       0.20867813      -0.66795457 </v>
   <v>       0.17353209      -0.19090488       2.53975470 </v>
   <v>       0.04524226      -0.01464893       0.42041190 </v>
   <v>       0.25191560       0.43827472       3.13832464 </v>
  </varray>
  <energy>
   <i name="e_fr_energy">   -220.43269329 </i>
   <i name="e_wo_entrp">   -220.27336325 </i>
   <i name="e_0_energy">     -0.31866009 </i>
  </energy>
  <time name="totalsc">  311.33  316.62</time>
 </calculation>
 <calculation>
  <scstep>
   <time name="dav">    8.74    8.76</time>
   <time name="total">    9.06    9.08</time>
   <dipole>
    <v name="dipole">      0.00000000       0.00000000       1.35506512 </v>
    <i name="Tr[quadrupol]"> -11347.24550769 </i>
    <i name="Echarged">      0.00000000 </i>
    <i name="Edipol_quadrupol">      0.00000000 </i>
    <i name="Eion">      0.00000000 </i>
   </dipole>
   <energy>
    <i name="alphaZ">    887.07374092 </i>
    <i name="ewald"> 254559.78181127 </i>
    <i name="hartreedc">-299562.04462842 </i>
    <i name="XCdc">   -123.96060945 </i>
    <i name="pawpsdc">  52852.79205517 </i>
    <i name="pawaedc"> -50951.38243310 </i>
    <i name="eentropy">     -0.26443801 </i>
    <i name="bandstr">  -3002.57262100 </i>
    <i name="atom">  45117.89144060 </i>
    <i name="e_fr_energy">   -222.68568201 </i>
    <i name="e_wo_entrp">   -222.42124400 </i>
    <i name="e_0_energy">   -222.55346301 </i>
   </energy>
  </scstep>
  <scstep>
   <time name="diag">    1.55    1.55</time>
   <time name="diis">    4.13    4.14</time>
   <time name="orth">    0.42    0.42</time>
   <time name="total">    6.40    6.42</time>
   <dipole>
    <v name="dipole">      0.00000000       0.00000000       0.91482473 </v>
    <i name="Tr[quadrupol]"> -11346.85634214 </i>
    <i name="Echarged">      0.00000000 </i>
    <i name="Edipol_quadrupol">      0.00000000 </i>
    <i name="Eion">      0.00000000 </i>
   </dipole>
   <energy>
    <i name="e_fr_energy">   -228.70902714 </i>
    <i name="e_wo_entrp">   -228.30809867 </i>
    <i name="e_0_energy">   -228.50856290 </i>
   </energy>
  </scstep>
  <scstep>
   <time name="diag">    1.56    1.56</time>
   <time name="diis">    4.17    4.18</time>
   <time name="orth">    0.42    0.42</time>
   <time name="total">    6.45    6.47</time>
   <dipole>
    <v name="dipole">      0.00000000       0.00000000       1.32966876 </v>
    <i name="Tr[quadrupol]"> -11347.12217940 </i>
    <i name="Echarged">      0.00000000 </i>
    <i name="Edipol_quadrupol">      0.00000000 </i>
    <i name="Eion">      0.00000000 </i>
   </dipole>
   <energy>
    <i name="e_fr_energy">   -225.11359102 </i>
    <i name="e_wo_entrp">   -224.85275979 </i>
    <i name="e_0_energy">   -224.98317540 </i>
   </energy>
  </scstep>
  <scstep>
   <time name="diag">    1.55    1.56</time>
   <time name="diis">    4.14    4.15</time>
   <time name="orth">    0.42    0.42</time>
   <time name="total">    6.42    6.44</time>
   <dipole>
    <v name="dipole">      0.00000000       0.00000000       0.99972664 </v>
    <i name="Tr[quadrupol]"> -11347.28798972 </i>
    <i name="Echarged">      0.00000000 </i>
    <i name="Edipol_quadrupol">      0.00000000 </i>
    <i name="Eion">      0.00000000 </i>
   </dipole>
   <energy>
    <i name="e_fr_energy">   -226.03812847 </i>
    <i name="e_wo_entrp">   -225.68643537 </i>
    <i name="e_0_energy">   -225.86228192 </i>
   </energy>
  </scstep>
  <scstep>
   <time name="diag">    1.53    1.60</time>
   <time name="diis">    4.09    4.10</time>
   <time name="orth">    0.42    0.42</time>
   <time name="total">    6.34    6.43</time>
   <dipole>
    <v name="dipole">      0.00000000       0.00000000       1.02267895 </v>
    <i name="Tr[quadrupol]"> -11347.53744252 </i>
    <i name="Echarged">      0.00000000 </i>
    <i name="Edipol_quadrupol">      0.00000000 </i>
    <i name="Eion">      0.00000000 </i>
   </dipole>
   <energy>
    <i name="e_fr_energy">   -225.33107860 </i>
    <i name="e_wo_entrp">   -224.95157295 </i>
    <i name="e_0_energy">   -225.14132578 </i>
   </energy>
  </scstep>
  <scstep>
   <time name="diag">    1.54    1.55</time>
   <time name="diis">    4.11    4.13</time>
   <time name="orth">    0.42    0.43</time>
   <time name="total">    6.39    6.41</time>
   <dipole>
    <v name="dipole">      0.00000000       0.00000000       1.06473766 </v>
    <i name="Tr[quadrupol]"> -11347.66531031 </i>
    <i name="Echarged">      0.00000000 </i>
    <i name="Edipol_quadrupol">      0.00000000 </i>
    <i name="Eion">      0.00000000 </i>
   </dipole>
   <energy>
    <i name="e_fr_energy">   -224.95243769 </i>
    <i name="e_wo_entrp">   -224.60734357 </i>
    <i name="e_0_energy">   -224.77989063 </i>
   </energy>
  </scstep>
  <scstep>
   <time name="diag">    1.56    1.56</time>
   <time name="diis">    4.13    4.14</time>
   <time name="orth">    0.42    0.42</time>
   <time name="total">    6.41    6.43</time>
   <dipole>
    <v name="dipole">      0.00000000       0.00000000       1.08653963 </v>
    <i name="Tr[quadrupol]"> -11347.72635942 </i>
    <i name="Echarged">      0.00000000 </i>
    <i name="Edipol_quadrupol">      0.00000000 </i>
    <i name="Eion">      0.00000000 </i>
   </dipole>
   <energy>
    <i name="e_fr_energy">   -224.73522975 </i>
    <i name="e_wo_entrp">   -224.41172573 </i>
    <i name="e_0_energy">   -224.57347774 </i>
   </energy>
  </scstep>
  <scstep>
   <time name="diag">    1.55    1.56</time>
   <time name="diis">    4.14    4.15</time>
   <time name="orth">    0.43    0.43</time>
   <time name="total">    6.43    6.45</time>
   <dipole>
    <v name="dipole">      0.00000000       0.00000000       1.13839050 </v>
    <i name="Tr[quadrupol]"> -11347.88528413 </i>
    <i name="Echarged">      0.00000000 </i>
    <i name="Edipol_quadrupol">      0.00000000 </i>
    <i name="Eion">      0.00000000 </i>
   </dipole>
   <energy>
    <i name="e_fr_energy">   -224.60685458 </i>
    <i name="e_wo_entrp">   -224.29140090 </i>
    <i name="e_0_energy">   -224.44912774 </i>
   </energy>
  </scstep>
  <scstep>
   <time name="diag">    1.56    1.57</time>
   <time name="diis">    4.11    4.12</time>
   <time name="orth">    0.42    0.43</time>
   <time name="total">    6.40    6.42</time>
   <dipole>
    <v name="dipole">      0.00000000       0.00000000       1.13800576 </v>
    <i name="Tr[quadrupol]"> -11347.94047909 </i>
    <i name="Echarged">      0.00000000 </i>
    <i name="Edipol_quadrupol">      0.00000000 </i>
    <i name="Eion">      0.00000000 </i>
   </dipole>
   <energy>
    <i name="e_fr_energy">   -224.56865152 </i>
    <i name="e_wo_entrp">   -224.26328456 </i>
    <i name="e_0_energy">   -224.41596804 </i>
   </energy>
  </scstep>
  <scstep>
   <time name="diag">    1.54    1.55</time>
   <time name="diis">    4.14    4.15</time>
   <time name="orth">    0.42    0.43</time>
   <time name="total">    6.42    6.44</time>
   <dipole>
    <v name="dipole">      0.00000000       0.00000000       1.13812325 </v>
    <i name="Tr[quadrupol]"> -11348.00738849 </i>
    <i name="Echarged">      0.00000000 </i>
    <i name="Edipol_quadrupol">      0.00000000 </i>
    <i name="Eion">      0.00000000 </i>
   </dipole>
   <energy>
    <i name="e_fr_energy">   -224.54533452 </i>
    <i name="e_wo_entrp">   -224.24000516 </i>
    <i name="e_0_energy">   -224.39266984 </i>
   </energy>
  </scstep>
  <scstep>
   <time name="diag">    1.56    1.56</time>
   <time name="diis">    3.99    4.09</time>
   <time name="orth">    0.42    0.43</time>
   <time name="total">    6.27    6.38</time>
   <dipole>
    <v name="dipole">      0.00000000       0.00000000       1.14119434 </v>
    <i name="Tr[quadrupol]"> -11348.01397675 </i>
    <i name="Echarged">      0.00000000 </i>
    <i name="Edipol_quadrupol">      0.00000000 </i>
    <i name="Eion">      0.00000000 </i>
   </dipole>
   <energy>
    <i name="e_fr_energy">   -224.54004745 </i>
    <i name="e_wo_entrp">   -224.23817180 </i>
    <i name="e_0_energy">   -224.38910963 </i>
   </energy>
  </scstep>
  <scstep>
   <time name="diag">    1.56    1.56</time>
   <time name="diis">    4.13    4.14</time>
   <time name="orth">    0.42    0.43</time>
   <time name="total">    6.42    6.44</time>
   <dipole>
    <v name="dipole">      0.00000000       0.00000000       1.14488725 </v>
    <i name="Tr[quadrupol]"> -11348.01667866 </i>
    <i name="Echarged">      0.00000000 </i>
    <i name="Edipol_quadrupol">      0.00000000 </i>
    <i name="Eion">      0.00000000 </i>
   </dipole>
   <energy>
    <i name="e_fr_energy">   -224.53837526 </i>
    <i name="e_wo_entrp">   -224.23845093 </i>
    <i name="e_0_energy">   -224.38841310 </i>
   </energy>
  </scstep>
  <scstep>
   <time name="diag">    1.55    1.56</time>
   <time name="diis">    4.08    4.09</time>
   <time name="orth">    0.42    0.42</time>
   <time name="total">    6.37    6.39</time>
   <dipole>
    <v name="dipole">      0.00000000       0.00000000       1.14327482 </v>
    <i name="Tr[quadrupol]"> -11348.02590780 </i>
    <i name="Echarged">      0.00000000 </i>
    <i name="Edipol_quadrupol">      0.00000000 </i>
    <i name="Eion">      0.00000000 </i>
   </dipole>
   <energy>
    <i name="e_fr_energy">   -224.53703151 </i>
    <i name="e_wo_entrp">   -224.23562499 </i>
    <i name="e_0_energy">   -224.38632825 </i>
   </energy>
  </scstep>
  <scstep>
   <time name="diag">    1.56    1.57</time>
   <time name="diis">    4.17    4.18</time>
   <time name="orth">    0.42    0.42</time>
   <time name="total">    6.46    6.48</time>
   <dipole>
    <v name="dipole">      0.00000000       0.00000000       1.14594088 </v>
    <i name="Tr[quadrupol]"> -11348.04168051 </i>
    <i name="Echarged">      0.00000000 </i>
    <i name="Edipol_quadrupol">      0.00000000 </i>
    <i name="Eion">      0.00000000 </i>
   </dipole>
   <energy>
    <i name="e_fr_energy">   -224.53636523 </i>
    <i name="e_wo_entrp">   -224.23587905 </i>
    <i name="e_0_energy">   -224.38612214 </i>
   </energy>
  </scstep>
  <scstep>
   <time name="diag">    1.57    1.57</time>
   <time name="diis">    4.13    4.15</time>
   <time name="orth">    0.42    0.42</time>
   <time name="total">    6.43    6.45</time>
   <dipole>
    <v name="dipole">      0.00000000       0.00000000       1.14516513 </v>
    <i name="Tr[quadrupol]"> -11348.04602069 </i>
    <i name="Echarged">      0.00000000 </i>
    <i name="Edipol_quadrupol">      0.00000000 </i>
    <i name="Eion">      0.00000000 </i>
   </dipole>
   <energy>
    <i name="e_fr_energy">   -224.53608389 </i>
    <i name="e_wo_entrp">   -224.23656072 </i>
    <i name="e_0_energy">   -224.38632230 </i>
   </energy>
  </scstep>
  <scstep>
   <time name="diag">    1.56    1.57</time>
   <time name="diis">    4.14    4.15</time>
   <time name="orth">    0.42    0.43</time>
   <time name="total">    6.43    6.45</time>
   <dipole>
    <v name="dipole">      0.00000000       0.00000000       1.14571624 </v>
    <i name="Tr[quadrupol]"> -11348.05707164 </i>
    <i name="Echarged">      0.00000000 </i>
    <i name="Edipol_quadrupol">      0.00000000 </i>
    <i name="Eion">      0.00000000 </i>
   </dipole>
   <energy>
    <i name="e_fr_energy">   -224.53591153 </i>
    <i name="e_wo_entrp">   -224.23634665 </i>
    <i name="e_0_energy">   -224.38612909 </i>
   </energy>
  </scstep>
  <scstep>
   <time name="diag">    1.55    1.56</time>
   <time name="diis">    4.00    4.09</time>
   <time name="orth">    0.42    0.42</time>
   <time name="total">    6.28    6.39</time>
   <dipole>
    <v name="dipole">      0.00000000       0.00000000       1.14520044 </v>
    <i name="Tr[quadrupol]"> -11348.06376114 </i>
    <i name="Echarged">      0.00000000 </i>
    <i name="Edipol_quadrupol">      0.00000000 </i>
    <i name="Eion">      0.00000000 </i>
   </dipole>
   <energy>
    <i name="e_fr_energy">   -224.53589226 </i>
    <i name="e_wo_entrp">   -224.23655348 </i>
    <i name="e_0_energy">   -224.38622287 </i>
   </energy>
  </scstep>
  <scstep>
   <time name="diag">    1.55    1.55</time>
   <time name="diis">    4.12    4.13</time>
   <time name="orth">    0.43    0.43</time>
   <time name="total">    6.40    6.42</time>
   <dipole>
    <v name="dipole">      0.00000000       0.00000000       1.14488915 </v>
    <i name="Tr[quadrupol]"> -11348.07926864 </i>
    <i name="Echarged">      0.00000000 </i>
    <i name="Edipol_quadrupol">      0.00000000 </i>
    <i name="Eion">      0.00000000 </i>
   </dipole>
   <energy>
    <i name="e_fr_energy">   -224.53594911 </i>
    <i name="e_wo_entrp">   -224.23717377 </i>
    <i name="e_0_energy">   -224.38656144 </i>
   </energy>
  </scstep>
  <scstep>
   <time name="diag">    1.56    1.56</time>
   <time name="diis">    4.13    4.14</time>
   <time name="orth">    0.43    0.43</time>
   <time name="total">    6.42    6.43</time>
   <dipole>
    <v name="dipole">      0.00000000       0.00000000       1.14438286 </v>
    <i name="Tr[quadrupol]"> -11348.08748771 </i>
    <i name="Echarged">      0.00000000 </i>
    <i name="Edipol_quadrupol">      0.00000000 </i>
    <i name="Eion">      0.00000000 </i>
   </dipole>
   <energy>
    <i name="e_fr_energy">   -224.53600752 </i>
    <i name="e_wo_entrp">   -224.23747112 </i>
    <i name="e_0_energy">   -224.38673932 </i>
   </energy>
  </scstep>
  <scstep>
   <time name="diag">    1.56    1.56</time>
   <time name="diis">    4.06    4.07</time>
   <time name="orth">    0.43    0.43</time>
   <time name="total">    6.35    6.37</time>
   <dipole>
    <v name="dipole">      0.00000000       0.00000000       1.14393891 </v>
    <i name="Tr[quadrupol]"> -11348.09597422 </i>
    <i name="Echarged">      0.00000000 </i>
    <i name="Edipol_quadrupol">      0.00000000 </i>
    <i name="Eion">      0.00000000 </i>
   </dipole>
   <energy>
    <i name="e_fr_energy">   -224.53607839 </i>
    <i name="e_wo_entrp">   -224.23760358 </i>
    <i name="e_0_energy">   -224.38684099 </i>
   </energy>
  </scstep>
  <scstep>
   <time name="diag">    1.55    1.56</time>
   <time name="diis">    3.54    3.55</time>
   <time name="orth">    0.43    0.43</time>
   <time name="total">    5.83    5.85</time>
   <dipole>
    <v name="dipole">      0.00000000       0.00000000       1.14368847 </v>
    <i name="Tr[quadrupol]"> -11348.10115772 </i>
    <i name="Echarged">      0.00000000 </i>
    <i name="Edipol_quadrupol">      0.00000000 </i>
    <i name="Eion">      0.00000000 </i>
   </dipole>
[...]
       <r>   -19.5012     9.9248    13.7520 </r>
       <r>   -19.4068     6.1293    14.3305 </r>
       <r>   -19.3124    10.3157    15.3041 </r>
       <r>   -19.2180     6.4789    15.9156 </r>
       <r>   -19.1236     0.8704    15.9978 </r>
       <r>   -19.0293     0.0233    16.0000 </r>
       <r>   -18.9349     0.0001    16.0000 </r>
       <r>   -18.8405     0.0000    16.0000 </r>
       <r>   -18.7461     0.0000    16.0000 </r>
       <r>   -18.6517     0.0000    16.0000 </r>
       <r>   -18.5573     0.0000    16.0000 </r>
       <r>   -18.4629     0.0000    16.0000 </r>
       <r>   -18.3686     0.0000    16.0000 </r>
       <r>   -18.2742     0.0000    16.0000 </r>
       <r>   -18.1798     0.0000    16.0000 </r>
       <r>   -18.0854     0.0000    16.0000 </r>
       <r>   -17.9910     0.0000    16.0000 </r>
       <r>   -17.8966     0.0000    16.0000 </r>
       <r>   -17.8023     0.0000    16.0000 </r>
       <r>   -17.7079     0.0000    16.0000 </r>
       <r>   -17.6135     0.0000    16.0000 </r>
       <r>   -17.5191     0.0000    16.0000 </r>
       <r>   -17.4247     0.0000    16.0000 </r>
       <r>   -17.3303     0.0000    16.0000 </r>
       <r>   -17.2359     0.0000    16.0000 </r>
       <r>   -17.1416     0.0000    16.0000 </r>
       <r>   -17.0472     0.0000    16.0000 </r>
       <r>   -16.9528     0.0000    16.0000 </r>
       <r>   -16.8584     0.0000    16.0000 </r>
       <r>   -16.7640     0.0000    16.0000 </r>
       <r>   -16.6696     0.0000    16.0000 </r>
       <r>   -16.5752     0.0000    16.0000 </r>
       <r>   -16.4809     0.0000    16.0000 </r>
       <r>   -16.3865     0.0000    16.0000 </r>
       <r>   -16.2921     0.0000    16.0000 </r>
       <r>   -16.1977     0.0000    16.0000 </r>
       <r>   -16.1033     0.0000    16.0000 </r>
       <r>   -16.0089     0.0000    16.0000 </r>
       <r>   -15.9146     0.0000    16.0000 </r>
       <r>   -15.8202     0.0000    16.0000 </r>
       <r>   -15.7258     0.0000    16.0000 </r>
       <r>   -15.6314     0.0000    16.0000 </r>
       <r>   -15.5370     0.0000    16.0000 </r>
       <r>   -15.4426     0.0000    16.0000 </r>
       <r>   -15.3482     0.0000    16.0000 </r>
       <r>   -15.2539     0.0000    16.0000 </r>
       <r>   -15.1595     0.0000    16.0000 </r>
       <r>   -15.0651     0.0000    16.0000 </r>
       <r>   -14.9707     0.0000    16.0000 </r>
       <r>   -14.8763     0.0000    16.0000 </r>
       <r>   -14.7819     0.0000    16.0000 </r>
       <r>   -14.6875     0.0000    16.0000 </r>
       <r>   -14.5932     0.0000    16.0000 </r>
       <r>   -14.4988     0.0000    16.0000 </r>
       <r>   -14.4044     0.0000    16.0000 </r>
       <r>   -14.3100     0.0000    16.0000 </r>
       <r>   -14.2156     0.0000    16.0000 </r>
       <r>   -14.1212     0.0000    16.0000 </r>
       <r>   -14.0269     0.0000    16.0000 </r>
       <r>   -13.9325     0.0000    16.0000 </r>
       <r>   -13.8381     0.0000    16.0000 </r>
       <r>   -13.7437     0.0000    16.0000 </r>
       <r>   -13.6493     0.0000    16.0000 </r>
       <r>   -13.5549     0.0000    16.0000 </r>
       <r>   -13.4605     0.0000    16.0000 </r>
       <r>   -13.3662     0.0000    16.0000 </r>
       <r>   -13.2718     0.0000    16.0000 </r>
       <r>   -13.1774     0.0000    16.0000 </r>
       <r>   -13.0830     0.0000    16.0000 </r>
       <r>   -12.9886     0.0000    16.0000 </r>
       <r>   -12.8942     0.0000    16.0000 </r>
       <r>   -12.7998     0.0000    16.0000 </r>
       <r>   -12.7055     0.0000    16.0000 </r>
       <r>   -12.6111     0.0000    16.0000 </r>
       <r>   -12.5167     0.0000    16.0000 </r>
       <r>   -12.4223     0.0000    16.0000 </r>
       <r>   -12.3279     0.0000    16.0000 </r>
       <r>   -12.2335     0.0000    16.0000 </r>
       <r>   -12.1392     0.0000    16.0000 </r>
       <r>   -12.0448     0.0000    16.0000 </r>
       <r>   -11.9504     0.0000    16.0000 </r>
       <r>   -11.8560     0.0000    16.0000 </r>
       <r>   -11.7616     0.0000    16.0000 </r>
       <r>   -11.6672     0.0000    16.0000 </r>
       <r>   -11.5728     0.0000    16.0000 </r>
       <r>   -11.4785     0.0000    16.0000 </r>
       <r>   -11.3841     0.0000    16.0000 </r>
       <r>   -11.2897     0.0000    16.0000 </r>
       <r>   -11.1953     0.0000    16.0000 </r>
       <r>   -11.1009     0.0000    16.0000 </r>
       <r>   -11.0065     0.0000    16.0000 </r>
       <r>   -10.9122     0.0000    16.0000 </r>
       <r>   -10.8178     0.0000    16.0000 </r>
       <r>   -10.7234     0.0000    16.0000 </r>
       <r>   -10.6290     0.0000    16.0000 </r>
       <r>   -10.5346     0.0000    16.0000 </r>
       <r>   -10.4402     0.0000    16.0000 </r>
       <r>   -10.3458     0.0000    16.0000 </r>
       <r>   -10.2515     0.0000    16.0000 </r>
       <r>   -10.1571     0.0000    16.0000 </r>
       <r>   -10.0627     0.0000    16.0000 </r>
       <r>    -9.9683     0.0000    16.0000 </r>
       <r>    -9.8739     0.0000    16.0000 </r>
       <r>    -9.7795     0.0000    16.0000 </r>
       <r>    -9.6851     0.0000    16.0000 </r>
       <r>    -9.5908     0.0000    16.0000 </r>
       <r>    -9.4964     0.0000    16.0000 </r>
       <r>    -9.4020     0.0000    16.0000 </r>
       <r>    -9.3076     0.0037    16.0004 </r>
       <r>    -9.2132     0.2093    16.0201 </r>
       <r>    -9.1188     2.3038    16.2376 </r>
       <r>    -9.0245     5.6403    16.7699 </r>
       <r>    -8.9301     5.6803    17.3060 </r>
       <r>    -8.8357     5.3879    17.8146 </r>
       <r>    -8.7413     1.8495    17.9892 </r>
       <r>    -8.6469     0.7501    18.0600 </r>
       <r>    -8.5525     4.3611    18.4716 </r>
       <r>    -8.4581    10.6151    19.4735 </r>
       <r>    -8.3638    16.2679    21.0089 </r>
       <r>    -8.2694    20.5248    22.9462 </r>
       <r>    -8.1750    24.0168    25.2130 </r>
       <r>    -8.0806    25.6204    27.6312 </r>
       <r>    -7.9862    22.7400    29.7775 </r>
       <r>    -7.8918    23.5568    32.0009 </r>
       <r>    -7.7974    28.3650    34.6781 </r>
       <r>    -7.7031    30.2805    37.5361 </r>
       <r>    -7.6087    32.6940    40.6220 </r>
       <r>    -7.5143    32.0636    43.6483 </r>
       <r>    -7.4199    36.3005    47.0745 </r>
       <r>    -7.3255    47.5335    51.5610 </r>
       <r>    -7.2311    56.2083    56.8662 </r>
       <r>    -7.1368    59.7316    62.5039 </r>
       <r>    -7.0424    57.1913    67.9019 </r>
       <r>    -6.9480    60.7372    73.6346 </r>
       <r>    -6.8536    69.9770    80.2394 </r>
       <r>    -6.7592    76.0210    87.4146 </r>
       <r>    -6.6648    77.2619    94.7070 </r>
       <r>    -6.5704    77.6165   102.0328 </r>
       <r>    -6.4761    76.0822   109.2138 </r>
       <r>    -6.3817    77.2023   116.5005 </r>
       <r>    -6.2873    84.4853   124.4747 </r>
       <r>    -6.1929    86.0999   132.6012 </r>
       <r>    -6.0985    84.2863   140.5566 </r>
       <r>    -6.0041    83.2231   148.4116 </r>
       <r>    -5.9097    80.4920   156.0088 </r>
       <r>    -5.8154    77.5956   163.3327 </r>
       <r>    -5.7210    78.4658   170.7387 </r>
       <r>    -5.6266    81.4154   178.4231 </r>
       <r>    -5.5322    79.8907   185.9635 </r>
       <r>    -5.4378    78.0918   193.3342 </r>
       <r>    -5.3434    82.8434   201.1534 </r>
       <r>    -5.2491    86.4061   209.3088 </r>
       <r>    -5.1547    90.7929   217.8783 </r>
       <r>    -5.0603    92.9432   226.6507 </r>
       <r>    -4.9659    89.3535   235.0844 </r>
       <r>    -4.8715    87.4997   243.3430 </r>
       <r>    -4.7771    89.1167   251.7543 </r>
       <r>    -4.6827    90.7205   260.3170 </r>
       <r>    -4.5884    91.7676   268.9784 </r>
       <r>    -4.4940    88.9179   277.3709 </r>
       <r>    -4.3996    87.5389   285.6333 </r>
       <r>    -4.3052    92.3546   294.3502 </r>
       <r>    -4.2108    95.2987   303.3449 </r>
       <r>    -4.1164    92.5655   312.0817 </r>
       <r>    -4.0220    94.5682   321.0075 </r>
       <r>    -3.9277   101.3613   330.5745 </r>
       <r>    -3.8333   105.1542   340.4995 </r>
       <r>    -3.7389   102.3619   350.1609 </r>
       <r>    -3.6445    98.2440   359.4337 </r>
       <r>    -3.5501    97.5173   368.6378 </r>
       <r>    -3.4557    95.0625   377.6103 </r>
       <r>    -3.3614    89.4265   386.0508 </r>
       <r>    -3.2670    90.1725   394.5618 </r>
       <r>    -3.1726    87.6778   402.8372 </r>
       <r>    -3.0782    87.7019   411.1150 </r>
       <r>    -2.9838    90.5932   419.6656 </r>
       <r>    -2.8894    88.4474   428.0137 </r>
       <r>    -2.7950    86.9342   436.2190 </r>
       <r>    -2.7007    86.8199   444.4135 </r>
       <r>    -2.6063    88.2673   452.7446 </r>
       <r>    -2.5119    92.5026   461.4754 </r>
       <r>    -2.4175    97.4726   470.6754 </r>
       <r>    -2.3231   100.4361   480.1550 </r>
       <r>    -2.2287   100.9817   489.6862 </r>
       <r>    -2.1344   100.3919   499.1617 </r>
       <r>    -2.0400    94.2558   508.0580 </r>
       <r>    -1.9456    87.8414   516.3489 </r>
       <r>    -1.8512    84.5583   524.3299 </r>
       <r>    -1.7568    76.9582   531.5936 </r>
       <r>    -1.6624    65.1388   537.7417 </r>
       <r>    -1.5680    53.6439   542.8049 </r>
       <r>    -1.4737    50.1590   547.5392 </r>
       <r>    -1.3793    47.1167   551.9863 </r>
       <r>    -1.2849    38.0107   555.5739 </r>
       <r>    -1.1905    29.3438   558.3435 </r>
       <r>    -1.0961    27.8954   560.9764 </r>
       <r>    -1.0017    30.2912   563.8355 </r>
       <r>    -0.9073    31.5869   566.8168 </r>
       <r>    -0.8130    27.1424   569.3786 </r>
       <r>    -0.7186    23.9154   571.6359 </r>
       <r>    -0.6242    25.9282   574.0831 </r>
       <r>    -0.5298    27.2365   576.6538 </r>
       <r>    -0.4354    25.1902   579.0314 </r>
       <r>    -0.3410    21.8572   581.0944 </r>
       <r>    -0.2467    13.1484   582.3354 </r>
       <r>    -0.1523    10.1348   583.2920 </r>
       <r>    -0.0579    11.1921   584.3484 </r>
       <r>     0.0365    11.4519   585.4292 </r>
       <r>     0.1309    10.5672   586.4266 </r>
       <r>     0.2253     8.2719   587.2074 </r>
       <r>     0.3197    12.4679   588.3841 </r>
       <r>     0.4140    17.1368   590.0016 </r>
       <r>     0.5084    18.6413   591.7610 </r>
       <r>     0.6028    17.9928   593.4593 </r>
       <r>     0.6972    18.7821   595.2320 </r>
       <r>     0.7916    18.8895   597.0149 </r>
       <r>     0.8860    13.7977   598.3172 </r>
       <r>     0.9804    11.2706   599.3810 </r>
       <r>     1.0747    12.6760   600.5774 </r>
       <r>     1.1691    11.0044   601.6161 </r>
       <r>     1.2635    10.6205   602.6185 </r>
       <r>     1.3579    10.8077   603.6386 </r>
       <r>     1.4523    12.1507   604.7854 </r>
       <r>     1.5467    14.2959   606.1347 </r>
       <r>     1.6410    13.4758   607.4066 </r>
       <r>     1.7354    16.2616   608.9415 </r>
       <r>     1.8298    17.3499   610.5791 </r>
       <r>     1.9242    15.6793   612.0590 </r>
       <r>     2.0186    16.7714   613.6419 </r>
       <r>     2.1130    18.0850   615.3489 </r>
       <r>     2.2074    19.3151   617.1719 </r>
       <r>     2.3017    15.4880   618.6338 </r>
       <r>     2.3961    12.5512   619.8184 </r>
       <r>     2.4905    14.4808   621.1852 </r>
       <r>     2.5849    12.8388   622.3970 </r>
       <r>     2.6793     8.4698   623.1964 </r>
       <r>     2.7737     9.2132   624.0660 </r>
       <r>     2.8681    10.1985   625.0286 </r>
       <r>     2.9624     8.5746   625.8379 </r>
       <r>     3.0568    12.7915   627.0452 </r>
       <r>     3.1512    16.1899   628.5733 </r>
       <r>     3.2456    14.3897   629.9315 </r>
       <r>     3.3400    15.0963   631.3563 </r>
       <r>     3.4344    17.5853   633.0161 </r>
       <r>     3.5287    16.4673   634.5704 </r>
       <r>     3.6231    16.3616   636.1147 </r>
       <r>     3.7175    18.1571   637.8284 </r>
       <r>     3.8119    17.4769   639.4780 </r>
       <r>     3.9063    16.7541   641.0593 </r>
       <r>     4.0007    19.3409   642.8848 </r>
       <r>     4.0951    19.7755   644.7513 </r>
       <r>     4.1894    20.3610   646.6731 </r>
       <r>     4.2838    20.6723   648.6242 </r>
       <r>     4.3782    21.6382   650.6666 </r>
       <r>     4.4726    22.6674   652.8060 </r>
       <r>     4.5670    23.1612   654.9921 </r>
       <r>     4.6614    26.8150   657.5230 </r>
       <r>     4.7558    26.6214   660.0357 </r>
       <r>     4.8501    26.6682   662.5528 </r>
       <r>     4.9445    27.7235   665.1695 </r>
       <r>     5.0389    28.6168   667.8704 </r>
       <r>     5.1333    25.5923   670.2860 </r>
       <r>     5.2277    14.6976   671.6732 </r>
       <r>     5.3221     3.2711   671.9819 </r>
       <r>     5.4164     0.1889   671.9998 </r>
       <r>     5.5108     0.0023   672.0000 </r>
       <r>     5.6052     0.0000   672.0000 </r>
       <r>     5.6996     0.0000   672.0000 </r>
       <r>     5.7940     0.0000   672.0000 </r>
       <r>     5.8884     0.0000   672.0000 </r>
       <r>     5.9828     0.0000   672.0000 </r>
       <r>     6.0771     0.0000   672.0000 </r>
       <r>     6.1715     0.0000   672.0000 </r>
       <r>     6.2659     0.0000   672.0000 </r>
       <r>     6.3603     0.0000   672.0000 </r>
       <r>     6.4547     0.0000   672.0000 </r>
      </set>
     </set>
    </array>
   </total>
  </dos>
 </calculation>
 <structure name="finalpos" >
  <crystal>
   <varray name="basis" >
    <v>      11.00258152       0.00000000       0.00000000 </v>
    <v>       5.50129076       9.52851510       0.00000000 </v>
    <v>       0.00000000       0.00000000      26.19178509 </v>
   </varray>
   <i name="volume">   2745.90128299 </i>
   <varray name="rec_basis" >
    <v>       0.09088776      -0.05247407       0.00000000 </v>
    <v>       0.00000000       0.10494815       0.00000000 </v>
    <v>       0.00000000       0.00000000       0.03817991 </v>
   </varray>
  </crystal>
  <varray name="positions" >
   <v>       0.08333333       0.08333333       0.38179910 </v>
   <v>       0.83333333       0.08333333       0.38179910 </v>
   <v>       0.83333333       0.83333333       0.38179910 </v>
   <v>       0.00883477       0.27131636       0.56286513 </v>
   <v>       0.08333333       0.58333333       0.38179910 </v>
   <v>       0.66407528       0.92068943       0.48167126 </v>
   <v>       0.79421726      -0.03468958       0.60863206 </v>
   <v>       0.91589517       0.17410826       0.47424123 </v>
   <v>       0.66374224       0.17104599       0.48514879 </v>
   <v>       0.91587450       0.91931525       0.47471744 </v>
   <v>       0.24810371       0.01182355       0.56154369 </v>
   <v>       0.45442746       0.77849646       0.59797666 </v>
   <v>       0.33333333       0.08333333       0.38179910 </v>
   <v>       0.33333333       0.33333333       0.38179910 </v>
   <v>       0.16755619       0.41577806       0.48063942 </v>
   <v>       0.23059626       0.26009523       0.62568293 </v>
   <v>       0.16977139       0.66512478       0.47212723 </v>
   <v>       0.66685451       0.67184103       0.47326721 </v>
   <v>       0.41876384       0.66977551       0.47496479 </v>
   <v>       0.75850345       0.75349799       0.58270288 </v>
   <v>       0.58333333       0.08333333       0.38179910 </v>
   <v>       0.58333333       0.58333333       0.38179910 </v>
   <v>       0.48298653       0.02377995       0.57080237 </v>
   <v>       0.58333333       0.33333333       0.38179910 </v>
   <v>       0.87515376       0.09766863       0.61946383 </v>
   <v>       0.07946251       0.61454703       0.61291533 </v>
   <v>       0.12858598       0.15568609       0.62913054 </v>
   <v>       0.33912192       0.35731442       0.62427932 </v>
   <v>       0.59356166       0.34666745       0.61028841 </v>
   <v>       0.60795504       0.57767189       0.61457978 </v>
   <v>       0.58534743       0.09507572       0.62199375 </v>
   <v>       0.57836800       0.85324244       0.62695141 </v>
   <v>       0.24914956       0.75663211       0.56033687 </v>
   <v>       0.16764923       0.91935229       0.47277562 </v>
   <v>       0.75646569       0.51699338       0.56158248 </v>
   <v>       0.25572958       0.51236934       0.57229668 </v>
   <v>       0.33333333       0.58333333       0.38179910 </v>
   <v>       0.16817872       0.17130815       0.47106413 </v>
   <v>       0.83333333       0.58333333       0.38179910 </v>
   <v>       0.00124276       0.76301194       0.56053152 </v>
   <v>       0.08333333       0.83333333       0.38179910 </v>
   <v>       0.00133000       0.51510200       0.57065669 </v>
   <v>       0.91459218       0.66869929       0.47551008 </v>
   <v>       0.91699834       0.42181023       0.47487943 </v>
   <v>       0.08333333       0.33333333       0.38179910 </v>
   <v>       0.00763679       0.00496642       0.56160095 </v>
   <v>       0.41756554       0.41873316       0.47966016 </v>
   <v>       0.33333333       0.83333333       0.38179910 </v>
   <v>       0.58333333       0.83333333       0.38179910 </v>
   <v>       0.41545909       0.92175068       0.47549574 </v>
   <v>       0.76898368       0.26007379       0.57125497 </v>
   <v>       0.66774206       0.41864666       0.47568199 </v>
   <v>       0.83333333       0.33333333       0.38179910 </v>
   <v>       0.49907011       0.51544497       0.56801127 </v>
   <v>       0.41513150       0.17080950       0.48038087 </v>
   <v>       0.50005540       0.25841920       0.57161966 </v>
  </varray>
  <varray name="selective"  type="logical" >
   <v type="logical" >  F  F  F </v>
   <v type="logical" >  F  F  F </v>
   <v type="logical" >  F  F  F </v>
   <v type="logical" >  T  T  T </v>
   <v type="logical" >  F  F  F </v>
   <v type="logical" >  T  T  T </v>
   <v type="logical" >  T  T  T </v>
   <v type="logical" >  T  T  T </v>
   <v type="logical" >  T  T  T </v>
   <v type="logical" >  T  T  T </v>
   <v type="logical" >  T  T  T </v>
   <v type="logical" >  T  T  T </v>
   <v type="logical" >  F  F  F </v>
   <v type="logical" >  F  F  F </v>
   <v type="logical" >  T  T  T </v>
   <v type="logical" >  T  T  T </v>
   <v type="logical" >  T  T  T </v>
   <v type="logical" >  T  T  T </v>
   <v type="logical" >  T  T  T </v>
   <v type="logical" >  T  T  T </v>
   <v type="logical" >  F  F  F </v>
   <v type="logical" >  F  F  F </v>
   <v type="logical" >  T  T  T </v>
   <v type="logical" >  F  F  F </v>
   <v type="logical" >  T  T  T </v>
   <v type="logical" >  T  T  T </v>
   <v type="logical" >  T  T  T </v>
   <v type="logical" >  T  T  T </v>
   <v type="logical" >  T  T  T </v>
   <v type="logical" >  T  T  T </v>
   <v type="logical" >  T  T  T </v>
   <v type="logical" >  T  T  T </v>
   <v type="logical" >  T  T  T </v>
   <v type="logical" >  T  T  T </v>
   <v type="logical" >  T  T  T </v>
   <v type="logical" >  T  T  T </v>
   <v type="logical" >  F  F  F </v>
   <v type="logical" >  T  T  T </v>
   <v type="logical" >  F  F  F </v>
   <v type="logical" >  T  T  T </v>
   <v type="logical" >  F  F  F </v>
   <v type="logical" >  T  T  T </v>
   <v type="logical" >  T  T  T </v>
   <v type="logical" >  T  T  T </v>
   <v type="logical" >  F  F  F </v>
   <v type="logical" >  T  T  T </v>
   <v type="logical" >  T  T  T </v>
   <v type="logical" >  F  F  F </v>
   <v type="logical" >  F  F  F </v>
   <v type="logical" >  T  T  T </v>
   <v type="logical" >  T  T  T </v>
   <v type="logical" >  T  T  T </v>
   <v type="logical" >  F  F  F </v>
   <v type="logical" >  T  T  T </v>
   <v type="logical" >  T  T  T </v>
   <v type="logical" >  T  T  T </v>
  </varray>
  <nose>
   <v>      -3.00000000       0.00000000       0.00010000       0.00010000 </v>
  </nose>
 </structure>
</modeling>
