unknown system                          
           1
    11.002582    0.000000    0.000000
     5.501291    9.528515    0.000000
     0.000000    0.000000   26.191785
   Au   O    Pd
  24   8  24
Direct configuration=     1
   0.08333333  0.08333333  0.38179910
   0.83333333  0.08333333  0.38179910
   0.83333333  0.83333333  0.38179910
   0.00000000  0.25000000  0.55329505
   0.08333333  0.58333333  0.38179910
   0.66666667  0.91666667  0.46754708
   0.75000000  0.00000000  0.55329505
   0.91666667  0.16666667  0.46754708
   0.66666667  0.16666667  0.46754708
   0.91666667  0.91666667  0.46754708
   0.25000000  0.00000000  0.55329505
   0.50000000  0.75000000  0.55329505
   0.33333333  0.08333333  0.38179910
   0.33333333  0.33333333  0.38179910
   0.16666667  0.41666667  0.46754708
   0.25000000  0.25000000  0.55329505
   0.16666667  0.66666667  0.46754708
   0.66666667  0.66666667  0.46754708
   0.41666667  0.66666667  0.46754708
   0.75000000  0.75000000  0.55329505
   0.58333333  0.08333333  0.38179910
   0.58333333  0.58333333  0.38179910
   0.50000000  0.00000000  0.55329505
   0.58333333  0.33333333  0.38179910
   0.83333333  0.08333333  0.61820090
   0.08333333  0.58333333  0.61820090
   0.33333333  0.08333333  0.61820090
   0.33333333  0.33333333  0.61820090
   0.58333333  0.33333333  0.61820090
   0.58333333  0.58333333  0.61820090
   0.58333333  0.08333333  0.61820090
   0.58333333  0.83333333  0.61820090
   0.25000000  0.75000000  0.55329505
   0.16666667  0.91666667  0.46754708
   0.75000000  0.50000000  0.55329505
   0.25000000  0.50000000  0.55329505
   0.33333333  0.58333333  0.38179910
   0.16666667  0.16666667  0.46754708
   0.83333333  0.58333333  0.38179910
   0.00000000  0.75000000  0.55329505
   0.08333333  0.83333333  0.38179910
   0.00000000  0.50000000  0.55329505
   0.91666667  0.66666667  0.46754708
   0.91666667  0.41666667  0.46754708
   0.08333333  0.33333333  0.38179910
   0.00000000  0.00000000  0.55329505
   0.41666667  0.41666667  0.46754708
   0.33333333  0.83333333  0.38179910
   0.58333333  0.83333333  0.38179910
   0.41666667  0.91666667  0.46754708
   0.75000000  0.25000000  0.55329505
   0.66666667  0.41666667  0.46754708
   0.83333333  0.33333333  0.38179910
   0.50000000  0.50000000  0.55329505
   0.41666667  0.16666667  0.46754708
   0.50000000  0.25000000  0.55329505
Direct configuration=     2
   0.08333333  0.08333333  0.38179910
   0.83333333  0.08333333  0.38179910
   0.83333333  0.83333333  0.38179910
  -0.00126358  0.25108627  0.55473137
   0.08333333  0.58333333  0.38179910
   0.66530641  0.91664643  0.46757610
   0.75189140 -0.00078844  0.55663812
   0.91656420  0.16827577  0.46799191
   0.66413154  0.16945722  0.46825469
   0.91899089  0.91474637  0.46828979
   0.24818672 -0.00067296  0.55533937
   0.49852277  0.74874822  0.55625343
   0.33333333  0.08333333  0.38179910
   0.33333333  0.33333333  0.38179910
   0.16601232  0.41574439  0.46790610
   0.24851333  0.25172705  0.55619452
   0.16732964  0.66679179  0.46803725
   0.66833003  0.66514722  0.46700237
   0.41593838  0.66663768  0.46796792
   0.75297333  0.74735141  0.55592501
   0.58333333  0.08333333  0.38179910
   0.58333333  0.58333333  0.38179910
   0.49991289  0.00076536  0.55605339
   0.58333333  0.33333333  0.38179910
   0.83583569  0.08296152  0.61457270
   0.08290776  0.58387214  0.61375187
   0.33110307  0.08324833  0.61600713
   0.33294953  0.33482727  0.61495913
   0.58297981  0.33452103  0.61427943
   0.58424210  0.58158269  0.61467896
   0.58324274  0.08432560  0.61580912
   0.58497512  0.83218966  0.61616067
   0.24905598  0.75006431  0.55420632
   0.16710758  0.91702288  0.46826553
   0.74962472  0.49961148  0.55534369
   0.24912084  0.50073508  0.55698338
   0.33333333  0.58333333  0.38179910
   0.16704048  0.16698045  0.46746978
   0.83333333  0.58333333  0.38179910
   0.00153065  0.74774622  0.55571303
   0.08333333  0.83333333  0.38179910
  -0.00012721  0.50178454  0.55537673
   0.91636047  0.66569950  0.46792526
   0.91646968  0.41710448  0.46799610
   0.08333333  0.33333333  0.38179910
  -0.00021559 -0.00025472  0.55551488
   0.41707846  0.41663082  0.46869335
   0.33333333  0.83333333  0.38179910
   0.58333333  0.83333333  0.38179910
   0.41602495  0.91706154  0.46748360
   0.74964563  0.25064993  0.55696776
   0.66729117  0.41604907  0.46796534
   0.83333333  0.33333333  0.38179910
   0.50087091  0.49932342  0.55656963
   0.41683149  0.16661475  0.46808913
   0.49999655  0.25155328  0.55734139
Direct configuration=     3
   0.08333333  0.08333333  0.38179910
   0.83333333  0.08333333  0.38179910
   0.83333333  0.83333333  0.38179910
  -0.00349128  0.25300137  0.55726360
   0.08333333  0.58333333  0.38179910
   0.66290829  0.91661074  0.46762726
   0.75522593 -0.00217847  0.56253193
   0.91638356  0.17111261  0.46877615
   0.65966212  0.17437697  0.46950222
   0.92308849  0.91136088  0.46959920
   0.24498992 -0.00185938  0.55894350
   0.49591843  0.74654134  0.56146905
   0.33333333  0.08333333  0.38179910
   0.33333333  0.33333333  0.38179910
   0.16485870  0.41411842  0.46853905
   0.24589233  0.25477184  0.56130628
   0.16849847  0.66701240  0.46890143
   0.67126254  0.66246843  0.46604205
   0.41465442  0.66658659  0.46870987
   0.75821531  0.74268195  0.56056163
   0.58333333  0.08333333  0.38179910
   0.58333333  0.58333333  0.38179910
   0.49975931  0.00211470  0.56091633
   0.58333333  0.33333333  0.38179910
   0.84024735  0.08230602  0.60817620
   0.08215747  0.58482205  0.60590823
   0.32717112  0.08309847  0.61213951
   0.33227288  0.33746109  0.60924390
   0.58235656  0.33661494  0.60736587
   0.58584426  0.57849630  0.60846979
   0.58308301  0.08607497  0.61159242
   0.58786959  0.83017337  0.61256376
   0.24739166  0.75017769  0.55581287
   0.16788492  0.91765090  0.46953216
   0.74896311  0.49892653  0.55895543
   0.24757087  0.50203104  0.56348589
   0.33333333  0.58333333  0.38179910
   0.16769950  0.16753365  0.46733351
   0.83333333  0.58333333  0.38179910
   0.00422918  0.74377280  0.55997592
   0.08333333  0.83333333  0.38179910
  -0.00035149  0.50493068  0.55904672
   0.91582064  0.66399438  0.46859200
   0.91612241  0.41787633  0.46878772
   0.08333333  0.33333333  0.38179910
  -0.00059566 -0.00070380  0.55942845
   0.41780445  0.41656761  0.47071422
   0.33333333  0.83333333  0.38179910
   0.58333333  0.83333333  0.38179910
   0.41489360  0.91775770  0.46737168
   0.74902087  0.25179575  0.56344275
   0.66839216  0.41496026  0.46870274
   0.83333333  0.33333333  0.38179910
   0.50240632  0.49813060  0.56234272
   0.41712206  0.16652322  0.46904476
   0.49999048  0.25429172  0.56447507
Direct configuration=     4
   0.08333333  0.08333333  0.38179910
   0.83333333  0.08333333  0.38179910
   0.83333333  0.83333333  0.38179910
  -0.00308902  0.25265556  0.55680636
   0.08333333  0.58333333  0.38179910
   0.66334132  0.91661719  0.46761802
   0.75462382 -0.00192747  0.56146768
   0.91641618  0.17060036  0.46863454
   0.66046917  0.17348861  0.46927696
   0.92234858  0.91197220  0.46936276
   0.24556716 -0.00164515  0.55829270
   0.49638870  0.74693984  0.56052726
   0.33333333  0.08333333  0.38179910
   0.33333333  0.33333333  0.38179910
   0.16506701  0.41441202  0.46842475
   0.24636560  0.25422204  0.56038325
   0.16828742  0.66697256  0.46874538
   0.67073302  0.66295214  0.46621545
   0.41488626  0.66659581  0.46857589
   0.75726877  0.74352512  0.55972440
   0.58333333  0.08333333  0.38179910
   0.58333333  0.58333333  0.38179910
   0.49978705  0.00187105  0.56003823
   0.58333333  0.33333333  0.38179910
   0.83945074  0.08242438  0.60933122
   0.08229295  0.58465052  0.60732456
   0.32788111  0.08312553  0.61283788
   0.33239507  0.33698550  0.61027591
   0.58246910  0.33623684  0.60861426
   0.58555496  0.57905361  0.60959098
   0.58311185  0.08575909  0.61235383
   0.58734694  0.83053745  0.61321326
   0.24769219  0.75015722  0.55552278
   0.16774455  0.91753750  0.46930344
   0.74908258  0.49905021  0.55830325
   0.24785075  0.50179703  0.56231173
   0.33333333  0.58333333  0.38179910
   0.16758050  0.16743376  0.46735812
   0.83333333  0.58333333  0.38179910
   0.00374190  0.74449028  0.55920616
   0.08333333  0.83333333  0.38179910
  -0.00031099  0.50436258  0.55838403
   0.91591811  0.66430228  0.46847160
   0.91618511  0.41773696  0.46864477
   0.08333333  0.33333333  0.38179910
  -0.00052703 -0.00062271  0.55872177
   0.41767335  0.41657903  0.47034931
   0.33333333  0.83333333  0.38179910
   0.58333333  0.83333333  0.38179910
   0.41509789  0.91763200  0.46739189
   0.74913369  0.25158885  0.56227356
   0.66819336  0.41515687  0.46856959
   0.83333333  0.33333333  0.38179910
   0.50212907  0.49834599  0.56130027
   0.41706959  0.16653975  0.46887220
   0.49999158  0.25379724  0.56318694
Direct configuration=     5
   0.08333333  0.08333333  0.38179910
   0.83333333  0.08333333  0.38179910
   0.83333333  0.83333333  0.38179910
  -0.00319757  0.25274888  0.55692975
   0.08333333  0.58333333  0.38179910
   0.66322446  0.91661545  0.46762052
   0.75478630 -0.00199521  0.56175488
   0.91640737  0.17073859  0.46867276
   0.66025138  0.17372834  0.46933775
   0.92254825  0.91180723  0.46942657
   0.24541139 -0.00170296  0.55846832
   0.49626179  0.74683230  0.56078141
   0.33333333  0.08333333  0.38179910
   0.33333333  0.33333333  0.38179910
   0.16501080  0.41433279  0.46845560
   0.24623788  0.25437041  0.56063234
   0.16834437  0.66698331  0.46878749
   0.67087591  0.66282160  0.46616866
   0.41482370  0.66659332  0.46861205
   0.75752420  0.74329758  0.55995033
   0.58333333  0.08333333  0.38179910
   0.58333333  0.58333333  0.38179910
   0.49977956  0.00193680  0.56027519
   0.58333333  0.33333333  0.38179910
   0.83966571  0.08239244  0.60901953
   0.08225639  0.58469681  0.60694235
   0.32768951  0.08311823  0.61264942
   0.33236209  0.33711384  0.60999741
   0.58243873  0.33633887  0.60827737
   0.58563303  0.57890322  0.60928842
   0.58310407  0.08584433  0.61214836
   0.58748798  0.83043920  0.61303799
   0.24761109  0.75016274  0.55560106
   0.16778243  0.91756810  0.46936516
   0.74905034  0.49901684  0.55847925
   0.24777522  0.50186018  0.56262859
   0.33333333  0.58333333  0.38179910
   0.16761261  0.16746072  0.46735148
   0.83333333  0.58333333  0.38179910
   0.00387340  0.74429666  0.55941389
   0.08333333  0.83333333  0.38179910
  -0.00032192  0.50451589  0.55856286
   0.91589181  0.66421919  0.46850409
   0.91616819  0.41777457  0.46868335
   0.08333333  0.33333333  0.38179910
  -0.00054555 -0.00064459  0.55891247
   0.41770873  0.41657595  0.47044778
   0.33333333  0.83333333  0.38179910
   0.58333333  0.83333333  0.38179910
   0.41504276  0.91766592  0.46738643
   0.74910324  0.25164468  0.56258908
   0.66824701  0.41510381  0.46860552
   0.83333333  0.33333333  0.38179910
   0.50220389  0.49828787  0.56158158
   0.41708375  0.16653529  0.46891877
   0.49999128  0.25393068  0.56353455
Direct configuration=     6
   0.08333333  0.08333333  0.38179910
   0.83333333  0.08333333  0.38179910
   0.83333333  0.83333333  0.38179910
  -0.00380060  0.25405830  0.55811410
   0.08333333  0.58333333  0.38179910
   0.66356337  0.91691556  0.46982589
   0.75717939 -0.01001927  0.56218849
   0.91584026  0.17059246  0.47005459
   0.66097862  0.17270676  0.47167353
   0.92113252  0.91278674  0.47130072
   0.24243492 -0.00292333  0.55940449
   0.49124837  0.75106361  0.56163492
   0.33333333  0.08333333  0.38179910
   0.33333333  0.33333333  0.38179910
   0.16569676  0.41404547  0.47005918
   0.23890795  0.25579296  0.56099785
   0.16911779  0.66477390  0.46985176
   0.67007135  0.66281268  0.46768042
   0.41635399  0.66615285  0.47006774
   0.76011929  0.74146450  0.56142395
   0.58333333  0.08333333  0.38179910
   0.58333333  0.58333333  0.38179910
   0.50070856  0.00010977  0.55985417
   0.58333333  0.33333333  0.38179910
   0.84554050  0.08210424  0.60828958
   0.07958286  0.58697095  0.60570161
   0.32359072  0.08238370  0.61228988
   0.33198385  0.34062566  0.60922529
   0.58281949  0.33875885  0.60687063
   0.58782761  0.57606720  0.60804443
   0.58370535  0.08729244  0.61188730
   0.59020445  0.82787605  0.61235297
   0.24657748  0.74986510  0.55666483
   0.16749990  0.91897788  0.47067348
   0.75331991  0.49739327  0.55933375
   0.25145339  0.50334400  0.56421578
   0.33333333  0.58333333  0.38179910
   0.16798214  0.16764359  0.46874365
   0.83333333  0.58333333  0.38179910
   0.00287122  0.74894260  0.56027515
   0.08333333  0.83333333  0.38179910
  -0.00251889  0.50155691  0.55916904
   0.91582516  0.66425204  0.46970601
   0.91651925  0.41750093  0.47003975
   0.08333333  0.33333333  0.38179910
   0.00296887 -0.00229358  0.55976201
   0.41616824  0.41766147  0.47237271
   0.33333333  0.83333333  0.38179910
   0.58333333  0.83333333  0.38179910
   0.41509999  0.91693551  0.46910576
   0.75292954  0.25319768  0.56440830
   0.66794330  0.41573245  0.46991105
   0.83333333  0.33333333  0.38179910
   0.49738089  0.50107910  0.56296978
   0.41643999  0.16700457  0.47088264
   0.49984172  0.25291374  0.56471400
Direct configuration=     7
   0.08333333  0.08333333  0.38179910
   0.83333333  0.08333333  0.38179910
   0.83333333  0.83333333  0.38179910
  -0.00426430  0.25506522  0.55902483
   0.08333333  0.58333333  0.38179910
   0.66382399  0.91714634  0.47152176
   0.75901961 -0.01618956  0.56252193
   0.91540416  0.17048008  0.47111718
   0.66153784  0.17192120  0.47346969
   0.92004385  0.91353996  0.47274190
   0.24014609 -0.00386176  0.56012438
   0.48739319  0.75431738  0.56229124
   0.33333333  0.08333333  0.38179910
   0.33333333  0.33333333  0.38179910
   0.16622425  0.41382453  0.47129229
   0.23327143  0.25688687  0.56127893
   0.16971252  0.66307492  0.47067016
   0.66945265  0.66280582  0.46884292
   0.41753074  0.66581414  0.47118713
   0.76211484  0.74005490  0.56255713
   0.58333333  0.08333333  0.38179910
   0.58333333  0.58333333  0.38179910
   0.50142293 -0.00129517  0.55953042
   0.58333333  0.33333333  0.38179910
   0.85005806  0.08188263  0.60772827
   0.07752699  0.58871971  0.60474751
   0.32043886  0.08181887  0.61201340
   0.33169298  0.34332616  0.60863155
   0.58311228  0.34061974  0.60578889
   0.58951518  0.57388639  0.60708784
   0.58416771  0.08840600  0.61168656
   0.59229335  0.82590505  0.61182621
   0.24578266  0.74963622  0.55748285
   0.16728263  0.92006196  0.47167954
   0.75660310  0.49614480  0.55999084
   0.25428180  0.50448502  0.56543629
   0.33333333  0.58333333  0.38179910
   0.16826630  0.16778422  0.46981420
   0.83333333  0.58333333  0.38179910
   0.00210057  0.75251520  0.56093744
   0.08333333  0.83333333  0.38179910
  -0.00420831  0.49928154  0.55963517
   0.91577390  0.66427730  0.47063025
   0.91678921  0.41729051  0.47108279
   0.08333333  0.33333333  0.38179910
   0.00567136 -0.00356161  0.56041528
   0.41498365  0.41849622  0.47385292
   0.33333333  0.83333333  0.38179910
   0.58333333  0.83333333  0.38179910
   0.41514400  0.91637384  0.47042788
   0.75587186  0.25439190  0.56580723
   0.66770976  0.41621585  0.47091497
   0.83333333  0.33333333  0.38179910
   0.49367213  0.50322549  0.56403727
   0.41594495  0.16736544  0.47239280
   0.49972670  0.25213175  0.56562096
Direct configuration=     8
   0.08333333  0.08333333  0.38179910
   0.83333333  0.08333333  0.38179910
   0.83333333  0.83333333  0.38179910
  -0.00443689  0.25278481  0.56011250
   0.08333333  0.58333333  0.38179910
   0.66435671  0.91645573  0.47216127
   0.76026904 -0.01601482  0.56340543
   0.91505523  0.17009480  0.47186424
   0.66169011  0.17185578  0.47528433
   0.91990383  0.91397744  0.47323778
   0.23922432 -0.00331355  0.56089948
   0.48557008  0.75463565  0.56296467
   0.33333333  0.08333333  0.38179910
   0.33333333  0.33333333  0.38179910
   0.16638035  0.41442141  0.47229122
   0.23310313  0.25654218  0.56187376
   0.16903572  0.66359492  0.47119908
   0.66912266  0.66355696  0.47008086
   0.41730701  0.66600215  0.47196257
   0.76447142  0.73593677  0.56336958
   0.58333333  0.08333333  0.38179910
   0.58333333  0.58333333  0.38179910
   0.49799831  0.00082345  0.55896693
   0.58333333  0.33333333  0.38179910
   0.85252524  0.08096182  0.60897550
   0.07506039  0.58991742  0.60545161
   0.31747100  0.08133582  0.61236013
   0.33093408  0.34331244  0.61007362
   0.58478319  0.34005198  0.60765215
   0.59254391  0.57439697  0.60753217
   0.58600457  0.08734851  0.61250276
   0.59433630  0.82377845  0.61251517
   0.24508954  0.74937791  0.55839316
   0.16698549  0.91929477  0.47213758
   0.75602267  0.49737844  0.56060992
   0.25298118  0.50867095  0.56513857
   0.33333333  0.58333333  0.38179910
   0.16805867  0.16747091  0.47054193
   0.83333333  0.58333333  0.38179910
   0.00290599  0.75325310  0.56104825
   0.08333333  0.83333333  0.38179910
  -0.00431027  0.50014413  0.55996327
   0.91578935  0.66455288  0.47140728
   0.91708798  0.41683033  0.47144905
   0.08333333  0.33333333  0.38179910
   0.00730957 -0.00428939  0.56030852
   0.41554835  0.41773207  0.47484475
   0.33333333  0.83333333  0.38179910
   0.58333333  0.83333333  0.38179910
   0.41512435  0.91646595  0.47144914
   0.75935746  0.25437446  0.56588407
   0.66707318  0.41619751  0.47196245
   0.83333333  0.33333333  0.38179910
   0.48895078  0.50754937  0.56288665
   0.41579748  0.16758783  0.47369823
   0.50029900  0.24972898  0.56425507
Direct configuration=     9
   0.08333333  0.08333333  0.38179910
   0.83333333  0.08333333  0.38179910
   0.83333333  0.83333333  0.38179910
  -0.00443745  0.25277740  0.56011603
   0.08333333  0.58333333  0.38179910
   0.66435844  0.91645348  0.47216335
   0.76027310 -0.01601425  0.56340830
   0.91505409  0.17009355  0.47186666
   0.66169061  0.17185556  0.47529022
   0.91990337  0.91397886  0.47323939
   0.23922133 -0.00331177  0.56090200
   0.48556416  0.75463669  0.56296686
   0.33333333  0.08333333  0.38179910
   0.33333333  0.33333333  0.38179910
   0.16638086  0.41442335  0.47229446
   0.23310258  0.25654106  0.56187569
   0.16903352  0.66359661  0.47120080
   0.66912159  0.66355940  0.47008488
   0.41730628  0.66600276  0.47196509
   0.76447907  0.73592340  0.56337222
   0.58333333  0.08333333  0.38179910
   0.58333333  0.58333333  0.38179910
   0.49798719  0.00083033  0.55896511
   0.58333333  0.33333333  0.38179910
   0.85253325  0.08095883  0.60897955
   0.07505238  0.58992131  0.60545390
   0.31746137  0.08133425  0.61236126
   0.33093161  0.34331239  0.61007830
   0.58478861  0.34005014  0.60765820
   0.59255375  0.57439863  0.60753362
   0.58601053  0.08734508  0.61250541
   0.59434293  0.82377155  0.61251741
   0.24508729  0.74937707  0.55839612
   0.16698452  0.91929228  0.47213907
   0.75602079  0.49738245  0.56061193
   0.25297695  0.50868454  0.56513760
   0.33333333  0.58333333  0.38179910
   0.16805799  0.16746989  0.47054429
   0.83333333  0.58333333  0.38179910
   0.00290860  0.75325549  0.56104861
   0.08333333  0.83333333  0.38179910
  -0.00431061  0.50014693  0.55996434
   0.91578940  0.66455377  0.47140980
   0.91708895  0.41682883  0.47145024
   0.08333333  0.33333333  0.38179910
   0.00731489 -0.00429175  0.56030817
   0.41555018  0.41772959  0.47484797
   0.33333333  0.83333333  0.38179910
   0.58333333  0.83333333  0.38179910
   0.41512428  0.91646625  0.47145246
   0.75936878  0.25437440  0.56588432
   0.66707111  0.41619746  0.47196585
   0.83333333  0.33333333  0.38179910
   0.48893545  0.50756341  0.56288291
   0.41579700  0.16758856  0.47370247
   0.50030086  0.24972118  0.56425063
Direct configuration=    10
   0.08333333  0.08333333  0.38179910
   0.83333333  0.08333333  0.38179910
   0.83333333  0.83333333  0.38179910
  -0.00357160  0.25143697  0.56112519
   0.08333333  0.58333333  0.38179910
   0.66489564  0.91592501  0.47242668
   0.76034004 -0.01439805  0.56475605
   0.91485229  0.16995337  0.47211538
   0.66196628  0.17164700  0.47646184
   0.91978093  0.91421609  0.47318215
   0.23920347 -0.00344375  0.56138882
   0.48505576  0.75529386  0.56394934
   0.33333333  0.08333333  0.38179910
   0.33333333  0.33333333  0.38179910
   0.16637432  0.41490543  0.47291064
   0.23429065  0.25747425  0.56290548
   0.16842541  0.66458483  0.47126806
   0.66903639  0.66398225  0.47083806
   0.41647040  0.66648258  0.47213829
   0.76418029  0.73527990  0.56440101
   0.58333333  0.08333333  0.38179910
   0.58333333  0.58333333  0.38179910
   0.49660563  0.00122502  0.55918776
   0.58333333  0.33333333  0.38179910
   0.85444036  0.08035261  0.61015569
   0.07379599  0.59062814  0.60638220
   0.31515260  0.08123782  0.61328545
   0.33033275  0.34409748  0.61036053
   0.58519796  0.34048414  0.60771597
   0.59405713  0.57436506  0.60793380
   0.58747619  0.08632751  0.61283927
   0.59581828  0.82248871  0.61288745
   0.24422992  0.75068790  0.55933960
   0.16702160  0.91817443  0.47231613
   0.75514245  0.49791768  0.56110880
   0.25110527  0.50850084  0.56578958
   0.33333333  0.58333333  0.38179910
   0.16768743  0.16727942  0.47094815
   0.83333333  0.58333333  0.38179910
   0.00326330  0.75286241  0.56119296
   0.08333333  0.83333333  0.38179910
  -0.00247929  0.49989374  0.56028242
   0.91584872  0.66467208  0.47179628
   0.91723392  0.41631532  0.47166061
   0.08333333  0.33333333  0.38179910
   0.00675677 -0.00449654  0.56038912
   0.41628125  0.41680905  0.47531757
   0.33333333  0.83333333  0.38179910
   0.58333333  0.83333333  0.38179910
   0.41476071  0.91679578  0.47196206
   0.75819115  0.25494188  0.56667617
   0.66660356  0.41615003  0.47274414
   0.83333333  0.33333333  0.38179910
   0.49052793  0.50628637  0.56328034
   0.41559395  0.16784663  0.47419730
   0.50061892  0.25021611  0.56431171
Direct configuration=    11
   0.08333333  0.08333333  0.38179910
   0.83333333  0.08333333  0.38179910
   0.83333333  0.83333333  0.38179910
  -0.00268510  0.25006456  0.56215841
   0.08333333  0.58333333  0.38179910
   0.66544565  0.91538393  0.47269630
   0.76040857 -0.01274330  0.56613596
   0.91464568  0.16980984  0.47237004
   0.66224853  0.17143347  0.47766140
   0.91965557  0.91445898  0.47312354
   0.23918518 -0.00357887  0.56188725
   0.48453523  0.75596670  0.56495526
   0.33333333  0.08333333  0.38179910
   0.33333333  0.33333333  0.38179910
   0.16636763  0.41539900  0.47354151
   0.23550706  0.25842968  0.56395984
   0.16780280  0.66559663  0.47133692
   0.66894916  0.66441519  0.47160921
   0.41561458  0.66697385  0.47231563
   0.76387439  0.73462106  0.56545435
   0.58333333  0.08333333  0.38179910
   0.58333333  0.58333333  0.38179910
   0.49519112  0.00162913  0.55941572
   0.58333333  0.33333333  0.38179910
   0.85639295  0.07973192  0.61135989
   0.07250962  0.59135184  0.60733263
   0.31278877  0.08113909  0.61423169
   0.32971961  0.34490130  0.61064949
   0.58561707  0.34092849  0.60777511
   0.59559637  0.57433070  0.60834352
   0.58897681  0.08528568  0.61318109
   0.59732882  0.82117527  0.61326631
   0.24335211  0.75202999  0.56030558
   0.16705956  0.91702991  0.47249742
   0.75424317  0.49846568  0.56161751
   0.24918895  0.50831277  0.56645712
   0.33333333  0.58333333  0.38179910
   0.16730804  0.16708440  0.47136165
   0.83333333  0.58333333  0.38179910
   0.00362646  0.75245996  0.56134075
   0.08333333  0.83333333  0.38179910
  -0.00060430  0.49963450  0.56060808
   0.91590946  0.66479322  0.47219198
   0.91738234  0.41578957  0.47187600
   0.08333333  0.33333333  0.38179910
   0.00618535 -0.00470622  0.56047200
   0.41702976  0.41586656  0.47579838
   0.33333333  0.83333333  0.38179910
   0.58333333  0.83333333  0.38179910
   0.41438847  0.91713317  0.47248381
   0.75698543  0.25552289  0.56748691
   0.66612486  0.41610147  0.47354099
   0.83333333  0.33333333  0.38179910
   0.49215840  0.50497887  0.56368725
   0.41538605  0.16811085  0.47470392
   0.50094456  0.25072284  0.56437424
Direct configuration=    12
   0.08333333  0.08333333  0.38179910
   0.83333333  0.08333333  0.38179910
   0.83333333  0.83333333  0.38179910
  -0.00208651  0.25017147  0.56306696
   0.08333333  0.58333333  0.38179910
   0.66561378  0.91559488  0.47315435
   0.76173184 -0.01346728  0.56748263
   0.91459785  0.16999064  0.47261214
   0.66286953  0.17060473  0.47835211
   0.91881132  0.91484660  0.47313141
   0.23887898 -0.00357222  0.56219827
   0.48340605  0.75632368  0.56602215
   0.33333333  0.08333333  0.38179910
   0.33333333  0.33333333  0.38179910
   0.16649074  0.41548653  0.47379103
   0.23618753  0.25784070  0.56513864
   0.16797497  0.66567488  0.47146444
   0.66876377  0.66431244  0.47207471
   0.41521710  0.66709678  0.47262048
   0.76499344  0.73493071  0.56633161
   0.58333333  0.08333333  0.38179910
   0.58333333  0.58333333  0.38179910
   0.49544868  0.00152840  0.56002674
   0.58333333  0.33333333  0.38179910
   0.85844789  0.07969301  0.61262422
   0.07129630  0.59252916  0.60859153
   0.31027131  0.08150972  0.61559048
   0.33023621  0.34528410  0.61127655
   0.58496234  0.34123950  0.60823118
   0.59566028  0.57429898  0.60919983
   0.58901642  0.08516654  0.61351418
   0.59782020  0.82104056  0.61413477
   0.24364111  0.75182159  0.56126354
   0.16702871  0.91675101  0.47270482
   0.75626176  0.49729496  0.56179843
   0.24826480  0.50896169  0.56711523
   0.33333333  0.58333333  0.38179910
   0.16703193  0.16720222  0.47185114
   0.83333333  0.58333333  0.38179910
   0.00269174  0.75242223  0.56155713
   0.08333333  0.83333333  0.38179910
  -0.00051825  0.49932472  0.56089917
   0.91584344  0.66468104  0.47250052
   0.91738478  0.41533420  0.47233985
   0.08333333  0.33333333  0.38179910
   0.00473809 -0.00424859  0.56069825
   0.41685855  0.41601946  0.47611329
   0.33333333  0.83333333  0.38179910
   0.58333333  0.83333333  0.38179910
   0.41396550  0.91742105  0.47269632
   0.75782397  0.25482441  0.56841634
   0.66585598  0.41629425  0.47405798
   0.83333333  0.33333333  0.38179910
   0.49284054  0.50515627  0.56425361
   0.41514693  0.16812474  0.47487905
   0.50067462  0.25138212  0.56516479
Direct configuration=    13
   0.08333333  0.08333333  0.38179910
   0.83333333  0.08333333  0.38179910
   0.83333333  0.83333333  0.38179910
  -0.00086620  0.25038943  0.56491914
   0.08333333  0.58333333  0.38179910
   0.66595653  0.91602493  0.47408814
   0.76442949 -0.01494321  0.57022800
   0.91450036  0.17035920  0.47310571
   0.66413553  0.16891523  0.47976019
   0.91709021  0.91563682  0.47314744
   0.23825477 -0.00355865  0.56283232
   0.48110409  0.75705143  0.56819715
   0.33333333  0.08333333  0.38179910
   0.33333333  0.33333333  0.38179910
   0.16674172  0.41566497  0.47429970
   0.23757473  0.25663997  0.56754177
   0.16832596  0.66583440  0.47172442
   0.66838583  0.66410297  0.47302370
   0.41440678  0.66734739  0.47324196
   0.76727477  0.73556197  0.56812003
   0.58333333  0.08333333  0.38179910
   0.58333333  0.58333333  0.38179910
   0.49597374  0.00132305  0.56127239
   0.58333333  0.33333333  0.38179910
   0.86263713  0.07961367  0.61520173
   0.06882278  0.59492928  0.61115796
   0.30513914  0.08226528  0.61836054
   0.33128938  0.34606449  0.61255491
   0.58362759  0.34187355  0.60916092
   0.59579057  0.57423432  0.61094552
   0.58909717  0.08492367  0.61419323
   0.59882193  0.82076592  0.61590524
   0.24423027  0.75139675  0.56321646
   0.16696583  0.91618244  0.47312763
   0.76037692  0.49490829  0.56216725
   0.24638080  0.51028459  0.56845686
   0.33333333  0.58333333  0.38179910
   0.16646906  0.16744241  0.47284903
   0.83333333  0.58333333  0.38179910
   0.00078620  0.75234532  0.56199824
   0.08333333  0.83333333  0.38179910
  -0.00034281  0.49869317  0.56149260
   0.91570885  0.66445236  0.47312954
   0.91738976  0.41440588  0.47328547
   0.08333333  0.33333333  0.38179910
   0.00178768 -0.00331567  0.56115950
   0.41650953  0.41633117  0.47675527
   0.33333333  0.83333333  0.38179910
   0.58333333  0.83333333  0.38179910
   0.41310322  0.91800793  0.47312955
   0.75953344  0.25340049  0.57031108
   0.66530783  0.41668726  0.47511194
   0.83333333  0.33333333  0.38179910
   0.49423116  0.50551792  0.56540821
   0.41465946  0.16815305  0.47523606
   0.50012431  0.25272615  0.56677643
Direct configuration=    14
   0.08333333  0.08333333  0.38179910
   0.83333333  0.08333333  0.38179910
   0.83333333  0.83333333  0.38179910
  -0.00011919  0.25049051  0.56575200
   0.08333333  0.58333333  0.38179910
   0.66497299  0.91630701  0.47479030
   0.76576297 -0.01674348  0.57200783
   0.91464178  0.17074407  0.47348627
   0.66358713  0.16916094  0.48031027
   0.91710868  0.91510350  0.47338364
   0.23787531 -0.00276159  0.56326463
   0.48224440  0.75669653  0.57020439
   0.33333333  0.08333333  0.38179910
   0.33333333  0.33333333  0.38179910
   0.16692347  0.41489201  0.47454807
   0.23763675  0.25449235  0.56908282
   0.16830600  0.66553020  0.47228848
   0.66784258  0.66420429  0.47338607
   0.41513882  0.66718714  0.47387458
   0.76681231  0.73664312  0.56927916
   0.58333333  0.08333333  0.38179910
   0.58333333  0.58333333  0.38179910
   0.49696282  0.00030208  0.56226366
   0.58333333  0.33333333  0.38179910
   0.86464669  0.08080570  0.61699330
   0.06768971  0.59630202  0.61166180
   0.30120742  0.08286235  0.61997369
   0.33218189  0.34699695  0.61393717
   0.58341822  0.34196340  0.61037480
   0.59708342  0.57356129  0.61130146
   0.58685235  0.08608893  0.61499638
   0.59843318  0.82152383  0.61681689
   0.24313526  0.75060961  0.56396943
   0.16613894  0.91718784  0.47369308
   0.75975314  0.49574074  0.56312517
   0.24577208  0.51193873  0.56965152
   0.33333333  0.58333333  0.38179910
   0.16656333  0.16794481  0.47349386
   0.83333333  0.58333333  0.38179910
   0.00233556  0.75037705  0.56242699
   0.08333333  0.83333333  0.38179910
   0.00008388  0.49889537  0.56231353
   0.91549612  0.66409383  0.47323899
   0.91763334  0.41436715  0.47376213
   0.08333333  0.33333333  0.38179910