  48  48   0   0
  0.5349325E+02  0.1100258E-08  0.1100258E-08  0.2449179E-08  0.3500000E-15
  1.000000000000000E-004
  CAR 
 unknown system                          
      6.44070714     -9.84259263  301     -1.09587044      1.00000000
     -9.843  0.0000E+00  0.0000E+00
     -9.788  0.0000E+00  0.0000E+00
     -9.734  0.0000E+00  0.0000E+00
     -9.680  0.0000E+00  0.0000E+00
     -9.625  0.0000E+00  0.0000E+00
     -9.571  0.0000E+00  0.0000E+00
     -9.517  0.0000E+00  0.0000E+00
     -9.463  0.0000E+00  0.0000E+00
     -9.408  0.9545E-17  0.5181E-18
     -9.354  0.3884E-14  0.2113E-15
     -9.300  0.8705E-12  0.4746E-13
     -9.246  0.1101E-09  0.6024E-11
     -9.191  0.7878E-08  0.4336E-09
     -9.137  0.3195E-06  0.1778E-07
     -9.083  0.7366E-05  0.4176E-06
     -9.028  0.9678E-04  0.5671E-05
     -8.974  0.7264E-03  0.4510E-04
     -8.920  0.3124E-02  0.2147E-03
     -8.866  0.7728E-02  0.6341E-03
     -8.811  0.1119E-01  0.1241E-02
     -8.757  0.1043E-01  0.1807E-02
     -8.703  0.9080E-02  0.2300E-02
     -8.648  0.1032E-01  0.2860E-02
     -8.594  0.1044E-01  0.3427E-02
     -8.540  0.6925E-02  0.3803E-02
     -8.486  0.2827E-02  0.3956E-02
     -8.431  0.7575E-03  0.3997E-02
     -8.377  0.5000E-03  0.4025E-02
     -8.323  0.1516E-02  0.4107E-02
     -8.269  0.3471E-02  0.4295E-02
     -8.214  0.5444E-02  0.4591E-02
     -8.160  0.7243E-02  0.4984E-02
     -8.106  0.9784E-02  0.5515E-02
     -8.051  0.1344E-01  0.6244E-02
     -7.997  0.1761E-01  0.7200E-02
     -7.943  0.1988E-01  0.8279E-02
     -7.889  0.1724E-01  0.9215E-02
     -7.834  0.1128E-01  0.9827E-02
     -7.780  0.7725E-02  0.1025E-01
     -7.726  0.8640E-02  0.1072E-01
     -7.671  0.1074E-01  0.1130E-01
     -7.617  0.1183E-01  0.1194E-01
     -7.563  0.1394E-01  0.1270E-01
     -7.509  0.1868E-01  0.1371E-01
     -7.454  0.2434E-01  0.1503E-01
     -7.400  0.2833E-01  0.1657E-01
     -7.346  0.2897E-01  0.1814E-01
     -7.292  0.2735E-01  0.1963E-01
     -7.237  0.2625E-01  0.2105E-01
     -7.183  0.2808E-01  0.2258E-01
     -7.129  0.3347E-01  0.2439E-01
     -7.074  0.4118E-01  0.2663E-01
     -7.020  0.4968E-01  0.2932E-01
     -6.966  0.5613E-01  0.3237E-01
     -6.912  0.5802E-01  0.3552E-01
     -6.857  0.5875E-01  0.3871E-01
     -6.803  0.6445E-01  0.4221E-01
     -6.749  0.7593E-01  0.4633E-01
     -6.694  0.8988E-01  0.5121E-01
     -6.640  0.1008E+00  0.5668E-01
     -6.586  0.1047E+00  0.6236E-01
     -6.532  0.1058E+00  0.6810E-01
     -6.477  0.1102E+00  0.7408E-01
     -6.423  0.1173E+00  0.8045E-01
     -6.369  0.1247E+00  0.8721E-01
     -6.315  0.1323E+00  0.9439E-01
     -6.260  0.1410E+00  0.1020E+00
     -6.206  0.1510E+00  0.1102E+00
     -6.152  0.1609E+00  0.1190E+00
     -6.097  0.1669E+00  0.1280E+00
     -6.043  0.1666E+00  0.1371E+00
     -5.989  0.1616E+00  0.1458E+00
     -5.935  0.1574E+00  0.1544E+00
     -5.880  0.1574E+00  0.1629E+00
     -5.826  0.1544E+00  0.1713E+00
     -5.772  0.1420E+00  0.1790E+00
     -5.717  0.1294E+00  0.1860E+00
     -5.663  0.1266E+00  0.1929E+00
     -5.609  0.1294E+00  0.1999E+00
     -5.555  0.1308E+00  0.2070E+00
     -5.500  0.1305E+00  0.2141E+00
     -5.446  0.1297E+00  0.2212E+00
     -5.392  0.1295E+00  0.2282E+00
     -5.338  0.1352E+00  0.2355E+00
     -5.283  0.1499E+00  0.2437E+00
     -5.229  0.1655E+00  0.2526E+00
     -5.175  0.1742E+00  0.2621E+00
     -5.120  0.1771E+00  0.2717E+00
     -5.066  0.1769E+00  0.2813E+00
     -5.012  0.1747E+00  0.2908E+00
     -4.958  0.1727E+00  0.3002E+00
     -4.903  0.1732E+00  0.3096E+00
     -4.849  0.1737E+00  0.3190E+00
     -4.795  0.1699E+00  0.3282E+00
     -4.740  0.1651E+00  0.3372E+00
     -4.686  0.1644E+00  0.3461E+00
     -4.632  0.1678E+00  0.3552E+00
     -4.578  0.1722E+00  0.3646E+00
     -4.523  0.1758E+00  0.3741E+00
     -4.469  0.1785E+00  0.3838E+00
     -4.415  0.1784E+00  0.3935E+00
     -4.361  0.1765E+00  0.4030E+00
     -4.306  0.1773E+00  0.4127E+00
     -4.252  0.1793E+00  0.4224E+00
     -4.198  0.1781E+00  0.4321E+00
     -4.143  0.1752E+00  0.4416E+00
     -4.089  0.1728E+00  0.4510E+00
     -4.035  0.1690E+00  0.4601E+00
     -3.981  0.1648E+00  0.4691E+00
     -3.926  0.1654E+00  0.4781E+00
     -3.872  0.1708E+00  0.4873E+00
     -3.818  0.1762E+00  0.4969E+00
     -3.763  0.1790E+00  0.5066E+00
     -3.709  0.1801E+00  0.5164E+00
     -3.655  0.1814E+00  0.5262E+00
     -3.601  0.1826E+00  0.5361E+00
     -3.546  0.1852E+00  0.5462E+00
     -3.492  0.1910E+00  0.5566E+00
     -3.438  0.1969E+00  0.5672E+00
     -3.384  0.1979E+00  0.5780E+00
     -3.329  0.1939E+00  0.5885E+00
     -3.275  0.1886E+00  0.5987E+00
     -3.221  0.1854E+00  0.6088E+00
     -3.166  0.1843E+00  0.6188E+00
     -3.112  0.1820E+00  0.6287E+00
     -3.058  0.1777E+00  0.6383E+00
     -3.004  0.1746E+00  0.6478E+00
     -2.949  0.1758E+00  0.6574E+00
     -2.895  0.1814E+00  0.6672E+00
     -2.841  0.1888E+00  0.6774E+00
     -2.786  0.1957E+00  0.6881E+00
     -2.732  0.1995E+00  0.6989E+00
     -2.678  0.2000E+00  0.7098E+00
     -2.624  0.2003E+00  0.7206E+00
     -2.569  0.1996E+00  0.7315E+00
     -2.515  0.1946E+00  0.7420E+00
     -2.461  0.1876E+00  0.7522E+00
     -2.407  0.1837E+00  0.7622E+00
     -2.352  0.1827E+00  0.7721E+00
     -2.298  0.1831E+00  0.7820E+00
     -2.244  0.1862E+00  0.7921E+00
     -2.189  0.1902E+00  0.8025E+00
     -2.135  0.1914E+00  0.8129E+00
     -2.081  0.1923E+00  0.8233E+00
     -2.027  0.1954E+00  0.8339E+00
     -1.972  0.1965E+00  0.8446E+00
     -1.918  0.1947E+00  0.8551E+00
     -1.864  0.1951E+00  0.8657E+00
     -1.809  0.1989E+00  0.8765E+00
     -1.755  0.2040E+00  0.8876E+00
     -1.701  0.2093E+00  0.8989E+00
     -1.647  0.2123E+00  0.9105E+00
     -1.592  0.2090E+00  0.9218E+00
     -1.538  0.2028E+00  0.9328E+00
     -1.484  0.1993E+00  0.9436E+00
     -1.430  0.1982E+00  0.9544E+00
     -1.375  0.1971E+00  0.9651E+00
     -1.321  0.1936E+00  0.9756E+00
     -1.267  0.1830E+00  0.9855E+00
     -1.212  0.1619E+00  0.9943E+00
     -1.158  0.1333E+00  0.1002E+01
     -1.104  0.1052E+00  0.1007E+01
     -1.050  0.8208E-01  0.1012E+01
     -0.995  0.6040E-01  0.1015E+01
     -0.941  0.4014E-01  0.1017E+01
     -0.887  0.2615E-01  0.1019E+01
     -0.833  0.1889E-01  0.1020E+01
     -0.778  0.1705E-01  0.1021E+01
     -0.724  0.1971E-01  0.1022E+01
     -0.670  0.2299E-01  0.1023E+01
     -0.615  0.2503E-01  0.1024E+01
     -0.561  0.2890E-01  0.1026E+01
     -0.507  0.3664E-01  0.1028E+01
     -0.453  0.4422E-01  0.1030E+01
     -0.398  0.4526E-01  0.1033E+01
     -0.344  0.3999E-01  0.1035E+01
     -0.290  0.3625E-01  0.1037E+01
     -0.235  0.3903E-01  0.1039E+01
     -0.181  0.4227E-01  0.1041E+01
     -0.127  0.3834E-01  0.1043E+01
     -0.073  0.2848E-01  0.1045E+01
     -0.018  0.1861E-01  0.1046E+01
      0.036  0.1379E-01  0.1047E+01
      0.090  0.1672E-01  0.1047E+01
      0.144  0.2728E-01  0.1049E+01
      0.199  0.3914E-01  0.1051E+01
      0.253  0.4230E-01  0.1053E+01
      0.307  0.3790E-01  0.1055E+01
      0.362  0.3568E-01  0.1057E+01
      0.416  0.3608E-01  0.1059E+01
      0.470  0.3560E-01  0.1061E+01
      0.524  0.3848E-01  0.1063E+01
      0.579  0.4655E-01  0.1066E+01
      0.633  0.5291E-01  0.1069E+01
      0.687  0.5161E-01  0.1072E+01
      0.742  0.4410E-01  0.1074E+01
      0.796  0.3580E-01  0.1076E+01
      0.850  0.2939E-01  0.1077E+01
      0.904  0.2448E-01  0.1079E+01
      0.959  0.2103E-01  0.1080E+01
      1.013  0.1931E-01  0.1081E+01
      1.067  0.1923E-01  0.1082E+01
      1.121  0.2071E-01  0.1083E+01
      1.176  0.2189E-01  0.1084E+01
      1.230  0.1949E-01  0.1085E+01
      1.284  0.1487E-01  0.1086E+01
      1.339  0.1210E-01  0.1087E+01
      1.393  0.1166E-01  0.1088E+01
      1.447  0.1402E-01  0.1088E+01
      1.501  0.2227E-01  0.1089E+01
      1.556  0.3283E-01  0.1091E+01
      1.610  0.3573E-01  0.1093E+01
      1.664  0.3106E-01  0.1095E+01
      1.719  0.2864E-01  0.1096E+01
      1.773  0.3255E-01  0.1098E+01
      1.827  0.3688E-01  0.1100E+01
      1.881  0.3412E-01  0.1102E+01
      1.936  0.2496E-01  0.1103E+01
      1.990  0.1830E-01  0.1104E+01
      2.044  0.1963E-01  0.1105E+01
      2.098  0.2545E-01  0.1107E+01
      2.153  0.3205E-01  0.1109E+01
      2.207  0.3804E-01  0.1111E+01
      2.261  0.4139E-01  0.1113E+01
      2.316  0.4314E-01  0.1115E+01
      2.370  0.4517E-01  0.1118E+01
      2.424  0.4548E-01  0.1120E+01
      2.478  0.4483E-01  0.1123E+01
      2.533  0.4499E-01  0.1125E+01
      2.587  0.4386E-01  0.1127E+01
      2.641  0.4338E-01  0.1130E+01
      2.696  0.4526E-01  0.1132E+01
      2.750  0.4296E-01  0.1135E+01
      2.804  0.3316E-01  0.1136E+01
      2.858  0.2242E-01  0.1138E+01
      2.913  0.1657E-01  0.1138E+01
      2.967  0.1371E-01  0.1139E+01
      3.021  0.9960E-02  0.1140E+01
      3.075  0.7963E-02  0.1140E+01
      3.130  0.1256E-01  0.1141E+01
      3.184  0.2125E-01  0.1142E+01
      3.238  0.2549E-01  0.1143E+01
      3.293  0.2121E-01  0.1145E+01
      3.347  0.1375E-01  0.1145E+01
      3.401  0.9837E-02  0.1146E+01
      3.455  0.1102E-01  0.1146E+01
      3.510  0.1780E-01  0.1147E+01
      3.564  0.3026E-01  0.1149E+01
      3.618  0.4234E-01  0.1151E+01
      3.673  0.4679E-01  0.1154E+01
      3.727  0.4388E-01  0.1156E+01
      3.781  0.3695E-01  0.1158E+01
      3.835  0.2921E-01  0.1160E+01
      3.890  0.2506E-01  0.1161E+01
      3.944  0.2573E-01  0.1163E+01
      3.998  0.2797E-01  0.1164E+01
      4.052  0.2849E-01  0.1166E+01
      4.107  0.2598E-01  0.1167E+01
      4.161  0.2255E-01  0.1168E+01
      4.215  0.2127E-01  0.1169E+01
      4.270  0.2053E-01  0.1171E+01
      4.324  0.1798E-01  0.1172E+01
      4.378  0.1678E-01  0.1172E+01
      4.432  0.2063E-01  0.1174E+01
      4.487  0.2773E-01  0.1175E+01
      4.541  0.3671E-01  0.1177E+01
      4.595  0.4724E-01  0.1180E+01
      4.650  0.5261E-01  0.1183E+01
      4.704  0.4858E-01  0.1185E+01
      4.758  0.4394E-01  0.1188E+01
      4.812  0.4648E-01  0.1190E+01
      4.867  0.5313E-01  0.1193E+01
      4.921  0.5812E-01  0.1196E+01
      4.975  0.6135E-01  0.1199E+01
      5.029  0.6593E-01  0.1203E+01
      5.084  0.6914E-01  0.1207E+01
      5.138  0.6602E-01  0.1210E+01
      5.192  0.6058E-01  0.1214E+01
      5.247  0.5811E-01  0.1217E+01
      5.301  0.5190E-01  0.1220E+01
      5.355  0.3763E-01  0.1222E+01
      5.409  0.2278E-01  0.1223E+01
      5.464  0.1240E-01  0.1224E+01
      5.518  0.5678E-02  0.1224E+01
      5.572  0.1886E-02  0.1224E+01
      5.627  0.4080E-03  0.1224E+01
      5.681  0.5413E-04  0.1224E+01
      5.735  0.4251E-05  0.1224E+01
      5.789  0.1934E-06  0.1224E+01
      5.844  0.5032E-08  0.1224E+01
      5.898  0.7422E-10  0.1224E+01
      5.952  0.6173E-12  0.1224E+01
      6.006  0.2884E-14  0.1224E+01
      6.061  0.8182E-17  0.1224E+01
      6.115  0.0000E+00  0.1224E+01
      6.169  0.0000E+00  0.1224E+01
      6.224  0.0000E+00  0.1224E+01
      6.278  0.0000E+00  0.1224E+01
      6.332  0.0000E+00  0.1224E+01
      6.386  0.0000E+00  0.1224E+01
      6.441  0.0000E+00  0.1224E+01
