unknown system                          
           1
    11.002582    0.000000    0.000000
     5.501291    9.528515    0.000000
     0.000000    0.000000   24.491785
   Au   Pd
  24  24
Direct configuration=     1
   0.08333333  0.08333333  0.40830017
   0.08333333  0.83333333  0.40830017
   0.00000000  0.50000000  0.59169983
   0.08333333  0.58333333  0.40830017
   0.00000000  0.25000000  0.59169983
   0.91666667  0.41666667  0.50000000
   0.00000000  0.00000000  0.59169983
   0.25000000  0.75000000  0.59169983
   0.33333333  0.58333333  0.40830017
   0.16666667  0.66666667  0.50000000
   0.66666667  0.91666667  0.50000000
   0.58333333  0.08333333  0.40830017
   0.16666667  0.41666667  0.50000000
   0.50000000  0.25000000  0.59169983
   0.41666667  0.66666667  0.50000000
   0.58333333  0.83333333  0.40830017
   0.41666667  0.91666667  0.50000000
   0.66666667  0.16666667  0.50000000
   0.83333333  0.33333333  0.40830017
   0.66666667  0.41666667  0.50000000
   0.75000000  0.25000000  0.59169983
   0.83333333  0.58333333  0.40830017
   0.75000000  0.50000000  0.59169983
   0.41666667  0.41666667  0.50000000
   0.50000000  0.00000000  0.59169983
   0.41666667  0.16666667  0.50000000
   0.33333333  0.08333333  0.40830017
   0.16666667  0.16666667  0.50000000
   0.33333333  0.33333333  0.40830017
   0.33333333  0.83333333  0.40830017
   0.25000000  0.50000000  0.59169983
   0.25000000  0.00000000  0.59169983
   0.58333333  0.33333333  0.40830017
   0.16666667  0.91666667  0.50000000
   0.00000000  0.75000000  0.59169983
   0.83333333  0.08333333  0.40830017
   0.50000000  0.50000000  0.59169983
   0.91666667  0.66666667  0.50000000
   0.50000000  0.75000000  0.59169983
   0.75000000  0.00000000  0.59169983
   0.08333333  0.33333333  0.40830017
   0.66666667  0.66666667  0.50000000
   0.91666667  0.16666667  0.50000000
   0.83333333  0.83333333  0.40830017
   0.25000000  0.25000000  0.59169983
   0.58333333  0.58333333  0.40830017
   0.91666667  0.91666667  0.50000000
   0.75000000  0.75000000  0.59169983
Direct configuration=     2
   0.08333333  0.08333333  0.40830017
   0.08333333  0.83333333  0.40830017
   0.00044615  0.50135097  0.59388418
   0.08333333  0.58333333  0.40830017
   0.00193370  0.24857951  0.59362793
   0.91749995  0.41636777  0.49961798
   0.00012279 -0.00074678  0.59324337
   0.25036452  0.74980118  0.59384172
   0.33333333  0.58333333  0.40830017
   0.16441604  0.66815282  0.50075810
   0.66830951  0.91534715  0.50077604
   0.58333333  0.08333333  0.40830017
   0.16779543  0.41470520  0.50002627
   0.49889895  0.24982719  0.59391982
   0.41769861  0.66773086  0.50004195
   0.58333333  0.83333333  0.40830017
   0.41512989  0.91786476  0.50041871
   0.66828889  0.16518940  0.49959858
   0.83333333  0.33333333  0.40830017
   0.66602023  0.41746154  0.49959124
   0.74976936  0.24962148  0.59396751
   0.83333333  0.58333333  0.40830017
   0.74817031  0.50219166  0.59393646
   0.41655060  0.41578081  0.50000893
   0.49967571 -0.00017271  0.59275235
   0.41527977  0.16656117  0.50005108
   0.33333333  0.08333333  0.40830017
   0.16765066  0.16583602  0.50002061
   0.33333333  0.33333333  0.40830017
   0.33333333  0.83333333  0.40830017
   0.24991052  0.49993589  0.59311260
   0.25079509  0.00041711  0.59259300
   0.58333333  0.33333333  0.40830017
   0.16619296  0.91788720  0.49999013
  -0.00076665  0.75020096  0.59266278
   0.83333333  0.08333333  0.40830017
   0.49965293  0.50050991  0.59322019
   0.91550045  0.66836986  0.50026015
   0.50025224  0.75032876  0.59285635
   0.75018861 -0.00111046  0.59281803
   0.08333333  0.33333333  0.40830017
   0.66673846  0.66707788  0.50029574
   0.91773753  0.16509402  0.49974055
   0.83333333  0.83333333  0.40830017
   0.25058629  0.24924239  0.59271980
   0.58333333  0.58333333  0.40830017
   0.91661713  0.91662850  0.50003622
   0.74963866  0.75067011  0.59256411
Direct configuration=     3
   0.08333333  0.08333333  0.40830017
   0.08333333  0.83333333  0.40830017
   0.00170510  0.50516315  0.60004800
   0.08333333  0.58333333  0.40830017
   0.00739022  0.24457116  0.59906866
   0.91985133  0.41552435  0.49853998
   0.00046928 -0.00285404  0.59759892
   0.25139313  0.74924013  0.59988572
   0.33333333  0.58333333  0.40830017
   0.15806522  0.67234644  0.50289731
   0.67294528  0.91162374  0.50296587
   0.58333333  0.08333333  0.40830017
   0.17098059  0.40917033  0.50010040
   0.49579199  0.24933955  0.60018419
   0.42061055  0.67073382  0.50016034
   0.58333333  0.83333333  0.40830017
   0.41079342  0.92124554  0.50160023
   0.67286647  0.16102086  0.49846584
   0.83333333  0.33333333  0.40830017
   0.66419612  0.41970451  0.49843781
   0.74911853  0.24855336  0.60036646
   0.83333333  0.58333333  0.40830017
   0.74300730  0.50837611  0.60024778
   0.41622308  0.41328111  0.50003413
   0.49876063 -0.00066006  0.59572236
   0.41136622  0.16626348  0.50019521
   0.33333333  0.08333333  0.40830017
   0.17042729  0.16349208  0.50007877
   0.33333333  0.33333333  0.40830017
   0.33333333  0.83333333  0.40830017
   0.24965802  0.49975500  0.59709917
   0.25303870  0.00159411  0.59511337
   0.58333333  0.33333333  0.40830017
   0.16485625  0.92133132  0.49996227
  -0.00292999  0.75076804  0.59538005
   0.83333333  0.08333333  0.40830017
   0.49867358  0.50194878  0.59751035
   0.91220961  0.67317596  0.50099422
   0.50096400  0.75125645  0.59611983
   0.75072082 -0.00424396  0.59597336
   0.08333333  0.33333333  0.40830017
   0.66694104  0.66823825  0.50113027
   0.92075928  0.16065630  0.49900845
   0.83333333  0.83333333  0.40830017
   0.25224070  0.24710455  0.59559794
   0.58333333  0.58333333  0.40830017
   0.91647735  0.91652081  0.50013843
   0.74861902  0.75256103  0.59500293
Direct configuration=     4
   0.08333333  0.08333333  0.40830017
   0.08333333  0.83333333  0.40830017
   0.00149216  0.50502767  0.60243402
   0.08333333  0.58333333  0.40830017
   0.00695331  0.24549646  0.60110819
   0.92028260  0.41519272  0.50069732
   0.00068957 -0.00341527  0.59952421
   0.25194272  0.74916330  0.60235952
   0.33333333  0.58333333  0.40830017
   0.15905514  0.67215058  0.50463111
   0.67104028  0.91294815  0.50398209
   0.58333333  0.08333333  0.40830017
   0.16971890  0.41021077  0.50152743
   0.49596891  0.24893613  0.60261280
   0.41898706  0.67147508  0.50156149
   0.58333333  0.83333333  0.40830017
   0.41185703  0.92121830  0.50250752
   0.67258438  0.16152937  0.50008844
   0.83333333  0.33333333  0.40830017
   0.66502158  0.41884667  0.50022777
   0.74873956  0.24890579  0.60266123
   0.83333333  0.58333333  0.40830017
   0.74362052  0.50804157  0.60267240
   0.41656202  0.41308650  0.50164424
   0.49892553 -0.00090683  0.59721266
   0.41344791  0.16461755  0.50115854
   0.33333333  0.08333333  0.40830017
   0.16893713  0.16397142  0.50094934
   0.33333333  0.33333333  0.40830017
   0.33333333  0.83333333  0.40830017
   0.24990815  0.49977074  0.59869596
   0.25380324  0.00088031  0.59664578
   0.58333333  0.33333333  0.40830017
   0.16471182  0.92070962  0.50123940
  -0.00342147  0.75132147  0.59712140
   0.83333333  0.08333333  0.40830017
   0.49842289  0.50171787  0.59903484
   0.91316973  0.67133842  0.50197170
   0.50013914  0.75243456  0.59775411
   0.75012192 -0.00385707  0.59762735
   0.08333333  0.33333333  0.40830017
   0.66773259  0.66793960  0.50228463
   0.92089266  0.16096749  0.50048820
   0.83333333  0.83333333  0.40830017
   0.25215303  0.24732257  0.59713501
   0.58333333  0.58333333  0.40830017
   0.91702372  0.91712371  0.50103613
   0.74830639  0.75270902  0.59675028
Direct configuration=     5
   0.08333333  0.08333333  0.40830017
   0.08333333  0.83333333  0.40830017
   0.00085333  0.50462123  0.60959208
   0.08333333  0.58333333  0.40830017
   0.00564258  0.24827239  0.60722681
   0.92157644  0.41419784  0.50716932
   0.00135045 -0.00509895  0.60530010
   0.25359148  0.74893279  0.60978091
   0.33333333  0.58333333  0.40830017
   0.16202491  0.67156301  0.50983254
   0.66532529  0.91692137  0.50703076
   0.58333333  0.08333333  0.40830017
   0.16593383  0.41333209  0.50580852
   0.49649969  0.24772589  0.60989860
   0.41411658  0.67369883  0.50576493
   0.58333333  0.83333333  0.40830017
   0.41504785  0.92113658  0.50522942
   0.67173809  0.16305489  0.50495624
   0.83333333  0.33333333  0.40830017
   0.66749794  0.41627318  0.50559766
   0.74760264  0.24996307  0.60954555
   0.83333333  0.58333333  0.40830017
   0.74546019  0.50703798  0.60994625
   0.41757886  0.41250267  0.50647459
   0.49942023 -0.00164712  0.60168355
   0.41969298  0.15967975  0.50404851
   0.33333333  0.08333333  0.40830017
   0.16446665  0.16540943  0.50356105
   0.33333333  0.33333333  0.40830017
   0.33333333  0.83333333  0.40830017
   0.25065853  0.49981795  0.60348634
   0.25609689 -0.00126110  0.60124301
   0.58333333  0.33333333  0.40830017
   0.16427854  0.91884453  0.50507078
  -0.00489588  0.75298176  0.60234545
   0.83333333  0.08333333  0.40830017
   0.49767080  0.50102515  0.60360829
   0.91605009  0.66582582  0.50490411
   0.49766454  0.75596889  0.60265695
   0.74832525 -0.00269640  0.60258933
   0.08333333  0.33333333  0.40830017
   0.67010725  0.66704364  0.50574772
   0.92129281  0.16190103  0.50492745
   0.83333333  0.83333333  0.40830017
   0.25189001  0.24797663  0.60174623
   0.58333333  0.58333333  0.40830017
   0.91866283  0.91893241  0.50372922
   0.74736852  0.75315300  0.60199235
Direct configuration=     6
   0.08333333  0.08333333  0.40830017
   0.08333333  0.83333333  0.40830017
   0.00074431  0.50455187  0.61081370
   0.08333333  0.58333333  0.40830017
   0.00541888  0.24874613  0.60827103
   0.92179725  0.41402805  0.50827385
   0.00146324 -0.00538629  0.60628583
   0.25387286  0.74889345  0.61104747
   0.33333333  0.58333333  0.40830017
   0.16253174  0.67146273  0.51072023
   0.66434996  0.91759945  0.50755105
   0.58333333  0.08333333  0.40830017
   0.16528786  0.41386478  0.50653914
   0.49659027  0.24751934  0.61114201
   0.41328537  0.67407834  0.50648230
   0.58333333  0.83333333  0.40830017
   0.41559240  0.92112263  0.50569394
   0.67159367  0.16331524  0.50578699
   0.83333333  0.33333333  0.40830017
   0.66792056  0.41583398  0.50651409
   0.74740861  0.25014351  0.61072044
   0.83333333  0.58333333  0.40830017
   0.74577415  0.50686670  0.61118763
   0.41775240  0.41240303  0.50729895
   0.49950465 -0.00177347  0.60244656
   0.42075878  0.15883706  0.50454172
   0.33333333  0.08333333  0.40830017
   0.16370371  0.16565484  0.50400677
   0.33333333  0.33333333  0.40830017
   0.33333333  0.83333333  0.40830017
   0.25078659  0.49982600  0.60430388
   0.25648833 -0.00162656  0.60202759
   0.58333333  0.33333333  0.40830017
   0.16420460  0.91852623  0.50572466
  -0.00514751  0.75326511  0.60323700
   0.83333333  0.08333333  0.40830017
   0.49754245  0.50090692  0.60438880
   0.91654166  0.66488503  0.50540456
   0.49724222  0.75657207  0.60349368
   0.74801863 -0.00249832  0.60343615
   0.08333333  0.33333333  0.40830017
   0.67051251  0.66689073  0.50633874
   0.92136111  0.16206036  0.50568507
   0.83333333  0.83333333  0.40830017
   0.25184512  0.24808825  0.60253319
   0.58333333  0.58333333  0.40830017
   0.91894257  0.91924109  0.50418883
   0.74720847  0.75322877  0.60288697
Direct configuration=     7
   0.08333333  0.08333333  0.40830017
   0.08333333  0.83333333  0.40830017
   0.00055247  0.50436917  0.61225429
   0.08333333  0.58333333  0.40830017
   0.00410225  0.24817519  0.60951229
   0.91809936  0.41473863  0.50985784
   0.00102003 -0.00292112  0.60739086
   0.25307772  0.74910115  0.61264246
   0.33333333  0.58333333  0.40830017
   0.16356024  0.66981046  0.51159179
   0.67068811  0.91412808  0.50815984
   0.58333333  0.08333333  0.40830017
   0.16890568  0.41284799  0.50764366
   0.49726963  0.24786602  0.61240447
   0.41559264  0.67132214  0.50764741
   0.58333333  0.83333333  0.40830017
   0.41364755  0.91901227  0.50619706
   0.67109660  0.16448345  0.50738740
   0.83333333  0.33333333  0.40830017
   0.66808181  0.41713749  0.50805292
   0.74833503  0.24999020  0.61191733
   0.83333333  0.58333333  0.40830017
   0.74571023  0.50596887  0.61242976
   0.41710932  0.41272225  0.50834247
   0.49941372 -0.00069632  0.60404619
   0.41702634  0.16514708  0.50586745
   0.33333333  0.08333333  0.40830017
   0.16575041  0.16487121  0.50538214
   0.33333333  0.33333333  0.40830017
   0.33333333  0.83333333  0.40830017
   0.25023123  0.49985867  0.60558649
   0.25355957 -0.00008167  0.60297480
   0.58333333  0.33333333  0.40830017
   0.16490955  0.91890976  0.50718798
  -0.00471915  0.75246234  0.60446021
   0.83333333  0.08333333  0.40830017
   0.49880379  0.50063251  0.60531396
   0.91625595  0.66703209  0.50676814
   0.49888555  0.75387117  0.60452120
   0.74799107 -0.00117706  0.60448152
   0.08333333  0.33333333  0.40830017
   0.66966617  0.66508755  0.50763321
   0.91981051  0.16404964  0.50754497
   0.83333333  0.83333333  0.40830017
   0.25138267  0.24870574  0.60324037
   0.58333333  0.58333333  0.40830017
   0.91755226  0.91759923  0.50548577
   0.74802869  0.75240531  0.60399152
Direct configuration=     8
   0.08333333  0.08333333  0.40830017
   0.08333333  0.83333333  0.40830017
   0.00053438  0.50435195  0.61239015
   0.08333333  0.58333333  0.40830017
   0.00397808  0.24812134  0.60962935
   0.91775062  0.41480564  0.51000722
   0.00097823 -0.00268864  0.60749507
   0.25300273  0.74912074  0.61279288
   0.33333333  0.58333333  0.40830017
   0.16365723  0.66965464  0.51167398
   0.67128584  0.91380071  0.50821725
   0.58333333  0.08333333  0.40830017
   0.16924687  0.41275210  0.50774783
   0.49733370  0.24789871  0.61252352
   0.41581023  0.67106221  0.50775729
   0.58333333  0.83333333  0.40830017
   0.41346414  0.91881325  0.50624451
   0.67104972  0.16459362  0.50753832
   0.83333333  0.33333333  0.40830017
   0.66809702  0.41726042  0.50819804
   0.74842240  0.24997574  0.61203021
   0.83333333  0.58333333  0.40830017
   0.74570421  0.50588420  0.61254690
   0.41704868  0.41275236  0.50844088
   0.49940514 -0.00059474  0.60419705
   0.41667435  0.16574215  0.50599247
   0.33333333  0.08333333  0.40830017
   0.16594343  0.16479731  0.50551184
   0.33333333  0.33333333  0.40830017
   0.33333333  0.83333333  0.40830017
   0.25017886  0.49986175  0.60570745
   0.25328336  0.00006403  0.60306413
   0.58333333  0.33333333  0.40830017
   0.16497603  0.91894593  0.50732598
  -0.00467875  0.75238663  0.60457556
   0.83333333  0.08333333  0.40830017
   0.49892274  0.50060664  0.60540120
   0.91622900  0.66723457  0.50689674
   0.49904053  0.75361646  0.60461810
   0.74798848 -0.00105246  0.60458011
   0.08333333  0.33333333  0.40830017
   0.66958635  0.66491749  0.50775528
   0.91966428  0.16423724  0.50772037
   0.83333333  0.83333333  0.40830017
   0.25133906  0.24876397  0.60330706
   0.58333333  0.58333333  0.40830017
   0.91742114  0.91744439  0.50560808
   0.74810604  0.75232765  0.60409568
Direct configuration=     9
   0.08333333  0.08333333  0.40830017
   0.08333333  0.83333333  0.40830017
   0.00054332  0.50383411  0.61262374
   0.08333333  0.58333333  0.40830017
   0.00347454  0.24819601  0.61002091
   0.91832765  0.41555531  0.51020997
   0.00052818 -0.00184229  0.60768259
   0.25205679  0.74931564  0.61311404
   0.33333333  0.58333333  0.40830017
   0.16385850  0.66968516  0.51161644
   0.67129540  0.91332099  0.50835686
   0.58333333  0.08333333  0.40830017
   0.16790489  0.41307639  0.50780426
   0.49753127  0.24870253  0.61272058
   0.41709513  0.66860617  0.50799914
   0.58333333  0.83333333  0.40830017
   0.41444545  0.91899380  0.50655083
   0.67048345  0.16511492  0.50788597
   0.83333333  0.33333333  0.40830017
   0.66685705  0.41768491  0.50839384
   0.74886322  0.24986519  0.61232475
   0.83333333  0.58333333  0.40830017
   0.74582803  0.50531689  0.61290093
   0.41792919  0.41383897  0.50852703
   0.49920210 -0.00046472  0.60438997
   0.41646561  0.16559510  0.50665511
   0.33333333  0.08333333  0.40830017
   0.16684588  0.16537957  0.50616823
   0.33333333  0.33333333  0.40830017
   0.33333333  0.83333333  0.40830017
   0.24988570  0.49993973  0.60640258
   0.25214097  0.00079577  0.60339300
   0.58333333  0.33333333  0.40830017
   0.16443459  0.91888257  0.50786457
  -0.00398739  0.75218360  0.60507855
   0.83333333  0.08333333  0.40830017
   0.49941759  0.50051187  0.60586738
   0.91706619  0.66671355  0.50752722
   0.49980869  0.75233368  0.60490398
   0.74844721 -0.00065510  0.60498726
   0.08333333  0.33333333  0.40830017
   0.66857248  0.66532032  0.50824162
   0.91922443  0.16427676  0.50840468
   0.83333333  0.83333333  0.40830017
   0.25080830  0.24899710  0.60360897
   0.58333333  0.58333333  0.40830017
   0.91798053  0.91663497  0.50626679
   0.74839027  0.75207060  0.60445235
Direct configuration=    10
   0.08333333  0.08333333  0.40830017
   0.08333333  0.83333333  0.40830017
   0.00054409  0.50378961  0.61264381
   0.08333333  0.58333333  0.40830017
   0.00343127  0.24820242  0.61005456
   0.91837723  0.41561974  0.51022740
   0.00048950 -0.00176956  0.60769871
   0.25197550  0.74933239  0.61314164
   0.33333333  0.58333333  0.40830017
   0.16387580  0.66968778  0.51161149
   0.67129622  0.91327976  0.50836886
   0.58333333  0.08333333  0.40830017
   0.16778957  0.41310425  0.50780911
   0.49754825  0.24877161  0.61273751
   0.41720555  0.66839511  0.50801992
   0.58333333  0.83333333  0.40830017
   0.41452979  0.91900931  0.50657715
   0.67043478  0.16515971  0.50791584
   0.83333333  0.33333333  0.40830017
   0.66675049  0.41772139  0.50841067
   0.74890111  0.24985569  0.61235006
   0.83333333  0.58333333  0.40830017
   0.74583867  0.50526814  0.61293136
   0.41800486  0.41393236  0.50853443
   0.49918465 -0.00045355  0.60440655
   0.41644767  0.16558246  0.50671205
   0.33333333  0.08333333  0.40830017
   0.16692344  0.16542961  0.50622464
   0.33333333  0.33333333  0.40830017
   0.33333333  0.83333333  0.40830017
   0.24986051  0.49994644  0.60646232
   0.25204280  0.00085866  0.60342127
   0.58333333  0.33333333  0.40830017
   0.16438806  0.91887713  0.50791085
  -0.00392798  0.75216615  0.60512178
   0.83333333  0.08333333  0.40830017
   0.49946011  0.50050372  0.60590744
   0.91713813  0.66666877  0.50758140
   0.49987471  0.75222344  0.60492855
   0.74848664 -0.00062095  0.60502225
   0.08333333  0.33333333  0.40830017
   0.66848535  0.66535494  0.50828342
   0.91918663  0.16428016  0.50846349
   0.83333333  0.83333333  0.40830017
   0.25076269  0.24901714  0.60363491
   0.58333333  0.58333333  0.40830017
   0.91802860  0.91656541  0.50632340
   0.74841469  0.75204850  0.60448300
Direct configuration=    11
   0.08333333  0.08333333  0.40830017
   0.08333333  0.83333333  0.40830017
   0.00048625  0.50358520  0.61273036
   0.08333333  0.58333333  0.40830017
   0.00316823  0.24868414  0.61029892
   0.91839808  0.41591246  0.51009301
   0.00030498 -0.00184934  0.60781597
   0.25162566  0.74946197  0.61316704
   0.33333333  0.58333333  0.40830017
   0.16412784  0.66955130  0.51151020
   0.67061775  0.91361843  0.50846947
   0.58333333  0.08333333  0.40830017
   0.16761850  0.41361911  0.50772508
   0.49742527  0.24928118  0.61271639
   0.41681645  0.66893501  0.50804408
   0.58333333  0.83333333  0.40830017
   0.41496120  0.91879930  0.50683521
   0.67030490  0.16463424  0.50791739
   0.83333333  0.33333333  0.40830017
   0.66756912  0.41714569  0.50826972
   0.74885811  0.24996407  0.61252540
   0.83333333  0.58333333  0.40830017
   0.74625878  0.50490179  0.61311905
   0.41740893  0.41408938  0.50849849
   0.49908966 -0.00055028  0.60441430
   0.41700491  0.16514581  0.50709220
   0.33333333  0.08333333  0.40830017
   0.16698023  0.16556406  0.50652253
   0.33333333  0.33333333  0.40830017
   0.33333333  0.83333333  0.40830017
   0.24978923  0.49994855  0.60680966
   0.25217692  0.00066436  0.60361235
   0.58333333  0.33333333  0.40830017
   0.16471927  0.91858491  0.50813287
  -0.00349247  0.75208947  0.60546904
   0.83333333  0.08333333  0.40830017
   0.49935866  0.50059091  0.60640081
   0.91736937  0.66629673  0.50791894
   0.49961130  0.75216030  0.60506125
   0.74868055 -0.00069624  0.60522175
   0.08333333  0.33333333  0.40830017
   0.66836875  0.66572337  0.50849275
   0.91910633  0.16438022  0.50867982
   0.83333333  0.83333333  0.40830017
   0.25059471  0.24918005  0.60393179
   0.58333333  0.58333333  0.40830017
   0.91826507  0.91653595  0.50668132
   0.74856825  0.75209655  0.60469252
Direct configuration=    12
   0.08333333  0.08333333  0.40830017
   0.08333333  0.83333333  0.40830017
   0.00046302  0.50350310  0.61276512
   0.08333333  0.58333333  0.40830017
   0.00306259  0.24887761  0.61039707
   0.91840646  0.41603002  0.51003904
   0.00023087 -0.00188139  0.60786307
   0.25148516  0.74951401  0.61317724
   0.33333333  0.58333333  0.40830017
   0.16422907  0.66949648  0.51146952
   0.67034526  0.91375445  0.50850987
   0.58333333  0.08333333  0.40830017
   0.16754979  0.41382589  0.50769133
   0.49737587  0.24948583  0.61270790
   0.41666018  0.66915186  0.50805379
   0.58333333  0.83333333  0.40830017
   0.41513446  0.91871495  0.50693885
   0.67025274  0.16442320  0.50791802
   0.83333333  0.33333333  0.40830017
   0.66789791  0.41691447  0.50821312
   0.74884085  0.25000760  0.61259582
   0.83333333  0.58333333  0.40830017
   0.74642751  0.50475466  0.61319443
   0.41716959  0.41415245  0.50848406
   0.49905151 -0.00058913  0.60441741
   0.41722871  0.16497044  0.50724489
   0.33333333  0.08333333  0.40830017
   0.16700304  0.16561806  0.50664217
   0.33333333  0.33333333  0.40830017
   0.33333333  0.83333333  0.40830017
   0.24976061  0.49994940  0.60694917
   0.25223078  0.00058632  0.60368910
   0.58333333  0.33333333  0.40830017
   0.16485229  0.91846755  0.50822204
  -0.00331755  0.75205867  0.60560851
   0.83333333  0.08333333  0.40830017
   0.49931791  0.50062592  0.60659896
   0.91746224  0.66614731  0.50805450
   0.49950551  0.75213494  0.60511455
   0.74875843 -0.00072647  0.60530188
   0.08333333  0.33333333  0.40830017
   0.66832192  0.66587135  0.50857683
   0.91907407  0.16442040  0.50876670
   0.83333333  0.83333333  0.40830017
   0.25052724  0.24924548  0.60405103
   0.58333333  0.58333333  0.40830017
   0.91836005  0.91652411  0.50682507
   0.74862992  0.75211585  0.60477666
Direct configuration=    13
   0.08333333  0.08333333  0.40830017
   0.08333333  0.83333333  0.40830017
   0.00050296  0.50365688  0.61283826
   0.08333333  0.58333333  0.40830017
   0.00322862  0.24883070  0.61055660
   0.91841605  0.41590925  0.50987325
   0.00022739 -0.00180825  0.60801590
   0.25156641  0.74943532  0.61315267
   0.33333333  0.58333333  0.40830017
   0.16412159  0.66952625  0.51148567
   0.67069618  0.91356007  0.50859830
   0.58333333  0.08333333  0.40830017
   0.16807492  0.41359203  0.50769849
   0.49729412  0.24950753  0.61264465
   0.41680763  0.66929734  0.50808772
   0.58333333  0.83333333  0.40830017
   0.41474994  0.91877921  0.50703140
   0.67036101  0.16422787  0.50786518
   0.83333333  0.33333333  0.40830017
   0.66786809  0.41681937  0.50815606
   0.74861827  0.25012906  0.61270989
   0.83333333  0.58333333  0.40830017
   0.74633938  0.50491503  0.61331413
   0.41718985  0.41400950  0.50852790
   0.49907979 -0.00060761  0.60453534
   0.41710369  0.16517964  0.50744916
   0.33333333  0.08333333  0.40830017
   0.16695148  0.16552765  0.50679681
   0.33333333  0.33333333  0.40830017
   0.33333333  0.83333333  0.40830017
   0.24967322  0.50002724  0.60711565
   0.25232586  0.00050932  0.60387057
   0.58333333  0.33333333  0.40830017
   0.16508138  0.91866131  0.50828594
  -0.00311517  0.75179947  0.60586460
   0.83333333  0.08333333  0.40830017
   0.49919656  0.50080110  0.60682928
   0.91708120  0.66665253  0.50826855
   0.49934274  0.75213004  0.60525644
   0.74857955 -0.00084315  0.60543213
   0.08333333  0.33333333  0.40830017
   0.66854301  0.66575948  0.50872018
   0.91939448  0.16428196  0.50881712
   0.83333333  0.83333333  0.40830017
   0.25054228  0.24936983  0.60427333
   0.58333333  0.58333333  0.40830017
   0.91827964  0.91650140  0.50699215
   0.74866842  0.75219376  0.60494666
Direct configuration=    14
   0.08333333  0.08333333  0.40830017
   0.08333333  0.83333333  0.40830017
   0.00052194  0.50372994  0.61287301
   0.08333333  0.58333333  0.40830017
   0.00330750  0.24880842  0.61063239
   0.91842061  0.41585187  0.50979449
   0.00022574 -0.00177351  0.60808850
   0.25160500  0.74939793  0.61314100
   0.33333333  0.58333333  0.40830017
   0.16407053  0.66954040  0.51149334
   0.67086288  0.91346772  0.50864032
   0.58333333  0.08333333  0.40830017
   0.16832438  0.41348094  0.50770189
   0.49725528  0.24951783  0.61261460
   0.41687768  0.66936645  0.50810384
   0.58333333  0.83333333  0.40830017
   0.41456726  0.91880974  0.50707536
   0.67041244  0.16413508  0.50784008
   0.83333333  0.33333333  0.40830017
   0.66785393  0.41677419  0.50812896
   0.74851254  0.25018677  0.61276408
   0.83333333  0.58333333  0.40830017
   0.74629751  0.50499121  0.61337100
   0.41719947  0.41394159  0.50854873
   0.49909323 -0.00061639  0.60459137
   0.41704430  0.16527902  0.50754620
   0.33333333  0.08333333  0.40830017
   0.16692698  0.16548470  0.50687027
   0.33333333  0.33333333  0.40830017
   0.33333333  0.83333333  0.40830017
   0.24963170  0.50006421  0.60719474
   0.25237103  0.00047274  0.60395677
   0.58333333  0.33333333  0.40830017
   0.16519021  0.91875335  0.50831630
  -0.00301903  0.75167634  0.60598626
   0.83333333  0.08333333  0.40830017
   0.49913891  0.50088431  0.60693870
   0.91690019  0.66689254  0.50837023
   0.49926542  0.75212770  0.60532384
   0.74849458 -0.00089858  0.60549400
   0.08333333  0.33333333  0.40830017
   0.66864804  0.66570634  0.50878828
   0.91954668  0.16421619  0.50884106
   0.83333333  0.83333333  0.40830017
   0.25054943  0.24942890  0.60437894
   0.58333333  0.58333333  0.40830017
   0.91824145  0.91649061  0.50707152
   0.74868671  0.75223078  0.60502742
Direct configuration=    15
   0.08333333  0.08333333  0.40830017
   0.08333333  0.83333333  0.40830017
   0.00048919  0.50378018  0.61291327
   0.08333333  0.58333333  0.40830017
   0.00336413  0.24881790  0.61077876
   0.91870387  0.41574053  0.50970672
   0.00017813 -0.00167717  0.60826264
   0.25166228  0.74935577  0.61310425
   0.33333333  0.58333333  0.40830017
   0.16394079  0.66970006  0.51158706
   0.67076223  0.91344629  0.50870668
   0.58333333  0.08333333  0.40830017
   0.16825663  0.41334207  0.50778260
   0.49724025  0.24942032  0.61254954
   0.41720855  0.66900058  0.50815572
   0.58333333  0.83333333  0.40830017
   0.41456521  0.91905987  0.50711554
   0.67065460  0.16417101  0.50780205
   0.83333333  0.33333333  0.40830017
   0.66750688  0.41682652  0.50817486
   0.74835870  0.25028684  0.61283777
   0.83333333  0.58333333  0.40830017
   0.74618486  0.50516866  0.61346776
   0.41763440  0.41401324  0.50865643
   0.49913291 -0.00068806  0.60476110
   0.41700538  0.16509484  0.50766232
   0.33333333  0.08333333  0.40830017
   0.16687428  0.16556964  0.50699143
   0.33333333  0.33333333  0.40830017
   0.33333333  0.83333333  0.40830017
   0.24964750  0.50013642  0.60729055
   0.25239961  0.00050957  0.60421240
   0.58333333  0.33333333  0.40830017
   0.16510217  0.91887086  0.50834693
  -0.00293439  0.75164892  0.60622834
   0.83333333  0.08333333  0.40830017
   0.49906217  0.50099212  0.60702187
   0.91693542  0.66693667  0.50854343
   0.49927688  0.75218322  0.60548844
   0.74838211 -0.00091643  0.60564557
   0.08333333  0.33333333  0.40830017
   0.66881045  0.66552895  0.50893310
   0.91976379  0.16401979  0.50887182
   0.83333333  0.83333333  0.40830017
   0.25056234  0.24950179  0.60461988
   0.58333333  0.58333333  0.40830017
   0.91838443  0.91653225  0.50721256
   0.74858158  0.75230993  0.60525497
Direct configuration=    16
   0.08333333  0.08333333  0.40830017
   0.08333333  0.83333333  0.40830017
   0.00048574  0.50378546  0.61291750
   0.08333333  0.58333333  0.40830017
   0.00337008  0.24881889  0.61079413
   0.91873362  0.41572883  0.50969750
   0.00017313 -0.00166705  0.60828094
   0.25166830  0.74935134  0.61310038
   0.33333333  0.58333333  0.40830017
   0.16392716  0.66971684  0.51159690
   0.67075166  0.91344404  0.50871366
   0.58333333  0.08333333  0.40830017
   0.16824951  0.41332748  0.50779108
   0.49723867  0.24941007  0.61254270
   0.41724331  0.66896214  0.50816117
   0.58333333  0.83333333  0.40830017
   0.41456500  0.91908615  0.50711976
   0.67068003  0.16417479  0.50779806
   0.83333333  0.33333333  0.40830017
   0.66747042  0.41683201  0.50817968
   0.74834254  0.25029735  0.61284551
   0.83333333  0.58333333  0.40830017
   0.74617303  0.50518730  0.61347792
   0.41768009  0.41402077  0.50866775
   0.49913708 -0.00069559  0.60477893
   0.41700129  0.16507549  0.50767452
   0.33333333  0.08333333  0.40830017
   0.16686875  0.16557856  0.50700416
   0.33333333  0.33333333  0.40830017
   0.33333333  0.83333333  0.40830017
   0.24964916  0.50014400  0.60730061
   0.25240261  0.00051344  0.60423926
   0.58333333  0.33333333  0.40830017
   0.16509292  0.91888320  0.50835015
  -0.00292550  0.75164604  0.60625377
   0.83333333  0.08333333  0.40830017
   0.49905411  0.50100345  0.60703061
   0.91693912  0.66694131  0.50856162
   0.49927809  0.75218905  0.60550573
   0.74837030 -0.00091831  0.60566149
   0.08333333  0.33333333  0.40830017
   0.66882751  0.66551032  0.50894831
   0.91978659  0.16399915  0.50887505
   0.83333333  0.83333333  0.40830017
   0.25056370  0.24950945  0.60464519
   0.58333333  0.58333333  0.40830017
   0.91839945  0.91653663  0.50722737
   0.74857054  0.75231824  0.60527888
Direct configuration=    17
   0.08333333  0.08333333  0.40830017
   0.08333333  0.83333333  0.40830017
   0.00039604  0.50374710  0.61294237
   0.08333333  0.58333333  0.40830017