 vasp.5.4.1 24Jun15 (build Mar 14 2019 10:18:33) complex                        
  
 executed on INTEL-19.0.2+OPENMPI date 2022.07.15  14:58:06
 running on   36 total cores
 distrk:  each k-point on   36 cores,    1 groups
 distr:  one band on NCORES_PER_BAND=   6 cores,    6 groups


--------------------------------------------------------------------------------------------------------


 INCAR:
 POTCAR:    PAW_PBE Au 04Oct2007                  
 POTCAR:    PAW_PBE Pd 04Jan2005                  
 POTCAR:    PAW_PBE Au 04Oct2007                  
  local pseudopotential read in
  partial core-charges read in
  partial kinetic energy density read in
  atomic valenz-charges read in
  non local Contribution for L=           2  read in
    real space projection operators read in
  non local Contribution for L=           2  read in
    real space projection operators read in
  non local Contribution for L=           0  read in
    real space projection operators read in
  non local Contribution for L=           0  read in
    real space projection operators read in
  non local Contribution for L=           1  read in
    real space projection operators read in
  non local Contribution for L=           1  read in
    real space projection operators read in
    PAW grid and wavefunctions read in
 
   number of l-projection  operators is LMAX  =           6
   number of lm-projection operators is LMMAX =          18
 
 POTCAR:    PAW_PBE Pd 04Jan2005                  
  local pseudopotential read in
  partial core-charges read in
  partial kinetic energy density read in
  atomic valenz-charges read in
  non local Contribution for L=           2  read in
    real space projection operators read in
  non local Contribution for L=           2  read in
    real space projection operators read in
  non local Contribution for L=           0  read in
    real space projection operators read in
  non local Contribution for L=           0  read in
    real space projection operators read in
  non local Contribution for L=           1  read in
    real space projection operators read in
  non local Contribution for L=           1  read in
    real space projection operators read in
    PAW grid and wavefunctions read in
 
   number of l-projection  operators is LMAX  =           6
   number of lm-projection operators is LMMAX =          18
 
 Optimization of the real space projectors (new method)

 maximal supplied QI-value         = 15.12
 optimisation between [QCUT,QGAM] = [ 10.13, 20.41] = [ 28.73,116.64] Ry 
 Optimized for a Real-space Cutoff    1.51 Angstroem

   l    n(q)    QCUT    max X(q) W(low)/X(q) W(high)/X(q)  e(spline) 
   2      8    10.129    60.898    0.46E-03    0.46E-03    0.14E-06
   2      8    10.129    58.894    0.47E-03    0.47E-03    0.14E-06
   0      9    10.129   109.617    0.16E-03    0.11E-03    0.54E-07
   0      9    10.129    75.026    0.15E-03    0.11E-03    0.52E-07
   1      9    10.129    16.344    0.96E-04    0.15E-03    0.14E-06
   1      9    10.129    10.160    0.81E-04    0.12E-03    0.11E-06
 Optimization of the real space projectors (new method)

 maximal supplied QI-value         = 14.36
 optimisation between [QCUT,QGAM] = [ 10.20, 20.39] = [ 29.12,116.47] Ry 
 Optimized for a Real-space Cutoff    1.51 Angstroem

   l    n(q)    QCUT    max X(q) W(low)/X(q) W(high)/X(q)  e(spline) 
   2      8    10.197    59.108    0.26E-03    0.14E-03    0.96E-07
   2      8    10.197    58.101    0.27E-03    0.14E-03    0.98E-07
   0      9    10.197   102.235    0.54E-04    0.60E-05    0.72E-07
   0      9    10.197    58.388    0.52E-04    0.60E-05    0.68E-07
   1      9    10.197    22.191    0.18E-03    0.25E-03    0.79E-07
   1      9    10.197    15.590    0.15E-03    0.21E-03    0.69E-07
  PAW_PBE Au 04Oct2007                  :
 energy of atom  1       EATOM= -926.0867
 kinetic energy error for atom=    0.0062 (will be added to EATOM!!)
  PAW_PBE Pd 04Jan2005                  :
 energy of atom  2       EATOM= -809.7530
 kinetic energy error for atom=    0.0091 (will be added to EATOM!!)
 
 
 POSCAR: Au Pd                                   
  positions in cartesian coordinates
  No initial velocities read in
 exchange correlation table for  LEXCH =        8
   RHO(1)=    0.500       N(1)  =     2000
   RHO(2)=  100.500       N(2)  =     4000

 VTST: version 3.2, (02/03/18)

 CHAIN: initializing optimizer
 
 OPT: Using VASP Conjugate-Gradient optimizer
 CHAIN: Read ICHAIN            0
 
 POSCAR: Au Pd                                   
  positions in cartesian coordinates
  No initial velocities read in
 


--------------------------------------------------------------------------------------------------------


 ion  position               nearest neighbor table
   1  0.250  0.750  0.592-  34 2.75  30 2.75  13 2.75   2 2.75   7 2.75  46 2.75  40 2.75   9 2.75
                             8 2.75
   2  0.500  0.500  0.592-  30 2.75  28 2.75  12 2.75  20 2.75   1 2.75   9 2.75  18 2.75   7 2.75
                            47 2.75
   3  0.500  0.000  0.592-   4 2.75   6 2.75   9 2.75  12 2.75  37 2.75  48 2.75  13 2.75  26 2.75
                            25 2.75
   4  0.417  0.167  0.500-  15 2.75   3 2.75  37 2.75  25 2.75   6 2.75  38 2.75  47 2.75  39 2.75
                            11 2.75  14 2.75  12 2.75   5 2.75
   5  0.583  0.083  0.408-  11 2.75  14 2.75  17 2.75  31 2.75  33 2.75  15 2.75  10 2.75   6 2.75
                             4 2.75
   6  0.667  0.917  0.500-  31 2.75  48 2.75   3 2.75  24 2.75  27 2.75   4 2.75  11 2.75  41 2.75
                            25 2.75   5 2.75  17 2.75  26 2.75
   7  0.250  0.500  0.592-   8 2.75  47 2.75  12 2.75  37 2.75  40 2.75   1 2.75  22 2.75   2 2.75
                            38 2.75
   8  0.167  0.667  0.500-  42 2.75   7 2.75  40 2.75  34 2.75  41 2.75  38 2.75  47 2.75  24 2.75
                            30 2.75  23 2.75  36 2.75   1 2.75
   9  0.500  0.750  0.592-  25 2.75  27 2.75  13 2.75  18 2.75   2 2.75   3 2.75   1 2.75  48 2.75
                            30 2.75
  10  0.833  0.083  0.408-  16 2.75  17 2.75  23 2.75  29 2.75  33 2.75  32 2.75   5 2.75  41 2.75
                            11 2.75
  11  0.667  0.167  0.500-   5 2.75  26 2.75  12 2.75   6 2.75  28 2.75  41 2.75  47 2.75   4 2.75
                            16 2.75  33 2.75  20 2.75  10 2.75
  12  0.500  0.250  0.592-  47 2.75  11 2.75   7 2.75   2 2.75  26 2.75   3 2.75  37 2.75  20 2.75
                             4 2.75
  13  0.250  0.000  0.592-  39 2.75  25 2.75   1 2.75  37 2.75   9 2.75  43 2.75   3 2.75  46 2.75
                            34 2.75
  14  0.333  0.333  0.408-  47 2.75  15 2.75  36 2.75  42 2.75   5 2.75  45 2.75  33 2.75   4 2.75
                            38 2.75
  15  0.333  0.083  0.408-   4 2.75  14 2.75  31 2.75  35 2.75  45 2.75   5 2.75  32 2.75  25 2.75
                            39 2.75
  16  0.917  0.167  0.500-  10 2.75  46 2.75  20 2.75  34 2.75  41 2.75  44 2.75  28 2.75  39 2.75
                            11 2.75  29 2.75  32 2.75  43 2.75
  17  0.833  0.833  0.408-  41 2.75  10 2.75  19 2.75   5 2.75  42 2.75  23 2.75  31 2.75  24 2.75
                             6 2.75
  18  0.750  0.500  0.592-  27 2.75  44 2.75   9 2.75  43 2.75  20 2.75  48 2.75   2 2.75  22 2.75
                            28 2.75
  19  0.833  0.583  0.408-  24 2.75  17 2.75  29 2.75  31 2.75  45 2.75  42 2.75  21 2.75  44 2.75
                            27 2.75
  20  0.750  0.250  0.592-  28 2.75  16 2.75  18 2.75  26 2.75   2 2.75  46 2.75  43 2.75  12 2.75
                            11 2.75
  21  0.583  0.583  0.408-  27 2.75  29 2.75  31 2.75  33 2.75  35 2.75  19 2.75  36 2.75  28 2.75
                            30 2.75
  22  0.000  0.500  0.592-  24 2.75  38 2.75  37 2.75  40 2.75  43 2.75  48 2.75   7 2.75  18 2.75
                            44 2.75
  23  0.083  0.833  0.408-  34 2.75  32 2.75  10 2.75  36 2.75  42 2.75  17 2.75  35 2.75   8 2.75
                            41 2.75
  24  0.917  0.667  0.500-  19 2.75  22 2.75  48 2.75  38 2.75  41 2.75  44 2.75   6 2.75   8 2.75
                            27 2.75  17 2.75  40 2.75  42 2.75
  25  0.417  0.917  0.500-  35 2.75   9 2.75  13 2.75  27 2.75  30 2.75   4 2.75  39 2.75   6 2.75
                            34 2.75  15 2.75  31 2.75   3 2.75
  26  0.750  0.000  0.592-  11 2.75  41 2.75  20 2.75  40 2.75  12 2.75  48 2.75  46 2.75   3 2.75
                             6 2.75
  27  0.667  0.667  0.500-  21 2.75  18 2.75   9 2.75   6 2.75  25 2.75  28 2.75  44 2.75  30 2.75
                            24 2.75  31 2.75  19 2.75  48 2.75
  28  0.667  0.417  0.500-  33 2.75  20 2.75   2 2.75  11 2.75  27 2.75  30 2.75  16 2.75  44 2.75
                            47 2.75  21 2.75  18 2.75  29 2.75
  29  0.833  0.333  0.408-  44 2.75  19 2.75  21 2.75  32 2.75  10 2.75  33 2.75  45 2.75  16 2.75
                            28 2.75
  30  0.417  0.667  0.500-  36 2.75   2 2.75   1 2.75  28 2.75  34 2.75  25 2.75  47 2.75   8 2.75
                            27 2.75  35 2.75  21 2.75   9 2.75
  31  0.583  0.833  0.408-   6 2.75   5 2.75  15 2.75  19 2.75  21 2.75  17 2.75  35 2.75  27 2.75
                            25 2.75
  32  0.083  0.083  0.408-  39 2.75  29 2.75  35 2.75  23 2.75  45 2.75  15 2.75  10 2.75  34 2.75
                            16 2.75
  33  0.583  0.333  0.408-  28 2.75  10 2.75  21 2.75   5 2.75  36 2.75  29 2.75  14 2.75  11 2.75
                            47 2.75
  34  0.167  0.917  0.500-  23 2.75   1 2.75  46 2.75   8 2.75  30 2.75  39 2.75  16 2.75  41 2.75
                            25 2.75  32 2.75  35 2.75  13 2.75
  35  0.333  0.833  0.408-  25 2.75  21 2.75  15 2.75  32 2.75  36 2.75  23 2.75  31 2.75  30 2.75
                            34 2.75
  36  0.333  0.583  0.408-  30 2.75  23 2.75  14 2.75  33 2.75  35 2.75  21 2.75  42 2.75  47 2.75
                             8 2.75
  37  0.250  0.250  0.592-  38 2.75   4 2.75   7 2.75  13 2.75  22 2.75   3 2.75  12 2.75  43 2.75
                            39 2.75
  38  0.167  0.417  0.500-  45 2.75  37 2.75  22 2.75  24 2.75   8 2.75  39 2.75   4 2.75  44 2.75
                            47 2.75  42 2.75   7 2.75  14 2.75
  39  0.167  0.167  0.500-  32 2.75  13 2.75  43 2.75  34 2.75  38 2.75  25 2.75  44 2.75   4 2.75
                            16 2.75  45 2.75  15 2.75  37 2.75
  40  0.000  0.750  0.592-  41 2.75   8 2.75  22 2.75  26 2.75   7 2.75  46 2.75   1 2.75  48 2.75
                            24 2.75
  41  0.917  0.917  0.500-  17 2.75  40 2.75  26 2.75   8 2.75  24 2.75  11 2.75  16 2.75  34 2.75
                             6 2.75  10 2.75  23 2.75  46 2.75
  42  0.083  0.583  0.408-   8 2.75  14 2.75  17 2.75  23 2.75  45 2.75  36 2.75  19 2.75  38 2.75
                            24 2.75
  43  0.000  0.250  0.592-  44 2.75  39 2.75  22 2.75  13 2.75  18 2.75  46 2.75  37 2.75  20 2.75
                            16 2.75
  44  0.917  0.417  0.500-  29 2.75  43 2.75  18 2.75  27 2.75  16 2.75  39 2.75  24 2.75  28 2.75
                            38 2.75  19 2.75  22 2.75  45 2.75
  45  0.083  0.333  0.408-  38 2.75  19 2.75  32 2.75  15 2.75  42 2.75  29 2.75  14 2.75  39 2.75
                            44 2.75
  46  0.000  0.000  0.592-  16 2.75  34 2.75  20 2.75   1 2.75  40 2.75  43 2.75  26 2.75  13 2.75
                            41 2.75
  47  0.417  0.417  0.500-  14 2.75  12 2.75   7 2.75  11 2.75   4 2.75   8 2.75  30 2.75  28 2.75
                            38 2.75  36 2.75   2 2.75  33 2.75
  48  0.750  0.750  0.592-   6 2.75  24 2.75  18 2.75  22 2.75   3 2.75  26 2.75   9 2.75  40 2.75
                            27 2.75
 
  LATTYP: Found a hexagonal cell.
 ALAT       =    11.0025815153
 C/A-ratio  =     2.2260035120
  
  Lattice vectors:
  
 A1 = (   5.5012907576,  -9.5285150994,   0.0000000000)
 A2 = ( -11.0025815153,   0.0000000000,   0.0000000000)
 A3 = (   0.0000000000,   0.0000000000, -24.4917850943)


Analysis of symmetry for initial positions (statically):
=====================================================================
 Subroutine PRICEL returns:
 Original cell was already a primitive cell.
 

 Routine SETGRP: Setting up the symmetry group for a 
 hexagonal supercell.


 Subroutine GETGRP returns: Found  1 space group operations
 (whereof  1 operations were pure point group operations)
 out of a pool of 24 trial point group operations.


The static configuration has the point symmetry C_1 .


Analysis of symmetry for dynamics (positions and initial velocities):
=====================================================================
 Subroutine PRICEL returns:
 Original cell was already a primitive cell.
 

 Routine SETGRP: Setting up the symmetry group for a 
 hexagonal supercell.


 Subroutine GETGRP returns: Found  1 space group operations
 (whereof  1 operations were pure point group operations)
 out of a pool of 24 trial point group operations.


The dynamic configuration has the point symmetry C_1 .
 
 
 KPOINTS: Automatic mesh                          

Automatic generation of k-mesh.
Space group operators:
 irot       det(A)        alpha          n_x          n_y          n_z        tau_x        tau_y        tau_z
    1     1.000000     0.000000     1.000000     0.000000     0.000000     0.000000     0.000000     0.000000
 
 Subroutine IBZKPT returns following result:
 ===========================================
 
 Found      6 irreducible k-points:
 
 Following reciprocal coordinates:
            Coordinates               Weight
  0.250000  0.250000  0.000000     16.000000
  0.000000  0.250000  0.000000     16.000000
 -0.250000  0.000000  0.000000     16.000000
 -0.250000  0.250000  0.000000     16.000000
  0.500000 -0.250000  0.000000     16.000000
 -0.250000  0.500000  0.000000     16.000000
 
 Following cartesian coordinates:
            Coordinates               Weight
  0.022722  0.013119  0.000000     16.000000
  0.000000  0.026237  0.000000     16.000000
 -0.022722  0.013119  0.000000     16.000000
 -0.022722  0.039356  0.000000     16.000000
  0.045444 -0.052474  0.000000     16.000000
 -0.022722  0.065593  0.000000     16.000000
 


--------------------------------------------------------------------------------------------------------




 Dimension of arrays:
   k-points           NKPTS =      6   k-points in BZ     NKDIM =      6   number of bands    NBANDS=    306
   number of dos      NEDOS =    301   number of ions     NIONS =     48
   non local maximal  LDIM  =      6   non local SUM 2l+1 LMDIM =     18
   total plane-waves  NPLWV = 349920
   max r-space proj   IRMAX =   2009   max aug-charges    IRDMAX=   8532
   dimension x,y,z NGX =    54 NGY =   54 NGZ =  120
   dimension x,y,z NGXF=   108 NGYF=  108 NGZF=  240
   support grid    NGXF=   108 NGYF=  108 NGZF=  240
   ions per type =              24  24
 NGX,Y,Z   is equivalent  to a cutoff of   8.16,  8.16,  8.15 a.u.
 NGXF,Y,Z  is equivalent  to a cutoff of  16.32, 16.32, 16.29 a.u.


 I would recommend the setting:
   dimension x,y,z NGX =    54 NGY =   54 NGZ =  120
 SYSTEM =  unknown system                          
 POSCAR =  Au Pd                                   

 Startparameter for this run:
   NWRITE =      1    write-flag & timer
   PREC   = normal    normal or accurate (medium, high low for compatibility)
   ISTART =      0    job   : 0-new  1-cont  2-samecut
   ICHARG =      2    charge: 1-file 2-atom 10-const
   ISPIN  =      1    spin polarized calculation?
   LNONCOLLINEAR =      F non collinear calculations
   LSORBIT =      F    spin-orbit coupling
   INIWAV =      1    electr: 0-lowe 1-rand  2-diag
   LASPH  =      F    aspherical Exc in radial PAW
   METAGGA=      F    non-selfconsistent MetaGGA calc.

 Electronic Relaxation 1
   ENCUT  =  400.0 eV  29.40 Ry    5.42 a.u.  17.94 17.94 39.94*2*pi/ulx,y,z
   ENINI  =  400.0     initial cutoff
   ENAUG  =  416.2 eV  augmentation charge cutoff
   NELM   =    500;   NELMIN=  2; NELMDL= -5     # of ELM steps 
   EDIFF  = 0.1E-05   stopping-criterion for ELM
   LREAL  =      T    real-space projection
   NLSPLINE    = F    spline interpolate recip. space projectors
   LCOMPAT=      F    compatible to vasp.4.4
   GGA_COMPAT  = T    GGA compatible to vasp.4.4-vasp.4.6
   LMAXPAW     = -100 max onsite density
   LMAXMIX     =    2 max onsite mixed and CHGCAR
   VOSKOWN=      1    Vosko Wilk Nusair interpolation
   ROPT   =   -0.00050  -0.00050
 Ionic relaxation
   EDIFFG = -.2E-01   stopping-criterion for IOM
   NSW    =    500    number of steps for IOM
   NBLOCK =      1;   KBLOCK =    500    inner block; outer block 
   IBRION =      2    ionic relax: 0-MD 1-quasi-New 2-CG
   NFREE  =      2    steps in history (QN), initial steepest desc. (CG)
   ISIF   =      0    stress and relaxation
   IWAVPR =     11    prediction:  0-non 1-charg 2-wave 3-comb
   ISYM   =      2    0-nonsym 1-usesym 2-fastsym
   LCORR  =      T    Harris-Foulkes like correction to forces

   POTIM  = 0.3500    time-step for ionic-motion
   TEIN   =    0.0    initial temperature
   TEBEG  =    0.0;   TEEND  =   0.0 temperature during run
   SMASS  =  -3.00    Nose mass-parameter (am)
   estimated Nose-frequenzy (Omega)   =  0.10E-29 period in steps =****** mass=  -0.277E-26a.u.
   SCALEE = 1.0000    scale energy and forces
   NPACO  =    256;   APACO  = 16.0  distance and # of slots for P.C.
   PSTRESS=    0.0 pullay stress

  Mass of Ions in am
   POMASS = 196.97106.42
  Ionic Valenz
   ZVAL   =  11.00 10.00
  Atomic Wigner-Seitz radii
   RWIGS  =  -1.00 -1.00
  virtual crystal weights 
   VCA    =   1.00  1.00
   NELECT =     504.0000    total number of electrons
   NUPDOWN=      -1.0000    fix difference up-down

 DOS related values:
   EMIN   =  10.00;   EMAX   =-10.00  energy-range for DOS
   EFERMI =   0.00
   ISMEAR =     0;   SIGMA  =   0.10  broadening in eV -4-tet -1-fermi 0-gaus

 Electronic relaxation 2 (details)
   IALGO  =     68    algorithm
   LDIAG  =      T    sub-space diagonalisation (order eigenvalues)
   LSUBROT=      F    optimize rotation matrix (better conditioning)
   TURBO    =      0    0=normal 1=particle mesh
   IRESTART =      0    0=no restart 2=restart with 2 vectors
   NREBOOT  =      0    no. of reboots
   NMIN     =      0    reboot dimension
   EREF     =   0.00    reference energy to select bands
   IMIX   =      4    mixing-type and parameters
     AMIX     =   0.40;   BMIX     =  1.00
     AMIX_MAG =   1.60;   BMIX_MAG =  1.00
     AMIN     =   0.10
     WC   =   100.;   INIMIX=   1;  MIXPRE=   1;  MAXMIX= -45

 Intra band minimization:
   WEIMIN = 0.0010     energy-eigenvalue tresh-hold
   EBREAK =  0.82E-09  absolut break condition
   DEPER  =   0.30     relativ break condition  

   TIME   =   0.40     timestep for ELM

  volume/ion in A,a.u.               =      53.49       360.99
  Fermi-wavevector in a.u.,A,eV,Ry     =   0.951418  1.797920 12.315955  0.905197
  Thomas-Fermi vector in A             =   2.079887
 
 Write flags
   LWAVE  =      F    write WAVECAR
   LCHARG =      F    write CHGCAR
   LVTOT  =      F    write LOCPOT, total local potential
   LVHAR  =      F    write LOCPOT, Hartree potential only
   LELF   =      F    write electronic localiz. function (ELF)
   LORBIT =      0    0 simple, 1 ext, 2 COOP (PROOUT)


 Dipole corrections
   LMONO  =      F    monopole corrections only (constant potential shift)
   LDIPOL =      T    correct potential (dipole corrections)
   IDIPOL =      3    1-x, 2-y, 3-z, 4-all directions 
   EPSILON=  1.0000000 bulk dielectric constant

 Exchange correlation treatment:
   GGA     =    PE    GGA type
   LEXCH   =     8    internal setting for exchange type
   VOSKOWN=      1    Vosko Wilk Nusair interpolation
   LHFCALC =     F    Hartree Fock is set to
   LHFONE  =     F    Hartree Fock one center treatment
   AEXX    =    0.0000 exact exchange contribution

 Linear response parameters
   LEPSILON=     F    determine dielectric tensor
   LRPA    =     F    only Hartree local field effects (RPA)
   LNABLA  =     F    use nabla operator in PAW spheres
   LVEL    =     F    velocity operator in full k-point grid
   LINTERFAST=   F  fast interpolation
   KINTER  =     0    interpolate to denser k-point grid
   CSHIFT  =0.1000    complex shift for real part using Kramers Kronig
   OMEGAMAX=  -1.0    maximum frequency
   DEG_THRESHOLD= 0.2000000E-02 threshold for treating states as degnerate
   RTIME   =    0.100 relaxation time in fs

 Orbital magnetization related:
   ORBITALMAG=     F  switch on orbital magnetization
   LCHIMAG   =     F  perturbation theory with respect to B field
   DQ        =  0.001000  dq finite difference perturbation B field



--------------------------------------------------------------------------------------------------------


 conjugate gradient relaxation of ions
 charge density and potential will be updated during run
 non-spin polarized calculation
 RMM-DIIS sequential band-by-band and
  variant of blocked Davidson during initial phase
 perform sub-space diagonalisation
    before iterative eigenvector-optimisation
 modified Broyden-mixing scheme, WC =      100.0
 initial mixing is a Kerker type mixing with AMIX =  0.4000 and BMIX =      1.0000
 Hartree-type preconditioning will be used
 using additional bands           54
 real space projection scheme for non local part
 use partial core corrections
 calculate Harris-corrections to forces 
   (improved forces if not selfconsistent)
 use gradient corrections 
 use of overlap-Matrix (Vanderbilt PP)
 Gauss-broadening in eV      SIGMA  =   0.10


--------------------------------------------------------------------------------------------------------


  energy-cutoff  :      400.00
  volume of cell :     2567.68
      direct lattice vectors                 reciprocal lattice vectors
    11.002581515  0.000000000  0.000000000     0.090887761 -0.052474073  0.000000000
     5.501290758  9.528515099  0.000000000     0.000000000  0.104948147  0.000000000
     0.000000000  0.000000000 24.491785094     0.000000000  0.000000000  0.040830017

  length of vectors
    11.002581515 11.002581515 24.491785094     0.104948147  0.104948147  0.040830017


 
 k-points in units of 2pi/SCALE and weight: Automatic mesh                          
   0.02272194  0.01311852  0.00000000       0.167
   0.00000000  0.02623704  0.00000000       0.167
  -0.02272194  0.01311852  0.00000000       0.167
  -0.02272194  0.03935555  0.00000000       0.167
   0.04544388 -0.05247407  0.00000000       0.167
  -0.02272194  0.06559259  0.00000000       0.167
 
 k-points in reciprocal lattice and weights: Automatic mesh                          
   0.25000000  0.25000000  0.00000000       0.167
   0.00000000  0.25000000  0.00000000       0.167
  -0.25000000  0.00000000  0.00000000       0.167
  -0.25000000  0.25000000  0.00000000       0.167
   0.50000000 -0.25000000  0.00000000       0.167
  -0.25000000  0.50000000  0.00000000       0.167
 
 position of ions in fractional coordinates (direct lattice) 
   0.25000000  0.75000000  0.59169983
   0.50000000  0.50000000  0.59169983
   0.50000000  0.00000000  0.59169983
   0.41666667  0.16666667  0.50000000
   0.58333333  0.08333333  0.40830017
   0.66666667  0.91666667  0.50000000
   0.25000000  0.50000000  0.59169983
   0.16666667  0.66666667  0.50000000
   0.50000000  0.75000000  0.59169983
   0.83333333  0.08333333  0.40830017
   0.66666667  0.16666667  0.50000000
   0.50000000  0.25000000  0.59169983
   0.25000000  0.00000000  0.59169983
   0.33333333  0.33333333  0.40830017
   0.33333333  0.08333333  0.40830017
   0.91666667  0.16666667  0.50000000
   0.83333333  0.83333333  0.40830017
   0.75000000  0.50000000  0.59169983
   0.83333333  0.58333333  0.40830017
   0.75000000  0.25000000  0.59169983
   0.58333333  0.58333333  0.40830017
   0.00000000  0.50000000  0.59169983
   0.08333333  0.83333333  0.40830017
   0.91666667  0.66666667  0.50000000
   0.41666667  0.91666667  0.50000000
   0.75000000  0.00000000  0.59169983
   0.66666667  0.66666667  0.50000000
   0.66666667  0.41666667  0.50000000
   0.83333333  0.33333333  0.40830017
   0.41666667  0.66666667  0.50000000
   0.58333333  0.83333333  0.40830017
   0.08333333  0.08333333  0.40830017
   0.58333333  0.33333333  0.40830017
   0.16666667  0.91666667  0.50000000
   0.33333333  0.83333333  0.40830017
   0.33333333  0.58333333  0.40830017
   0.25000000  0.25000000  0.59169983
   0.16666667  0.41666667  0.50000000
   0.16666667  0.16666667  0.50000000
   0.00000000  0.75000000  0.59169983
   0.91666667  0.91666667  0.50000000
   0.08333333  0.58333333  0.40830017
   0.00000000  0.25000000  0.59169983
   0.91666667  0.41666667  0.50000000
   0.08333333  0.33333333  0.40830017
   0.00000000  0.00000000  0.59169983
   0.41666667  0.41666667  0.50000000
   0.75000000  0.75000000  0.59169983
 
 position of ions in cartesian coordinates  (Angst):
   6.87661345  7.14638632 14.49178509
   8.25193614  4.76425755 14.49178509
   5.50129076  0.00000000 14.49178509
   5.50129076  1.58808585 12.24589255
   6.87661345  0.79404292 10.00000000
  12.37790420  8.73447217 12.24589255
   5.50129076  4.76425755 14.49178509
   5.50129076  6.35234340 12.24589255
   9.62725883  7.14638632 14.49178509
   9.62725883  0.79404292 10.00000000
   8.25193614  1.58808585 12.24589255
   6.87661345  2.38212877 14.49178509
   2.75064538  0.00000000 14.49178509
   5.50129076  3.17617170 10.00000000
   4.12596807  0.79404292 10.00000000
  11.00258152  1.58808585 12.24589255
  13.75322689  7.94042925 10.00000000
  11.00258152  4.76425755 14.49178509
  12.37790420  5.55830047 10.00000000
   9.62725883  2.38212877 14.49178509
   9.62725883  5.55830047 10.00000000
   2.75064538  4.76425755 14.49178509
   5.50129076  7.94042925 10.00000000
  13.75322689  6.35234340 12.24589255
   9.62725883  8.73447217 12.24589255
   8.25193614  0.00000000 14.49178509
  11.00258152  6.35234340 12.24589255
   9.62725883  3.97021462 12.24589255
  11.00258152  3.17617170 10.00000000
   8.25193614  6.35234340 12.24589255
  11.00258152  7.94042925 10.00000000
   1.37532269  0.79404292 10.00000000
   8.25193614  3.17617170 10.00000000
   6.87661345  8.73447217 12.24589255
   8.25193614  7.94042925 10.00000000
   6.87661345  5.55830047 10.00000000
   4.12596807  2.38212877 14.49178509
   4.12596807  3.97021462 12.24589255
   2.75064538  1.58808585 12.24589255
   4.12596807  7.14638632 14.49178509
  15.12854958  8.73447217 12.24589255
   4.12596807  5.55830047 10.00000000
   1.37532269  2.38212877 14.49178509
  12.37790420  3.97021462 12.24589255
   2.75064538  3.17617170 10.00000000
   0.00000000  0.00000000 14.49178509
   6.87661345  3.97021462 12.24589255
  12.37790420  7.14638632 14.49178509
 


--------------------------------------------------------------------------------------------------------


 k-point  1 :   0.2500 0.2500 0.0000  plane waves:   46635
 k-point  2 :   0.0000 0.2500 0.0000  plane waves:   46635
 k-point  3 :  -0.2500 0.0000 0.0000  plane waves:   46635
 k-point  4 :  -0.2500 0.2500 0.0000  plane waves:   46644
 k-point  5 :   0.5000-0.2500 0.0000  plane waves:   46644
 k-point  6 :  -0.2500 0.5000 0.0000  plane waves:   46644

 maximum and minimum number of plane-waves per node :      7818     7732

 maximum number of plane-waves:     46644
 maximum index in each direction: 
   IXMAX=   18   IYMAX=   18   IZMAX=   39
   IXMIN=  -18   IYMIN=  -18   IZMIN=  -39

 WARNING: aliasing errors must be expected set NGX to  74 to avoid them
 WARNING: aliasing errors must be expected set NGY to  74 to avoid them
 WARNING: aliasing errors must be expected set NGZ to 158 to avoid them
 aliasing errors are usually negligible using standard VASP settings
 and one can safely disregard these warnings

 real space projection operators:
  total allocation   :      12803.06 KBytes
  max/ min on nodes  :       2145.66       2127.94


 parallel 3D FFT for wavefunctions:
    minimum data exchange during FFTs selected (reduces bandwidth)
 parallel 3D FFT for charge:
    minimum data exchange during FFTs selected (reduces bandwidth)


 total amount of memory used by VASP on root node    84353. kBytes
========================================================================

   base      :      30000. kBytes
   nonlr-proj:       4285. kBytes
   fftplans  :       4447. kBytes
   grid      :       6721. kBytes
   one-center:        124. kBytes
   wavefun   :      38776. kBytes
 
     INWAV:  cpu time    0.0000: real time    0.0000
 Broyden mixing: mesh for mixing (old mesh)
   NGX = 35   NGY = 35   NGZ = 79
  (NGX  =108   NGY  =108   NGZ  =240)
  gives a total of  96775 points

 initial charge density was supplied:
 charge density of overlapping atoms calculated
 number of electron     504.0000000 magnetization 
 keeping initial charge density in first step


--------------------------------------------------------------------------------------------------------


 Maximum index for non-local projection operator          355
 Maximum index for augmentation-charges          437 (set IRDMAX)


--------------------------------------------------------------------------------------------------------


 First call to EWALD:  gamma=   0.129
 Maximum number of real-space cells 4x 4x 2
 Maximum number of reciprocal cells 2x 2x 5

 FEWALD executed in parallel
    FEWALD:  cpu time    0.0025: real time    0.0025


----------------------------------------- Iteration    1(   1)  ---------------------------------------


    POTLOK:  cpu time    0.0454: real time    0.0465
    SETDIJ:  cpu time    0.0058: real time    0.0058
     EDDAV:  cpu time    7.1977: real time    7.2186
       DOS:  cpu time    0.0013: real time    0.0013
    --------------------------------------------
      LOOP:  cpu time    7.2530: real time    7.2791

 eigenvalue-minimisations  :  3672
 total energy-change (2. order) : 0.3200970E+04  (-0.1898624E+05)
 number of electron     504.0000000 magnetization 
 augmentation part      504.0000000 magnetization 

 DIPCOR: dipole corrections for dipol
 direction  3 min pos     1,
 dipolmoment           0.000000      0.000000     -0.000001 electrons x Angstroem
 Tr[quadrupol]    -10326.081115

 energy correction for charged system         0.000000 eV
 dipol+quadrupol energy correction           -0.000000 eV
 added-field ion interaction          0.000000 eV  (added to PSCEN)


 Free energy of the ion-electron system (eV)
  ---------------------------------------------------
  alpha Z        PSCENC =       805.86936475
  Ewald energy   TEWEN  =    199694.33094247
  -Hartree energ DENC   =   -242106.71930681
  -exchange      EXHF   =         0.00000000
  -V(xc)+E(xc)   XCENC  =      -327.75819653
  PAW double counting   =     40340.05962942   -38292.62782345
  entropy T*S    EENTRO =        -0.13382211
  eigenvalues    EBANDS =      1428.16342458
  atomic energy  EATOM  =     41659.78587232
  Solvation  Ediel_sol  =         0.00000000
  ---------------------------------------------------
  free energy    TOTEN  =      3200.97008465 eV

  energy without entropy =     3201.10390676  energy(sigma->0) =     3201.03699571


--------------------------------------------------------------------------------------------------------




----------------------------------------- Iteration    1(   2)  ---------------------------------------


     EDDAV:  cpu time    8.4393: real time    8.4612
       DOS:  cpu time    0.0014: real time    0.0014
    --------------------------------------------
      LOOP:  cpu time    8.4415: real time    8.4653

 eigenvalue-minimisations  :  4356
 total energy-change (2. order) :-0.3185819E+04  (-0.2932022E+04)
 number of electron     504.0000000 magnetization 
 augmentation part      504.0000000 magnetization 

 DIPCOR: dipole corrections for dipol
 direction  3 min pos     1,
 dipolmoment           0.000000      0.000000     -0.000001 electrons x Angstroem
 Tr[quadrupol]    -10326.081115

 energy correction for charged system         0.000000 eV
 dipol+quadrupol energy correction           -0.000000 eV
 added-field ion interaction          0.000000 eV  (added to PSCEN)


 Free energy of the ion-electron system (eV)
  ---------------------------------------------------
  alpha Z        PSCENC =       805.86936475
  Ewald energy   TEWEN  =    199694.33094247
  -Hartree energ DENC   =   -242106.71930681
  -exchange      EXHF   =         0.00000000
  -V(xc)+E(xc)   XCENC  =      -327.75819653
  PAW double counting   =     40340.05962942   -38292.62782345
  entropy T*S    EENTRO =        -0.13198678
  eigenvalues    EBANDS =     -1757.65716277
  atomic energy  EATOM  =     41659.78587232
  Solvation  Ediel_sol  =         0.00000000
  ---------------------------------------------------
  free energy    TOTEN  =        15.15133263 eV

  energy without entropy =       15.28331941  energy(sigma->0) =       15.21732602


--------------------------------------------------------------------------------------------------------




----------------------------------------- Iteration    1(   3)  ---------------------------------------


     EDDAV:  cpu time    8.2219: real time    8.3145
       DOS:  cpu time    0.0014: real time    0.0014
    --------------------------------------------
      LOOP:  cpu time    8.2240: real time    8.3179

 eigenvalue-minimisations  :  4140
 total energy-change (2. order) :-0.2168495E+03  (-0.2015558E+03)
 number of electron     504.0000000 magnetization 
 augmentation part      504.0000000 magnetization 

 DIPCOR: dipole corrections for dipol
 direction  3 min pos     1,
 dipolmoment           0.000000      0.000000     -0.000001 electrons x Angstroem
 Tr[quadrupol]    -10326.081115

 energy correction for charged system         0.000000 eV
 dipol+quadrupol energy correction           -0.000000 eV
 added-field ion interaction          0.000000 eV  (added to PSCEN)


 Free energy of the ion-electron system (eV)
  ---------------------------------------------------
  alpha Z        PSCENC =       805.86936475
  Ewald energy   TEWEN  =    199694.33094247
  -Hartree energ DENC   =   -242106.71930681
  -exchange      EXHF   =         0.00000000
  -V(xc)+E(xc)   XCENC  =      -327.75819653
  PAW double counting   =     40340.05962942   -38292.62782345
  entropy T*S    EENTRO =        -0.18134788
  eigenvalues    EBANDS =     -1974.45733902
  atomic energy  EATOM  =     41659.78587232
  Solvation  Ediel_sol  =         0.00000000
  ---------------------------------------------------
  free energy    TOTEN  =      -201.69820471 eV

  energy without entropy =     -201.51685683  energy(sigma->0) =     -201.60753077


--------------------------------------------------------------------------------------------------------




----------------------------------------- Iteration    1(   4)  ---------------------------------------


     EDDAV:  cpu time    8.4551: real time    8.4814
       DOS:  cpu time    0.0014: real time    0.0014
    --------------------------------------------
      LOOP:  cpu time    8.4573: real time    8.4868

 eigenvalue-minimisations  :  4284
 total energy-change (2. order) :-0.5876935E+01  (-0.5807004E+01)
 number of electron     504.0000000 magnetization 
 augmentation part      504.0000000 magnetization 

 DIPCOR: dipole corrections for dipol
 direction  3 min pos     1,
 dipolmoment           0.000000      0.000000     -0.000001 electrons x Angstroem
 Tr[quadrupol]    -10326.081115

 energy correction for charged system         0.000000 eV
 dipol+quadrupol energy correction           -0.000000 eV
 added-field ion interaction          0.000000 eV  (added to PSCEN)


 Free energy of the ion-electron system (eV)
  ---------------------------------------------------
  alpha Z        PSCENC =       805.86936475
  Ewald energy   TEWEN  =    199694.33094247
  -Hartree energ DENC   =   -242106.71930681
  -exchange      EXHF   =         0.00000000
  -V(xc)+E(xc)   XCENC  =      -327.75819653
  PAW double counting   =     40340.05962942   -38292.62782345
  entropy T*S    EENTRO =        -0.18602746
  eigenvalues    EBANDS =     -1980.32959404
  atomic energy  EATOM  =     41659.78587232
  Solvation  Ediel_sol  =         0.00000000
  ---------------------------------------------------
  free energy    TOTEN  =      -207.57513932 eV

  energy without entropy =     -207.38911186  energy(sigma->0) =     -207.48212559


--------------------------------------------------------------------------------------------------------




----------------------------------------- Iteration    1(   5)  ---------------------------------------


     EDDAV:  cpu time    8.5854: real time    8.6061
       DOS:  cpu time    0.0015: real time    0.0015
    CHARGE:  cpu time    0.2189: real time    0.2195
    MIXING:  cpu time    0.0021: real time    0.0022
    --------------------------------------------
      LOOP:  cpu time    8.8089: real time    8.8331

 eigenvalue-minimisations  :  4392
 total energy-change (2. order) :-0.1783004E+00  (-0.1777048E+00)
 number of electron     503.9998403 magnetization 
 augmentation part      191.2086321 magnetization 

 DIPCOR: dipole corrections for dipol
 direction  3 min pos     1,
 dipolmoment           0.000000      0.000000     -0.000001 electrons x Angstroem
 Tr[quadrupol]    -10326.081115

 energy correction for charged system         0.000000 eV
 dipol+quadrupol energy correction           -0.000000 eV
 added-field ion interaction          0.000000 eV  (added to PSCEN)


 Broyden mixing:
  rms(total) = 0.62042E+01    rms(broyden)= 0.62042E+01
  rms(prec ) = 0.63384E+01
  weight for this iteration     100.00

 Free energy of the ion-electron system (eV)
  ---------------------------------------------------
  alpha Z        PSCENC =       805.86936475
  Ewald energy   TEWEN  =    199694.33094247
  -Hartree energ DENC   =   -242106.71930681
  -exchange      EXHF   =         0.00000000
  -V(xc)+E(xc)   XCENC  =      -327.75819653
  PAW double counting   =     40340.05962942   -38292.62782345
  entropy T*S    EENTRO =        -0.18579500
  eigenvalues    EBANDS =     -1980.50812688
  atomic energy  EATOM  =     41659.78587232
  Solvation  Ediel_sol  =         0.00000000
  ---------------------------------------------------
  free energy    TOTEN  =      -207.75343969 eV

  energy without entropy =     -207.56764469  energy(sigma->0) =     -207.66054219


--------------------------------------------------------------------------------------------------------




----------------------------------------- Iteration    1(   6)  ---------------------------------------


    POTLOK:  cpu time    0.0411: real time    0.0413
    SETDIJ:  cpu time    0.0057: real time    0.0058
    EDDIAG:  cpu time    1.2836: real time    1.2887
  RMM-DIIS:  cpu time    3.4890: real time    3.4980
    ORTHCH:  cpu time    0.3529: real time    0.3538
       DOS:  cpu time    0.0015: real time    0.0015
    CHARGE:  cpu time    0.2191: real time    0.2197
    MIXING:  cpu time    0.0020: real time    0.0020
    --------------------------------------------
      LOOP:  cpu time    5.3956: real time    5.4143

 eigenvalue-minimisations  :  3678
 total energy-change (2. order) : 0.4387319E+01  (-0.1010802E+02)
 number of electron     503.9998428 magnetization 
 augmentation part      191.2234389 magnetization 

 DIPCOR: dipole corrections for dipol
 direction  3 min pos     1,
 dipolmoment           0.000000      0.000000     -0.679541 electrons x Angstroem
 Tr[quadrupol]    -10328.861773

 energy correction for charged system         0.000000 eV
 dipol+quadrupol energy correction           -0.016272 eV
 added-field ion interaction          0.215113 eV  (added to PSCEN)


 Broyden mixing:
  rms(total) = 0.54760E+01    rms(broyden)= 0.54758E+01
  rms(prec ) = 0.57327E+01
  weight for this iteration     100.00

 eigenvalues of (default mixing * dielectric matrix)
  average eigenvalue GAMMA=   0.7098
  0.7098

 Free energy of the ion-electron system (eV)
  ---------------------------------------------------
  alpha Z        PSCENC =       806.06820597
  Ewald energy   TEWEN  =    199694.33094247
  -Hartree energ DENC   =   -241902.41456088
  -exchange      EXHF   =         0.00000000
  -V(xc)+E(xc)   XCENC  =      -340.64731770
  PAW double counting   =     43894.32552241   -41906.51573991
  entropy T*S    EENTRO =        -0.27395296
  eigenvalues    EBANDS =     -2108.02509278
  atomic energy  EATOM  =     41659.78587232
  Solvation  Ediel_sol  =         0.00000000
  ---------------------------------------------------
  free energy    TOTEN  =      -203.36612106 eV

  energy without entropy =     -203.09216811  energy(sigma->0) =     -203.22914459


--------------------------------------------------------------------------------------------------------




----------------------------------------- Iteration    1(   7)  ---------------------------------------


    POTLOK:  cpu time    0.0410: real time    0.0415
    SETDIJ:  cpu time    0.0060: real time    0.0060
    EDDIAG:  cpu time    1.2864: real time    1.2902
  RMM-DIIS:  cpu time    3.4926: real time    3.5010
    ORTHCH:  cpu time    0.3508: real time    0.3518
       DOS:  cpu time    0.0014: real time    0.0014
    CHARGE:  cpu time    0.2199: real time    0.2204
    MIXING:  cpu time    0.0020: real time    0.0020
    --------------------------------------------
      LOOP:  cpu time    5.4008: real time    5.4177

 eigenvalue-minimisations  :  3683
 total energy-change (2. order) :-0.7162972E+01  (-0.5742743E+01)
 number of electron     503.9998364 magnetization 
 augmentation part      195.3532378 magnetization 

 DIPCOR: dipole corrections for dipol
 direction  3 min pos     1,
 dipolmoment           0.000000      0.000000      1.000783 electrons x Angstroem
 Tr[quadrupol]    -10326.064135

 energy correction for charged system         0.000000 eV
 dipol+quadrupol energy correction           -0.035293 eV
 added-field ion interaction         -0.316805 eV  (added to PSCEN)


 Broyden mixing:
  rms(total) = 0.47454E+01    rms(broyden)= 0.47451E+01
  rms(prec ) = 0.55287E+01
  weight for this iteration     100.00

 eigenvalues of (default mixing * dielectric matrix)
  average eigenvalue GAMMA=   0.8499
  1.3528  0.3471

 Free energy of the ion-electron system (eV)
  ---------------------------------------------------
  alpha Z        PSCENC =       805.51726673
  Ewald energy   TEWEN  =    199694.33094247
  -Hartree energ DENC   =   -241702.72858470
  -exchange      EXHF   =         0.00000000
  -V(xc)+E(xc)   XCENC  =      -342.77175078
  PAW double counting   =     45244.30058651   -43281.98143635
  entropy T*S    EENTRO =        -0.21693113
  eigenvalues    EBANDS =     -2286.76505825
  atomic energy  EATOM  =     41659.78587232
  Solvation  Ediel_sol  =         0.00000000
  ---------------------------------------------------
  free energy    TOTEN  =      -210.52909318 eV

  energy without entropy =     -210.31216205  energy(sigma->0) =     -210.42062762


--------------------------------------------------------------------------------------------------------




----------------------------------------- Iteration    1(   8)  ---------------------------------------


    POTLOK:  cpu time    0.0402: real time    0.0412
    SETDIJ:  cpu time    0.0054: real time    0.0054
    EDDIAG:  cpu time    1.2872: real time    1.2910
  RMM-DIIS:  cpu time    3.5061: real time    3.5150
    ORTHCH:  cpu time    0.3506: real time    0.3515
       DOS:  cpu time    0.0014: real time    0.0014
    CHARGE:  cpu time    0.2180: real time    0.2185
    MIXING:  cpu time    0.0020: real time    0.0020
    --------------------------------------------
      LOOP:  cpu time    5.4116: real time    5.4297

 eigenvalue-minimisations  :  3672
 total energy-change (2. order) :-0.1317321E+02  (-0.9179712E+01)
 number of electron     503.9998357 magnetization 
 augmentation part      196.1250683 magnetization 

 DIPCOR: dipole corrections for dipol
 direction  3 min pos     1,
 dipolmoment           0.000000      0.000000     -1.742397 electrons x Angstroem
 Tr[quadrupol]    -10327.512778

 energy correction for charged system         0.000000 eV
 dipol+quadrupol energy correction           -0.106979 eV
 added-field ion interaction          0.551568 eV  (added to PSCEN)


 Broyden mixing:
  rms(total) = 0.45209E+01    rms(broyden)= 0.45205E+01
  rms(prec ) = 0.54135E+01
  weight for this iteration     100.00

 eigenvalues of (default mixing * dielectric matrix)
  average eigenvalue GAMMA=   0.8853
  1.9905  0.4276  0.2378

 Free energy of the ion-electron system (eV)
  ---------------------------------------------------
  alpha Z        PSCENC =       806.31395360
  Ewald energy   TEWEN  =    199694.33094247
  -Hartree energ DENC   =   -241684.03470384
  -exchange      EXHF   =         0.00000000
  -V(xc)+E(xc)   XCENC  =      -344.71398185
  PAW double counting   =     46748.46618099   -44810.25498476
  entropy T*S    EENTRO =        -0.26466394
  eigenvalues    EBANDS =     -2293.33092280
  atomic energy  EATOM  =     41659.78587232
  Solvation  Ediel_sol  =         0.00000000
  ---------------------------------------------------
  free energy    TOTEN  =      -223.70230781 eV

  energy without entropy =     -223.43764387  energy(sigma->0) =     -223.56997584


--------------------------------------------------------------------------------------------------------




----------------------------------------- Iteration    1(   9)  ---------------------------------------


    POTLOK:  cpu time    0.0402: real time    0.0404
    SETDIJ:  cpu time    0.0051: real time    0.0051
    EDDIAG:  cpu time    1.2792: real time    1.2823
  RMM-DIIS:  cpu time    3.4261: real time    3.5171
    ORTHCH:  cpu time    0.3504: real time    0.3513
       DOS:  cpu time    0.0013: real time    0.0013
    CHARGE:  cpu time    0.2226: real time    0.2231
    MIXING:  cpu time    0.0021: real time    0.0021
    --------------------------------------------
      LOOP:  cpu time    5.3278: real time    5.4257

 eigenvalue-minimisations  :  3678
 total energy-change (2. order) : 0.6449747E+01  (-0.5520189E+01)
 number of electron     503.9998339 magnetization 
 augmentation part      198.1271023 magnetization 

 DIPCOR: dipole corrections for dipol
 direction  3 min pos     1,
 dipolmoment           0.000000      0.000000      0.554853 electrons x Angstroem
 Tr[quadrupol]    -10329.271660

 energy correction for charged system         0.000000 eV
 dipol+quadrupol energy correction           -0.010848 eV
 added-field ion interaction         -0.175643 eV  (added to PSCEN)


 Broyden mixing:
  rms(total) = 0.38653E+01    rms(broyden)= 0.38650E+01
  rms(prec ) = 0.42654E+01
  weight for this iteration     100.00

 eigenvalues of (default mixing * dielectric matrix)
  average eigenvalue GAMMA=   0.8061
  2.2276  0.4459  0.2755  0.2755

 Free energy of the ion-electron system (eV)
  ---------------------------------------------------
  alpha Z        PSCENC =       805.68287356
  Ewald energy   TEWEN  =    199694.33094247
  -Hartree energ DENC   =   -241699.88877137
  -exchange      EXHF   =         0.00000000
  -V(xc)+E(xc)   XCENC  =      -346.59165790
  PAW double counting   =     48267.99081395   -46353.35658543
  entropy T*S    EENTRO =        -0.21235406
  eigenvalues    EBANDS =     -2244.99369468
  atomic energy  EATOM  =     41659.78587232
  Solvation  Ediel_sol  =         0.00000000
  ---------------------------------------------------
  free energy    TOTEN  =      -217.25256115 eV

  energy without entropy =     -217.04020709  energy(sigma->0) =     -217.14638412


--------------------------------------------------------------------------------------------------------




----------------------------------------- Iteration    1(  10)  ---------------------------------------


    POTLOK:  cpu time    0.0399: real time    0.0400
    SETDIJ:  cpu time    0.0051: real time    0.0051
    EDDIAG:  cpu time    1.2791: real time    1.2822
  RMM-DIIS:  cpu time    3.4979: real time    3.5064
    ORTHCH:  cpu time    0.3504: real time    0.3512
       DOS:  cpu time    0.0014: real time    0.0014
    CHARGE:  cpu time    0.2174: real time    0.2179
    MIXING:  cpu time    0.0022: real time    0.0022
    --------------------------------------------
      LOOP:  cpu time    5.3940: real time    5.4091

 eigenvalue-minimisations  :  3679
 total energy-change (2. order) : 0.1599105E+02  (-0.1797062E+01)
 number of electron     503.9998336 magnetization 
 augmentation part      198.8735362 magnetization 

 DIPCOR: dipole corrections for dipol
 direction  3 min pos     1,
 dipolmoment           0.000000      0.000000     -0.518002 electrons x Angstroem
 Tr[quadrupol]    -10327.885269

 energy correction for charged system         0.000000 eV
 dipol+quadrupol energy correction           -0.009455 eV
 added-field ion interaction          0.163977 eV  (added to PSCEN)


 Broyden mixing:
  rms(total) = 0.23609E+01    rms(broyden)= 0.23607E+01
  rms(prec ) = 0.27843E+01
  weight for this iteration     100.00

 eigenvalues of (default mixing * dielectric matrix)
  average eigenvalue GAMMA=   0.7487
  2.2752  0.4384  0.4384  0.3643  0.2273

 Free energy of the ion-electron system (eV)
  ---------------------------------------------------
  alpha Z        PSCENC =       806.02388630
  Ewald energy   TEWEN  =    199694.33094247
  -Hartree energ DENC   =   -241659.11571629
  -exchange      EXHF   =         0.00000000
  -V(xc)+E(xc)   XCENC  =      -346.60904688
  PAW double counting   =     48958.24757319   -47051.74141703
  entropy T*S    EENTRO =        -0.21083342
  eigenvalues    EBANDS =     -2261.97277480
  atomic energy  EATOM  =     41659.78587232
  Solvation  Ediel_sol  =         0.00000000
  ---------------------------------------------------
  free energy    TOTEN  =      -201.26151415 eV

  energy without entropy =     -201.05068072  energy(sigma->0) =     -201.15609744


--------------------------------------------------------------------------------------------------------




----------------------------------------- Iteration    1(  11)  ---------------------------------------


    POTLOK:  cpu time    0.0396: real time    0.0397
    SETDIJ:  cpu time    0.0053: real time    0.0053
    EDDIAG:  cpu time    1.2816: real time    1.2847
  RMM-DIIS:  cpu time    3.4871: real time    3.4967
    ORTHCH:  cpu time    0.3500: real time    0.3517
       DOS:  cpu time    0.0014: real time    0.0014
    CHARGE:  cpu time    0.2161: real time    0.2166
    MIXING:  cpu time    0.0025: real time    0.0025
    --------------------------------------------
      LOOP:  cpu time    5.3842: real time    5.4007

 eigenvalue-minimisations  :  3679
 total energy-change (2. order) : 0.5657320E+01  (-0.1512760E+01)
 number of electron     503.9998342 magnetization 
 augmentation part      198.7387069 magnetization 

 DIPCOR: dipole corrections for dipol
 direction  3 min pos     1,
 dipolmoment           0.000000      0.000000     -0.127423 electrons x Angstroem
 Tr[quadrupol]    -10328.922135

 energy correction for charged system         0.000000 eV
 dipol+quadrupol energy correction           -0.000572 eV
 added-field ion interaction          0.040337 eV  (added to PSCEN)


 Broyden mixing:
  rms(total) = 0.16103E+01    rms(broyden)= 0.16100E+01
  rms(prec ) = 0.18342E+01
  weight for this iteration     100.00

 eigenvalues of (default mixing * dielectric matrix)
  average eigenvalue GAMMA=   0.7078
  2.1953  0.6094  0.6094  0.3289  0.2723  0.2315

 Free energy of the ion-electron system (eV)
  ---------------------------------------------------
  alpha Z        PSCENC =       805.90912874
  Ewald energy   TEWEN  =    199694.33094247
  -Hartree energ DENC   =   -241714.62781348
  -exchange      EXHF   =         0.00000000
  -V(xc)+E(xc)   XCENC  =      -346.22195754
  PAW double counting   =     49110.86060749   -47203.26111319
  entropy T*S    EENTRO =        -0.18430716
  eigenvalues    EBANDS =     -2202.19555385
  atomic energy  EATOM  =     41659.78587232
  Solvation  Ediel_sol  =         0.00000000
  ---------------------------------------------------
  free energy    TOTEN  =      -195.60419420 eV

  energy without entropy =     -195.41988704  energy(sigma->0) =     -195.51204062


--------------------------------------------------------------------------------------------------------




----------------------------------------- Iteration    1(  12)  ---------------------------------------


    POTLOK:  cpu time    0.0409: real time    0.0411
    SETDIJ:  cpu time    0.0059: real time    0.0060
    EDDIAG:  cpu time    1.2859: real time    1.2897
  RMM-DIIS:  cpu time    3.4749: real time    3.4837
    ORTHCH:  cpu time    0.3497: real time    0.3506
       DOS:  cpu time    0.0014: real time    0.0014
    CHARGE:  cpu time    0.2157: real time    0.2162
    MIXING:  cpu time    0.0026: real time    0.0026
    --------------------------------------------
      LOOP:  cpu time    5.3776: real time    5.3936

 eigenvalue-minimisations  :  3680
 total energy-change (2. order) : 0.4321673E+01  (-0.7146294E+00)
 number of electron     503.9998355 magnetization 
 augmentation part      197.6577750 magnetization 

 DIPCOR: dipole corrections for dipol
 direction  3 min pos     1,
 dipolmoment           0.000000      0.000000     -0.153242 electrons x Angstroem
 Tr[quadrupol]    -10328.850095

 energy correction for charged system         0.000000 eV
 dipol+quadrupol energy correction           -0.000827 eV
 added-field ion interaction          0.048510 eV  (added to PSCEN)


 Broyden mixing:
  rms(total) = 0.12323E+01    rms(broyden)= 0.12322E+01
  rms(prec ) = 0.13819E+01
  weight for this iteration     100.00

 eigenvalues of (default mixing * dielectric matrix)
  average eigenvalue GAMMA=   0.6602
  2.2412  0.5514  0.5514  0.4184  0.3195  0.3195  0.2200

 Free energy of the ion-electron system (eV)
  ---------------------------------------------------
  alpha Z        PSCENC =       805.91704663
  Ewald energy   TEWEN  =    199694.33094247
  -Hartree energ DENC   =   -241752.25540869
  -exchange      EXHF   =         0.00000000
  -V(xc)+E(xc)   XCENC  =      -345.12076365
  PAW double counting   =     49130.35539017   -47217.60727172
  entropy T*S    EENTRO =        -0.24100620
  eigenvalues    EBANDS =     -2166.44732232
  atomic energy  EATOM  =     41659.78587232
  Solvation  Ediel_sol  =         0.00000000
  ---------------------------------------------------
  free energy    TOTEN  =      -191.28252099 eV

  energy without entropy =     -191.04151479  energy(sigma->0) =     -191.16201789


--------------------------------------------------------------------------------------------------------




----------------------------------------- Iteration    1(  13)  ---------------------------------------


    POTLOK:  cpu time    0.0404: real time    0.0406
    SETDIJ:  cpu time    0.0058: real time    0.0059
    EDDIAG:  cpu time    1.2805: real time    1.2842
  RMM-DIIS:  cpu time    3.4688: real time    3.4797
    ORTHCH:  cpu time    0.3487: real time    0.3497
       DOS:  cpu time    0.0013: real time    0.0013
    CHARGE:  cpu time    0.2148: real time    0.2211
    MIXING:  cpu time    0.0026: real time    0.0028
    --------------------------------------------
      LOOP:  cpu time    5.3637: real time    5.3895

 eigenvalue-minimisations  :  3680
 total energy-change (2. order) : 0.1066224E+01  (-0.2305688E+00)
 number of electron     503.9998356 magnetization 
 augmentation part      197.5582726 magnetization 

 DIPCOR: dipole corrections for dipol
 direction  3 min pos     1,
 dipolmoment           0.000000      0.000000     -0.098859 electrons x Angstroem
 Tr[quadrupol]    -10329.254592

 energy correction for charged system         0.000000 eV
 dipol+quadrupol energy correction           -0.000344 eV
 added-field ion interaction          0.031295 eV  (added to PSCEN)


 Broyden mixing:
  rms(total) = 0.83920E+00    rms(broyden)= 0.83904E+00
  rms(prec ) = 0.95625E+00
  weight for this iteration     100.00

 eigenvalues of (default mixing * dielectric matrix)
  average eigenvalue GAMMA=   0.6694
  2.2625  0.6872  0.6872  0.6392  0.3109  0.3109  0.2221  0.2354

 Free energy of the ion-electron system (eV)
  ---------------------------------------------------
  alpha Z        PSCENC =       805.90031445
  Ewald energy   TEWEN  =    199694.33094247
  -Hartree energ DENC   =   -241770.48992579
  -exchange      EXHF   =         0.00000000
  -V(xc)+E(xc)   XCENC  =      -344.98186274
  PAW double counting   =     49192.07090506   -47278.75774337
  entropy T*S    EENTRO =        -0.22862712
  eigenvalues    EBANDS =     -2147.84617233
  atomic energy  EATOM  =     41659.78587232
  Solvation  Ediel_sol  =         0.00000000
  ---------------------------------------------------
  free energy    TOTEN  =      -190.21629705 eV

  energy without entropy =     -189.98766993  energy(sigma->0) =     -190.10198349


--------------------------------------------------------------------------------------------------------




----------------------------------------- Iteration    1(  14)  ---------------------------------------


    POTLOK:  cpu time    0.0410: real time    0.0417
    SETDIJ:  cpu time    0.0045: real time    0.0054
    EDDIAG:  cpu time    1.2757: real time    1.2916
  RMM-DIIS:  cpu time    3.4764: real time    3.4997
    ORTHCH:  cpu time    0.3495: real time    0.3503
       DOS:  cpu time    0.0014: real time    0.0014
    CHARGE:  cpu time    0.2161: real time    0.2166
    MIXING:  cpu time    0.0026: real time    0.0026
    --------------------------------------------
      LOOP:  cpu time    5.3679: real time    5.4127

 eigenvalue-minimisations  :  3679
 total energy-change (2. order) : 0.3418328E+00  (-0.1144704E+00)
 number of electron     503.9998357 magnetization 
 augmentation part      197.5187471 magnetization 

 DIPCOR: dipole corrections for dipol
 direction  3 min pos     1,
 dipolmoment           0.000000      0.000000     -0.075368 electrons x Angstroem
 Tr[quadrupol]    -10329.429784

 energy correction for charged system         0.000000 eV
 dipol+quadrupol energy correction           -0.000200 eV
 added-field ion interaction          0.023858 eV  (added to PSCEN)


 Broyden mixing:
  rms(total) = 0.60242E+00    rms(broyden)= 0.60227E+00
  rms(prec ) = 0.65542E+00
  weight for this iteration     100.00

 eigenvalues of (default mixing * dielectric matrix)
  average eigenvalue GAMMA=   0.6692
  2.2346  0.8449  0.8449  0.6870  0.3457  0.3457  0.2702  0.2417  0.2085

 Free energy of the ion-electron system (eV)
  ---------------------------------------------------
  alpha Z        PSCENC =       805.89302242
  Ewald energy   TEWEN  =    199694.33094247
  -Hartree energ DENC   =   -241781.53204253
  -exchange      EXHF   =         0.00000000
  -V(xc)+E(xc)   XCENC  =      -344.81432230
  PAW double counting   =     49229.43539367   -47315.14238720
  entropy T*S    EENTRO =        -0.23502976
  eigenvalues    EBANDS =     -2137.59591337
  atomic energy  EATOM  =     41659.78587232
  Solvation  Ediel_sol  =         0.00000000
  ---------------------------------------------------
  free energy    TOTEN  =      -189.87446429 eV

  energy without entropy =     -189.63943452  energy(sigma->0) =     -189.75694941


--------------------------------------------------------------------------------------------------------




----------------------------------------- Iteration    1(  15)  ---------------------------------------


    POTLOK:  cpu time    0.0405: real time    0.0407
    SETDIJ:  cpu time    0.0043: real time    0.0051
    EDDIAG:  cpu time    1.2827: real time    1.2858
  RMM-DIIS:  cpu time    3.5129: real time    3.5239
    ORTHCH:  cpu time    0.3477: real time    0.3485
       DOS:  cpu time    0.0014: real time    0.0014
    CHARGE:  cpu time    0.2156: real time    0.2161
    MIXING:  cpu time    0.0028: real time    0.0029
    --------------------------------------------
      LOOP:  cpu time    5.4087: real time    5.4287

 eigenvalue-minimisations  :  3680
 total energy-change (2. order) : 0.3687381E-01  (-0.4066826E-01)
 number of electron     503.9998357 magnetization 
 augmentation part      197.3821845 magnetization 

 DIPCOR: dipole corrections for dipol
 direction  3 min pos     1,
 dipolmoment           0.000000      0.000000     -0.050903 electrons x Angstroem
 Tr[quadrupol]    -10329.542520

 energy correction for charged system         0.000000 eV
 dipol+quadrupol energy correction           -0.000091 eV
 added-field ion interaction          0.016114 eV  (added to PSCEN)


 Broyden mixing:
  rms(total) = 0.60293E+00    rms(broyden)= 0.60288E+00
  rms(prec ) = 0.66951E+00
  weight for this iteration     100.00

 eigenvalues of (default mixing * dielectric matrix)
  average eigenvalue GAMMA=   0.7075
  2.1971  1.1576  1.1576  0.6796  0.4375  0.4375  0.2825  0.2825  0.2215  0.2215

 Free energy of the ion-electron system (eV)
  ---------------------------------------------------
  alpha Z        PSCENC =       805.88538683
  Ewald energy   TEWEN  =    199694.33094247
  -Hartree energ DENC   =   -241791.07850983
  -exchange      EXHF   =         0.00000000
  -V(xc)+E(xc)   XCENC  =      -344.60165276
  PAW double counting   =     49227.00880139   -47311.19333415
  entropy T*S    EENTRO =        -0.26363035
  eigenvalues    EBANDS =     -2129.71146639
  atomic energy  EATOM  =     41659.78587232
  Solvation  Ediel_sol  =         0.00000000
  ---------------------------------------------------
  free energy    TOTEN  =      -189.83759048 eV

  energy without entropy =     -189.57396013  energy(sigma->0) =     -189.70577531


--------------------------------------------------------------------------------------------------------




----------------------------------------- Iteration    1(  16)  ---------------------------------------


    POTLOK:  cpu time    0.0400: real time    0.0401
    SETDIJ:  cpu time    0.0052: real time    0.0052
    EDDIAG:  cpu time    1.2872: real time    1.2902
  RMM-DIIS:  cpu time    3.4237: real time    3.5007
    ORTHCH:  cpu time    0.3439: real time    0.3542
       DOS:  cpu time    0.0013: real time    0.0013
    CHARGE:  cpu time    0.2142: real time    0.2147
    MIXING:  cpu time    0.0029: real time    0.0029
    --------------------------------------------
      LOOP:  cpu time    5.3191: real time    5.4116

 eigenvalue-minimisations  :  3680
 total energy-change (2. order) : 0.1233678E+00  (-0.2531810E-01)
 number of electron     503.9998359 magnetization 
 augmentation part      197.2698530 magnetization 

 DIPCOR: dipole corrections for dipol
 direction  3 min pos     1,
 dipolmoment           0.000000      0.000000     -0.036609 electrons x Angstroem
 Tr[quadrupol]    -10329.926781

 energy correction for charged system         0.000000 eV
 dipol+quadrupol energy correction           -0.000047 eV
 added-field ion interaction          0.011589 eV  (added to PSCEN)


 Broyden mixing:
  rms(total) = 0.46600E+00    rms(broyden)= 0.46597E+00
  rms(prec ) = 0.53652E+00
  weight for this iteration     100.00

 eigenvalues of (default mixing * dielectric matrix)
  average eigenvalue GAMMA=   0.7137
  2.1611  1.3743  1.3743  0.6417  0.4945  0.4945  0.3087  0.3087  0.2212  0.2359
  0.2359

 Free energy of the ion-electron system (eV)
  ---------------------------------------------------
  alpha Z        PSCENC =       805.88090578
  Ewald energy   TEWEN  =    199694.33094247
  -Hartree energ DENC   =   -241811.80856685
  -exchange      EXHF   =         0.00000000
  -V(xc)+E(xc)   XCENC  =      -344.32882664
  PAW double counting   =     49229.49772585   -47311.51259491
  entropy T*S    EENTRO =        -0.25254703
  eigenvalues    EBANDS =     -2111.30713370
  atomic energy  EATOM  =     41659.78587232
  Solvation  Ediel_sol  =         0.00000000
  ---------------------------------------------------
  free energy    TOTEN  =      -189.71422272 eV

  energy without entropy =     -189.46167569  energy(sigma->0) =     -189.58794921


--------------------------------------------------------------------------------------------------------




----------------------------------------- Iteration    1(  17)  ---------------------------------------


    POTLOK:  cpu time    0.0397: real time    0.0400
    SETDIJ:  cpu time    0.0051: real time    0.0052
    EDDIAG:  cpu time    1.2798: real time    1.2829
  RMM-DIIS:  cpu time    3.5117: real time    3.5219
    ORTHCH:  cpu time    0.3479: real time    0.3488
       DOS:  cpu time    0.0014: real time    0.0014
    CHARGE:  cpu time    0.2199: real time    0.2205
    MIXING:  cpu time    0.0031: real time    0.0031
    --------------------------------------------
      LOOP:  cpu time    5.4093: real time    5.4259

 eigenvalue-minimisations  :  3679
 total energy-change (2. order) : 0.1172416E+00  (-0.2128673E-01)
 number of electron     503.9998360 magnetization 
 augmentation part      197.1837017 magnetization 

 DIPCOR: dipole corrections for dipol
 direction  3 min pos     1,
 dipolmoment           0.000000      0.000000     -0.059753 electrons x Angstroem
 Tr[quadrupol]    -10330.182262

 energy correction for charged system         0.000000 eV
 dipol+quadrupol energy correction           -0.000126 eV
 added-field ion interaction          0.018915 eV  (added to PSCEN)


 Broyden mixing:
  rms(total) = 0.36923E+00    rms(broyden)= 0.36916E+00
  rms(prec ) = 0.43487E+00
  weight for this iteration     100.00

 eigenvalues of (default mixing * dielectric matrix)
  average eigenvalue GAMMA=   0.7132
  2.1359  1.5407  1.5407  0.5794  0.5794  0.5836  0.3424  0.3424  0.2540  0.2540
  0.2120  0.1936

 Free energy of the ion-electron system (eV)
  ---------------------------------------------------
  alpha Z        PSCENC =       805.88815379
  Ewald energy   TEWEN  =    199694.33094247
  -Hartree energ DENC   =   -241826.44439906
  -exchange      EXHF   =         0.00000000
  -V(xc)+E(xc)   XCENC  =      -344.12593320
  PAW double counting   =     49238.04880996   -47318.57044538
  entropy T*S    EENTRO =        -0.26138714
  eigenvalues    EBANDS =     -2098.24859488
  atomic energy  EATOM  =     41659.78587232
  Solvation  Ediel_sol  =         0.00000000
  ---------------------------------------------------
  free energy    TOTEN  =      -189.59698112 eV

  energy without entropy =     -189.33559398  energy(sigma->0) =     -189.46628755


--------------------------------------------------------------------------------------------------------




----------------------------------------- Iteration    1(  18)  ---------------------------------------


    POTLOK:  cpu time    0.0398: real time    0.0399
    SETDIJ:  cpu time    0.0051: real time    0.0051
    EDDIAG:  cpu time    1.2780: real time    1.2811
  RMM-DIIS:  cpu time    3.4752: real time    3.5002
    ORTHCH:  cpu time    0.3475: real time    0.3485
       DOS:  cpu time    0.0014: real time    0.0014
    CHARGE:  cpu time    0.2164: real time    0.2169
    MIXING:  cpu time    0.0032: real time    0.0032
    --------------------------------------------
      LOOP:  cpu time    5.3673: real time    5.3990

 eigenvalue-minimisations  :  3679
 total energy-change (2. order) : 0.1244133E+00  (-0.1232122E-01)
 number of electron     503.9998361 magnetization 
 augmentation part      197.1142787 magnetization 

 DIPCOR: dipole corrections for dipol
 direction  3 min pos     1,
 dipolmoment           0.000000      0.000000     -0.069969 electrons x Angstroem
 Tr[quadrupol]    -10330.388787

 energy correction for charged system         0.000000 eV
 dipol+quadrupol energy correction           -0.000173 eV
 added-field ion interaction          0.022149 eV  (added to PSCEN)


 Broyden mixing:
  rms(total) = 0.19889E+00    rms(broyden)= 0.19883E+00
  rms(prec ) = 0.23438E+00
  weight for this iteration     100.00

 eigenvalues of (default mixing * dielectric matrix)
  average eigenvalue GAMMA=   0.7033
  2.1612  1.6077  1.6077  0.6423  0.6423  0.5491  0.3700  0.3700  0.2840  0.2840
  0.2203  0.2203  0.1835

 Free energy of the ion-electron system (eV)
  ---------------------------------------------------
  alpha Z        PSCENC =       805.89134102
  Ewald energy   TEWEN  =    199694.33094247
  -Hartree energ DENC   =   -241837.99462736
  -exchange      EXHF   =         0.00000000
  -V(xc)+E(xc)   XCENC  =      -343.97012190
  PAW double counting   =     49251.37128178   -47330.83149393
  entropy T*S    EENTRO =        -0.27196883
  eigenvalues    EBANDS =     -2087.78379337
  atomic energy  EATOM  =     41659.78587232
  Solvation  Ediel_sol  =         0.00000000
  ---------------------------------------------------
  free energy    TOTEN  =      -189.47256780 eV

  energy without entropy =     -189.20059897  energy(sigma->0) =     -189.33658339


--------------------------------------------------------------------------------------------------------




----------------------------------------- Iteration    1(  19)  ---------------------------------------


    POTLOK:  cpu time    0.0400: real time    0.0401
    SETDIJ:  cpu time    0.0051: real time    0.0051
    EDDIAG:  cpu time    1.2860: real time    1.2959
  RMM-DIIS:  cpu time    3.4616: real time    3.5057
    ORTHCH:  cpu time    0.3478: real time    0.3488
       DOS:  cpu time    0.0014: real time    0.0014
    CHARGE:  cpu time    0.2159: real time    0.2164
    MIXING:  cpu time    0.0034: real time    0.0034
    --------------------------------------------
      LOOP:  cpu time    5.3617: real time    5.4194

 eigenvalue-minimisations  :  3681
 total energy-change (2. order) : 0.4332910E-01  (-0.5116893E-02)
 number of electron     503.9998361 magnetization 
 augmentation part      197.0730871 magnetization 

 DIPCOR: dipole corrections for dipol
 direction  3 min pos     1,
 dipolmoment           0.000000      0.000000     -0.062632 electrons x Angstroem
 Tr[quadrupol]    -10330.512851

 energy correction for charged system         0.000000 eV
 dipol+quadrupol energy correction           -0.000138 eV
 added-field ion interaction          0.019827 eV  (added to PSCEN)


 Broyden mixing:
  rms(total) = 0.99377E-01    rms(broyden)= 0.99339E-01
  rms(prec ) = 0.11666E+00
  weight for this iteration     100.00

 eigenvalues of (default mixing * dielectric matrix)
  average eigenvalue GAMMA=   0.6974
  2.2230  1.6310  1.6310  0.6928  0.6928  0.5231  0.4349  0.4349  0.3048  0.3048
  0.2640  0.2241  0.2241  0.1787

 Free energy of the ion-electron system (eV)
  ---------------------------------------------------
  alpha Z        PSCENC =       805.88905271
  Ewald energy   TEWEN  =    199694.33094247
  -Hartree energ DENC   =   -241844.40649651
  -exchange      EXHF   =         0.00000000
  -V(xc)+E(xc)   XCENC  =      -343.89292443
  PAW double counting   =     49262.88636090   -47341.86671465
  entropy T*S    EENTRO =        -0.26601514
  eigenvalues    EBANDS =     -2081.88931637
  atomic energy  EATOM  =     41659.78587232
  Solvation  Ediel_sol  =         0.00000000
  ---------------------------------------------------
  free energy    TOTEN  =      -189.42923870 eV

  energy without entropy =     -189.16322356  energy(sigma->0) =     -189.29623113


--------------------------------------------------------------------------------------------------------




----------------------------------------- Iteration    1(  20)  ---------------------------------------


    POTLOK:  cpu time    0.0405: real time    0.0407
    SETDIJ:  cpu time    0.0050: real time    0.0050
    EDDIAG:  cpu time    1.2894: real time    1.2932
  RMM-DIIS:  cpu time    3.4513: real time    3.4598
    ORTHCH:  cpu time    0.3484: real time    0.3493
       DOS:  cpu time    0.0014: real time    0.0014
    CHARGE:  cpu time    0.2152: real time    0.2157
    MIXING:  cpu time    0.0036: real time    0.0036
    --------------------------------------------
      LOOP:  cpu time    5.3554: real time    5.3724

 eigenvalue-minimisations  :  3680
 total energy-change (2. order) : 0.8854452E-02  (-0.1215766E-02)
 number of electron     503.9998361 magnetization 
 augmentation part      197.0504041 magnetization 

 DIPCOR: dipole corrections for dipol
 direction  3 min pos     1,
 dipolmoment           0.000000      0.000000     -0.044649 electrons x Angstroem
 Tr[quadrupol]    -10330.618283

 energy correction for charged system         0.000000 eV
 dipol+quadrupol energy correction           -0.000070 eV
 added-field ion interaction          0.014134 eV  (added to PSCEN)


 Broyden mixing:
  rms(total) = 0.65973E-01    rms(broyden)= 0.65959E-01
  rms(prec ) = 0.74566E-01
  weight for this iteration     100.00

 eigenvalues of (default mixing * dielectric matrix)
  average eigenvalue GAMMA=   0.6833
  2.2476  1.6276  1.6276  0.7374  0.7374  0.5475  0.4689  0.4689  0.3211  0.3211
  0.2755  0.2498  0.2207  0.2207  0.1779

 Free energy of the ion-electron system (eV)
  ---------------------------------------------------
  alpha Z        PSCENC =       805.88342801
  Ewald energy   TEWEN  =    199694.33094247
  -Hartree energ DENC   =   -241849.17711163
  -exchange      EXHF   =         0.00000000
  -V(xc)+E(xc)   XCENC  =      -343.85869560
  PAW double counting   =     49270.73626058   -47349.52460386
  entropy T*S    EENTRO =        -0.27006564
  eigenvalues    EBANDS =     -2077.32641090
  atomic energy  EATOM  =     41659.78587232
  Solvation  Ediel_sol  =         0.00000000
  ---------------------------------------------------
  free energy    TOTEN  =      -189.42038425 eV

  energy without entropy =     -189.15031861  energy(sigma->0) =     -189.28535143


--------------------------------------------------------------------------------------------------------




----------------------------------------- Iteration    1(  21)  ---------------------------------------


    POTLOK:  cpu time    0.0403: real time    0.0414
    SETDIJ:  cpu time    0.0051: real time    0.0058
    EDDIAG:  cpu time    1.2820: real time    1.2870
  RMM-DIIS:  cpu time    3.4972: real time    3.5056
    ORTHCH:  cpu time    0.3473: real time    0.3482
       DOS:  cpu time    0.0014: real time    0.0014
    CHARGE:  cpu time    0.2204: real time    0.2209
    MIXING:  cpu time    0.0038: real time    0.0038
    --------------------------------------------
      LOOP:  cpu time    5.3982: real time    5.4175

 eigenvalue-minimisations  :  3684
 total energy-change (2. order) : 0.2741588E-02  (-0.2345277E-03)
 number of electron     503.9998362 magnetization 
 augmentation part      197.0406389 magnetization 

 DIPCOR: dipole corrections for dipol
 direction  3 min pos     1,
 dipolmoment           0.000000      0.000000     -0.039362 electrons x Angstroem
 Tr[quadrupol]    -10330.672398

 energy correction for charged system         0.000000 eV
 dipol+quadrupol energy correction           -0.000055 eV
 added-field ion interaction          0.012460 eV  (added to PSCEN)


 Broyden mixing:
  rms(total) = 0.48618E-01    rms(broyden)= 0.48614E-01
  rms(prec ) = 0.54933E-01
  weight for this iteration     100.00

 eigenvalues of (default mixing * dielectric matrix)
  average eigenvalue GAMMA=   0.7077
  2.2903  1.6211  1.6211  0.9191  0.9191  0.6688  0.5609  0.5609  0.3595  0.3595
  0.2883  0.2883  0.2411  0.2233  0.2233  0.1781

 Free energy of the ion-electron system (eV)
  ---------------------------------------------------
  alpha Z        PSCENC =       805.88177002
  Ewald energy   TEWEN  =    199694.33094247
  -Hartree energ DENC   =   -241851.48846845
  -exchange      EXHF   =         0.00000000
  -V(xc)+E(xc)   XCENC  =      -343.84762658
  PAW double counting   =     49273.94815674   -47352.70134529
  entropy T*S    EENTRO =        -0.26912420
  eigenvalues    EBANDS =     -2075.05781969
  atomic energy  EATOM  =     41659.78587232
  Solvation  Ediel_sol  =         0.00000000
  ---------------------------------------------------
  free energy    TOTEN  =      -189.41764266 eV

  energy without entropy =     -189.14851846  energy(sigma->0) =     -189.28308056


--------------------------------------------------------------------------------------------------------




----------------------------------------- Iteration    1(  22)  ---------------------------------------


    POTLOK:  cpu time    0.0404: real time    0.0406
    SETDIJ:  cpu time    0.0052: real time    0.0052
    EDDIAG:  cpu time    1.2832: real time    1.2882
  RMM-DIIS:  cpu time    3.4922: real time    3.5007
    ORTHCH:  cpu time    0.3478: real time    0.3486
       DOS:  cpu time    0.0014: real time    0.0014
    CHARGE:  cpu time    0.2162: real time    0.2168
    MIXING:  cpu time    0.0040: real time    0.0041
    --------------------------------------------
      LOOP:  cpu time    5.3912: real time    5.4096

 eigenvalue-minimisations  :  3679
 total energy-change (2. order) : 0.1470722E-02  (-0.2352725E-03)
 number of electron     503.9998362 magnetization 
 augmentation part      197.0248021 magnetization 

 DIPCOR: dipole corrections for dipol
 direction  3 min pos     1,
 dipolmoment           0.000000      0.000000     -0.037210 electrons x Angstroem
 Tr[quadrupol]    -10330.791225

 energy correction for charged system         0.000000 eV
 dipol+quadrupol energy correction           -0.000049 eV
 added-field ion interaction          0.011779 eV  (added to PSCEN)


 Broyden mixing:
  rms(total) = 0.40776E-01    rms(broyden)= 0.40772E-01
  rms(prec ) = 0.46000E-01
  weight for this iteration     100.00

 eigenvalues of (default mixing * dielectric matrix)
  average eigenvalue GAMMA=   0.7436
  2.3655  1.8761  1.8761  1.2465  0.7722  0.7722  0.6130  0.6130  0.3896  0.3896
  0.3030  0.3030  0.2213  0.2213  0.2531  0.2475  0.1780

 Free energy of the ion-electron system (eV)
  ---------------------------------------------------
  alpha Z        PSCENC =       805.88109459
  Ewald energy   TEWEN  =    199694.33094247
  -Hartree energ DENC   =   -241856.55993588
  -exchange      EXHF   =         0.00000000
  -V(xc)+E(xc)   XCENC  =      -343.82262703
  PAW double counting   =     49279.45752464   -47358.14721073
  entropy T*S    EENTRO =        -0.26797777
  eigenvalues    EBANDS =     -2070.07385457
  atomic energy  EATOM  =     41659.78587232
  Solvation  Ediel_sol  =         0.00000000
  ---------------------------------------------------
  free energy    TOTEN  =      -189.41617194 eV

  energy without entropy =     -189.14819418  energy(sigma->0) =     -189.28218306


--------------------------------------------------------------------------------------------------------




----------------------------------------- Iteration    1(  23)  ---------------------------------------


    POTLOK:  cpu time    0.0404: real time    0.0405
    SETDIJ:  cpu time    0.0053: real time    0.0054
    EDDIAG:  cpu time    1.2837: real time    1.2868
  RMM-DIIS:  cpu time    3.5134: real time    3.5220
    ORTHCH:  cpu time    0.3485: real time    0.3493
       DOS:  cpu time    0.0014: real time    0.0014
    CHARGE:  cpu time    0.2160: real time    0.2167
    MIXING:  cpu time    0.0041: real time    0.0041
    --------------------------------------------
      LOOP:  cpu time    5.4134: real time    5.4285

 eigenvalue-minimisations  :  3680
 total energy-change (2. order) : 0.1425565E-02  (-0.2173766E-03)
 number of electron     503.9998362 magnetization 
 augmentation part      197.0149599 magnetization 

 DIPCOR: dipole corrections for dipol
 direction  3 min pos     1,
 dipolmoment           0.000000      0.000000     -0.037904 electrons x Angstroem
 Tr[quadrupol]    -10330.941783

 energy correction for charged system         0.000000 eV
 dipol+quadrupol energy correction           -0.000051 eV
[...]
    275       1.6936      0.00000
    276       1.8422      0.00000
    277       2.1795      0.00000
    278       2.2556      0.00000
    279       2.3343      0.00000
    280       2.3945      0.00000
    281       2.4761      0.00000
    282       2.5908      0.00000
    283       2.6968      0.00000
    284       2.9525      0.00000
    285       3.1202      0.00000
    286       3.2387      0.00000
    287       3.5010      0.00000
    288       3.5936      0.00000
    289       3.7941      0.00000
    290       4.0176      0.00000
    291       4.0925      0.00000
    292       4.1976      0.00000
    293       4.4326      0.00000
    294       4.5296      0.00000
    295       4.5575      0.00000
    296       4.6182      0.00000
    297       4.6418      0.00000
    298       4.7897      0.00000
    299       4.8216      0.00000
    300       4.9035      0.00000
    301       4.9753      0.00000
    302       5.0264      0.00000
    303       5.0600      0.00000
    304       5.1016      0.00000
    305       5.2082      0.00000
    306       5.2372      0.00000


--------------------------------------------------------------------------------------------------------


 soft charge-density along one line, spin component           1
         0         1         2         3         4         5         6         7         8         9
 total charge-density along one line
 
 pseudopotential strength for first ion, spin component:           1
 -8.026  -0.005   0.002   0.001  -0.000  -8.173  -0.005   0.002
 -0.005  -7.954  -0.000  -0.001  -0.005  -0.005  -8.103  -0.000
  0.002  -0.000  -7.948  -0.000  -0.002   0.002  -0.000  -8.097
  0.001  -0.001  -0.000  -7.952  -0.005   0.001  -0.001  -0.000
 -0.000  -0.005  -0.002  -0.005  -8.025  -0.000  -0.005  -0.002
 -8.173  -0.005   0.002   0.001  -0.000  -8.304  -0.005   0.002
 -0.005  -8.103  -0.000  -0.001  -0.005  -0.005  -8.235  -0.000
  0.002  -0.000  -8.097  -0.000  -0.002   0.002  -0.000  -8.230
  0.001  -0.001  -0.000  -8.100  -0.005   0.001  -0.001  -0.000
 -0.000  -0.005  -0.002  -0.005  -8.173  -0.000  -0.005  -0.002
  0.001  -0.002  -0.024   0.002  -0.001   0.001  -0.002  -0.024
  0.001  -0.002  -0.035   0.003  -0.002   0.001  -0.002  -0.035
  0.003   0.006   0.002  -0.000   0.003   0.003   0.005   0.002
 -0.000  -0.003   0.008   0.003  -0.000  -0.000  -0.003   0.008
 -0.003  -0.000  -0.002   0.006   0.003  -0.003  -0.000  -0.002
  0.004   0.006   0.002  -0.000   0.004   0.004   0.006   0.002
 -0.000  -0.004   0.009   0.003  -0.000  -0.000  -0.004   0.009
 -0.004  -0.000  -0.003   0.006   0.004  -0.004  -0.000  -0.003
 total augmentation occupancy for first ion, spin component:           1
  4.538  -0.029  -0.047   0.053  -0.117  -2.704   0.004   0.058  -0.058   0.113  -0.082   0.063  -0.026   0.003   0.032   0.005
 -0.029   3.998   0.026   0.059   0.026   0.004  -1.756  -0.041  -0.051  -0.070   0.047   0.007   0.152   0.004  -0.006  -0.002
 -0.047   0.026   4.401   0.093   0.081   0.057  -0.041  -2.295  -0.065  -0.086   1.043  -0.157  -0.009   0.215   0.032   0.002
  0.053   0.059   0.093   4.055  -0.015  -0.058  -0.051  -0.065  -1.802  -0.009  -0.092   0.034  -0.009   0.023   0.168  -0.000
 -0.117   0.026   0.081  -0.015   4.409   0.113  -0.071  -0.086  -0.009  -2.571   0.071  -0.025   0.018   0.008  -0.023   0.003
 -2.704   0.004   0.057  -0.058   0.113   2.758   0.016  -0.065   0.062  -0.109   0.076  -0.058   0.018   0.000  -0.026  -0.002
  0.004  -1.756  -0.041  -0.051  -0.071   0.016   1.485   0.053   0.044   0.104  -0.044  -0.005  -0.144  -0.002   0.008   0.005
  0.058  -0.041  -2.295  -0.065  -0.086  -0.065   0.053   2.134   0.042   0.088  -0.976   0.177   0.006  -0.222  -0.023  -0.001
 -0.058  -0.051  -0.065  -1.802  -0.009   0.062   0.044   0.042   1.521   0.029   0.080  -0.030   0.010  -0.019  -0.159   0.000
  0.113  -0.070  -0.086  -0.009  -2.571  -0.109   0.104   0.088   0.029   2.622  -0.064   0.025  -0.019  -0.008   0.016  -0.000
 -0.082   0.047   1.043  -0.092   0.071   0.076  -0.044  -0.976   0.080  -0.064   2.441  -0.527  -0.003  -0.120   0.008   0.000
  0.063   0.007  -0.157   0.034  -0.025  -0.058  -0.005   0.177  -0.030   0.025  -0.527   0.157   0.012   0.051  -0.016  -0.000
 -0.026   0.152  -0.009  -0.009   0.018   0.018  -0.144   0.006   0.010  -0.019  -0.003   0.012   0.192  -0.003   0.001  -0.006
  0.003   0.004   0.215   0.023   0.008   0.000  -0.002  -0.222  -0.019  -0.008  -0.120   0.051  -0.003   0.088   0.003   0.000
  0.032  -0.006   0.032   0.168  -0.023  -0.026   0.008  -0.023  -0.159   0.016   0.008  -0.016   0.001   0.003   0.185  -0.000
  0.005  -0.002   0.002  -0.000   0.003  -0.002   0.005  -0.001   0.000  -0.000   0.000  -0.000  -0.006   0.000  -0.000   0.000
 -0.000  -0.004   0.003   0.002  -0.000   0.000   0.001   0.005   0.000   0.000   0.008  -0.002   0.000  -0.003  -0.000  -0.000
 -0.005  -0.000  -0.004  -0.002   0.005   0.002   0.000   0.002   0.006  -0.002  -0.000   0.001  -0.000  -0.000  -0.006   0.000


------------------------ aborting loop because EDIFF is reached ----------------------------------------


    CHARGE:  cpu time    0.2097: real time    0.2105
    FORLOC:  cpu time    0.0158: real time    0.0159
    FORNL :  cpu time    1.3082: real time    1.3123
    FORCOR:  cpu time    0.0554: real time    0.0566
    FORHAR:  cpu time    0.0240: real time    0.0241
    MIXING:  cpu time    0.0030: real time    0.0030
    OFIELD:  cpu time    0.0000: real time    0.0000

 VOLUME and BASIS-vectors are now :
 -----------------------------------------------------------------------------
  energy-cutoff  :      400.00
  volume of cell :     2567.68
      direct lattice vectors                 reciprocal lattice vectors
    11.002581515  0.000000000  0.000000000     0.090887761 -0.052474073  0.000000000
     5.501290758  9.528515099  0.000000000     0.000000000  0.104948147  0.000000000
     0.000000000  0.000000000 24.491785094     0.000000000  0.000000000  0.040830017

  length of vectors
    11.002581515 11.002581515 24.491785094     0.104948147  0.104948147  0.040830017


 FORCES acting on ions
    electron-ion (+dipol)            ewald-force                    non-local-force                 convergence-correction
 -----------------------------------------------------------------------------------------------
   0.196E+02 -.173E+02 -.226E+04   -.202E+02 0.179E+02 0.226E+04   0.659E+00 -.553E+00 0.341E+00   0.246E-02 -.135E-02 -.333E-03
   -.190E+01 -.134E+00 -.223E+04   0.191E+01 0.181E+00 0.223E+04   -.126E-01 -.422E-01 0.641E+00   0.102E-02 0.549E-03 -.102E-02
   -.117E+02 0.499E+01 -.226E+04   0.120E+02 -.513E+01 0.226E+04   -.267E+00 0.138E+00 -.202E+00   -.904E-03 -.158E-02 -.136E-02
   -.101E+02 0.390E+01 0.143E+02   0.908E+01 -.324E+01 -.136E+02   0.100E+01 -.665E+00 -.655E+00   -.166E-02 -.220E-02 0.102E-02
   0.122E+02 -.157E+02 0.232E+04   -.122E+02 0.155E+02 -.232E+04   0.110E-01 0.156E+00 0.319E+00   -.102E-02 -.269E-02 0.122E-02
   -.896E+00 -.975E+01 0.676E+02   0.673E+00 0.916E+01 -.671E+02   0.227E+00 0.588E+00 -.491E+00   -.267E-02 -.230E-02 0.170E-02
   0.183E+02 -.736E+01 -.225E+04   -.189E+02 0.694E+01 0.225E+04   0.547E+00 0.418E+00 0.214E+00   -.774E-03 -.131E-02 0.549E-05
   -.374E+01 -.333E+00 0.374E+01   0.405E+01 0.223E+00 -.427E+01   -.315E+00 0.109E+00 0.529E+00   -.160E-02 -.179E-03 0.149E-02
   -.114E+02 -.601E+01 -.223E+04   0.119E+02 0.592E+01 0.223E+04   -.518E+00 0.834E-01 0.525E+00   0.155E-02 0.471E-03 -.336E-02
   -.141E+02 -.259E+02 0.231E+04   0.146E+02 0.266E+02 -.231E+04   -.533E+00 -.688E+00 -.187E+00   0.189E-02 -.167E-02 0.963E-03
   0.436E+01 0.318E+00 0.226E+02   -.425E+01 0.154E+00 -.227E+02   -.106E+00 -.475E+00 0.996E-01   -.412E-03 -.149E-02 0.203E-02
   0.135E+01 0.159E+02 -.228E+04   -.159E+01 -.160E+02 0.228E+04   0.245E+00 0.139E+00 -.136E+00   -.893E-03 0.490E-04 -.300E-03
   0.117E+02 -.138E+02 -.222E+04   -.121E+02 0.149E+02 0.222E+04   0.430E+00 -.105E+01 0.622E+00   0.298E-02 -.385E-03 -.114E-02
   -.190E+01 -.168E+02 0.223E+04   0.198E+01 0.180E+02 -.223E+04   -.814E-01 -.119E+01 -.138E+00   -.383E-02 -.124E-02 0.938E-03
   0.152E+02 0.481E+01 0.225E+04   -.162E+02 -.544E+01 -.225E+04   0.107E+01 0.630E+00 -.313E+00   -.652E-03 0.935E-03 0.170E-02
   0.128E+02 -.633E+00 0.289E+02   -.120E+02 0.607E+00 -.290E+02   -.821E+00 0.290E-01 0.539E-01   0.117E-02 0.727E-03 -.114E-02
   0.546E+01 0.165E+02 0.234E+04   -.556E+01 -.167E+02 -.234E+04   0.103E+00 0.227E+00 0.255E-01   -.756E-03 -.127E-03 0.198E-02
   -.175E+02 0.794E+00 -.222E+04   0.180E+02 -.800E+00 0.222E+04   -.529E+00 0.280E-02 0.735E+00   -.336E-04 0.210E-02 -.245E-02
   0.154E+02 0.180E+02 0.226E+04   -.151E+02 -.186E+02 -.226E+04   -.300E+00 0.571E+00 -.385E+00   0.116E-03 -.824E-04 0.300E-02
   -.130E+02 0.247E+02 -.229E+04   0.135E+02 -.254E+02 0.229E+04   -.503E+00 0.667E+00 -.473E-01   -.858E-03 0.223E-02 -.142E-03
   0.137E+02 0.878E+00 0.219E+04   -.141E+02 -.787E+00 -.219E+04   0.424E+00 -.897E-01 -.701E+00   0.441E-02 0.616E-03 0.186E-02
   0.151E+01 -.779E+01 -.224E+04   -.154E+01 0.739E+01 0.224E+04   0.249E-01 0.390E+00 0.158E+00   -.417E-03 0.112E-03 -.131E-02
   -.315E+02 0.148E+02 0.229E+04   0.321E+02 -.149E+02 -.229E+04   -.610E+00 0.127E+00 -.362E+00   -.184E-02 0.262E-02 0.862E-03
   0.385E+01 -.625E+00 0.555E+02   -.382E+01 0.432E+00 -.549E+02   -.310E-01 0.195E+00 -.566E+00   -.299E-02 -.453E-03 0.935E-03
   -.394E+01 -.414E+01 -.197E+02   0.346E+01 0.363E+01 0.187E+02   0.471E+00 0.513E+00 0.965E+00   0.294E-02 -.146E-02 0.192E-02
   -.150E+02 0.223E+02 -.192E+04   0.154E+02 -.228E+02 0.192E+04   -.376E+00 0.438E+00 0.141E+01   -.292E-02 -.515E-03 -.280E-02
   0.318E+01 0.430E+01 0.526E+01   -.350E+01 -.417E+01 -.522E+01   0.325E+00 -.133E+00 -.452E-01   0.732E-03 0.173E-02 0.215E-02
   0.159E+01 -.590E+00 -.377E+02   -.174E+01 0.965E+00 0.368E+02   0.151E+00 -.378E+00 0.860E+00   0.203E-02 0.185E-02 0.225E-02
   0.834E+00 -.130E+02 0.197E+04   -.695E+00 0.128E+02 -.197E+04   -.147E+00 0.272E+00 -.172E+01   0.257E-02 -.270E-03 0.785E-03
   -.211E+01 0.233E+01 -.497E+02   0.227E+01 -.226E+01 0.489E+02   -.154E+00 -.630E-01 0.812E+00   0.315E-02 0.821E-03 0.383E-02
   0.279E+02 0.126E+02 0.197E+04   -.282E+02 -.124E+02 -.197E+04   0.268E+00 -.171E+00 -.164E+01   0.140E-02 -.692E-03 0.337E-02
   -.127E+02 -.327E+01 0.199E+04   0.131E+02 0.346E+01 -.199E+04   -.409E+00 -.193E+00 -.172E+01   -.162E-03 0.170E-02 0.301E-03
   -.267E+01 -.273E+02 0.194E+04   0.274E+01 0.274E+02 -.194E+04   -.764E-01 -.181E+00 -.172E+01   0.129E-02 -.342E-03 0.144E-02
   0.144E+01 0.517E+01 0.605E+01   -.109E+01 -.499E+01 -.640E+01   -.349E+00 -.189E+00 0.355E+00   0.144E-02 0.167E-02 -.547E-04
   -.588E+01 0.131E+02 0.193E+04   0.580E+01 -.129E+02 -.193E+04   0.895E-01 -.189E+00 -.193E+01   0.714E-03 0.248E-02 0.148E-02
   -.157E+02 0.408E+01 0.194E+04   0.158E+02 -.414E+01 -.194E+04   -.270E-01 0.592E-01 -.179E+01   -.860E-03 -.113E-03 0.164E-02
   0.135E+02 0.213E+00 -.196E+04   -.140E+02 -.634E-01 0.196E+04   0.464E+00 -.149E+00 0.178E+01   0.269E-03 0.555E-03 0.315E-03
   -.637E+01 -.672E+00 -.586E+00   0.603E+01 0.147E+00 0.141E+00   0.343E+00 0.525E+00 0.452E+00   -.202E-02 -.485E-03 0.100E-03
   -.772E+01 0.370E+01 0.242E+02   0.756E+01 -.339E+01 -.242E+02   0.169E+00 -.319E+00 0.318E-03   0.391E-03 0.302E-03 -.387E-03
   0.146E+02 -.191E+02 -.194E+04   -.146E+02 0.198E+02 0.194E+04   0.844E-01 -.700E+00 0.151E+01   -.207E-02 -.174E-02 -.127E-02
   0.325E+01 -.135E+01 0.126E+03   -.302E+01 0.137E+01 -.125E+03   -.230E+00 -.192E-01 -.138E+01   -.130E-02 -.715E-03 -.402E-03
   -.117E+02 0.167E+02 0.199E+04   0.117E+02 -.172E+02 -.199E+04   -.295E-01 0.536E+00 -.159E+01   -.259E-02 -.114E-02 0.872E-03
   -.450E+01 0.476E+01 -.195E+04   0.482E+01 -.498E+01 0.195E+04   -.317E+00 0.232E+00 0.154E+01   0.164E-02 0.101E-02 -.885E-03
   0.208E+01 -.819E+01 0.956E+01   -.202E+01 0.769E+01 -.100E+02   -.605E-01 0.493E+00 0.488E+00   0.368E-03 0.256E-02 -.436E-03
   0.464E+01 0.192E+01 0.197E+04   -.487E+01 -.185E+01 -.197E+04   0.228E+00 -.686E-01 -.185E+01   -.896E-03 -.325E-03 0.188E-02
   0.149E+02 0.612E+01 -.192E+04   -.150E+02 -.627E+01 0.192E+04   0.146E+00 0.148E+00 0.159E+01   0.656E-03 0.449E-03 -.606E-03
   0.270E+01 0.532E+01 -.434E+02   -.234E+01 -.501E+01 0.425E+02   -.364E+00 -.311E+00 0.927E+00   0.390E-03 -.107E-04 0.307E-02
   -.201E+02 -.819E+01 -.195E+04   0.203E+02 0.828E+01 0.195E+04   -.191E+00 -.843E-01 0.152E+01   -.169E-02 -.294E-03 -.324E-02
 -----------------------------------------------------------------------------------------------
   -.143E+00 0.179E+00 0.101E+01   0.629E-12 0.661E-12 0.227E-11   0.124E+00 -.216E+00 -.109E+01   -.229E-03 0.373E-03 0.225E-01
 
 
 POSITION                                       TOTAL-FORCE (eV/Angst)
 -----------------------------------------------------------------------------------
      6.84864      7.17136     14.78670         0.002327     -0.001610      0.001658
      8.25296      4.75622     14.77260        -0.004681      0.005885      0.001126
      5.51952     -0.00492     14.78686         0.001553      0.003371     -0.011905
      5.47645      1.60116     12.24829        -0.005132      0.001943     -0.000789
      6.87030      0.80153      9.59873        -0.001769      0.002075      0.001718
     12.36348      8.72504     12.18815         0.002043     -0.001331     -0.006269
      5.47578      4.76632     14.78230         0.004913      0.001360     -0.004242
      5.51780      6.35612     12.24764         0.000879     -0.000073      0.003435
      9.64454      7.15437     14.74812        -0.004302     -0.006893      0.004524
      9.64935      0.82034      9.62176        -0.000074      0.006053      0.001836
      8.25462      1.60355     12.23079         0.006479     -0.004221     -0.006242
      6.87239      2.36527     14.83695        -0.000619      0.001539      0.004995
      2.73289      0.03095     14.71724        -0.005274      0.000597     -0.001844
      5.50216      3.20782      9.76852        -0.001291     -0.002850     -0.000623
      4.09727      0.77679      9.74555        -0.002552      0.001073      0.001611
     11.01304      1.58798     12.22084        -0.001769      0.004395     -0.002561
     13.75579      7.92951      9.57130        -0.004242     -0.007839      0.001477
     11.02568      4.75928     14.73198        -0.000856     -0.000752      0.003132
     12.37357      5.53566      9.73308         0.002771      0.002805     -0.006612
      9.65106      2.34405     14.82629         0.003049     -0.001981     -0.004272
      9.60459      5.55669      9.85763        -0.005757      0.002762     -0.000106
      2.75206      4.76292     14.73060        -0.001832     -0.003118      0.007819
      5.54045      7.93020      9.68693        -0.001267     -0.003521     -0.000269
     13.74549      6.34508     12.19625        -0.003710      0.002785     -0.003291
      9.61171      8.72164     12.27923        -0.002375      0.003652     -0.002886
      8.26381     -0.01384     14.54722         0.004832     -0.002679     -0.005751
     10.98319      6.33852     12.25660        -0.001200     -0.003684      0.003345
      9.62900      3.98613     12.30122         0.005908     -0.000473     -0.002544
     11.00587      3.16978      9.89211        -0.005107     -0.004354      0.001121
      8.26368      6.35218     12.32068         0.005670      0.002681     -0.001768
     10.99286      7.93815      9.86071        -0.000244     -0.001236      0.004559
      1.38377      0.80467      9.86117         0.003089      0.000226      0.002666
      8.25529      3.18286      9.91625         0.000222     -0.003395     -0.003128
      6.89566      8.72845     12.24843         0.002896     -0.000871      0.000321
      8.25100      7.94399      9.94955         0.006341     -0.002582      0.006854
      6.88271      5.55568      9.93963         0.004052     -0.000632     -0.004145
      4.11414      2.38177     14.63012        -0.002812      0.001576      0.000632
      4.11416      3.96067     12.25417         0.008099     -0.000269      0.007787
      2.74934      1.58146     12.22701         0.001256     -0.007868      0.000272
      4.11285      7.18395     14.56139        -0.000334      0.004159     -0.002603
     15.14072      8.73729     12.10687         0.001937     -0.001392      0.000117
      4.13084      5.54695      9.84478        -0.003742      0.006085      0.004956
      1.38137      2.37135     14.58890        -0.002972      0.008877     -0.001392
     12.37883      3.97213     12.24225        -0.000917     -0.000599      0.001587
      2.74390      3.17560      9.89105         0.001734     -0.003133      0.000304
     -0.01823     -0.00631     14.54634        -0.002129      0.001333      0.003841
      6.88132      3.97807     12.30890        -0.006569     -0.000240      0.000896
     12.39756      7.15293     14.59317         0.003479      0.002365      0.000653
 -----------------------------------------------------------------------------------
    total drift:                               -0.019142     -0.036507     -0.053737


--------------------------------------------------------------------------------------------------------



  FREE ENERGIE OF THE ION-ELECTRON SYSTEM (eV)
  ---------------------------------------------------
  free  energy   TOTEN  =      -192.97408204 eV

  energy  without entropy=     -192.72209831  energy(sigma->0) =     -192.84809018
 
 d Force = 0.3155659E-03[ 0.287E-04, 0.602E-03]  d Energy = 0.3406107E-03-0.250E-04
 d Force = 0.1018268E+02[ 0.102E+02, 0.102E+02]  d Ewald  = 0.1018268E+02 0.128E-05


--------------------------------------------------------------------------------------------------------


    POTLOK:  cpu time    0.0467: real time    0.0470


--------------------------------------------------------------------------------------------------------


 stress matrix after NEB project (eV)
      0.00000      0.00000      0.00000
      0.00000      0.00000      0.00000
      0.00000      0.00000      0.00000
  FORCES: max atom, RMS     0.012470    0.006433
  FORCE total and by dimension    0.044569    0.011905
  Stress total and by dimension    0.000000    0.000000
 Conjugate gradient step on ions:
 trial-energy change:   -0.000341  1 .order   -0.000316   -0.000602   -0.000029
  (g-gl).g = 0.177E-03      g.g   = 0.166E-03  gl.gl    = 0.391E-03
 g(Force)  = 0.166E-03   g(Stress)= 0.000E+00 ortho     = 0.120E-04
 gamma     =   0.45312
 trial     =   3.50728
 opt step  =   3.64518  (harmonic =   3.68271) maximal distance =0.00345494
 next E    =  -192.974083   (d E  =  -0.00034)


--------------------------------------------------------------------------------------------------------


  
 reached required accuracy - stopping structural energy minimisation
     LOOP+:  cpu time   64.2490: real time   64.6190
    4ORBIT:  cpu time    0.0000: real time    0.0000

 total amount of memory used by VASP on root node    84353. kBytes
========================================================================

   base      :      30000. kBytes
   nonlr-proj:       4285. kBytes
   fftplans  :       4447. kBytes
   grid      :       6721. kBytes
   one-center:        124. kBytes
   wavefun   :      38776. kBytes
 
  
  
 General timing and accounting informations for this job:
 ========================================================
  
                  Total CPU time used (sec):     1820.676
                            User time (sec):     1738.194
                          System time (sec):       82.481
                         Elapsed time (sec):     1831.913
  
                   Maximum memory used (kb):      930788.
                   Average memory used (kb):           0.
  
                          Minor page faults:       728936
                          Major page faults:            2
                 Voluntary context switches:        11353
