  48  48   0   0
  0.5349325E+02  0.1100258E-08  0.1100258E-08  0.2449179E-08  0.3500000E-15
  1.000000000000000E-004
  CAR 
 unknown system                          
      6.33952371     -9.97457580  301     -1.09736471      1.00000000
     -9.975  0.0000E+00  0.0000E+00
     -9.920  0.0000E+00  0.0000E+00
     -9.866  0.0000E+00  0.0000E+00
     -9.811  0.0000E+00  0.0000E+00
     -9.757  0.0000E+00  0.0000E+00
     -9.703  0.0000E+00  0.0000E+00
     -9.648  0.0000E+00  0.0000E+00
     -9.594  0.0000E+00  0.0000E+00
     -9.540  0.9527E-17  0.5181E-18
     -9.485  0.3757E-14  0.2048E-15
     -9.431  0.8358E-12  0.4566E-13
     -9.376  0.1050E-09  0.5755E-11
     -9.322  0.7466E-08  0.4118E-09
     -9.268  0.3016E-06  0.1681E-07
     -9.213  0.6945E-05  0.3945E-06
     -9.159  0.9145E-04  0.5368E-05
     -9.104  0.6908E-03  0.4294E-04
     -9.050  0.3005E-02  0.2064E-03
     -8.996  0.7587E-02  0.6190E-03
     -8.941  0.1146E-01  0.1242E-02
     -8.887  0.1171E-01  0.1879E-02
     -8.833  0.1107E-01  0.2481E-02
     -8.778  0.1126E-01  0.3093E-02
     -8.724  0.9328E-02  0.3600E-02
     -8.669  0.5142E-02  0.3880E-02
     -8.615  0.1780E-02  0.3977E-02
     -8.561  0.3989E-03  0.3998E-02
     -8.506  0.2290E-03  0.4011E-02
     -8.452  0.8688E-03  0.4058E-02
     -8.398  0.2385E-02  0.4188E-02
     -8.343  0.4014E-02  0.4406E-02
     -8.289  0.5082E-02  0.4682E-02
     -8.234  0.6767E-02  0.5050E-02
     -8.180  0.9147E-02  0.5548E-02
     -8.126  0.1069E-01  0.6129E-02
     -8.071  0.1188E-01  0.6775E-02
     -8.017  0.1348E-01  0.7508E-02
     -7.963  0.1471E-01  0.8307E-02
     -7.908  0.1419E-01  0.9079E-02
     -7.854  0.1216E-01  0.9740E-02
     -7.799  0.1081E-01  0.1033E-01
     -7.745  0.1092E-01  0.1092E-01
     -7.691  0.1141E-01  0.1154E-01
     -7.636  0.1185E-01  0.1219E-01
     -7.582  0.1309E-01  0.1290E-01
     -7.527  0.1633E-01  0.1379E-01
     -7.473  0.2218E-01  0.1499E-01
     -7.419  0.2870E-01  0.1655E-01
     -7.364  0.3224E-01  0.1831E-01
     -7.310  0.3376E-01  0.2014E-01
     -7.256  0.3798E-01  0.2221E-01
     -7.201  0.4583E-01  0.2470E-01
     -7.147  0.5357E-01  0.2761E-01
     -7.092  0.5712E-01  0.3072E-01
     -7.038  0.5541E-01  0.3373E-01
     -6.984  0.5314E-01  0.3662E-01
     -6.929  0.5315E-01  0.3951E-01
     -6.875  0.5184E-01  0.4233E-01
     -6.821  0.5276E-01  0.4520E-01
     -6.766  0.6287E-01  0.4862E-01
     -6.712  0.7752E-01  0.5284E-01
     -6.657  0.8838E-01  0.5764E-01
     -6.603  0.9358E-01  0.6273E-01
     -6.549  0.9744E-01  0.6803E-01
     -6.494  0.1080E+00  0.7390E-01
     -6.440  0.1244E+00  0.8067E-01
     -6.385  0.1354E+00  0.8803E-01
     -6.331  0.1375E+00  0.9551E-01
     -6.277  0.1381E+00  0.1030E+00
     -6.222  0.1421E+00  0.1108E+00
     -6.168  0.1479E+00  0.1188E+00
     -6.114  0.1519E+00  0.1271E+00
     -6.059  0.1543E+00  0.1354E+00
     -6.005  0.1560E+00  0.1439E+00
     -5.950  0.1561E+00  0.1524E+00
     -5.896  0.1526E+00  0.1607E+00
     -5.842  0.1443E+00  0.1686E+00
     -5.787  0.1354E+00  0.1759E+00
     -5.733  0.1314E+00  0.1831E+00
     -5.679  0.1316E+00  0.1902E+00
     -5.624  0.1333E+00  0.1975E+00
     -5.570  0.1353E+00  0.2048E+00
     -5.515  0.1368E+00  0.2123E+00
     -5.461  0.1386E+00  0.2198E+00
     -5.407  0.1427E+00  0.2276E+00
     -5.352  0.1486E+00  0.2357E+00
     -5.298  0.1543E+00  0.2440E+00
     -5.243  0.1588E+00  0.2527E+00
     -5.189  0.1636E+00  0.2616E+00
     -5.135  0.1708E+00  0.2709E+00
     -5.080  0.1809E+00  0.2807E+00
     -5.026  0.1884E+00  0.2909E+00
     -4.972  0.1875E+00  0.3011E+00
     -4.917  0.1792E+00  0.3109E+00
     -4.863  0.1701E+00  0.3201E+00
     -4.808  0.1638E+00  0.3290E+00
     -4.754  0.1596E+00  0.3377E+00
     -4.700  0.1574E+00  0.3463E+00
     -4.645  0.1560E+00  0.3548E+00
     -4.591  0.1540E+00  0.3631E+00
     -4.537  0.1551E+00  0.3716E+00
     -4.482  0.1625E+00  0.3804E+00
     -4.428  0.1725E+00  0.3898E+00
     -4.373  0.1766E+00  0.3994E+00
     -4.319  0.1736E+00  0.4088E+00
     -4.265  0.1707E+00  0.4181E+00
     -4.210  0.1697E+00  0.4273E+00
     -4.156  0.1676E+00  0.4365E+00
     -4.101  0.1660E+00  0.4455E+00
     -4.047  0.1669E+00  0.4546E+00
     -3.993  0.1697E+00  0.4638E+00
     -3.938  0.1746E+00  0.4733E+00
     -3.884  0.1799E+00  0.4831E+00
     -3.830  0.1810E+00  0.4929E+00
     -3.775  0.1797E+00  0.5027E+00
     -3.721  0.1815E+00  0.5125E+00
     -3.666  0.1865E+00  0.5227E+00
     -3.612  0.1915E+00  0.5331E+00
     -3.558  0.1965E+00  0.5438E+00
     -3.503  0.2018E+00  0.5548E+00
     -3.449  0.2029E+00  0.5658E+00
     -3.395  0.1962E+00  0.5765E+00
     -3.340  0.1884E+00  0.5867E+00
     -3.286  0.1873E+00  0.5969E+00
     -3.231  0.1911E+00  0.6073E+00
     -3.177  0.1921E+00  0.6177E+00
     -3.123  0.1875E+00  0.6279E+00
     -3.068  0.1819E+00  0.6378E+00
     -3.014  0.1798E+00  0.6476E+00
     -2.960  0.1787E+00  0.6573E+00
     -2.905  0.1752E+00  0.6668E+00
     -2.851  0.1721E+00  0.6762E+00
     -2.796  0.1753E+00  0.6857E+00
     -2.742  0.1868E+00  0.6959E+00
     -2.688  0.2025E+00  0.7069E+00
     -2.633  0.2147E+00  0.7186E+00
     -2.579  0.2168E+00  0.7304E+00
     -2.524  0.2099E+00  0.7418E+00
     -2.470  0.2002E+00  0.7527E+00
     -2.416  0.1938E+00  0.7632E+00
     -2.361  0.1927E+00  0.7737E+00
     -2.307  0.1920E+00  0.7841E+00
     -2.253  0.1869E+00  0.7943E+00
     -2.198  0.1823E+00  0.8042E+00
     -2.144  0.1840E+00  0.8142E+00
     -2.089  0.1898E+00  0.8245E+00
     -2.035  0.1938E+00  0.8351E+00
     -1.981  0.1942E+00  0.8456E+00
     -1.926  0.1934E+00  0.8561E+00
     -1.872  0.1944E+00  0.8667E+00
     -1.818  0.1949E+00  0.8773E+00
     -1.763  0.1931E+00  0.8878E+00
     -1.709  0.1924E+00  0.8983E+00
     -1.654  0.1949E+00  0.9089E+00
     -1.600  0.1998E+00  0.9197E+00
     -1.546  0.2067E+00  0.9310E+00
     -1.491  0.2103E+00  0.9424E+00
     -1.437  0.2048E+00  0.9535E+00
     -1.382  0.1945E+00  0.9641E+00
     -1.328  0.1878E+00  0.9743E+00
     -1.274  0.1832E+00  0.9843E+00
     -1.219  0.1691E+00  0.9935E+00
     -1.165  0.1394E+00  0.1001E+01
     -1.111  0.1058E+00  0.1007E+01
     -1.056  0.8079E-01  0.1011E+01
     -1.002  0.6063E-01  0.1015E+01
     -0.947  0.4009E-01  0.1017E+01
     -0.893  0.2488E-01  0.1018E+01
     -0.839  0.2023E-01  0.1019E+01
     -0.784  0.2124E-01  0.1020E+01
     -0.730  0.2156E-01  0.1021E+01
     -0.676  0.2338E-01  0.1023E+01
     -0.621  0.3079E-01  0.1024E+01
     -0.567  0.4042E-01  0.1027E+01
     -0.512  0.4534E-01  0.1029E+01
     -0.458  0.4324E-01  0.1031E+01
     -0.404  0.3756E-01  0.1033E+01
     -0.349  0.3441E-01  0.1035E+01
     -0.295  0.3719E-01  0.1037E+01
     -0.240  0.4126E-01  0.1040E+01
     -0.186  0.3965E-01  0.1042E+01
     -0.132  0.3259E-01  0.1044E+01
     -0.077  0.2566E-01  0.1045E+01
     -0.023  0.2168E-01  0.1046E+01
      0.031  0.1946E-01  0.1047E+01
      0.086  0.1937E-01  0.1048E+01
      0.140  0.2296E-01  0.1049E+01
      0.195  0.2819E-01  0.1051E+01
      0.249  0.3248E-01  0.1053E+01
      0.303  0.3555E-01  0.1055E+01
      0.358  0.3655E-01  0.1057E+01
      0.412  0.3786E-01  0.1059E+01
      0.466  0.4366E-01  0.1061E+01
      0.521  0.5056E-01  0.1064E+01
      0.575  0.5199E-01  0.1067E+01
      0.630  0.4867E-01  0.1069E+01
      0.684  0.4436E-01  0.1072E+01
      0.738  0.3951E-01  0.1074E+01
      0.793  0.3510E-01  0.1076E+01
      0.847  0.3122E-01  0.1078E+01
      0.901  0.2763E-01  0.1079E+01
      0.956  0.2609E-01  0.1080E+01
      1.010  0.2607E-01  0.1082E+01
      1.065  0.2559E-01  0.1083E+01
      1.119  0.2357E-01  0.1085E+01
      1.173  0.1920E-01  0.1086E+01
      1.228  0.1253E-01  0.1086E+01
      1.282  0.6474E-02  0.1087E+01
      1.337  0.4952E-02  0.1087E+01
      1.391  0.8391E-02  0.1087E+01
      1.445  0.1423E-01  0.1088E+01
      1.500  0.2177E-01  0.1089E+01
      1.554  0.3097E-01  0.1091E+01
      1.608  0.3668E-01  0.1093E+01
      1.663  0.3523E-01  0.1095E+01
      1.717  0.3123E-01  0.1097E+01
      1.772  0.3052E-01  0.1098E+01
      1.826  0.3200E-01  0.1100E+01
      1.880  0.3036E-01  0.1102E+01
      1.935  0.2716E-01  0.1103E+01
      1.989  0.2838E-01  0.1105E+01
      2.043  0.3312E-01  0.1106E+01
      2.098  0.3666E-01  0.1108E+01
      2.152  0.3840E-01  0.1111E+01
      2.207  0.3894E-01  0.1113E+01
      2.261  0.3856E-01  0.1115E+01
      2.315  0.3937E-01  0.1117E+01
      2.370  0.4109E-01  0.1119E+01
      2.424  0.3966E-01  0.1121E+01
      2.479  0.3458E-01  0.1123E+01
      2.533  0.3292E-01  0.1125E+01
      2.587  0.4098E-01  0.1127E+01
      2.642  0.5254E-01  0.1130E+01
      2.696  0.5463E-01  0.1133E+01
      2.750  0.4409E-01  0.1135E+01
      2.805  0.2851E-01  0.1137E+01
      2.859  0.1640E-01  0.1138E+01
      2.914  0.1200E-01  0.1139E+01
      2.968  0.1197E-01  0.1139E+01
      3.022  0.9764E-02  0.1140E+01
      3.077  0.6473E-02  0.1140E+01
      3.131  0.8144E-02  0.1140E+01
      3.185  0.1565E-01  0.1141E+01
      3.240  0.2326E-01  0.1143E+01
      3.294  0.2498E-01  0.1144E+01
      3.349  0.2029E-01  0.1145E+01
      3.403  0.1464E-01  0.1146E+01
      3.457  0.1544E-01  0.1147E+01
      3.512  0.2455E-01  0.1148E+01
      3.566  0.3615E-01  0.1150E+01
      3.621  0.4506E-01  0.1152E+01
      3.675  0.4845E-01  0.1155E+01
      3.729  0.4352E-01  0.1157E+01
      3.784  0.3322E-01  0.1159E+01
      3.838  0.2497E-01  0.1161E+01
      3.892  0.2243E-01  0.1162E+01
      3.947  0.2448E-01  0.1163E+01
      4.001  0.2800E-01  0.1165E+01
      4.056  0.2818E-01  0.1166E+01
      4.110  0.2378E-01  0.1168E+01
      4.164  0.2051E-01  0.1169E+01
      4.219  0.2082E-01  0.1170E+01
      4.273  0.2008E-01  0.1171E+01
      4.327  0.1689E-01  0.1172E+01
      4.382  0.1679E-01  0.1173E+01
      4.436  0.2279E-01  0.1174E+01
      4.491  0.3076E-01  0.1176E+01
      4.545  0.3793E-01  0.1178E+01
      4.599  0.4493E-01  0.1180E+01
      4.654  0.4880E-01  0.1183E+01
      4.708  0.4617E-01  0.1185E+01
      4.762  0.4339E-01  0.1188E+01
      4.817  0.4760E-01  0.1190E+01
      4.871  0.5608E-01  0.1193E+01
      4.926  0.6235E-01  0.1197E+01
      4.980  0.6385E-01  0.1200E+01
      5.034  0.6446E-01  0.1204E+01
      5.089  0.6797E-01  0.1207E+01
      5.143  0.7244E-01  0.1211E+01
      5.198  0.7277E-01  0.1215E+01
      5.252  0.6432E-01  0.1219E+01
      5.306  0.4810E-01  0.1221E+01
      5.361  0.2954E-01  0.1223E+01
      5.415  0.1382E-01  0.1224E+01
      5.469  0.4445E-02  0.1224E+01
      5.524  0.9090E-03  0.1224E+01
      5.578  0.1127E-03  0.1224E+01
      5.633  0.8242E-05  0.1224E+01
      5.687  0.3499E-06  0.1224E+01
      5.741  0.8535E-08  0.1224E+01
      5.796  0.1187E-09  0.1224E+01
      5.850  0.9363E-12  0.1224E+01
      5.904  0.4172E-14  0.1224E+01
      5.959  0.9527E-17  0.1224E+01
      6.013  0.0000E+00  0.1224E+01
      6.068  0.0000E+00  0.1224E+01
      6.122  0.0000E+00  0.1224E+01
      6.176  0.0000E+00  0.1224E+01
      6.231  0.0000E+00  0.1224E+01
      6.285  0.0000E+00  0.1224E+01
      6.340  0.0000E+00  0.1224E+01
