  48  48   0   0
  0.5349325E+02  0.1100258E-08  0.1100258E-08  0.2449179E-08  0.3500000E-15
  1.000000000000000E-004
  CAR 
 unknown system                          
      6.35026314     -9.68084431  301     -1.09812246      1.00000000
     -9.681  0.0000E+00  0.0000E+00
     -9.627  0.0000E+00  0.0000E+00
     -9.574  0.0000E+00  0.0000E+00
     -9.521  0.0000E+00  0.0000E+00
     -9.467  0.0000E+00  0.0000E+00
     -9.414  0.0000E+00  0.0000E+00
     -9.360  0.0000E+00  0.0000E+00
     -9.307  0.0000E+00  0.0000E+00
     -9.253  0.7618E-17  0.4071E-18
     -9.200  0.2792E-14  0.1496E-15
     -9.146  0.6136E-12  0.3294E-13
     -9.093  0.7704E-10  0.4150E-11
     -9.040  0.5536E-08  0.3000E-09
     -8.986  0.2281E-06  0.1249E-07
     -8.933  0.5403E-05  0.3012E-06
     -8.879  0.7372E-04  0.4241E-05
     -8.826  0.5809E-03  0.3528E-04
     -8.772  0.2650E-02  0.1769E-03
     -8.719  0.7019E-02  0.5519E-03
     -8.666  0.1091E-01  0.1135E-02
     -8.612  0.1060E-01  0.1701E-02
     -8.559  0.8752E-02  0.2169E-02
     -8.505  0.9854E-02  0.2696E-02
     -8.452  0.1114E-01  0.3291E-02
     -8.398  0.8357E-02  0.3738E-02
     -8.345  0.3756E-02  0.3938E-02
     -8.291  0.1035E-02  0.3994E-02
     -8.238  0.4966E-03  0.4020E-02
     -8.185  0.1644E-02  0.4108E-02
     -8.131  0.4760E-02  0.4362E-02
     -8.078  0.8710E-02  0.4828E-02
     -8.024  0.1025E-01  0.5375E-02
     -7.971  0.8618E-02  0.5836E-02
     -7.917  0.8271E-02  0.6278E-02
     -7.864  0.1325E-01  0.6986E-02
     -7.811  0.2154E-01  0.8137E-02
     -7.757  0.2721E-01  0.9591E-02
     -7.704  0.2604E-01  0.1098E-01
     -7.650  0.2088E-01  0.1210E-01
     -7.597  0.1848E-01  0.1309E-01
     -7.543  0.1882E-01  0.1409E-01
     -7.490  0.1739E-01  0.1502E-01
     -7.436  0.1329E-01  0.1573E-01
     -7.383  0.9688E-02  0.1625E-01
     -7.330  0.9687E-02  0.1677E-01
     -7.276  0.1402E-01  0.1752E-01
     -7.223  0.2167E-01  0.1867E-01
     -7.169  0.3001E-01  0.2028E-01
     -7.116  0.3620E-01  0.2221E-01
     -7.062  0.4004E-01  0.2435E-01
     -7.009  0.4366E-01  0.2668E-01
     -6.956  0.4792E-01  0.2924E-01
     -6.902  0.5265E-01  0.3206E-01
     -6.849  0.5926E-01  0.3522E-01
     -6.795  0.6935E-01  0.3893E-01
     -6.742  0.8131E-01  0.4328E-01
     -6.688  0.9070E-01  0.4812E-01
     -6.635  0.9507E-01  0.5320E-01
     -6.581  0.9820E-01  0.5845E-01
     -6.528  0.1059E+00  0.6411E-01
     -6.475  0.1170E+00  0.7036E-01
     -6.421  0.1241E+00  0.7699E-01
     -6.368  0.1262E+00  0.8374E-01
     -6.314  0.1288E+00  0.9062E-01
     -6.261  0.1342E+00  0.9779E-01
     -6.207  0.1386E+00  0.1052E+00
     -6.154  0.1409E+00  0.1127E+00
     -6.101  0.1457E+00  0.1205E+00
     -6.047  0.1536E+00  0.1287E+00
     -5.994  0.1595E+00  0.1372E+00
     -5.940  0.1622E+00  0.1459E+00
     -5.887  0.1631E+00  0.1546E+00
     -5.833  0.1625E+00  0.1633E+00
     -5.780  0.1578E+00  0.1717E+00
     -5.727  0.1490E+00  0.1797E+00
     -5.673  0.1414E+00  0.1873E+00
     -5.620  0.1376E+00  0.1946E+00
     -5.566  0.1360E+00  0.2019E+00
     -5.513  0.1346E+00  0.2091E+00
     -5.459  0.1341E+00  0.2162E+00
     -5.406  0.1372E+00  0.2236E+00
     -5.352  0.1424E+00  0.2312E+00
     -5.299  0.1457E+00  0.2390E+00
     -5.246  0.1492E+00  0.2469E+00
     -5.192  0.1584E+00  0.2554E+00
     -5.139  0.1709E+00  0.2645E+00
     -5.085  0.1773E+00  0.2740E+00
     -5.032  0.1748E+00  0.2834E+00
     -4.978  0.1685E+00  0.2924E+00
     -4.925  0.1649E+00  0.3012E+00
     -4.872  0.1683E+00  0.3102E+00
     -4.818  0.1762E+00  0.3196E+00
     -4.765  0.1841E+00  0.3294E+00
     -4.711  0.1873E+00  0.3394E+00
     -4.658  0.1850E+00  0.3493E+00
     -4.604  0.1822E+00  0.3591E+00
     -4.551  0.1828E+00  0.3688E+00
     -4.497  0.1867E+00  0.3788E+00
     -4.444  0.1901E+00  0.3890E+00
     -4.391  0.1891E+00  0.3991E+00
     -4.337  0.1864E+00  0.4090E+00
     -4.284  0.1852E+00  0.4189E+00
     -4.230  0.1820E+00  0.4286E+00
     -4.177  0.1767E+00  0.4381E+00
     -4.123  0.1733E+00  0.4473E+00
     -4.070  0.1713E+00  0.4565E+00
     -4.017  0.1694E+00  0.4656E+00
     -3.963  0.1706E+00  0.4747E+00
     -3.910  0.1757E+00  0.4841E+00
     -3.856  0.1821E+00  0.4938E+00
     -3.803  0.1860E+00  0.5037E+00
     -3.749  0.1873E+00  0.5137E+00
     -3.696  0.1906E+00  0.5239E+00
     -3.642  0.1980E+00  0.5345E+00
     -3.589  0.2061E+00  0.5455E+00
     -3.536  0.2118E+00  0.5568E+00
     -3.482  0.2140E+00  0.5683E+00
     -3.429  0.2135E+00  0.5797E+00
     -3.375  0.2109E+00  0.5910E+00
     -3.322  0.2061E+00  0.6020E+00
     -3.268  0.1990E+00  0.6126E+00
     -3.215  0.1912E+00  0.6228E+00
     -3.162  0.1852E+00  0.6327E+00
     -3.108  0.1807E+00  0.6424E+00
     -3.055  0.1740E+00  0.6517E+00
     -3.001  0.1676E+00  0.6606E+00
     -2.948  0.1691E+00  0.6697E+00
     -2.894  0.1785E+00  0.6792E+00
     -2.841  0.1876E+00  0.6892E+00
     -2.787  0.1909E+00  0.6994E+00
     -2.734  0.1881E+00  0.7095E+00
     -2.681  0.1830E+00  0.7193E+00
     -2.627  0.1793E+00  0.7288E+00
     -2.574  0.1781E+00  0.7384E+00
     -2.520  0.1779E+00  0.7479E+00
     -2.467  0.1783E+00  0.7574E+00
     -2.413  0.1827E+00  0.7671E+00
     -2.360  0.1906E+00  0.7773E+00
     -2.307  0.1952E+00  0.7878E+00
     -2.253  0.1932E+00  0.7981E+00
     -2.200  0.1891E+00  0.8082E+00
     -2.146  0.1900E+00  0.8183E+00
     -2.093  0.1949E+00  0.8288E+00
     -2.039  0.1954E+00  0.8392E+00
     -1.986  0.1910E+00  0.8494E+00
     -1.932  0.1903E+00  0.8596E+00
     -1.879  0.1953E+00  0.8700E+00
     -1.826  0.1994E+00  0.8807E+00
     -1.772  0.1965E+00  0.8912E+00
     -1.719  0.1870E+00  0.9012E+00
     -1.665  0.1792E+00  0.9107E+00
     -1.612  0.1818E+00  0.9205E+00
     -1.558  0.1902E+00  0.9306E+00
     -1.505  0.1923E+00  0.9409E+00
     -1.452  0.1862E+00  0.9509E+00
     -1.398  0.1800E+00  0.9605E+00
     -1.345  0.1782E+00  0.9700E+00
     -1.291  0.1758E+00  0.9794E+00
     -1.238  0.1679E+00  0.9884E+00
     -1.184  0.1557E+00  0.9967E+00
     -1.131  0.1385E+00  0.1004E+01
     -1.077  0.1141E+00  0.1010E+01
     -1.024  0.8424E-01  0.1015E+01
     -0.971  0.5444E-01  0.1018E+01
     -0.917  0.3063E-01  0.1019E+01
     -0.864  0.1746E-01  0.1020E+01
     -0.810  0.1487E-01  0.1021E+01
     -0.757  0.1765E-01  0.1022E+01
     -0.703  0.2051E-01  0.1023E+01
     -0.650  0.2217E-01  0.1024E+01
     -0.597  0.2509E-01  0.1026E+01
     -0.543  0.3267E-01  0.1027E+01
     -0.490  0.4268E-01  0.1030E+01
     -0.436  0.4588E-01  0.1032E+01
     -0.383  0.3833E-01  0.1034E+01
     -0.329  0.2735E-01  0.1036E+01
     -0.276  0.2384E-01  0.1037E+01
     -0.222  0.3227E-01  0.1039E+01
     -0.169  0.4373E-01  0.1041E+01
     -0.116  0.4541E-01  0.1043E+01
     -0.062  0.3735E-01  0.1045E+01
     -0.009  0.2957E-01  0.1047E+01
      0.045  0.2783E-01  0.1048E+01
      0.098  0.3080E-01  0.1050E+01
      0.152  0.3459E-01  0.1052E+01
      0.205  0.3530E-01  0.1054E+01
      0.258  0.3226E-01  0.1055E+01
      0.312  0.2940E-01  0.1057E+01
      0.365  0.3100E-01  0.1059E+01
      0.419  0.3578E-01  0.1061E+01
      0.472  0.3913E-01  0.1063E+01
      0.526  0.4090E-01  0.1065E+01
      0.579  0.4404E-01  0.1067E+01
      0.633  0.4642E-01  0.1070E+01
      0.686  0.4419E-01  0.1072E+01
      0.739  0.3927E-01  0.1074E+01
      0.793  0.3335E-01  0.1076E+01
      0.846  0.2437E-01  0.1077E+01
      0.900  0.1552E-01  0.1078E+01
      0.953  0.1421E-01  0.1079E+01
      1.007  0.2091E-01  0.1080E+01
      1.060  0.2876E-01  0.1081E+01
      1.113  0.3152E-01  0.1083E+01
      1.167  0.2791E-01  0.1085E+01
      1.220  0.2037E-01  0.1086E+01
      1.274  0.1345E-01  0.1086E+01
      1.327  0.1074E-01  0.1087E+01
      1.381  0.1324E-01  0.1088E+01
      1.434  0.1946E-01  0.1089E+01
      1.487  0.2512E-01  0.1090E+01
      1.541  0.2744E-01  0.1092E+01
      1.594  0.2812E-01  0.1093E+01
      1.648  0.2810E-01  0.1095E+01
      1.701  0.2838E-01  0.1096E+01
      1.755  0.3280E-01  0.1098E+01
      1.808  0.3881E-01  0.1100E+01
      1.862  0.3716E-01  0.1102E+01
      1.915  0.2689E-01  0.1103E+01
      1.968  0.1840E-01  0.1104E+01
      2.022  0.1903E-01  0.1105E+01
      2.075  0.2561E-01  0.1107E+01
      2.129  0.3228E-01  0.1108E+01
      2.182  0.3618E-01  0.1110E+01
      2.236  0.3779E-01  0.1112E+01
      2.289  0.3966E-01  0.1115E+01
      2.342  0.4143E-01  0.1117E+01
      2.396  0.3917E-01  0.1119E+01
      2.449  0.3265E-01  0.1121E+01
      2.503  0.2810E-01  0.1122E+01
      2.556  0.3158E-01  0.1124E+01
      2.610  0.4249E-01  0.1126E+01
      2.663  0.5430E-01  0.1129E+01
      2.717  0.5902E-01  0.1132E+01
      2.770  0.5167E-01  0.1135E+01
      2.823  0.3607E-01  0.1137E+01
      2.877  0.2264E-01  0.1138E+01
      2.930  0.1616E-01  0.1139E+01
      2.984  0.1249E-01  0.1140E+01
      3.037  0.9247E-02  0.1140E+01
      3.091  0.1033E-01  0.1141E+01
      3.144  0.1688E-01  0.1141E+01
      3.197  0.2395E-01  0.1143E+01
      3.251  0.2671E-01  0.1144E+01
      3.304  0.2473E-01  0.1145E+01
      3.358  0.2086E-01  0.1147E+01
      3.411  0.1667E-01  0.1147E+01
      3.465  0.1390E-01  0.1148E+01
      3.518  0.1628E-01  0.1149E+01
      3.572  0.2368E-01  0.1150E+01
      3.625  0.3200E-01  0.1152E+01
      3.678  0.3899E-01  0.1154E+01
      3.732  0.4397E-01  0.1157E+01
      3.785  0.4357E-01  0.1159E+01
      3.839  0.3438E-01  0.1161E+01
      3.892  0.2220E-01  0.1162E+01
      3.946  0.1776E-01  0.1163E+01
      3.999  0.2190E-01  0.1164E+01
      4.052  0.2608E-01  0.1165E+01
      4.106  0.2632E-01  0.1167E+01
      4.159  0.2530E-01  0.1168E+01
      4.213  0.2401E-01  0.1169E+01
      4.266  0.2157E-01  0.1171E+01
      4.320  0.1857E-01  0.1172E+01
      4.373  0.1835E-01  0.1173E+01
      4.427  0.2320E-01  0.1174E+01
      4.480  0.2996E-01  0.1175E+01
      4.533  0.3732E-01  0.1177E+01
      4.587  0.4744E-01  0.1180E+01
      4.640  0.5633E-01  0.1183E+01
      4.694  0.5630E-01  0.1186E+01
      4.747  0.4764E-01  0.1188E+01
      4.801  0.3982E-01  0.1191E+01
      4.854  0.4064E-01  0.1193E+01
      4.907  0.4942E-01  0.1195E+01
      4.961  0.6055E-01  0.1199E+01
      5.014  0.6920E-01  0.1202E+01
      5.068  0.7231E-01  0.1206E+01
      5.121  0.7059E-01  0.1210E+01
      5.175  0.6823E-01  0.1214E+01
      5.228  0.6491E-01  0.1217E+01
      5.282  0.5570E-01  0.1220E+01
      5.335  0.3960E-01  0.1222E+01
      5.388  0.2187E-01  0.1223E+01
      5.442  0.8850E-02  0.1224E+01
      5.495  0.2471E-02  0.1224E+01
      5.549  0.4499E-03  0.1224E+01
      5.602  0.5108E-04  0.1224E+01
      5.656  0.3502E-05  0.1224E+01
      5.709  0.1421E-06  0.1224E+01
      5.762  0.3365E-08  0.1224E+01
      5.816  0.4616E-10  0.1224E+01
      5.869  0.3647E-12  0.1224E+01
      5.923  0.1654E-14  0.1224E+01
      5.976  0.2770E-17  0.1224E+01
      6.030  0.0000E+00  0.1224E+01
      6.083  0.0000E+00  0.1224E+01
      6.137  0.0000E+00  0.1224E+01
      6.190  0.0000E+00  0.1224E+01
      6.243  0.0000E+00  0.1224E+01
      6.297  0.0000E+00  0.1224E+01
      6.350  0.0000E+00  0.1224E+01
