unknown system                          
           1
    11.002582    0.000000    0.000000
     5.501291    9.528515    0.000000
     0.000000    0.000000   24.491785
   Au   Pd
  24  24
Direct configuration=     1
   0.08333333  0.08333333  0.40830017
   0.50000000  0.50000000  0.59169983
   0.41666667  0.91666667  0.50000000
   0.50000000  0.75000000  0.59169983
   0.83333333  0.08333333  0.40830017
   0.33333333  0.83333333  0.40830017
   0.16666667  0.66666667  0.50000000
   0.33333333  0.58333333  0.40830017
   0.25000000  0.25000000  0.59169983
   0.83333333  0.33333333  0.40830017
   0.41666667  0.41666667  0.50000000
   0.83333333  0.58333333  0.40830017
   0.66666667  0.41666667  0.50000000
   0.00000000  0.25000000  0.59169983
   0.66666667  0.66666667  0.50000000
   0.75000000  0.50000000  0.59169983
   0.00000000  0.50000000  0.59169983
   0.91666667  0.66666667  0.50000000
   0.08333333  0.58333333  0.40830017
   0.91666667  0.16666667  0.50000000
   0.00000000  0.75000000  0.59169983
   0.83333333  0.83333333  0.40830017
   0.08333333  0.33333333  0.40830017
   0.00000000  0.00000000  0.59169983
   0.41666667  0.66666667  0.50000000
   0.75000000  0.25000000  0.59169983
   0.66666667  0.16666667  0.50000000
   0.75000000  0.00000000  0.59169983
   0.58333333  0.83333333  0.40830017
   0.58333333  0.58333333  0.40830017
   0.25000000  0.75000000  0.59169983
   0.58333333  0.33333333  0.40830017
   0.91666667  0.41666667  0.50000000
   0.08333333  0.83333333  0.40830017
   0.91666667  0.91666667  0.50000000
   0.33333333  0.08333333  0.40830017
   0.16666667  0.16666667  0.50000000
   0.25000000  0.00000000  0.59169983
   0.50000000  0.25000000  0.59169983
   0.33333333  0.33333333  0.40830017
   0.25000000  0.50000000  0.59169983
   0.16666667  0.91666667  0.50000000
   0.66666667  0.91666667  0.50000000
   0.58333333  0.08333333  0.40830017
   0.41666667  0.16666667  0.50000000
   0.50000000  0.00000000  0.59169983
   0.16666667  0.41666667  0.50000000
   0.75000000  0.75000000  0.59169983
Direct configuration=     2
   0.08456087  0.08235712  0.40642002
   0.49897553  0.49980696  0.59390538
   0.41587696  0.91854263  0.49998254
   0.49886804  0.75128075  0.59387202
   0.83225580  0.08301201  0.40643316
   0.33377886  0.83313135  0.40648303
   0.16707228  0.66793524  0.50037330
   0.33431419  0.58290746  0.40614190
   0.25142137  0.24934598  0.59327798
   0.83214252  0.33427818  0.40608566
   0.41682932  0.41460176  0.49999161
   0.83213556  0.58358747  0.40606165
   0.66626467  0.41615881  0.49964155
   0.00040017  0.24949708  0.59358014
   0.66621853  0.66761083  0.49963335
   0.75046614  0.49976697  0.59392936
   0.00035303  0.50004920  0.59359780
   0.91587432  0.66725375  0.50042426
   0.08429480  0.58278434  0.40607498
   0.91680092  0.16596459  0.50042710
  -0.00022576  0.75058510  0.59381720
   0.83219625  0.83472869  0.40641381
   0.08501952  0.33249661  0.40672533
   0.00035260 -0.00054657  0.59351945
   0.41593905  0.66733634  0.49994142
   0.74934971  0.24922592  0.59286262
   0.66602684  0.16550737  0.50022278
   0.74845483  0.00074859  0.59227713
   0.58299615  0.83404855  0.40720269
   0.58303764  0.58347032  0.40704311
   0.25010910  0.75016089  0.59274470
   0.58298674  0.33294429  0.40717961
   0.91760606  0.41617610  0.50004660
   0.08325625  0.83359774  0.40722643
   0.91590648  0.91734776  0.50004521
   0.33422409  0.08376314  0.40746864
   0.16781624  0.16638178  0.49999020
   0.25030775 -0.00048378  0.59263864
   0.50059552  0.24906643  0.59257106
   0.33423775  0.33193914  0.40742029
   0.25047779  0.49979943  0.59288924
   0.16686946  0.91632282  0.50026432
   0.66609115  0.91850768  0.50023794
   0.58257565  0.08371656  0.40763105
   0.41715847  0.16642938  0.49983639
   0.50053328  0.00037241  0.59254265
   0.16779377  0.41508679  0.50002585
   0.74940374  0.75139809  0.59287884
Direct configuration=     3
   0.08824346  0.07942846  0.40077956
   0.49590212  0.49922785  0.60052203
   0.41350782  0.92417050  0.49993015
   0.49547215  0.75512302  0.60038860
   0.82902321  0.08204803  0.40083215
   0.33511546  0.83252539  0.40103163
   0.16828914  0.67174096  0.50149321
   0.33725674  0.58162983  0.39966708
   0.25568547  0.24738392  0.59801242
   0.82857007  0.33711270  0.39944214
   0.41731729  0.40840705  0.49996646
   0.82854225  0.58434987  0.39934610
   0.66505867  0.41463525  0.49856621
   0.00160068  0.24798831  0.59922108
   0.66487411  0.67044330  0.49853339
   0.75186455  0.49906788  0.60061795
   0.00141213  0.50019679  0.59929171
   0.91349730  0.66901500  0.50169704
   0.08717919  0.58113735  0.39939941
   0.91720369  0.16385835  0.50170840
  -0.00090303  0.75234039  0.60016930
   0.82878498  0.83891477  0.40075473
   0.09007807  0.32998643  0.40200080
   0.00141040 -0.00218629  0.59897831
   0.41375619  0.66934538  0.49976567
   0.74739885  0.24690369  0.59635099
   0.66410737  0.16202948  0.50089113
   0.74381933  0.00299435  0.59400903
   0.58198460  0.83619418  0.40391026
   0.58215054  0.58388126  0.40327193
   0.25043640  0.75064355  0.59587929
   0.58194698  0.33177715  0.40381792
   0.92042424  0.41470440  0.50018641
   0.08302499  0.83439098  0.40400522
   0.91362593  0.91939103  0.50018084
   0.33689636  0.08505255  0.40497407
   0.17126497  0.16552712  0.49996079
   0.25123099 -0.00193511  0.59545506
   0.50238206  0.24626572  0.59518475
   0.33695100  0.32775655  0.40478065
   0.25191117  0.49919773  0.59645746
   0.16747784  0.91529127  0.50105728
   0.66436460  0.92403071  0.50095175
   0.58030259  0.08486623  0.40562368
   0.41863388  0.16571752  0.49934556
   0.50213314  0.00148962  0.59507111
   0.17117508  0.41034714  0.50010341
   0.74761495  0.75559238  0.59641587
Direct configuration=     4
   0.08849133  0.07923135  0.40039992
   0.49569526  0.49918887  0.60096738
   0.41334837  0.92454930  0.49992662
   0.49524358  0.75538163  0.60082721
   0.82880564  0.08198315  0.40045516
   0.33520542  0.83248460  0.40066472
   0.16837104  0.67199711  0.50156859
   0.33745479  0.58154383  0.39923129
   0.25597248  0.24725186  0.59833108
   0.82832962  0.33730349  0.39899499
   0.41735013  0.40799010  0.49996476
   0.82830040  0.58440118  0.39889410
   0.66497750  0.41453271  0.49849384
   0.00168148  0.24788676  0.59960075
   0.66478362  0.67063395  0.49845936
   0.75195868  0.49902083  0.60106814
   0.00148341  0.50020673  0.59967495
   0.91333731  0.66913354  0.50178271
   0.08737333  0.58102649  0.39895010
   0.91723080  0.16371659  0.50179464
  -0.00094861  0.75245854  0.60059684
   0.82855538  0.83919652  0.40037384
   0.09041854  0.32981747  0.40168280
   0.00148160 -0.00229665  0.59934573
   0.41360927  0.66948060  0.49975384
   0.74726755  0.24674739  0.59658578
   0.66397818  0.16179539  0.50093612
   0.74350733  0.00314551  0.59412560
   0.58191652  0.83633860  0.40368865
   0.58209084  0.58390892  0.40301810
   0.25045843  0.75067604  0.59609027
   0.58187699  0.33169859  0.40359166
   0.92061393  0.41460534  0.50019582
   0.08300942  0.83444437  0.40378841
   0.91347243  0.91952856  0.50018996
   0.33707622  0.08513934  0.40480617
   0.17149709  0.16546960  0.49995881
   0.25129313 -0.00203280  0.59564462
   0.50250231  0.24607722  0.59536067
   0.33713362  0.32747504  0.40460299
   0.25200765  0.49915723  0.59669762
   0.16751879  0.91522184  0.50111066
   0.66424839  0.92440245  0.50099979
   0.58014960  0.08494361  0.40548857
   0.41873318  0.16566960  0.49931253
   0.50224082  0.00156482  0.59524129
   0.17140267  0.41002813  0.50010863
   0.74749456  0.75587468  0.59665394
Direct configuration=     5
   0.08648925  0.08087383  0.39963401
   0.49733534  0.49916527  0.60195328
   0.41482318  0.92115316  0.49995575
   0.49726873  0.75374085  0.60185230
   0.82970510  0.08418741  0.39945572
   0.33574241  0.83259113  0.39964799
   0.16691284  0.66939784  0.50105796
   0.33678721  0.58099009  0.39818171
   0.25551584  0.24722989  0.59948079
   0.83052316  0.33454295  0.39790301
   0.41658825  0.41196088  0.49999233
   0.83024370  0.58497288  0.39770453
   0.66527201  0.41518432  0.49907607
   0.00204960  0.24767187  0.60064269
   0.66418148  0.67002005  0.49904597
   0.75000114  0.50000649  0.60182760
   0.00191233  0.50026094  0.60069761
   0.91564390  0.66831662  0.50124590
   0.08630831  0.58210009  0.39827057
   0.91761374  0.16449502  0.50125060
  -0.00117815  0.75222432  0.60196119
   0.82982625  0.83591174  0.39942294
   0.08810808  0.33065207  0.40073599
   0.00065923 -0.00173692  0.60072211
   0.41582309  0.66819679  0.49985355
   0.74734225  0.24759368  0.59715615
   0.66604876  0.16289780  0.50037850
   0.74539438  0.00232523  0.59518919
   0.58161762  0.83656548  0.40302977
   0.58146083  0.58436858  0.40237848
   0.25069407  0.75020932  0.59721677
   0.58187336  0.33156587  0.40281301
   0.91976147  0.41461902  0.50008570
   0.08308479  0.83355162  0.40338299
   0.91400346  0.91866438  0.50006471
   0.33742759  0.08366007  0.40383857
   0.16861983  0.16675099  0.50005742
   0.25079353 -0.00094245  0.59638999
   0.50183606  0.24730011  0.59640589
   0.33728617  0.32893294  0.40364397
   0.25120608  0.49947628  0.59722161
   0.16661082  0.91765601  0.50071522
   0.66536022  0.92163111  0.50042095
   0.58005443  0.08494323  0.40455268
   0.41767648  0.16556931  0.49979463
   0.50150192  0.00088901  0.59612331
   0.16900273  0.41266685  0.50021160
   0.74718712  0.75499596  0.59735669
Direct configuration=     6
   0.08555260  0.08164224  0.39927569
   0.49810263  0.49915423  0.60241453
   0.41551316  0.91956433  0.49996938
   0.49821617  0.75297324  0.60233188
   0.83012591  0.08521865  0.39898815
   0.33599364  0.83264096  0.39917232
   0.16623064  0.66818180  0.50081907
   0.33647489  0.58073103  0.39769067
   0.25530221  0.24721961  0.60001867
   0.83154938  0.33325146  0.39739214
   0.41623182  0.41381857  0.50000523
   0.83115285  0.58524034  0.39714800
   0.66540979  0.41548916  0.49934847
   0.00222181  0.24757133  0.60113016
   0.66389977  0.66973284  0.49932040
   0.74908533  0.50046762  0.60218290
   0.00211300  0.50028630  0.60117605
   0.91672300  0.66793443  0.50099475
   0.08581005  0.58260236  0.39795266
   0.91779289  0.16485920  0.50099608
  -0.00128553  0.75211475  0.60259948
   0.83042081  0.83437499  0.39897808
   0.08702716  0.33104253  0.40029303
   0.00027450 -0.00147505  0.60136604
   0.41685880  0.66759618  0.49990019
   0.74737719  0.24798961  0.59742299
   0.66701745  0.16341355  0.50011763
   0.74627722  0.00194147  0.59568678
   0.58147778  0.83667163  0.40272152
   0.58116609  0.58458363  0.40207925
   0.25080431  0.74999097  0.59774380
   0.58187166  0.33150378  0.40244873
   0.91936266  0.41462542  0.50003418
   0.08312005  0.83313396  0.40319332
   0.91425189  0.91826009  0.50000611
   0.33759198  0.08296802  0.40338588
   0.16727374  0.16735048  0.50010356
   0.25055980 -0.00043235  0.59673871
   0.50152436  0.24787222  0.59689488
   0.33735754  0.32961500  0.40319531
   0.25083107  0.49962554  0.59746676
   0.16618604  0.91879480  0.50053022
   0.66588038  0.92033457  0.50015014
   0.58000990  0.08494305  0.40411484
   0.41718212  0.16552239  0.50002018
   0.50115624  0.00057284  0.59653595
   0.16787996  0.41390135  0.50025978
   0.74704329  0.75458486  0.59768547
Direct configuration=     7
   0.08567579  0.08132601  0.39897518
   0.49825331  0.49925584  0.60281082
   0.41498169  0.91900283  0.50008360
   0.49821217  0.75272360  0.60283147
   0.83066016  0.08404562  0.39857522
   0.33506452  0.83293806  0.39880074
   0.16654742  0.66847072  0.50066657
   0.33587940  0.58110033  0.39726720
   0.25475712  0.24757287  0.60050105
   0.83138558  0.33421269  0.39700527
   0.41622418  0.41474863  0.50007217
   0.83128348  0.58442199  0.39676876
   0.66640374  0.41565676  0.49953860
   0.00141041  0.24843240  0.60153146
   0.66606546  0.66798104  0.49955635
   0.74952963  0.50023219  0.60240686
   0.00126666  0.50028671  0.60151026
   0.91647530  0.66717483  0.50082120
   0.08578908  0.58237239  0.39763810
   0.91758293  0.16530884  0.50084481
  -0.00131475  0.75190786  0.60320661
   0.83085457  0.83489725  0.39858864
   0.08673007  0.33156865  0.40003538
   0.00006531 -0.00119670  0.60186449
   0.41581301  0.66762944  0.50004225
   0.74795847  0.24838457  0.59751505
   0.66708887  0.16384032  0.49982856
   0.74672015  0.00167859  0.59595170
   0.58190478  0.83600386  0.40247092
   0.58246784  0.58376328  0.40200264
   0.25075307  0.74994125  0.59786160
   0.58207033  0.33192823  0.40225304
   0.91782283  0.41582020  0.50003053
   0.08320223  0.83312256  0.40323392
   0.91486973  0.91803137  0.49989186
   0.33660971  0.08322963  0.40314914
   0.16690217  0.16789853  0.50008858
   0.25080662 -0.00082672  0.59693408
   0.50144750  0.24833714  0.59708788
   0.33640090  0.33029864  0.40302652
   0.25090229  0.49991261  0.59759562
   0.16619178  0.91819866  0.50035701
   0.66663982  0.91954390  0.49985910
   0.58097725  0.08448855  0.40378887
   0.41661666  0.16623731  0.50032623
   0.50118420  0.00022501  0.59682252
   0.16716006  0.41420645  0.50021649
   0.74770649  0.75366519  0.59776509
Direct configuration=     8
   0.08571208  0.08123283  0.39888663
   0.49829771  0.49928578  0.60292758
   0.41482510  0.91883739  0.50011725
   0.49821099  0.75265005  0.60297866
   0.83081758  0.08370000  0.39845355
   0.33479077  0.83302559  0.39869126
   0.16664075  0.66855584  0.50062163
   0.33570395  0.58120913  0.39714243
   0.25459652  0.24767696  0.60064318
   0.83133732  0.33449590  0.39689128
   0.41622193  0.41502266  0.50009189
   0.83132197  0.58418087  0.39665702
   0.66669660  0.41570614  0.49959462
   0.00117134  0.24868611  0.60164970
   0.66670355  0.66746488  0.49962586
   0.74966054  0.50016282  0.60247285
   0.00101729  0.50028683  0.60160873
   0.91640231  0.66695102  0.50077006
   0.08578290  0.58230464  0.39754541
   0.91752107  0.16544132  0.50080023
  -0.00132336  0.75184690  0.60338550
   0.83098237  0.83505112  0.39847390
   0.08664253  0.33172367  0.39995946
   0.00000368 -0.00111468  0.60201136
   0.41550488  0.66763924  0.50008411
   0.74812974  0.24850094  0.59754217
   0.66710991  0.16396606  0.49974339
   0.74685066  0.00160114  0.59602976
   0.58203059  0.83580710  0.40239708
   0.58285138  0.58352157  0.40198007
   0.25073798  0.74992660  0.59789632
   0.58212886  0.33205330  0.40219538
   0.91736914  0.41617223  0.50002945
   0.08322645  0.83311920  0.40324589
   0.91505177  0.91796398  0.49985820
   0.33632029  0.08330672  0.40307939
   0.16679269  0.16806001  0.50008416
   0.25087934 -0.00094292  0.59699165
   0.50142485  0.24847412  0.59714475
   0.33611903  0.33050007  0.40297678
   0.25092327  0.49999720  0.59763359
   0.16619347  0.91802302  0.50030597
   0.66686358  0.91931094  0.49977335
   0.58126227  0.08435463  0.40369282
   0.41645005  0.16644796  0.50041641
   0.50119244  0.00012252  0.59690695
   0.16694795  0.41429635  0.50020374
   0.74790189  0.75339422  0.59778855
Direct configuration=     9
   0.08554903  0.08136058  0.39874741
   0.49824461  0.49931426  0.60316701
   0.41502320  0.91874181  0.50011927
   0.49808266  0.75263887  0.60325027
   0.83102151  0.08342595  0.39821185
   0.33489576  0.83262802  0.39855074
   0.16634159  0.66900488  0.50065974
   0.33586763  0.58144499  0.39689671
   0.25434530  0.24788066  0.60086844
   0.83122679  0.33447954  0.39667294
   0.41651361  0.41459341  0.50008370
   0.83122731  0.58426864  0.39638364
   0.66653712  0.41582396  0.49963761
   0.00109811  0.24868134  0.60180034
   0.66645184  0.66766080  0.49966154
   0.74979287  0.50010239  0.60272874
   0.00089800  0.50035168  0.60174077
   0.91670160  0.66696124  0.50069304
   0.08557414  0.58236993  0.39734426
   0.91778460  0.16523278  0.50073298
  -0.00117523  0.75163968  0.60366183
   0.83118409  0.83506283  0.39824836
   0.08684910  0.33158013  0.39987771
   0.00017517 -0.00104521  0.60216351
   0.41538941  0.66776736  0.50011187
   0.74834985  0.24846082  0.59749091
   0.66667953  0.16392438  0.49964563
   0.74659634  0.00169633  0.59591722
   0.58214253  0.83539682  0.40244061
   0.58287615  0.58349280  0.40212973
   0.25045920  0.75010667  0.59783439
   0.58224360  0.33232292  0.40222345
   0.91744223  0.41613516  0.50002168
   0.08332938  0.83304757  0.40326395
   0.91519309  0.91788968  0.49991496
   0.33606288  0.08361822  0.40318354
   0.16681868  0.16823016  0.50011557
   0.25075943 -0.00110296  0.59698614
   0.50166407  0.24839234  0.59706415
   0.33598981  0.33032867  0.40310446
   0.25083336  0.50017610  0.59761051
   0.16597431  0.91778355  0.50031785
   0.66671165  0.91962765  0.49967474
   0.58115794  0.08441052  0.40365802
   0.41653045  0.16665881  0.50053407
   0.50152116  0.00000186  0.59689627
   0.16690791  0.41418940  0.50022608
   0.74815664  0.75324202  0.59773181
Direct configuration=    10
   0.08542231  0.08145987  0.39863920
   0.49820334  0.49933639  0.60335308
   0.41517716  0.91866752  0.50012085
   0.49798291  0.75263017  0.60346135
   0.83118001  0.08321297  0.39802400
   0.33497735  0.83231904  0.39844153
   0.16610909  0.66935386  0.50068935
   0.33599484  0.58162829  0.39670573
   0.25415006  0.24803898  0.60104350
   0.83114088  0.33446681  0.39650326
   0.41674031  0.41425981  0.50007734
   0.83115374  0.58433686  0.39617118
   0.66641318  0.41591553  0.49967101
   0.00104119  0.24867763  0.60191741
   0.66625621  0.66781305  0.49968926
   0.74989571  0.50005542  0.60292761
   0.00080529  0.50040208  0.60184339
   0.91693420  0.66696918  0.50063317
   0.08541189  0.58242067  0.39718793
   0.91798941  0.16507071  0.50068071
  -0.00106011  0.75147864  0.60387659
   0.83134086  0.83507193  0.39807307
   0.08700964  0.33146858  0.39981418
   0.00030844 -0.00099122  0.60228177
   0.41529967  0.66786692  0.50013345
   0.74852091  0.24842964  0.59745107
   0.66634505  0.16389198  0.49956966
   0.74639869  0.00177030  0.59582975
   0.58222953  0.83507796  0.40247445
   0.58289540  0.58347044  0.40224603
   0.25024255  0.75024661  0.59778626
   0.58233277  0.33253247  0.40224526
   0.91749904  0.41610635  0.50001564
   0.08340937  0.83299191  0.40327799
   0.91530292  0.91783193  0.49995908
   0.33586282  0.08386032  0.40326449
   0.16683887  0.16836239  0.50013997
   0.25066624 -0.00122734  0.59698186
   0.50184999  0.24832879  0.59700151
   0.33588939  0.33019546  0.40320370
   0.25076348  0.50031514  0.59759256
   0.16580398  0.91759744  0.50032707
   0.66659357  0.91987379  0.49959810
   0.58107686  0.08445396  0.40363098
   0.41659293  0.16682268  0.50062551
   0.50177663 -0.00009192  0.59688797
   0.16687679  0.41410628  0.50024344
   0.74835463  0.75312374  0.59768772
Direct configuration=    11
   0.08545060  0.08142515  0.39851405
   0.49809066  0.49936658  0.60362680
   0.41504277  0.91895425  0.50012577
   0.49799155  0.75261461  0.60377920
   0.83112711  0.08330142  0.39776777
   0.33505444  0.83239521  0.39834633
   0.16630126  0.66899232  0.50070774
   0.33599316  0.58147065  0.39646482
   0.25425271  0.24800051  0.60128245
   0.83116027  0.33429565  0.39624123
   0.41648954  0.41448662  0.50004009
   0.83116470  0.58439241  0.39583749
   0.66638647  0.41580455  0.49977085
   0.00119001  0.24851918  0.60205626
   0.66609488  0.66811594  0.49979732
   0.74978088  0.50013025  0.60326277
   0.00087462  0.50042327  0.60196430
   0.91691034  0.66713836  0.50053564
   0.08550435  0.58242133  0.39694380
   0.91792764  0.16500661  0.50059048
  -0.00108990  0.75157629  0.60418923
   0.83123190  0.83502317  0.39783046
   0.08686099  0.33148591  0.39972315
   0.00022085 -0.00103337  0.60241583
   0.41527003  0.66783156  0.50019412
   0.74864409  0.24831119  0.59730340
   0.66653689  0.16373136  0.49940779
   0.74650092  0.00173463  0.59562126
   0.58221279  0.83494637  0.40257558
   0.58291094  0.58347048  0.40246718
   0.25009857  0.75034056  0.59772533
   0.58236819  0.33259563  0.40229647
   0.91758069  0.41605767  0.49998354
   0.08354101  0.83286819  0.40325483
   0.91489599  0.91812081  0.50005978
   0.33596877  0.08362235  0.40350133
   0.16708041  0.16818104  0.50024490
   0.25066946 -0.00118428  0.59690271
   0.50192227  0.24835568  0.59692091
   0.33599962  0.33028157  0.40340854
   0.25073117  0.50034220  0.59749578
   0.16584021  0.91775137  0.50033449
   0.66659831  0.91998877  0.49945085
   0.58085385  0.08450780  0.40359606
   0.41647989  0.16671504  0.50077646
   0.50183811 -0.00014917  0.59681609
   0.16699495  0.41417554  0.50031026
   0.74845109  0.75309679  0.59753850
Direct configuration=    12
   0.08547161  0.08139937  0.39842115
   0.49800700  0.49938900  0.60383000
   0.41494299  0.91916711  0.50012943
   0.49799796  0.75260306  0.60401516
   0.83108784  0.08336707  0.39757756
   0.33511168  0.83245175  0.39827566
   0.16644392  0.66872392  0.50072139
   0.33599191  0.58135362  0.39628598
   0.25432892  0.24797196  0.60145984
   0.83117466  0.33416859  0.39604672
   0.41630338  0.41465499  0.50001243
   0.83117284  0.58443365  0.39558978
   0.66636664  0.41572216  0.49984496
   0.00130048  0.24840156  0.60215934
   0.66597511  0.66834080  0.49987754
   0.74969563  0.50018581  0.60351158
   0.00092608  0.50043899  0.60205406
   0.91689262  0.66726395  0.50046323
   0.08557299  0.58242182  0.39676257
   0.91788179  0.16495903  0.50052349
  -0.00111201  0.75164878  0.60442132
   0.83115101  0.83498697  0.39765035
   0.08675063  0.33149878  0.39965558
   0.00015583 -0.00106467  0.60251536
   0.41524803  0.66780530  0.50023915
   0.74873553  0.24822326  0.59719378
   0.66667930  0.16361212  0.49928763
   0.74657682  0.00170815  0.59546649
   0.58220036  0.83484869  0.40265066
   0.58292248  0.58347051  0.40263134
   0.24999169  0.75041031  0.59768011
   0.58239448  0.33264252  0.40233449
   0.91764131  0.41602153  0.49995970
   0.08363873  0.83277634  0.40323763
   0.91459391  0.91833526  0.50013453
   0.33604742  0.08344569  0.40367715
   0.16725973  0.16804641  0.50032279
   0.25067184 -0.00115231  0.59684395
   0.50197592  0.24837564  0.59686108
   0.33608145  0.33034549  0.40356062
   0.25070717  0.50036228  0.59742392
   0.16586710  0.91786565  0.50034000
   0.66660183  0.92007412  0.49934154
   0.58068829  0.08454778  0.40357013
   0.41639597  0.16663513  0.50088851
   0.50188375 -0.00019167  0.59676273
   0.16708267  0.41422696  0.50035988
   0.74852270  0.75307678  0.59742773
Direct configuration=    13
   0.08547610  0.08139386  0.39840129
   0.49798912  0.49939379  0.60387343
   0.41492167  0.91921260  0.50013021
   0.49799933  0.75260059  0.60406559
   0.83107945  0.08338111  0.39753690
   0.33512391  0.83246384  0.39826055
   0.16647441  0.66866655  0.50072430
   0.33599164  0.58132861  0.39624775
   0.25434520  0.24796586  0.60149776
   0.83117773  0.33414143  0.39600514
   0.41626359  0.41469098  0.50000652
   0.83117458  0.58444247  0.39553683
   0.66636240  0.41570455  0.49986080
   0.00132410  0.24837642  0.60218137
   0.66594951  0.66838886  0.49989468
   0.74967741  0.50019768  0.60356476
   0.00093708  0.50044235  0.60207324
   0.91688883  0.66729080  0.50044775
   0.08558766  0.58242193  0.39672383
   0.91787198  0.16494886  0.50050918
  -0.00111674  0.75166428  0.60447093
   0.83113372  0.83497923  0.39761185
   0.08672704  0.33150153  0.39964113
   0.00014193 -0.00107136  0.60253663
   0.41524333  0.66779969  0.50024878
   0.74875508  0.24820446  0.59717035
   0.66670974  0.16358664  0.49926195
   0.74659304  0.00170249  0.59543341
   0.58219771  0.83482781  0.40266671
   0.58292494  0.58347051  0.40266643
   0.24996884  0.75042522  0.59767044
   0.58240009  0.33265254  0.40234262
   0.91765427  0.41601381  0.49995461
   0.08365962  0.83275671  0.40323396
   0.91452934  0.91838110  0.50015051
   0.33606423  0.08340793  0.40371473
   0.16729806  0.16801764  0.50033944
   0.25067235 -0.00114547  0.59683139
   0.50198739  0.24837990  0.59684829
   0.33609894  0.33035915  0.40359312
   0.25070204  0.50036657  0.59740857
   0.16587285  0.91789007  0.50034117
   0.66660258  0.92009237  0.49931817
   0.58065290  0.08455632  0.40356459
   0.41637803  0.16661805  0.50091247
   0.50189350 -0.00020075  0.59675132
   0.16710142  0.41423795  0.50037048
   0.74853800  0.75307250  0.59740406
Direct configuration=    14
   0.08561482  0.08122330  0.39834879
   0.49797231  0.49934818  0.60409292
   0.41493067  0.91890937  0.50022885
   0.49806097  0.75262212  0.60427955
   0.83089185  0.08331532  0.39734660
   0.33511267  0.83251277  0.39828021
   0.16620419  0.66886536  0.50064184
   0.33596734  0.58124628  0.39608897
   0.25463764  0.24782160  0.60170217
   0.83110965  0.33430048  0.39579543
   0.41643068  0.41481958  0.50001793
   0.83123854  0.58424135  0.39533777
   0.66652338  0.41575967  0.49999961
   0.00134394  0.24849117  0.60220888
   0.66620476  0.66810242  0.50004513
   0.74966897  0.50013857  0.60381399
   0.00096091  0.50039349  0.60208201
   0.91676515  0.66727103  0.50032928
   0.08573085  0.58228804  0.39653486
   0.91789050  0.16513323  0.50040943
  -0.00121505  0.75174547  0.60466983
   0.83096756  0.83510614  0.39744745
   0.08664976  0.33160262  0.39965321
   0.00005697 -0.00110483  0.60258484
   0.41532710  0.66787075  0.50033729
   0.74866650  0.24829715  0.59702806
   0.66667274  0.16384905  0.49907812
   0.74673981  0.00161876  0.59528158
   0.58222164  0.83492997  0.40272921
   0.58302623  0.58337506  0.40289411
   0.25011862  0.75037153  0.59765050
   0.58236597  0.33250788  0.40238054
   0.91753055  0.41615086  0.49994145
   0.08355325  0.83278921  0.40329017
   0.91477124  0.91818036  0.50009062
   0.33604704  0.08338097  0.40389202
   0.16693901  0.16827593  0.50044466
   0.25082663 -0.00113555  0.59678693
   0.50193189  0.24851565  0.59676431
   0.33614170  0.33031380  0.40374580
   0.25072074  0.50027825  0.59736645
   0.16587730  0.91796261  0.50027685
   0.66663584  0.91995941  0.49914270
   0.58064821  0.08451991  0.40350948
   0.41634386  0.16668677  0.50104250
   0.50180402 -0.00024172  0.59669368
   0.16688068  0.41425773  0.50043736
   0.74849039  0.75313295  0.59725607
Direct configuration=    15
   0.08567696  0.08114690  0.39832528
   0.49796478  0.49932775  0.60419124
   0.41493471  0.91877353  0.50027304
   0.49808859  0.75263177  0.60437540
   0.83080781  0.08328584  0.39726134
   0.33510764  0.83253469  0.39828901
   0.16608314  0.66895441  0.50060490
   0.33595645  0.58120940  0.39601784
   0.25476864  0.24775697  0.60179374
   0.83107915  0.33437173  0.39570149
   0.41650553  0.41487718  0.50002304
   0.83126719  0.58415126  0.39524860
   0.66659549  0.41578436  0.50006179
   0.00135283  0.24854257  0.60222120
   0.66631910  0.66797411  0.50011252
   0.74966519  0.50011209  0.60392563
   0.00097158  0.50037159  0.60208593
   0.91670975  0.66726218  0.50027621
   0.08579500  0.58222807  0.39645021
   0.91789880  0.16521582  0.50036474
  -0.00125909  0.75178184  0.60475893
   0.83089312  0.83516299  0.39737380
   0.08661514  0.33164790  0.39965862
   0.00001891 -0.00111982  0.60260643
   0.41536463  0.66790258  0.50037694
   0.74862681  0.24833866  0.59696432
   0.66665617  0.16396659  0.49899577
   0.74680555  0.00158126  0.59521357
   0.58223236  0.83497573  0.40275721
   0.58307161  0.58333230  0.40299611
   0.25018572  0.75034748  0.59764156
   0.58235069  0.33244307  0.40239753
   0.91747513  0.41621225  0.49993556
   0.08350560  0.83280376  0.40331534
   0.91487960  0.91809043  0.50006379
   0.33603934  0.08336890  0.40397144
   0.16677817  0.16839164  0.50049179
   0.25089574 -0.00113111  0.59676701
   0.50190703  0.24857646  0.59672669
   0.33616085  0.33029348  0.40381420
   0.25072911  0.50023869  0.59734758
   0.16587929  0.91799511  0.50024804
   0.66665073  0.91989985  0.49906409
   0.58064611  0.08450359  0.40348480
   0.41632855  0.16671756  0.50110075
   0.50176393 -0.00026007  0.59666786
   0.16678180  0.41426659  0.50046732
   0.74846907  0.75316003  0.59718978
Direct configuration=    16
   0.08548233  0.08127426  0.39833798
   0.49799763  0.49936451  0.60433319
   0.41507690  0.91854915  0.50035697
   0.49818273  0.75254827  0.60449514
   0.83086820  0.08333539  0.39716790
   0.33520301  0.83226302  0.39837165
   0.16606986  0.66901339  0.50055413
   0.33603148  0.58130889  0.39599488
   0.25483406  0.24776613  0.60190800
   0.83106132  0.33424265  0.39558750
   0.41642747  0.41514047  0.50006807
   0.83121471  0.58425875  0.39519544
   0.66667644  0.41596243  0.50014121
   0.00133821  0.24854817  0.60217140
   0.66643707  0.66774931  0.50020097
   0.74972292  0.50008735  0.60404621
   0.00094335  0.50041262  0.60201852
   0.91676973  0.66718801  0.50017202
   0.08564826  0.58228669  0.39637115
   0.91792374  0.16519440  0.50026047
  -0.00113740  0.75156010  0.60476011
   0.83103403  0.83495575  0.39729419
   0.08675075  0.33149460  0.39973432
   0.00013797 -0.00100460  0.60252210
   0.41535036  0.66785658  0.50046493
   0.74858681  0.24840518  0.59691133
   0.66671766  0.16397132  0.49890717
   0.74664073  0.00170296  0.59507926
   0.58227320  0.83489526  0.40279599
   0.58300896  0.58334399  0.40312459
   0.25028169  0.75027194  0.59763192
   0.58234969  0.33242613  0.40239750
   0.91735883  0.41634817  0.49993373
   0.08330505  0.83283928  0.40333181
   0.91503161  0.91807229  0.49994945
   0.33590175  0.08354434  0.40408872
   0.16661180  0.16856536  0.50054569
   0.25083205 -0.00114791  0.59679412
   0.50198916  0.24852100  0.59668865
   0.33607119  0.33018125  0.40389085
   0.25064087  0.50033538  0.59732501
   0.16577279  0.91804927  0.50022046
   0.66661527  0.91987583  0.49898134
   0.58056480  0.08452723  0.40343473
   0.41632891  0.16676016  0.50114155
   0.50190033 -0.00029615  0.59664549
   0.16669220  0.41430654  0.50051268
   0.74847953  0.75314487  0.59713951
Direct configuration=    17
   0.08546039  0.08128861  0.39833942
   0.49800134  0.49936866  0.60434919
   0.41509293  0.91852386  0.50036643
   0.49819335  0.75253886  0.60450863