  48  48   0   0
  0.5349325E+02  0.1100258E-08  0.1100258E-08  0.2449179E-08  0.3500000E-15
  1.000000000000000E-004
  CAR 
 unknown system                          
      6.39999670     -9.71550441  301     -1.11405238      1.00000000
     -9.716  0.0000E+00  0.0000E+00
     -9.662  0.0000E+00  0.0000E+00
     -9.608  0.0000E+00  0.0000E+00
     -9.554  0.0000E+00  0.0000E+00
     -9.501  0.0000E+00  0.0000E+00
     -9.447  0.0000E+00  0.0000E+00
     -9.393  0.0000E+00  0.0000E+00
     -9.339  0.0000E+00  0.0000E+00
     -9.286  0.1171E-16  0.6291E-18
     -9.232  0.4326E-14  0.2330E-15
     -9.178  0.9401E-12  0.5074E-13
     -9.125  0.1159E-09  0.6278E-11
     -9.071  0.8124E-08  0.4427E-09
     -9.017  0.3243E-06  0.1786E-07
     -8.963  0.7390E-05  0.4148E-06
     -8.910  0.9634E-04  0.5590E-05
     -8.856  0.7205E-03  0.4429E-04
     -8.802  0.3097E-02  0.2107E-03
     -8.749  0.7675E-02  0.6230E-03
     -8.695  0.1104E-01  0.1216E-02
     -8.641  0.9673E-02  0.1735E-02
     -8.587  0.7165E-02  0.2120E-02
     -8.534  0.8525E-02  0.2578E-02
     -8.480  0.1104E-01  0.3171E-02
     -8.426  0.9295E-02  0.3671E-02
     -8.373  0.4600E-02  0.3918E-02
     -8.319  0.1467E-02  0.3997E-02
     -8.265  0.1229E-02  0.4063E-02
     -8.211  0.3826E-02  0.4268E-02
     -8.158  0.8390E-02  0.4719E-02
     -8.104  0.1090E-01  0.5304E-02
     -8.050  0.8742E-02  0.5774E-02
     -7.997  0.6453E-02  0.6121E-02
     -7.943  0.1008E-01  0.6662E-02
     -7.889  0.1806E-01  0.7632E-02
     -7.835  0.2163E-01  0.8794E-02
     -7.782  0.1760E-01  0.9740E-02
     -7.728  0.1321E-01  0.1045E-01
     -7.674  0.1201E-01  0.1109E-01
     -7.620  0.1008E-01  0.1164E-01
     -7.567  0.7357E-02  0.1203E-01
     -7.513  0.8330E-02  0.1248E-01
     -7.459  0.1356E-01  0.1321E-01
     -7.406  0.1900E-01  0.1423E-01
     -7.352  0.2162E-01  0.1539E-01
     -7.298  0.2089E-01  0.1651E-01
     -7.244  0.1775E-01  0.1746E-01
     -7.191  0.1705E-01  0.1838E-01
     -7.137  0.2495E-01  0.1972E-01
     -7.083  0.3892E-01  0.2181E-01
     -7.030  0.4973E-01  0.2448E-01
     -6.976  0.5519E-01  0.2745E-01
     -6.922  0.6113E-01  0.3073E-01
     -6.868  0.7098E-01  0.3454E-01
     -6.815  0.8257E-01  0.3898E-01
     -6.761  0.9151E-01  0.4390E-01
     -6.707  0.9488E-01  0.4899E-01
     -6.654  0.9375E-01  0.5403E-01
     -6.600  0.9168E-01  0.5895E-01
     -6.546  0.9199E-01  0.6390E-01
     -6.492  0.9719E-01  0.6912E-01
     -6.439  0.1059E+00  0.7480E-01
     -6.385  0.1141E+00  0.8094E-01
     -6.331  0.1204E+00  0.8740E-01
     -6.278  0.1256E+00  0.9415E-01
     -6.224  0.1311E+00  0.1012E+00
     -6.170  0.1393E+00  0.1087E+00
     -6.116  0.1526E+00  0.1169E+00
     -6.063  0.1669E+00  0.1258E+00
     -6.009  0.1725E+00  0.1351E+00
     -5.955  0.1686E+00  0.1442E+00
     -5.902  0.1635E+00  0.1529E+00
     -5.848  0.1621E+00  0.1617E+00
     -5.794  0.1597E+00  0.1702E+00
     -5.740  0.1519E+00  0.1784E+00
     -5.687  0.1440E+00  0.1861E+00
     -5.633  0.1425E+00  0.1938E+00
     -5.579  0.1455E+00  0.2016E+00
     -5.525  0.1470E+00  0.2095E+00
     -5.472  0.1440E+00  0.2172E+00
     -5.418  0.1385E+00  0.2247E+00
     -5.364  0.1369E+00  0.2320E+00
     -5.311  0.1423E+00  0.2397E+00
     -5.257  0.1522E+00  0.2478E+00
     -5.203  0.1632E+00  0.2566E+00
     -5.149  0.1714E+00  0.2658E+00
     -5.096  0.1741E+00  0.2752E+00
     -5.042  0.1736E+00  0.2845E+00
     -4.988  0.1737E+00  0.2938E+00
     -4.935  0.1747E+00  0.3032E+00
     -4.881  0.1736E+00  0.3125E+00
     -4.827  0.1691E+00  0.3216E+00
     -4.773  0.1642E+00  0.3304E+00
     -4.720  0.1634E+00  0.3392E+00
     -4.666  0.1675E+00  0.3482E+00
     -4.612  0.1732E+00  0.3575E+00
     -4.559  0.1777E+00  0.3671E+00
     -4.505  0.1783E+00  0.3766E+00
     -4.451  0.1747E+00  0.3860E+00
     -4.397  0.1712E+00  0.3952E+00
     -4.344  0.1699E+00  0.4044E+00
     -4.290  0.1685E+00  0.4134E+00
     -4.236  0.1670E+00  0.4224E+00
     -4.183  0.1703E+00  0.4315E+00
     -4.129  0.1784E+00  0.4411E+00
     -4.075  0.1835E+00  0.4510E+00
     -4.021  0.1807E+00  0.4607E+00
     -3.968  0.1753E+00  0.4701E+00
     -3.914  0.1760E+00  0.4795E+00
     -3.860  0.1838E+00  0.4894E+00
     -3.806  0.1930E+00  0.4998E+00
     -3.753  0.1962E+00  0.5103E+00
     -3.699  0.1933E+00  0.5207E+00
     -3.645  0.1908E+00  0.5310E+00
     -3.592  0.1910E+00  0.5412E+00
     -3.538  0.1932E+00  0.5516E+00
     -3.484  0.1964E+00  0.5621E+00
     -3.430  0.1982E+00  0.5728E+00
     -3.377  0.1998E+00  0.5835E+00
     -3.323  0.2027E+00  0.5944E+00
     -3.269  0.2040E+00  0.6054E+00
     -3.216  0.2018E+00  0.6162E+00
     -3.162  0.1963E+00  0.6268E+00
     -3.108  0.1911E+00  0.6370E+00
     -3.054  0.1905E+00  0.6473E+00
     -3.001  0.1917E+00  0.6576E+00
     -2.947  0.1909E+00  0.6678E+00
     -2.893  0.1902E+00  0.6780E+00
     -2.840  0.1905E+00  0.6883E+00
     -2.786  0.1919E+00  0.6986E+00
     -2.732  0.1937E+00  0.7090E+00
     -2.678  0.1923E+00  0.7193E+00
     -2.625  0.1865E+00  0.7293E+00
     -2.571  0.1808E+00  0.7390E+00
     -2.517  0.1816E+00  0.7488E+00
     -2.464  0.1886E+00  0.7589E+00
     -2.410  0.1953E+00  0.7694E+00
     -2.356  0.1961E+00  0.7799E+00
     -2.302  0.1907E+00  0.7902E+00
     -2.249  0.1822E+00  0.8000E+00
     -2.195  0.1755E+00  0.8094E+00
     -2.141  0.1741E+00  0.8187E+00
     -2.088  0.1772E+00  0.8283E+00
     -2.034  0.1808E+00  0.8380E+00
     -1.980  0.1818E+00  0.8478E+00
     -1.926  0.1822E+00  0.8575E+00
     -1.873  0.1858E+00  0.8675E+00
     -1.819  0.1925E+00  0.8779E+00
     -1.765  0.1985E+00  0.8885E+00
     -1.711  0.2000E+00  0.8993E+00
     -1.658  0.1980E+00  0.9099E+00
     -1.604  0.1978E+00  0.9205E+00
     -1.550  0.2010E+00  0.9313E+00
     -1.497  0.2036E+00  0.9423E+00
     -1.443  0.2038E+00  0.9532E+00
     -1.389  0.2032E+00  0.9641E+00
     -1.335  0.1998E+00  0.9749E+00
     -1.282  0.1885E+00  0.9850E+00
     -1.228  0.1684E+00  0.9940E+00
     -1.174  0.1405E+00  0.1002E+01
     -1.121  0.1083E+00  0.1007E+01
     -1.067  0.7919E-01  0.1012E+01
     -1.013  0.5694E-01  0.1015E+01
     -0.959  0.3984E-01  0.1017E+01
     -0.906  0.2787E-01  0.1018E+01
     -0.852  0.2217E-01  0.1020E+01
     -0.798  0.2084E-01  0.1021E+01
     -0.745  0.2091E-01  0.1022E+01
     -0.691  0.2052E-01  0.1023E+01
     -0.637  0.2095E-01  0.1024E+01
     -0.583  0.2550E-01  0.1025E+01
     -0.530  0.3475E-01  0.1027E+01
     -0.476  0.4502E-01  0.1030E+01
     -0.422  0.4934E-01  0.1032E+01
     -0.369  0.4400E-01  0.1035E+01
     -0.315  0.3747E-01  0.1037E+01
     -0.261  0.3901E-01  0.1039E+01
     -0.207  0.4250E-01  0.1041E+01
     -0.154  0.3875E-01  0.1043E+01
     -0.100  0.2971E-01  0.1045E+01
     -0.046  0.2106E-01  0.1046E+01
      0.008  0.1556E-01  0.1047E+01
      0.061  0.1568E-01  0.1048E+01
      0.115  0.2374E-01  0.1049E+01
      0.169  0.3547E-01  0.1051E+01
      0.222  0.4145E-01  0.1053E+01
      0.276  0.4080E-01  0.1055E+01
      0.330  0.3976E-01  0.1057E+01
      0.384  0.3896E-01  0.1059E+01
      0.437  0.3726E-01  0.1061E+01
      0.491  0.3764E-01  0.1063E+01
      0.545  0.4097E-01  0.1066E+01
      0.598  0.4349E-01  0.1068E+01
      0.652  0.4331E-01  0.1070E+01
      0.706  0.4185E-01  0.1073E+01
      0.760  0.3889E-01  0.1075E+01
      0.813  0.3339E-01  0.1076E+01
      0.867  0.2741E-01  0.1078E+01
      0.921  0.2402E-01  0.1079E+01
      0.974  0.2380E-01  0.1080E+01
      1.028  0.2516E-01  0.1082E+01
      1.082  0.2524E-01  0.1083E+01
      1.136  0.2244E-01  0.1084E+01
      1.189  0.1712E-01  0.1085E+01
      1.243  0.1120E-01  0.1086E+01
      1.297  0.8456E-02  0.1086E+01
      1.350  0.9433E-02  0.1087E+01
      1.404  0.1117E-01  0.1087E+01
      1.458  0.1491E-01  0.1088E+01
      1.512  0.2506E-01  0.1090E+01
      1.565  0.3747E-01  0.1092E+01
      1.619  0.4117E-01  0.1094E+01
      1.673  0.3660E-01  0.1096E+01
      1.727  0.3392E-01  0.1098E+01
      1.780  0.3529E-01  0.1100E+01
      1.834  0.3493E-01  0.1101E+01
      1.888  0.2919E-01  0.1103E+01
      1.941  0.2129E-01  0.1104E+01
      1.995  0.1746E-01  0.1105E+01
      2.049  0.1868E-01  0.1106E+01
      2.103  0.2340E-01  0.1107E+01
      2.156  0.3109E-01  0.1109E+01
      2.210  0.3802E-01  0.1111E+01
      2.264  0.4044E-01  0.1113E+01
      2.317  0.4110E-01  0.1115E+01
      2.371  0.4275E-01  0.1118E+01
      2.425  0.4334E-01  0.1120E+01
      2.479  0.4310E-01  0.1122E+01
      2.532  0.4435E-01  0.1125E+01
      2.586  0.4710E-01  0.1127E+01
      2.640  0.5035E-01  0.1130E+01
      2.693  0.5087E-01  0.1133E+01
      2.747  0.4304E-01  0.1135E+01
      2.801  0.2852E-01  0.1137E+01
      2.855  0.1630E-01  0.1137E+01
      2.908  0.1198E-01  0.1138E+01
      2.962  0.1337E-01  0.1139E+01
      3.016  0.1504E-01  0.1140E+01
      3.069  0.1563E-01  0.1140E+01
      3.123  0.1768E-01  0.1141E+01
      3.177  0.2066E-01  0.1142E+01
      3.231  0.2156E-01  0.1144E+01
      3.284  0.1902E-01  0.1145E+01
      3.338  0.1482E-01  0.1145E+01
      3.392  0.1261E-01  0.1146E+01
      3.445  0.1494E-01  0.1147E+01
      3.499  0.2317E-01  0.1148E+01
      3.553  0.3510E-01  0.1150E+01
      3.607  0.4250E-01  0.1152E+01
      3.660  0.4113E-01  0.1155E+01
      3.714  0.3716E-01  0.1157E+01
      3.768  0.3382E-01  0.1158E+01
      3.822  0.2779E-01  0.1160E+01
      3.875  0.2133E-01  0.1161E+01
      3.929  0.2053E-01  0.1162E+01
      3.983  0.2585E-01  0.1163E+01
      4.036  0.3092E-01  0.1165E+01
      4.090  0.3020E-01  0.1167E+01
      4.144  0.2626E-01  0.1168E+01
      4.198  0.2405E-01  0.1169E+01
      4.251  0.2180E-01  0.1171E+01
      4.305  0.1711E-01  0.1172E+01
      4.359  0.1489E-01  0.1172E+01
      4.412  0.2029E-01  0.1173E+01
      4.466  0.2978E-01  0.1175E+01
      4.520  0.3745E-01  0.1177E+01
      4.574  0.4456E-01  0.1179E+01
      4.627  0.5282E-01  0.1182E+01
      4.681  0.5667E-01  0.1185E+01
      4.735  0.5270E-01  0.1188E+01
      4.788  0.4679E-01  0.1191E+01
      4.842  0.4598E-01  0.1193E+01
      4.896  0.5103E-01  0.1196E+01
      4.950  0.5707E-01  0.1199E+01
      5.003  0.6131E-01  0.1202E+01
      5.057  0.6442E-01  0.1206E+01
      5.111  0.6401E-01  0.1209E+01
      5.164  0.6030E-01  0.1212E+01
      5.218  0.5895E-01  0.1216E+01
      5.272  0.5718E-01  0.1219E+01
      5.326  0.4701E-01  0.1221E+01
      5.379  0.3025E-01  0.1223E+01
      5.433  0.1505E-01  0.1224E+01
      5.487  0.5754E-02  0.1224E+01
      5.541  0.1619E-02  0.1224E+01
      5.594  0.3117E-03  0.1224E+01
      5.648  0.3817E-04  0.1224E+01
      5.702  0.2829E-05  0.1224E+01
      5.755  0.1232E-06  0.1224E+01
      5.809  0.3101E-08  0.1224E+01
      5.863  0.4473E-10  0.1224E+01
      5.917  0.3679E-12  0.1224E+01
      5.970  0.1718E-14  0.1224E+01
      6.024  0.5511E-17  0.1224E+01
      6.078  0.0000E+00  0.1224E+01
      6.131  0.0000E+00  0.1224E+01
      6.185  0.0000E+00  0.1224E+01
      6.239  0.0000E+00  0.1224E+01
      6.293  0.0000E+00  0.1224E+01
      6.346  0.0000E+00  0.1224E+01
      6.400  0.0000E+00  0.1224E+01
