 vasp.5.4.1 24Jun15 (build Mar 14 2019 10:18:33) complex                        
  
 executed on INTEL-19.0.2+OPENMPI date 2022.07.11  15:51:24
 running on   36 total cores
 distrk:  each k-point on   36 cores,    1 groups
 distr:  one band on NCORES_PER_BAND=   6 cores,    6 groups


--------------------------------------------------------------------------------------------------------


 INCAR:
 POTCAR:    PAW_PBE Au 04Oct2007                  
 POTCAR:    PAW_PBE Pd 04Jan2005                  
 POTCAR:    PAW_PBE Au 04Oct2007                  
  local pseudopotential read in
  partial core-charges read in
  partial kinetic energy density read in
  atomic valenz-charges read in
  non local Contribution for L=           2  read in
    real space projection operators read in
  non local Contribution for L=           2  read in
    real space projection operators read in
  non local Contribution for L=           0  read in
    real space projection operators read in
  non local Contribution for L=           0  read in
    real space projection operators read in
  non local Contribution for L=           1  read in
    real space projection operators read in
  non local Contribution for L=           1  read in
    real space projection operators read in
    PAW grid and wavefunctions read in
 
   number of l-projection  operators is LMAX  =           6
   number of lm-projection operators is LMMAX =          18
 
 POTCAR:    PAW_PBE Pd 04Jan2005                  
  local pseudopotential read in
  partial core-charges read in
  partial kinetic energy density read in
  atomic valenz-charges read in
  non local Contribution for L=           2  read in
    real space projection operators read in
  non local Contribution for L=           2  read in
    real space projection operators read in
  non local Contribution for L=           0  read in
    real space projection operators read in
  non local Contribution for L=           0  read in
    real space projection operators read in
  non local Contribution for L=           1  read in
    real space projection operators read in
  non local Contribution for L=           1  read in
    real space projection operators read in
    PAW grid and wavefunctions read in
 
   number of l-projection  operators is LMAX  =           6
   number of lm-projection operators is LMMAX =          18
 
 Optimization of the real space projectors (new method)

 maximal supplied QI-value         = 15.12
 optimisation between [QCUT,QGAM] = [ 10.13, 20.41] = [ 28.73,116.64] Ry 
 Optimized for a Real-space Cutoff    1.51 Angstroem

   l    n(q)    QCUT    max X(q) W(low)/X(q) W(high)/X(q)  e(spline) 
   2      8    10.129    60.898    0.46E-03    0.46E-03    0.14E-06
   2      8    10.129    58.894    0.47E-03    0.47E-03    0.14E-06
   0      9    10.129   109.617    0.16E-03    0.11E-03    0.54E-07
   0      9    10.129    75.026    0.15E-03    0.11E-03    0.52E-07
   1      9    10.129    16.344    0.96E-04    0.15E-03    0.14E-06
   1      9    10.129    10.160    0.81E-04    0.12E-03    0.11E-06
 Optimization of the real space projectors (new method)

 maximal supplied QI-value         = 14.36
 optimisation between [QCUT,QGAM] = [ 10.20, 20.39] = [ 29.12,116.47] Ry 
 Optimized for a Real-space Cutoff    1.51 Angstroem

   l    n(q)    QCUT    max X(q) W(low)/X(q) W(high)/X(q)  e(spline) 
   2      8    10.197    59.108    0.26E-03    0.14E-03    0.96E-07
   2      8    10.197    58.101    0.27E-03    0.14E-03    0.98E-07
   0      9    10.197   102.235    0.54E-04    0.60E-05    0.72E-07
   0      9    10.197    58.388    0.52E-04    0.60E-05    0.68E-07
   1      9    10.197    22.191    0.18E-03    0.25E-03    0.79E-07
   1      9    10.197    15.590    0.15E-03    0.21E-03    0.69E-07
  PAW_PBE Au 04Oct2007                  :
 energy of atom  1       EATOM= -926.0867
 kinetic energy error for atom=    0.0062 (will be added to EATOM!!)
  PAW_PBE Pd 04Jan2005                  :
 energy of atom  2       EATOM= -809.7530
 kinetic energy error for atom=    0.0091 (will be added to EATOM!!)
 
 
 POSCAR: Au Pd                                   
  positions in cartesian coordinates
  No initial velocities read in
 exchange correlation table for  LEXCH =        8
   RHO(1)=    0.500       N(1)  =     2000
   RHO(2)=  100.500       N(2)  =     4000

 VTST: version 3.2, (02/03/18)

 CHAIN: initializing optimizer
 
 OPT: Using VASP Conjugate-Gradient optimizer
 CHAIN: Read ICHAIN            0
 
 POSCAR: Au Pd                                   
  positions in cartesian coordinates
  No initial velocities read in
 


--------------------------------------------------------------------------------------------------------


 ion  position               nearest neighbor table
   1  0.250  0.750  0.592-  45 2.75   2 2.75  34 2.75  41 2.75  44 2.75  27 2.75  40 2.75  11 2.75
                             9 2.75
   2  0.417  0.667  0.500-  10 2.75  27 2.75   1 2.75  14 2.75  25 2.75   8 2.75  45 2.75   9 2.75
                            26 2.75   7 2.75  30 2.75  11 2.75
   3  0.500  0.000  0.592-  46 2.75   5 2.75  39 2.75  43 2.75  11 2.75  48 2.75  41 2.75  16 2.75
                             8 2.75
   4  0.583  0.083  0.408-  15 2.75  13 2.75   6 2.75  29 2.75  32 2.75  12 2.75  47 2.75   5 2.75
                            46 2.75
   5  0.667  0.917  0.500-   6 2.75  48 2.75   3 2.75  20 2.75  26 2.75  46 2.75  15 2.75   8 2.75
                            38 2.75   4 2.75  29 2.75  16 2.75
   6  0.583  0.833  0.408-   5 2.75   4 2.75  22 2.75  30 2.75  47 2.75   7 2.75  29 2.75  26 2.75
                             8 2.75
   7  0.333  0.833  0.408-   8 2.75  10 2.75  30 2.75  31 2.75  47 2.75  37 2.75   6 2.75   2 2.75
                            45 2.75
   8  0.417  0.917  0.500-   7 2.75  11 2.75  41 2.75  24 2.75  26 2.75   2 2.75  46 2.75  45 2.75
                             5 2.75  47 2.75   3 2.75   6 2.75
   9  0.167  0.667  0.500-  21 2.75  44 2.75  40 2.75  14 2.75  42 2.75  38 2.75  45 2.75   2 2.75
                            20 2.75  37 2.75  10 2.75   1 2.75
  10  0.333  0.583  0.408-   2 2.75   7 2.75  13 2.75  32 2.75  37 2.75  21 2.75  30 2.75  14 2.75
                             9 2.75
  11  0.500  0.750  0.592-   8 2.75  26 2.75   3 2.75  27 2.75  28 2.75  41 2.75   1 2.75  48 2.75
                             2 2.75
  12  0.833  0.083  0.408-  33 2.75  29 2.75  32 2.75  17 2.75  37 2.75  31 2.75   4 2.75  38 2.75
                            15 2.75
  13  0.333  0.333  0.408-  14 2.75  10 2.75   4 2.75  21 2.75  47 2.75  32 2.75  23 2.75  46 2.75
                            42 2.75
  14  0.417  0.417  0.500-  13 2.75  39 2.75  44 2.75  15 2.75   9 2.75   2 2.75  46 2.75  25 2.75
                            42 2.75  10 2.75  27 2.75  32 2.75
  15  0.667  0.167  0.500-   4 2.75  16 2.75  39 2.75   5 2.75  25 2.75  38 2.75  14 2.75  33 2.75
                            46 2.75  32 2.75  12 2.75  18 2.75
  16  0.750  0.000  0.592-  15 2.75  38 2.75  18 2.75  39 2.75  40 2.75  48 2.75   3 2.75  34 2.75
                             5 2.75
  17  0.833  0.333  0.408-  35 2.75  22 2.75  30 2.75  31 2.75  12 2.75  32 2.75  23 2.75  33 2.75
                            25 2.75
  18  0.750  0.250  0.592-  25 2.75  33 2.75  27 2.75  28 2.75  16 2.75  34 2.75  36 2.75  39 2.75
                            15 2.75
  19  0.000  0.500  0.592-  20 2.75  42 2.75  40 2.75  36 2.75  43 2.75  48 2.75  44 2.75  28 2.75
                            35 2.75
  20  0.917  0.667  0.500-  22 2.75  19 2.75  48 2.75  35 2.75  38 2.75  42 2.75   5 2.75   9 2.75
                            26 2.75  29 2.75  21 2.75  40 2.75
  21  0.083  0.583  0.408-   9 2.75  13 2.75  23 2.75  29 2.75  37 2.75  22 2.75  10 2.75  42 2.75
                            20 2.75
  22  0.833  0.583  0.408-  20 2.75  17 2.75   6 2.75  23 2.75  29 2.75  21 2.75  30 2.75  35 2.75
                            26 2.75
  23  0.083  0.333  0.408-  42 2.75  22 2.75  31 2.75  21 2.75  47 2.75  17 2.75  13 2.75  24 2.75
                            35 2.75
  24  0.167  0.167  0.500-  31 2.75  41 2.75  36 2.75   8 2.75  35 2.75  42 2.75  45 2.75  33 2.75
                            46 2.75  23 2.75  43 2.75  47 2.75
  25  0.667  0.417  0.500-  32 2.75  18 2.75  27 2.75  26 2.75  15 2.75   2 2.75  33 2.75  14 2.75
                            35 2.75  30 2.75  17 2.75  28 2.75
  26  0.667  0.667  0.500-  30 2.75  28 2.75  11 2.75  25 2.75   8 2.75   5 2.75  35 2.75   2 2.75
                            20 2.75   6 2.75  22 2.75  48 2.75
  27  0.500  0.500  0.592-   2 2.75  25 2.75  11 2.75  18 2.75   1 2.75  39 2.75  28 2.75  44 2.75
                            14 2.75
  28  0.750  0.500  0.592-  26 2.75  35 2.75  11 2.75  18 2.75  36 2.75  48 2.75  27 2.75  19 2.75
                            25 2.75
  29  0.833  0.833  0.408-  38 2.75  12 2.75  21 2.75  22 2.75   4 2.75  37 2.75   6 2.75  20 2.75
                             5 2.75
  30  0.583  0.583  0.408-  26 2.75   7 2.75  17 2.75   6 2.75  32 2.75  10 2.75  22 2.75  25 2.75
                             2 2.75
  31  0.083  0.083  0.408-  24 2.75  17 2.75  23 2.75   7 2.75  37 2.75  12 2.75  47 2.75  45 2.75
                            33 2.75
  32  0.583  0.333  0.408-  25 2.75  10 2.75  12 2.75   4 2.75  30 2.75  13 2.75  17 2.75  15 2.75
                            14 2.75
  33  0.917  0.167  0.500-  12 2.75  34 2.75  18 2.75  25 2.75  35 2.75  38 2.75  45 2.75  24 2.75
                            15 2.75  17 2.75  31 2.75  36 2.75
  34  0.000  0.000  0.592-  33 2.75  45 2.75   1 2.75  36 2.75  40 2.75  18 2.75  41 2.75  16 2.75
                            38 2.75
  35  0.917  0.417  0.500-  17 2.75  36 2.75  28 2.75  26 2.75  20 2.75  33 2.75  24 2.75  25 2.75
                            42 2.75  22 2.75  23 2.75  19 2.75
  36  0.000  0.250  0.592-  35 2.75  24 2.75  28 2.75  34 2.75  19 2.75  41 2.75  18 2.75  43 2.75
                            33 2.75
  37  0.083  0.833  0.408-  45 2.75  12 2.75  21 2.75  31 2.75  10 2.75   7 2.75  29 2.75   9 2.75
                            38 2.75
  38  0.917  0.917  0.500-  29 2.75  40 2.75  16 2.75  20 2.75  15 2.75  33 2.75   9 2.75   5 2.75
                            45 2.75  12 2.75  34 2.75  37 2.75
  39  0.500  0.250  0.592-  14 2.75  15 2.75   3 2.75  16 2.75  27 2.75  44 2.75  43 2.75  18 2.75
                            46 2.75
  40  0.000  0.750  0.592-  38 2.75   9 2.75  19 2.75  34 2.75  16 2.75  44 2.75   1 2.75  48 2.75
                            20 2.75
  41  0.250  0.000  0.592-  24 2.75   8 2.75  11 2.75   1 2.75  36 2.75  43 2.75   3 2.75  34 2.75
                            45 2.75
  42  0.167  0.417  0.500-  23 2.75  43 2.75  19 2.75   9 2.75  24 2.75  20 2.75  46 2.75  14 2.75
                            35 2.75  21 2.75  44 2.75  13 2.75
  43  0.250  0.250  0.592-  42 2.75  46 2.75  41 2.75   3 2.75  44 2.75  19 2.75  36 2.75  39 2.75
                            24 2.75
  44  0.250  0.500  0.592-   9 2.75  14 2.75   1 2.75  39 2.75  40 2.75  43 2.75  27 2.75  19 2.75
                            42 2.75
  45  0.167  0.917  0.500-  37 2.75   1 2.75  34 2.75  24 2.75  33 2.75   2 2.75   9 2.75   8 2.75
                            38 2.75  31 2.75   7 2.75  41 2.75
  46  0.417  0.167  0.500-  47 2.75   3 2.75  43 2.75  14 2.75  42 2.75   5 2.75   8 2.75  24 2.75
                            15 2.75  13 2.75  39 2.75   4 2.75
  47  0.333  0.083  0.408-  46 2.75   7 2.75  13 2.75  23 2.75   6 2.75  31 2.75   4 2.75   8 2.75
                            24 2.75
  48  0.750  0.750  0.592-   5 2.75  20 2.75  16 2.75  19 2.75   3 2.75  28 2.75  11 2.75  40 2.75
                            26 2.75
 
  LATTYP: Found a hexagonal cell.
 ALAT       =    11.0025815153
 C/A-ratio  =     2.2260035120
  
  Lattice vectors:
  
 A1 = (   5.5012907576,  -9.5285150994,   0.0000000000)
 A2 = ( -11.0025815153,   0.0000000000,   0.0000000000)
 A3 = (   0.0000000000,   0.0000000000, -24.4917850943)


Analysis of symmetry for initial positions (statically):
=====================================================================
 Subroutine PRICEL returns:
 Original cell was already a primitive cell.
 

 Routine SETGRP: Setting up the symmetry group for a 
 hexagonal supercell.


 Subroutine GETGRP returns: Found  1 space group operations
 (whereof  1 operations were pure point group operations)
 out of a pool of 24 trial point group operations.


The static configuration has the point symmetry C_1 .


Analysis of symmetry for dynamics (positions and initial velocities):
=====================================================================
 Subroutine PRICEL returns:
 Original cell was already a primitive cell.
 

 Routine SETGRP: Setting up the symmetry group for a 
 hexagonal supercell.


 Subroutine GETGRP returns: Found  1 space group operations
 (whereof  1 operations were pure point group operations)
 out of a pool of 24 trial point group operations.


The dynamic configuration has the point symmetry C_1 .
 
 
 KPOINTS: Automatic mesh                          

Automatic generation of k-mesh.
Space group operators:
 irot       det(A)        alpha          n_x          n_y          n_z        tau_x        tau_y        tau_z
    1     1.000000     0.000000     1.000000     0.000000     0.000000     0.000000     0.000000     0.000000
 
 Subroutine IBZKPT returns following result:
 ===========================================
 
 Found      6 irreducible k-points:
 
 Following reciprocal coordinates:
            Coordinates               Weight
  0.250000  0.250000  0.000000     16.000000
  0.000000  0.250000  0.000000     16.000000
 -0.250000  0.000000  0.000000     16.000000
 -0.250000  0.250000  0.000000     16.000000
  0.500000 -0.250000  0.000000     16.000000
 -0.250000  0.500000  0.000000     16.000000
 
 Following cartesian coordinates:
            Coordinates               Weight
  0.022722  0.013119  0.000000     16.000000
  0.000000  0.026237  0.000000     16.000000
 -0.022722  0.013119  0.000000     16.000000
 -0.022722  0.039356  0.000000     16.000000
  0.045444 -0.052474  0.000000     16.000000
 -0.022722  0.065593  0.000000     16.000000
 


--------------------------------------------------------------------------------------------------------




 Dimension of arrays:
   k-points           NKPTS =      6   k-points in BZ     NKDIM =      6   number of bands    NBANDS=    306
   number of dos      NEDOS =    301   number of ions     NIONS =     48
   non local maximal  LDIM  =      6   non local SUM 2l+1 LMDIM =     18
   total plane-waves  NPLWV = 349920
   max r-space proj   IRMAX =   2009   max aug-charges    IRDMAX=   8532
   dimension x,y,z NGX =    54 NGY =   54 NGZ =  120
   dimension x,y,z NGXF=   108 NGYF=  108 NGZF=  240
   support grid    NGXF=   108 NGYF=  108 NGZF=  240
   ions per type =              24  24
 NGX,Y,Z   is equivalent  to a cutoff of   8.16,  8.16,  8.15 a.u.
 NGXF,Y,Z  is equivalent  to a cutoff of  16.32, 16.32, 16.29 a.u.


 I would recommend the setting:
   dimension x,y,z NGX =    54 NGY =   54 NGZ =  120
 SYSTEM =  unknown system                          
 POSCAR =  Au Pd                                   

 Startparameter for this run:
   NWRITE =      1    write-flag & timer
   PREC   = normal    normal or accurate (medium, high low for compatibility)
   ISTART =      0    job   : 0-new  1-cont  2-samecut
   ICHARG =      2    charge: 1-file 2-atom 10-const
   ISPIN  =      1    spin polarized calculation?
   LNONCOLLINEAR =      F non collinear calculations
   LSORBIT =      F    spin-orbit coupling
   INIWAV =      1    electr: 0-lowe 1-rand  2-diag
   LASPH  =      F    aspherical Exc in radial PAW
   METAGGA=      F    non-selfconsistent MetaGGA calc.

 Electronic Relaxation 1
   ENCUT  =  400.0 eV  29.40 Ry    5.42 a.u.  17.94 17.94 39.94*2*pi/ulx,y,z
   ENINI  =  400.0     initial cutoff
   ENAUG  =  416.2 eV  augmentation charge cutoff
   NELM   =    500;   NELMIN=  2; NELMDL= -5     # of ELM steps 
   EDIFF  = 0.1E-05   stopping-criterion for ELM
   LREAL  =      T    real-space projection
   NLSPLINE    = F    spline interpolate recip. space projectors
   LCOMPAT=      F    compatible to vasp.4.4
   GGA_COMPAT  = T    GGA compatible to vasp.4.4-vasp.4.6
   LMAXPAW     = -100 max onsite density
   LMAXMIX     =    2 max onsite mixed and CHGCAR
   VOSKOWN=      1    Vosko Wilk Nusair interpolation
   ROPT   =   -0.00050  -0.00050
 Ionic relaxation
   EDIFFG = -.2E-01   stopping-criterion for IOM
   NSW    =    500    number of steps for IOM
   NBLOCK =      1;   KBLOCK =    500    inner block; outer block 
   IBRION =      2    ionic relax: 0-MD 1-quasi-New 2-CG
   NFREE  =      2    steps in history (QN), initial steepest desc. (CG)
   ISIF   =      0    stress and relaxation
   IWAVPR =     11    prediction:  0-non 1-charg 2-wave 3-comb
   ISYM   =      2    0-nonsym 1-usesym 2-fastsym
   LCORR  =      T    Harris-Foulkes like correction to forces

   POTIM  = 0.3500    time-step for ionic-motion
   TEIN   =    0.0    initial temperature
   TEBEG  =    0.0;   TEEND  =   0.0 temperature during run
   SMASS  =  -3.00    Nose mass-parameter (am)
   estimated Nose-frequenzy (Omega)   =  0.10E-29 period in steps =****** mass=  -0.277E-26a.u.
   SCALEE = 1.0000    scale energy and forces
   NPACO  =    256;   APACO  = 16.0  distance and # of slots for P.C.
   PSTRESS=    0.0 pullay stress

  Mass of Ions in am
   POMASS = 196.97106.42
  Ionic Valenz
   ZVAL   =  11.00 10.00
  Atomic Wigner-Seitz radii
   RWIGS  =  -1.00 -1.00
  virtual crystal weights 
   VCA    =   1.00  1.00
   NELECT =     504.0000    total number of electrons
   NUPDOWN=      -1.0000    fix difference up-down

 DOS related values:
   EMIN   =  10.00;   EMAX   =-10.00  energy-range for DOS
   EFERMI =   0.00
   ISMEAR =     0;   SIGMA  =   0.10  broadening in eV -4-tet -1-fermi 0-gaus

 Electronic relaxation 2 (details)
   IALGO  =     68    algorithm
   LDIAG  =      T    sub-space diagonalisation (order eigenvalues)
   LSUBROT=      F    optimize rotation matrix (better conditioning)
   TURBO    =      0    0=normal 1=particle mesh
   IRESTART =      0    0=no restart 2=restart with 2 vectors
   NREBOOT  =      0    no. of reboots
   NMIN     =      0    reboot dimension
   EREF     =   0.00    reference energy to select bands
   IMIX   =      4    mixing-type and parameters
     AMIX     =   0.40;   BMIX     =  1.00
     AMIX_MAG =   1.60;   BMIX_MAG =  1.00
     AMIN     =   0.10
     WC   =   100.;   INIMIX=   1;  MIXPRE=   1;  MAXMIX= -45

 Intra band minimization:
   WEIMIN = 0.0010     energy-eigenvalue tresh-hold
   EBREAK =  0.82E-09  absolut break condition
   DEPER  =   0.30     relativ break condition  

   TIME   =   0.40     timestep for ELM

  volume/ion in A,a.u.               =      53.49       360.99
  Fermi-wavevector in a.u.,A,eV,Ry     =   0.951418  1.797920 12.315955  0.905197
  Thomas-Fermi vector in A             =   2.079887
 
 Write flags
   LWAVE  =      F    write WAVECAR
   LCHARG =      F    write CHGCAR
   LVTOT  =      F    write LOCPOT, total local potential
   LVHAR  =      F    write LOCPOT, Hartree potential only
   LELF   =      F    write electronic localiz. function (ELF)
   LORBIT =      0    0 simple, 1 ext, 2 COOP (PROOUT)


 Dipole corrections
   LMONO  =      F    monopole corrections only (constant potential shift)
   LDIPOL =      T    correct potential (dipole corrections)
   IDIPOL =      3    1-x, 2-y, 3-z, 4-all directions 
   EPSILON=  1.0000000 bulk dielectric constant

 Exchange correlation treatment:
   GGA     =    PE    GGA type
   LEXCH   =     8    internal setting for exchange type
   VOSKOWN=      1    Vosko Wilk Nusair interpolation
   LHFCALC =     F    Hartree Fock is set to
   LHFONE  =     F    Hartree Fock one center treatment
   AEXX    =    0.0000 exact exchange contribution

 Linear response parameters
   LEPSILON=     F    determine dielectric tensor
   LRPA    =     F    only Hartree local field effects (RPA)
   LNABLA  =     F    use nabla operator in PAW spheres
   LVEL    =     F    velocity operator in full k-point grid
   LINTERFAST=   F  fast interpolation
   KINTER  =     0    interpolate to denser k-point grid
   CSHIFT  =0.1000    complex shift for real part using Kramers Kronig
   OMEGAMAX=  -1.0    maximum frequency
   DEG_THRESHOLD= 0.2000000E-02 threshold for treating states as degnerate
   RTIME   =    0.100 relaxation time in fs

 Orbital magnetization related:
   ORBITALMAG=     F  switch on orbital magnetization
   LCHIMAG   =     F  perturbation theory with respect to B field
   DQ        =  0.001000  dq finite difference perturbation B field



--------------------------------------------------------------------------------------------------------


 conjugate gradient relaxation of ions
 charge density and potential will be updated during run
 non-spin polarized calculation
 RMM-DIIS sequential band-by-band and
  variant of blocked Davidson during initial phase
 perform sub-space diagonalisation
    before iterative eigenvector-optimisation
 modified Broyden-mixing scheme, WC =      100.0
 initial mixing is a Kerker type mixing with AMIX =  0.4000 and BMIX =      1.0000
 Hartree-type preconditioning will be used
 using additional bands           54
 real space projection scheme for non local part
 use partial core corrections
 calculate Harris-corrections to forces 
   (improved forces if not selfconsistent)
 use gradient corrections 
 use of overlap-Matrix (Vanderbilt PP)
 Gauss-broadening in eV      SIGMA  =   0.10


--------------------------------------------------------------------------------------------------------


  energy-cutoff  :      400.00
  volume of cell :     2567.68
      direct lattice vectors                 reciprocal lattice vectors
    11.002581515  0.000000000  0.000000000     0.090887761 -0.052474073  0.000000000
     5.501290758  9.528515099  0.000000000     0.000000000  0.104948147  0.000000000
     0.000000000  0.000000000 24.491785094     0.000000000  0.000000000  0.040830017

  length of vectors
    11.002581515 11.002581515 24.491785094     0.104948147  0.104948147  0.040830017


 
 k-points in units of 2pi/SCALE and weight: Automatic mesh                          
   0.02272194  0.01311852  0.00000000       0.167
   0.00000000  0.02623704  0.00000000       0.167
  -0.02272194  0.01311852  0.00000000       0.167
  -0.02272194  0.03935555  0.00000000       0.167
   0.04544388 -0.05247407  0.00000000       0.167
  -0.02272194  0.06559259  0.00000000       0.167
 
 k-points in reciprocal lattice and weights: Automatic mesh                          
   0.25000000  0.25000000  0.00000000       0.167
   0.00000000  0.25000000  0.00000000       0.167
  -0.25000000  0.00000000  0.00000000       0.167
  -0.25000000  0.25000000  0.00000000       0.167
   0.50000000 -0.25000000  0.00000000       0.167
  -0.25000000  0.50000000  0.00000000       0.167
 
 position of ions in fractional coordinates (direct lattice) 
   0.25000000  0.75000000  0.59169983
   0.41666667  0.66666667  0.50000000
   0.50000000  0.00000000  0.59169983
   0.58333333  0.08333333  0.40830017
   0.66666667  0.91666667  0.50000000
   0.58333333  0.83333333  0.40830017
   0.33333333  0.83333333  0.40830017
   0.41666667  0.91666667  0.50000000
   0.16666667  0.66666667  0.50000000
   0.33333333  0.58333333  0.40830017
   0.50000000  0.75000000  0.59169983
   0.83333333  0.08333333  0.40830017
   0.33333333  0.33333333  0.40830017
   0.41666667  0.41666667  0.50000000
   0.66666667  0.16666667  0.50000000
   0.75000000  0.00000000  0.59169983
   0.83333333  0.33333333  0.40830017
   0.75000000  0.25000000  0.59169983
   0.00000000  0.50000000  0.59169983
   0.91666667  0.66666667  0.50000000
   0.08333333  0.58333333  0.40830017
   0.83333333  0.58333333  0.40830017
   0.08333333  0.33333333  0.40830017
   0.16666667  0.16666667  0.50000000
   0.66666667  0.41666667  0.50000000
   0.66666667  0.66666667  0.50000000
   0.50000000  0.50000000  0.59169983
   0.75000000  0.50000000  0.59169983
   0.83333333  0.83333333  0.40830017
   0.58333333  0.58333333  0.40830017
   0.08333333  0.08333333  0.40830017
   0.58333333  0.33333333  0.40830017
   0.91666667  0.16666667  0.50000000
   0.00000000  0.00000000  0.59169983
   0.91666667  0.41666667  0.50000000
   0.00000000  0.25000000  0.59169983
   0.08333333  0.83333333  0.40830017
   0.91666667  0.91666667  0.50000000
   0.50000000  0.25000000  0.59169983
   0.00000000  0.75000000  0.59169983
   0.25000000  0.00000000  0.59169983
   0.16666667  0.41666667  0.50000000
   0.25000000  0.25000000  0.59169983
   0.25000000  0.50000000  0.59169983
   0.16666667  0.91666667  0.50000000
   0.41666667  0.16666667  0.50000000
   0.33333333  0.08333333  0.40830017
   0.75000000  0.75000000  0.59169983
 
 position of ions in cartesian coordinates  (Angst):
   6.87661345  7.14638632 14.49178509
   8.25193614  6.35234340 12.24589255
   5.50129076  0.00000000 14.49178509
   6.87661345  0.79404292 10.00000000
  12.37790420  8.73447217 12.24589255
  11.00258152  7.94042925 10.00000000
   8.25193614  7.94042925 10.00000000
   9.62725883  8.73447217 12.24589255
   5.50129076  6.35234340 12.24589255
   6.87661345  5.55830047 10.00000000
   9.62725883  7.14638632 14.49178509
   9.62725883  0.79404292 10.00000000
   5.50129076  3.17617170 10.00000000
   6.87661345  3.97021462 12.24589255
   8.25193614  1.58808585 12.24589255
   8.25193614  0.00000000 14.49178509
  11.00258152  3.17617170 10.00000000
   9.62725883  2.38212877 14.49178509
   2.75064538  4.76425755 14.49178509
  13.75322689  6.35234340 12.24589255
   4.12596807  5.55830047 10.00000000
  12.37790420  5.55830047 10.00000000
   2.75064538  3.17617170 10.00000000
   2.75064538  1.58808585 12.24589255
   9.62725883  3.97021462 12.24589255
  11.00258152  6.35234340 12.24589255
   8.25193614  4.76425755 14.49178509
  11.00258152  4.76425755 14.49178509
  13.75322689  7.94042925 10.00000000
   9.62725883  5.55830047 10.00000000
   1.37532269  0.79404292 10.00000000
   8.25193614  3.17617170 10.00000000
  11.00258152  1.58808585 12.24589255
   0.00000000  0.00000000 14.49178509
  12.37790420  3.97021462 12.24589255
   1.37532269  2.38212877 14.49178509
   5.50129076  7.94042925 10.00000000
  15.12854958  8.73447217 12.24589255
   6.87661345  2.38212877 14.49178509
   4.12596807  7.14638632 14.49178509
   2.75064538  0.00000000 14.49178509
   4.12596807  3.97021462 12.24589255
   4.12596807  2.38212877 14.49178509
   5.50129076  4.76425755 14.49178509
   6.87661345  8.73447217 12.24589255
   5.50129076  1.58808585 12.24589255
   4.12596807  0.79404292 10.00000000
  12.37790420  7.14638632 14.49178509
 


--------------------------------------------------------------------------------------------------------


 k-point  1 :   0.2500 0.2500 0.0000  plane waves:   46635
 k-point  2 :   0.0000 0.2500 0.0000  plane waves:   46635
 k-point  3 :  -0.2500 0.0000 0.0000  plane waves:   46635
 k-point  4 :  -0.2500 0.2500 0.0000  plane waves:   46644
 k-point  5 :   0.5000-0.2500 0.0000  plane waves:   46644
 k-point  6 :  -0.2500 0.5000 0.0000  plane waves:   46644

 maximum and minimum number of plane-waves per node :      7818     7732

 maximum number of plane-waves:     46644
 maximum index in each direction: 
   IXMAX=   18   IYMAX=   18   IZMAX=   39
   IXMIN=  -18   IYMIN=  -18   IZMIN=  -39

 WARNING: aliasing errors must be expected set NGX to  74 to avoid them
 WARNING: aliasing errors must be expected set NGY to  74 to avoid them
 WARNING: aliasing errors must be expected set NGZ to 158 to avoid them
 aliasing errors are usually negligible using standard VASP settings
 and one can safely disregard these warnings

 real space projection operators:
  total allocation   :      12803.06 KBytes
  max/ min on nodes  :       2145.66       2127.94


 parallel 3D FFT for wavefunctions:
    minimum data exchange during FFTs selected (reduces bandwidth)
 parallel 3D FFT for charge:
    minimum data exchange during FFTs selected (reduces bandwidth)


 total amount of memory used by VASP on root node    84353. kBytes
========================================================================

   base      :      30000. kBytes
   nonlr-proj:       4285. kBytes
   fftplans  :       4447. kBytes
   grid      :       6721. kBytes
   one-center:        124. kBytes
   wavefun   :      38776. kBytes
 
     INWAV:  cpu time    0.0000: real time    0.0000
 Broyden mixing: mesh for mixing (old mesh)
   NGX = 35   NGY = 35   NGZ = 79
  (NGX  =108   NGY  =108   NGZ  =240)
  gives a total of  96775 points

 initial charge density was supplied:
 charge density of overlapping atoms calculated
 number of electron     504.0000000 magnetization 
 keeping initial charge density in first step


--------------------------------------------------------------------------------------------------------


 Maximum index for non-local projection operator          355
 Maximum index for augmentation-charges          437 (set IRDMAX)


--------------------------------------------------------------------------------------------------------


 First call to EWALD:  gamma=   0.129
 Maximum number of real-space cells 4x 4x 2
 Maximum number of reciprocal cells 2x 2x 5

 FEWALD executed in parallel
    FEWALD:  cpu time    0.0024: real time    0.0026


----------------------------------------- Iteration    1(   1)  ---------------------------------------


    POTLOK:  cpu time    0.0466: real time    0.0469
    SETDIJ:  cpu time    0.0061: real time    0.0061
     EDDAV:  cpu time    6.8559: real time    6.8757
       DOS:  cpu time    0.0015: real time    0.0015
    --------------------------------------------
      LOOP:  cpu time    6.9130: real time    6.9369

 eigenvalue-minimisations  :  3672
 total energy-change (2. order) : 0.3201415E+04  (-0.1898226E+05)
 number of electron     504.0000000 magnetization 
 augmentation part      504.0000000 magnetization 

 DIPCOR: dipole corrections for dipol
 direction  3 min pos     1,
 dipolmoment           0.000000      0.000000      0.000003 electrons x Angstroem
 Tr[quadrupol]    -10289.932200

 energy correction for charged system         0.000000 eV
 dipol+quadrupol energy correction           -0.000000 eV
 added-field ion interaction          0.000002 eV  (added to PSCEN)


 Free energy of the ion-electron system (eV)
  ---------------------------------------------------
  alpha Z        PSCENC =       805.86936616
  Ewald energy   TEWEN  =    200165.05570311
  -Hartree energ DENC   =   -242579.09974628
  -exchange      EXHF   =         0.00000000
  -V(xc)+E(xc)   XCENC  =      -327.63085958
  PAW double counting   =     40340.05962942   -38292.62782345
  entropy T*S    EENTRO =        -0.13758556
  eigenvalues    EBANDS =      1430.14002521
  atomic energy  EATOM  =     41659.78587232
  Solvation  Ediel_sol  =         0.00000000
  ---------------------------------------------------
  free energy    TOTEN  =      3201.41458135 eV

  energy without entropy =     3201.55216691  energy(sigma->0) =     3201.48337413


--------------------------------------------------------------------------------------------------------




----------------------------------------- Iteration    1(   2)  ---------------------------------------


     EDDAV:  cpu time    8.0877: real time    8.1467
       DOS:  cpu time    0.0015: real time    0.0015
    --------------------------------------------
      LOOP:  cpu time    8.0899: real time    8.1521

 eigenvalue-minimisations  :  4368
 total energy-change (2. order) :-0.3186177E+04  (-0.2927198E+04)
 number of electron     504.0000000 magnetization 
 augmentation part      504.0000000 magnetization 

 DIPCOR: dipole corrections for dipol
 direction  3 min pos     1,
 dipolmoment           0.000000      0.000000      0.000003 electrons x Angstroem
 Tr[quadrupol]    -10289.932200

 energy correction for charged system         0.000000 eV
 dipol+quadrupol energy correction           -0.000000 eV
 added-field ion interaction          0.000002 eV  (added to PSCEN)


 Free energy of the ion-electron system (eV)
  ---------------------------------------------------
  alpha Z        PSCENC =       805.86936616
  Ewald energy   TEWEN  =    200165.05570311
  -Hartree energ DENC   =   -242579.09974628
  -exchange      EXHF   =         0.00000000
  -V(xc)+E(xc)   XCENC  =      -327.63085958
  PAW double counting   =     40340.05962942   -38292.62782345
  entropy T*S    EENTRO =        -0.12048051
  eigenvalues    EBANDS =     -1756.05399687
  atomic energy  EATOM  =     41659.78587232
  Solvation  Ediel_sol  =         0.00000000
  ---------------------------------------------------
  free energy    TOTEN  =        15.23766432 eV

  energy without entropy =       15.35814483  energy(sigma->0) =       15.29790457


--------------------------------------------------------------------------------------------------------




----------------------------------------- Iteration    1(   3)  ---------------------------------------


     EDDAV:  cpu time    7.9360: real time    7.9554
       DOS:  cpu time    0.0015: real time    0.0015
    --------------------------------------------
      LOOP:  cpu time    7.9382: real time    7.9608

 eigenvalue-minimisations  :  4152
 total energy-change (2. order) :-0.2157229E+03  (-0.2006640E+03)
 number of electron     504.0000000 magnetization 
 augmentation part      504.0000000 magnetization 

 DIPCOR: dipole corrections for dipol
 direction  3 min pos     1,
 dipolmoment           0.000000      0.000000      0.000003 electrons x Angstroem
 Tr[quadrupol]    -10289.932200

 energy correction for charged system         0.000000 eV
 dipol+quadrupol energy correction           -0.000000 eV
 added-field ion interaction          0.000002 eV  (added to PSCEN)


 Free energy of the ion-electron system (eV)
  ---------------------------------------------------
  alpha Z        PSCENC =       805.86936616
  Ewald energy   TEWEN  =    200165.05570311
  -Hartree energ DENC   =   -242579.09974628
  -exchange      EXHF   =         0.00000000
  -V(xc)+E(xc)   XCENC  =      -327.63085958
  PAW double counting   =     40340.05962942   -38292.62782345
  entropy T*S    EENTRO =        -0.19292254
  eigenvalues    EBANDS =     -1971.70445201
  atomic energy  EATOM  =     41659.78587232
  Solvation  Ediel_sol  =         0.00000000
  ---------------------------------------------------
  free energy    TOTEN  =      -200.48523285 eV

  energy without entropy =     -200.29231031  energy(sigma->0) =     -200.38877158


--------------------------------------------------------------------------------------------------------




----------------------------------------- Iteration    1(   4)  ---------------------------------------


     EDDAV:  cpu time    7.9410: real time    8.0353
       DOS:  cpu time    0.0016: real time    0.0016
    --------------------------------------------
      LOOP:  cpu time    7.9433: real time    8.0416

 eigenvalue-minimisations  :  4152
 total energy-change (2. order) :-0.5787629E+01  (-0.5718165E+01)
 number of electron     504.0000000 magnetization 
 augmentation part      504.0000000 magnetization 

 DIPCOR: dipole corrections for dipol
 direction  3 min pos     1,
 dipolmoment           0.000000      0.000000      0.000003 electrons x Angstroem
 Tr[quadrupol]    -10289.932200

 energy correction for charged system         0.000000 eV
 dipol+quadrupol energy correction           -0.000000 eV
 added-field ion interaction          0.000002 eV  (added to PSCEN)


 Free energy of the ion-electron system (eV)
  ---------------------------------------------------
  alpha Z        PSCENC =       805.86936616
  Ewald energy   TEWEN  =    200165.05570311
  -Hartree energ DENC   =   -242579.09974628
  -exchange      EXHF   =         0.00000000
  -V(xc)+E(xc)   XCENC  =      -327.63085958
  PAW double counting   =     40340.05962942   -38292.62782345
  entropy T*S    EENTRO =        -0.20267486
  eigenvalues    EBANDS =     -1977.48232856
  atomic energy  EATOM  =     41659.78587232
  Solvation  Ediel_sol  =         0.00000000
  ---------------------------------------------------
  free energy    TOTEN  =      -206.27286173 eV

  energy without entropy =     -206.07018686  energy(sigma->0) =     -206.17152429


--------------------------------------------------------------------------------------------------------




----------------------------------------- Iteration    1(   5)  ---------------------------------------


     EDDAV:  cpu time    8.3368: real time    8.3587
       DOS:  cpu time    0.0015: real time    0.0015
    CHARGE:  cpu time    0.2401: real time    0.2407
    MIXING:  cpu time    0.0021: real time    0.0022
    --------------------------------------------
      LOOP:  cpu time    8.5814: real time    8.6069

 eigenvalue-minimisations  :  4428
 total energy-change (2. order) :-0.1975438E+00  (-0.1969431E+00)
 number of electron     503.9998405 magnetization 
 augmentation part      191.2821453 magnetization 

 DIPCOR: dipole corrections for dipol
 direction  3 min pos     1,
 dipolmoment           0.000000      0.000000      0.000003 electrons x Angstroem
 Tr[quadrupol]    -10289.932200

 energy correction for charged system         0.000000 eV
 dipol+quadrupol energy correction           -0.000000 eV
 added-field ion interaction          0.000002 eV  (added to PSCEN)


 Broyden mixing:
  rms(total) = 0.62321E+01    rms(broyden)= 0.62321E+01
  rms(prec ) = 0.63599E+01
  weight for this iteration     100.00

 Free energy of the ion-electron system (eV)
  ---------------------------------------------------
  alpha Z        PSCENC =       805.86936616
  Ewald energy   TEWEN  =    200165.05570311
  -Hartree energ DENC   =   -242579.09974628
  -exchange      EXHF   =         0.00000000
  -V(xc)+E(xc)   XCENC  =      -327.63085958
  PAW double counting   =     40340.05962942   -38292.62782345
  entropy T*S    EENTRO =        -0.20283220
  eigenvalues    EBANDS =     -1977.67971504
  atomic energy  EATOM  =     41659.78587232
  Solvation  Ediel_sol  =         0.00000000
  ---------------------------------------------------
  free energy    TOTEN  =      -206.47040555 eV

  energy without entropy =     -206.26757335  energy(sigma->0) =     -206.36898945


--------------------------------------------------------------------------------------------------------




----------------------------------------- Iteration    1(   6)  ---------------------------------------


    POTLOK:  cpu time    0.0424: real time    0.0425
    SETDIJ:  cpu time    0.0063: real time    0.0064
    EDDIAG:  cpu time    1.2286: real time    1.2316
  RMM-DIIS:  cpu time    3.4017: real time    3.4106
    ORTHCH:  cpu time    0.2961: real time    0.2968
       DOS:  cpu time    0.0014: real time    0.0015
    CHARGE:  cpu time    0.2387: real time    0.2393
    MIXING:  cpu time    0.0019: real time    0.0020
    --------------------------------------------
      LOOP:  cpu time    5.2178: real time    5.2346

 eigenvalue-minimisations  :  3679
 total energy-change (2. order) :-0.4944647E+00  (-0.9569508E+01)
 number of electron     503.9998431 magnetization 
 augmentation part      190.8331310 magnetization 

 DIPCOR: dipole corrections for dipol
 direction  3 min pos     1,
 dipolmoment           0.000000      0.000000      1.352036 electrons x Angstroem
 Tr[quadrupol]    -10291.341746

 energy correction for charged system         0.000000 eV
 dipol+quadrupol energy correction           -0.064414 eV
 added-field ion interaction          0.855993 eV  (added to PSCEN)


 Broyden mixing:
  rms(total) = 0.57707E+01    rms(broyden)= 0.57706E+01
  rms(prec ) = 0.62546E+01
  weight for this iteration     100.00

 eigenvalues of (default mixing * dielectric matrix)
  average eigenvalue GAMMA=   0.6509
  0.6509

 Free energy of the ion-electron system (eV)
  ---------------------------------------------------
  alpha Z        PSCENC =       806.66094345
  Ewald energy   TEWEN  =    200165.05570311
  -Hartree energ DENC   =   -242329.05024907
  -exchange      EXHF   =         0.00000000
  -V(xc)+E(xc)   XCENC  =      -340.17920250
  PAW double counting   =     43920.40521184   -41932.28241289
  entropy T*S    EENTRO =        -0.27220079
  eigenvalues    EBANDS =     -2157.08853576
  atomic energy  EATOM  =     41659.78587232
  Solvation  Ediel_sol  =         0.00000000
  ---------------------------------------------------
  free energy    TOTEN  =      -206.96487028 eV

  energy without entropy =     -206.69266949  energy(sigma->0) =     -206.82876988


--------------------------------------------------------------------------------------------------------




----------------------------------------- Iteration    1(   7)  ---------------------------------------


    POTLOK:  cpu time    0.0419: real time    0.0422
    SETDIJ:  cpu time    0.0052: real time    0.0054
    EDDIAG:  cpu time    1.2390: real time    1.2420
  RMM-DIIS:  cpu time    3.3451: real time    3.3532
    ORTHCH:  cpu time    0.2971: real time    0.2986
       DOS:  cpu time    0.0015: real time    0.0015
    CHARGE:  cpu time    0.2400: real time    0.2406
    MIXING:  cpu time    0.0021: real time    0.0021
    --------------------------------------------
      LOOP:  cpu time    5.1726: real time    5.1889

 eigenvalue-minimisations  :  3681
 total energy-change (2. order) :-0.1431617E+02  (-0.6604648E+01)
 number of electron     503.9998381 magnetization 
 augmentation part      193.7799655 magnetization 

 DIPCOR: dipole corrections for dipol
 direction  3 min pos     1,
 dipolmoment           0.000000      0.000000     -1.584504 electrons x Angstroem
 Tr[quadrupol]    -10290.573982

 energy correction for charged system         0.000000 eV
 dipol+quadrupol energy correction           -0.088469 eV
 added-field ion interaction         -1.003172 eV  (added to PSCEN)


 Broyden mixing:
  rms(total) = 0.53839E+01    rms(broyden)= 0.53835E+01
  rms(prec ) = 0.64426E+01
  weight for this iteration     100.00

 eigenvalues of (default mixing * dielectric matrix)
  average eigenvalue GAMMA=   0.7665
  1.2600  0.2729

 Free energy of the ion-electron system (eV)
  ---------------------------------------------------
  alpha Z        PSCENC =       804.77772391
  Ewald energy   TEWEN  =    200165.05570311
  -Hartree energ DENC   =   -242211.94877629
  -exchange      EXHF   =         0.00000000
  -V(xc)+E(xc)   XCENC  =      -342.42170880
  PAW double counting   =     45064.19844585   -43098.47398560
  entropy T*S    EENTRO =        -0.21688027
  eigenvalues    EBANDS =     -2262.03743321
  atomic energy  EATOM  =     41659.78587232
  Solvation  Ediel_sol  =         0.00000000
  ---------------------------------------------------
  free energy    TOTEN  =      -221.28103898 eV

  energy without entropy =     -221.06415871  energy(sigma->0) =     -221.17259885


--------------------------------------------------------------------------------------------------------




----------------------------------------- Iteration    1(   8)  ---------------------------------------


    POTLOK:  cpu time    0.0437: real time    0.0438
    SETDIJ:  cpu time    0.0062: real time    0.0062
    EDDIAG:  cpu time    1.2402: real time    1.2440
  RMM-DIIS:  cpu time    3.3600: real time    3.3717
    ORTHCH:  cpu time    0.2923: real time    0.2930
       DOS:  cpu time    0.0015: real time    0.0015
    CHARGE:  cpu time    0.2377: real time    0.2382
    MIXING:  cpu time    0.0020: real time    0.0020
    --------------------------------------------
      LOOP:  cpu time    5.1842: real time    5.2044

 eigenvalue-minimisations  :  3677
 total energy-change (2. order) : 0.5048449E+01  (-0.9207086E+01)
 number of electron     503.9998345 magnetization 
 augmentation part      197.7602289 magnetization 

 DIPCOR: dipole corrections for dipol
 direction  3 min pos     1,
 dipolmoment           0.000000      0.000000      1.250126 electrons x Angstroem
 Tr[quadrupol]    -10291.056431

 energy correction for charged system         0.000000 eV
 dipol+quadrupol energy correction           -0.055069 eV
 added-field ion interaction          0.791472 eV  (added to PSCEN)


 Broyden mixing:
  rms(total) = 0.40689E+01    rms(broyden)= 0.40685E+01
  rms(prec ) = 0.46393E+01
  weight for this iteration     100.00

 eigenvalues of (default mixing * dielectric matrix)
  average eigenvalue GAMMA=   0.8624
  1.9474  0.4201  0.2198

 Free energy of the ion-electron system (eV)
  ---------------------------------------------------
  alpha Z        PSCENC =       806.60576718
  Ewald energy   TEWEN  =    200165.05570311
  -Hartree energ DENC   =   -242129.39695564
  -exchange      EXHF   =         0.00000000
  -V(xc)+E(xc)   XCENC  =      -345.04152098
  PAW double counting   =     46612.33190357   -44675.03472543
  entropy T*S    EENTRO =        -0.22068943
  eigenvalues    EBANDS =     -2310.31794484
  atomic energy  EATOM  =     41659.78587232
  Solvation  Ediel_sol  =         0.00000000
  ---------------------------------------------------
  free energy    TOTEN  =      -216.23259014 eV

  energy without entropy =     -216.01190071  energy(sigma->0) =     -216.12224543


--------------------------------------------------------------------------------------------------------




----------------------------------------- Iteration    1(   9)  ---------------------------------------


    POTLOK:  cpu time    0.0410: real time    0.0411
    SETDIJ:  cpu time    0.0055: real time    0.0055
    EDDIAG:  cpu time    1.2235: real time    1.2272
  RMM-DIIS:  cpu time    3.4086: real time    3.4198
    ORTHCH:  cpu time    0.2917: real time    0.2932
       DOS:  cpu time    0.0015: real time    0.0015
    CHARGE:  cpu time    0.2384: real time    0.2390
    MIXING:  cpu time    0.0022: real time    0.0022
    --------------------------------------------
      LOOP:  cpu time    5.2132: real time    5.2322

 eigenvalue-minimisations  :  3680
 total energy-change (2. order) : 0.8654244E+01  (-0.4471728E+01)
 number of electron     503.9998327 magnetization 
 augmentation part      199.3926264 magnetization 

 DIPCOR: dipole corrections for dipol
 direction  3 min pos     1,
 dipolmoment           0.000000      0.000000     -0.145275 electrons x Angstroem
 Tr[quadrupol]    -10291.501881

 energy correction for charged system         0.000000 eV
 dipol+quadrupol energy correction           -0.000744 eV
 added-field ion interaction         -0.091976 eV  (added to PSCEN)


 Broyden mixing:
  rms(total) = 0.32109E+01    rms(broyden)= 0.32106E+01
  rms(prec ) = 0.34923E+01
  weight for this iteration     100.00

 eigenvalues of (default mixing * dielectric matrix)
  average eigenvalue GAMMA=   0.8044
  2.1938  0.3925  0.3925  0.2391

 Free energy of the ion-electron system (eV)
  ---------------------------------------------------
  alpha Z        PSCENC =       805.77664493
  Ewald energy   TEWEN  =    200165.05570311
  -Hartree energ DENC   =   -242109.99641134
  -exchange      EXHF   =         0.00000000
  -V(xc)+E(xc)   XCENC  =      -346.59294227
  PAW double counting   =     48317.98326949   -46405.02946977
  entropy T*S    EENTRO =        -0.20313883
  eigenvalues    EBANDS =     -2294.35787334
  atomic energy  EATOM  =     41659.78587232
  Solvation  Ediel_sol  =         0.00000000
  ---------------------------------------------------
  free energy    TOTEN  =      -207.57834570 eV

  energy without entropy =     -207.37520687  energy(sigma->0) =     -207.47677629


--------------------------------------------------------------------------------------------------------




----------------------------------------- Iteration    1(  10)  ---------------------------------------


    POTLOK:  cpu time    0.0423: real time    0.0425
    SETDIJ:  cpu time    0.0054: real time    0.0054
    EDDIAG:  cpu time    1.2241: real time    1.2271
  RMM-DIIS:  cpu time    3.4040: real time    3.4958
    ORTHCH:  cpu time    0.2908: real time    0.2942
       DOS:  cpu time    0.0015: real time    0.0015
    CHARGE:  cpu time    0.2356: real time    0.2362
    MIXING:  cpu time    0.0022: real time    0.0022
    --------------------------------------------
      LOOP:  cpu time    5.2065: real time    5.3093

 eigenvalue-minimisations  :  3684
 total energy-change (2. order) : 0.1111311E+02  (-0.1823180E+01)
 number of electron     503.9998340 magnetization 
 augmentation part      199.1344316 magnetization 

 DIPCOR: dipole corrections for dipol
 direction  3 min pos     1,
 dipolmoment           0.000000      0.000000      0.519169 electrons x Angstroem
 Tr[quadrupol]    -10291.038999

 energy correction for charged system         0.000000 eV
 dipol+quadrupol energy correction           -0.009498 eV
 added-field ion interaction          0.328693 eV  (added to PSCEN)


 Broyden mixing:
  rms(total) = 0.18818E+01    rms(broyden)= 0.18816E+01
  rms(prec ) = 0.22145E+01
  weight for this iteration     100.00

 eigenvalues of (default mixing * dielectric matrix)
  average eigenvalue GAMMA=   0.7697
  2.2770  0.5003  0.5003  0.2201  0.3509

 Free energy of the ion-electron system (eV)
  ---------------------------------------------------
  alpha Z        PSCENC =       806.18855972
  Ewald energy   TEWEN  =    200165.05570311
  -Hartree energ DENC   =   -242112.75056669
  -exchange      EXHF   =         0.00000000
  -V(xc)+E(xc)   XCENC  =      -346.29197524
  PAW double counting   =     48984.19531319   -47076.83025322
  entropy T*S    EENTRO =        -0.15177942
  eigenvalues    EBANDS =     -2275.66610612
  atomic energy  EATOM  =     41659.78587232
  Solvation  Ediel_sol  =         0.00000000
  ---------------------------------------------------
  free energy    TOTEN  =      -196.46523236 eV

  energy without entropy =     -196.31345294  energy(sigma->0) =     -196.38934265


--------------------------------------------------------------------------------------------------------




----------------------------------------- Iteration    1(  11)  ---------------------------------------


    POTLOK:  cpu time    0.0409: real time    0.0410
    SETDIJ:  cpu time    0.0055: real time    0.0055
    EDDIAG:  cpu time    1.2308: real time    1.2339
  RMM-DIIS:  cpu time    3.3940: real time    3.4034
    ORTHCH:  cpu time    0.2887: real time    0.2965
       DOS:  cpu time    0.0015: real time    0.0015
    CHARGE:  cpu time    0.2291: real time    0.2332
    MIXING:  cpu time    0.0024: real time    0.0024
    --------------------------------------------
      LOOP:  cpu time    5.1934: real time    5.2206

 eigenvalue-minimisations  :  3681
 total energy-change (2. order) : 0.4033556E+01  (-0.1149420E+01)
 number of electron     503.9998346 magnetization 
 augmentation part      198.5870801 magnetization 

 DIPCOR: dipole corrections for dipol
 direction  3 min pos     1,
 dipolmoment           0.000000      0.000000      0.213688 electrons x Angstroem
 Tr[quadrupol]    -10292.177038

 energy correction for charged system         0.000000 eV
 dipol+quadrupol energy correction           -0.001609 eV
 added-field ion interaction          0.135289 eV  (added to PSCEN)


 Broyden mixing:
  rms(total) = 0.13814E+01    rms(broyden)= 0.13811E+01
  rms(prec ) = 0.15520E+01
  weight for this iteration     100.00

 eigenvalues of (default mixing * dielectric matrix)
  average eigenvalue GAMMA=   0.7175
  2.2424  0.5861  0.5861  0.3744  0.2251  0.2910

 Free energy of the ion-electron system (eV)
  ---------------------------------------------------
  alpha Z        PSCENC =       806.00304405
  Ewald energy   TEWEN  =    200165.05570311
  -Hartree energ DENC   =   -242175.76461980
  -exchange      EXHF   =         0.00000000
  -V(xc)+E(xc)   XCENC  =      -345.78879789
  PAW double counting   =     49198.95511024   -47290.50479392
  entropy T*S    EENTRO =        -0.23293600
  eigenvalues    EBANDS =     -2209.94025881
  atomic energy  EATOM  =     41659.78587232
  Solvation  Ediel_sol  =         0.00000000
  ---------------------------------------------------
  free energy    TOTEN  =      -192.43167671 eV

  energy without entropy =     -192.19874071  energy(sigma->0) =     -192.31520871


--------------------------------------------------------------------------------------------------------




----------------------------------------- Iteration    1(  12)  ---------------------------------------


    POTLOK:  cpu time    0.0406: real time    0.0413
    SETDIJ:  cpu time    0.0054: real time    0.0054
    EDDIAG:  cpu time    1.2184: real time    1.2384
  RMM-DIIS:  cpu time    3.4195: real time    3.4322
    ORTHCH:  cpu time    0.2921: real time    0.2928
       DOS:  cpu time    0.0015: real time    0.0015
    CHARGE:  cpu time    0.2342: real time    0.2347
    MIXING:  cpu time    0.0026: real time    0.0026
    --------------------------------------------
      LOOP:  cpu time    5.2149: real time    5.2514

 eigenvalue-minimisations  :  3682
 total energy-change (2. order) : 0.2915648E+01  (-0.3773631E+00)
 number of electron     503.9998357 magnetization 
 augmentation part      197.8671038 magnetization 

 DIPCOR: dipole corrections for dipol
 direction  3 min pos     1,
 dipolmoment           0.000000      0.000000      0.204735 electrons x Angstroem
 Tr[quadrupol]    -10292.188555

 energy correction for charged system         0.000000 eV
 dipol+quadrupol energy correction           -0.001477 eV
 added-field ion interaction          0.129620 eV  (added to PSCEN)


 Broyden mixing:
  rms(total) = 0.80498E+00    rms(broyden)= 0.80483E+00
  rms(prec ) = 0.87543E+00
  weight for this iteration     100.00

 eigenvalues of (default mixing * dielectric matrix)
  average eigenvalue GAMMA=   0.6826
  2.2462  0.5850  0.5850  0.5252  0.2192  0.3088  0.3088

 Free energy of the ion-electron system (eV)
  ---------------------------------------------------
  alpha Z        PSCENC =       805.99750773
  Ewald energy   TEWEN  =    200165.05570311
  -Hartree energ DENC   =   -242206.73951865
  -exchange      EXHF   =         0.00000000
  -V(xc)+E(xc)   XCENC  =      -344.92585414
  PAW double counting   =     49242.97951482   -47330.69808924
  entropy T*S    EENTRO =        -0.21104573
  eigenvalues    EBANDS =     -2180.76011843
  atomic energy  EATOM  =     41659.78587232
  Solvation  Ediel_sol  =         0.00000000
  ---------------------------------------------------
  free energy    TOTEN  =      -189.51602822 eV

  energy without entropy =     -189.30498249  energy(sigma->0) =     -189.41050535


--------------------------------------------------------------------------------------------------------




----------------------------------------- Iteration    1(  13)  ---------------------------------------


    POTLOK:  cpu time    0.0411: real time    0.0412
    SETDIJ:  cpu time    0.0054: real time    0.0054
    EDDIAG:  cpu time    1.2216: real time    1.2246
  RMM-DIIS:  cpu time    3.4157: real time    3.4240
    ORTHCH:  cpu time    0.2910: real time    0.2917
       DOS:  cpu time    0.0015: real time    0.0016
    CHARGE:  cpu time    0.2394: real time    0.2400
    MIXING:  cpu time    0.0027: real time    0.0027
    --------------------------------------------
      LOOP:  cpu time    5.2191: real time    5.2346

 eigenvalue-minimisations  :  3682
 total energy-change (2. order) : 0.2935290E+00  (-0.1213245E+00)
 number of electron     503.9998357 magnetization 
 augmentation part      197.6738311 magnetization 

 DIPCOR: dipole corrections for dipol
 direction  3 min pos     1,
 dipolmoment           0.000000      0.000000      0.169904 electrons x Angstroem
 Tr[quadrupol]    -10292.485431

 energy correction for charged system         0.000000 eV
 dipol+quadrupol energy correction           -0.001017 eV
 added-field ion interaction          0.107568 eV  (added to PSCEN)


 Broyden mixing:
  rms(total) = 0.62964E+00    rms(broyden)= 0.62955E+00
  rms(prec ) = 0.67555E+00
  weight for this iteration     100.00

 eigenvalues of (default mixing * dielectric matrix)
  average eigenvalue GAMMA=   0.7081
  2.2276  0.8406  0.8406  0.6375  0.3234  0.3234  0.2241  0.2472

 Free energy of the ion-electron system (eV)
  ---------------------------------------------------
  alpha Z        PSCENC =       805.97591554
  Ewald energy   TEWEN  =    200165.05570311
  -Hartree energ DENC   =   -242222.82359257
  -exchange      EXHF   =         0.00000000
  -V(xc)+E(xc)   XCENC  =      -344.73051880
  PAW double counting   =     49264.53499974   -47351.00392795
  entropy T*S    EENTRO =        -0.24835863
  eigenvalues    EBANDS =     -2165.76859203
  atomic energy  EATOM  =     41659.78587232
  Solvation  Ediel_sol  =         0.00000000
  ---------------------------------------------------
  free energy    TOTEN  =      -189.22249927 eV

  energy without entropy =     -188.97414064  energy(sigma->0) =     -189.09831995


--------------------------------------------------------------------------------------------------------




----------------------------------------- Iteration    1(  14)  ---------------------------------------


    POTLOK:  cpu time    0.0415: real time    0.0417
    SETDIJ:  cpu time    0.0060: real time    0.0060
    EDDIAG:  cpu time    1.2249: real time    1.2296
  RMM-DIIS:  cpu time    3.4097: real time    3.4183
    ORTHCH:  cpu time    0.2891: real time    0.2898
       DOS:  cpu time    0.0015: real time    0.0015
    CHARGE:  cpu time    0.2377: real time    0.2382
    MIXING:  cpu time    0.0030: real time    0.0030
    --------------------------------------------
      LOOP:  cpu time    5.2140: real time    5.2326

 eigenvalue-minimisations  :  3680
 total energy-change (2. order) : 0.1809711E-01  (-0.4266028E-01)
 number of electron     503.9998361 magnetization 
 augmentation part      197.3795088 magnetization 

 DIPCOR: dipole corrections for dipol
 direction  3 min pos     1,
 dipolmoment           0.000000      0.000000      0.148284 electrons x Angstroem
 Tr[quadrupol]    -10292.888887

 energy correction for charged system         0.000000 eV
 dipol+quadrupol energy correction           -0.000775 eV
 added-field ion interaction          0.093881 eV  (added to PSCEN)


 Broyden mixing:
  rms(total) = 0.57304E+00    rms(broyden)= 0.57298E+00
  rms(prec ) = 0.63687E+00
  weight for this iteration     100.00

 eigenvalues of (default mixing * dielectric matrix)
  average eigenvalue GAMMA=   0.7164
  2.1901  1.0066  1.0066  0.6706  0.4051  0.4051  0.2185  0.2727  0.2727

 Free energy of the ion-electron system (eV)
  ---------------------------------------------------
  alpha Z        PSCENC =       805.96247043
  Ewald energy   TEWEN  =    200165.05570311
  -Hartree energ DENC   =   -242248.04955244
  -exchange      EXHF   =         0.00000000
  -V(xc)+E(xc)   XCENC  =      -344.33787476
  PAW double counting   =     49285.22712107   -47369.05550200
  entropy T*S    EENTRO =        -0.22958358
  eigenvalues    EBANDS =     -2143.56305631
  atomic energy  EATOM  =     41659.78587232
  Solvation  Ediel_sol  =         0.00000000
  ---------------------------------------------------
  free energy    TOTEN  =      -189.20440216 eV

  energy without entropy =     -188.97481858  energy(sigma->0) =     -189.08961037


--------------------------------------------------------------------------------------------------------




----------------------------------------- Iteration    1(  15)  ---------------------------------------


    POTLOK:  cpu time    0.0413: real time    0.0414
    SETDIJ:  cpu time    0.0056: real time    0.0056
    EDDIAG:  cpu time    1.2269: real time    1.2306
  RMM-DIIS:  cpu time    3.4135: real time    3.4226
    ORTHCH:  cpu time    0.2889: real time    0.2896
       DOS:  cpu time    0.0015: real time    0.0015
    CHARGE:  cpu time    0.2346: real time    0.2352
    MIXING:  cpu time    0.0030: real time    0.0030
    --------------------------------------------
      LOOP:  cpu time    5.2160: real time    5.2342

 eigenvalue-minimisations  :  3681
 total energy-change (2. order) : 0.4957597E-01  (-0.3908343E-01)
 number of electron     503.9998361 magnetization 
 augmentation part      197.2862084 magnetization 

 DIPCOR: dipole corrections for dipol
 direction  3 min pos     1,
 dipolmoment           0.000000      0.000000      0.147263 electrons x Angstroem
 Tr[quadrupol]    -10293.050859

 energy correction for charged system         0.000000 eV
 dipol+quadrupol energy correction           -0.000764 eV
 added-field ion interaction          0.093234 eV  (added to PSCEN)


 Broyden mixing:
  rms(total) = 0.55624E+00    rms(broyden)= 0.55614E+00
  rms(prec ) = 0.62923E+00
  weight for this iteration     100.00

 eigenvalues of (default mixing * dielectric matrix)
  average eigenvalue GAMMA=   0.7447
  2.1507  1.3218  1.3218  0.6654  0.4868  0.4868  0.2906  0.2906  0.2161  0.2161

 Free energy of the ion-electron system (eV)
  ---------------------------------------------------
  alpha Z        PSCENC =       805.96183440
  Ewald energy   TEWEN  =    200165.05570311
  -Hartree energ DENC   =   -242259.04946497
  -exchange      EXHF   =         0.00000000
  -V(xc)+E(xc)   XCENC  =      -344.11270271
  PAW double counting   =     49286.60231897   -47368.88562380
  entropy T*S    EENTRO =        -0.22322889
  eigenvalues    EBANDS =     -2134.28953461
  atomic energy  EATOM  =     41659.78587232
  Solvation  Ediel_sol  =         0.00000000
  ---------------------------------------------------
  free energy    TOTEN  =      -189.15482619 eV

  energy without entropy =     -188.93159730  energy(sigma->0) =     -189.04321174


--------------------------------------------------------------------------------------------------------




----------------------------------------- Iteration    1(  16)  ---------------------------------------


    POTLOK:  cpu time    0.0412: real time    0.0414
    SETDIJ:  cpu time    0.0054: real time    0.0061
    EDDIAG:  cpu time    1.2231: real time    1.2267
  RMM-DIIS:  cpu time    3.4146: real time    3.4230
    ORTHCH:  cpu time    0.2887: real time    0.2895
       DOS:  cpu time    0.0015: real time    0.0015
    CHARGE:  cpu time    0.2338: real time    0.2344
    MIXING:  cpu time    0.0030: real time    0.0030
    --------------------------------------------
      LOOP:  cpu time    5.2119: real time    5.2291

 eigenvalue-minimisations  :  3679
 total energy-change (2. order) : 0.1286566E+00  (-0.3698514E-01)
 number of electron     503.9998361 magnetization 
 augmentation part      197.2467293 magnetization 

 DIPCOR: dipole corrections for dipol
 direction  3 min pos     1,
 dipolmoment           0.000000      0.000000      0.126113 electrons x Angstroem
 Tr[quadrupol]    -10293.524762

 energy correction for charged system         0.000000 eV
 dipol+quadrupol energy correction           -0.000560 eV
 added-field ion interaction          0.079844 eV  (added to PSCEN)


 Broyden mixing:
  rms(total) = 0.36842E+00    rms(broyden)= 0.36829E+00
  rms(prec ) = 0.42415E+00
  weight for this iteration     100.00

 eigenvalues of (default mixing * dielectric matrix)
  average eigenvalue GAMMA=   0.7287
  2.1583  1.4545  1.4545  0.5945  0.5945  0.4482  0.3230  0.3230  0.2490  0.2225
  0.1940

 Free energy of the ion-electron system (eV)
  ---------------------------------------------------
  alpha Z        PSCENC =       805.94864791
  Ewald energy   TEWEN  =    200165.05570311
  -Hartree energ DENC   =   -242282.22052511
  -exchange      EXHF   =         0.00000000
  -V(xc)+E(xc)   XCENC  =      -343.82068929
  PAW double counting   =     49311.93167247   -47392.06263978
  entropy T*S    EENTRO =        -0.24701915
  eigenvalues    EBANDS =     -2113.39719211
  atomic energy  EATOM  =     41659.78587232
  Solvation  Ediel_sol  =         0.00000000
  ---------------------------------------------------
  free energy    TOTEN  =      -189.02616963 eV

  energy without entropy =     -188.77915048  energy(sigma->0) =     -188.90266005


--------------------------------------------------------------------------------------------------------




----------------------------------------- Iteration    1(  17)  ---------------------------------------


    POTLOK:  cpu time    0.0410: real time    0.0411
    SETDIJ:  cpu time    0.0051: real time    0.0054
    EDDIAG:  cpu time    1.2195: real time    1.2224
  RMM-DIIS:  cpu time    3.4676: real time    3.4761
    ORTHCH:  cpu time    0.2888: real time    0.2895
       DOS:  cpu time    0.0015: real time    0.0015
    CHARGE:  cpu time    0.2391: real time    0.2397
    MIXING:  cpu time    0.0032: real time    0.0032
    --------------------------------------------
      LOOP:  cpu time    5.2665: real time    5.2830

 eigenvalue-minimisations  :  3684
 total energy-change (2. order) : 0.1264945E+00  (-0.1441289E-01)
 number of electron     503.9998361 magnetization 
 augmentation part      197.2293546 magnetization 

 DIPCOR: dipole corrections for dipol
 direction  3 min pos     1,
 dipolmoment           0.000000      0.000000      0.104898 electrons x Angstroem
 Tr[quadrupol]    -10293.769160

 energy correction for charged system         0.000000 eV
 dipol+quadrupol energy correction           -0.000388 eV
 added-field ion interaction          0.066412 eV  (added to PSCEN)


 Broyden mixing:
  rms(total) = 0.18727E+00    rms(broyden)= 0.18720E+00
  rms(prec ) = 0.21292E+00
  weight for this iteration     100.00

 eigenvalues of (default mixing * dielectric matrix)
  average eigenvalue GAMMA=   0.7200
  2.1703  1.5582  1.5582  0.6411  0.6411  0.4052  0.4052  0.3308  0.2766  0.2336
  0.2097  0.2097

 Free energy of the ion-electron system (eV)
  ---------------------------------------------------
  alpha Z        PSCENC =       805.93538892
  Ewald energy   TEWEN  =    200165.05570311
  -Hartree energ DENC   =   -242294.01005917
  -exchange      EXHF   =         0.00000000
  -V(xc)+E(xc)   XCENC  =      -343.70485538
  PAW double counting   =     49330.31590413   -47409.60290897
  entropy T*S    EENTRO =        -0.24921705
  eigenvalues    EBANDS =     -2102.42550307
  atomic energy  EATOM  =     41659.78587232
  Solvation  Ediel_sol  =         0.00000000
  ---------------------------------------------------
  free energy    TOTEN  =      -188.89967516 eV

  energy without entropy =     -188.65045812  energy(sigma->0) =     -188.77506664


--------------------------------------------------------------------------------------------------------




----------------------------------------- Iteration    1(  18)  ---------------------------------------


    POTLOK:  cpu time    0.0410: real time    0.0411
    SETDIJ:  cpu time    0.0055: real time    0.0055
    EDDIAG:  cpu time    1.2226: real time    1.2257
  RMM-DIIS:  cpu time    3.3516: real time    3.4451
    ORTHCH:  cpu time    0.2889: real time    0.2896
       DOS:  cpu time    0.0015: real time    0.0015
    CHARGE:  cpu time    0.2356: real time    0.2362
    MIXING:  cpu time    0.0033: real time    0.0034
    --------------------------------------------
      LOOP:  cpu time    5.1508: real time    5.2515

 eigenvalue-minimisations  :  3681
 total energy-change (2. order) : 0.3111467E-01  (-0.4200929E-02)
 number of electron     503.9998362 magnetization 
 augmentation part      197.1857030 magnetization 

 DIPCOR: dipole corrections for dipol
 direction  3 min pos     1,
 dipolmoment           0.000000      0.000000      0.096606 electrons x Angstroem
 Tr[quadrupol]    -10293.924685

 energy correction for charged system         0.000000 eV
 dipol+quadrupol energy correction           -0.000329 eV
 added-field ion interaction          0.061162 eV  (added to PSCEN)


 Broyden mixing:
  rms(total) = 0.12561E+00    rms(broyden)= 0.12557E+00
  rms(prec ) = 0.14101E+00
  weight for this iteration     100.00

 eigenvalues of (default mixing * dielectric matrix)
  average eigenvalue GAMMA=   0.7102
  2.2351  1.6127  1.6127  0.6795  0.6795  0.4160  0.4160  0.3558  0.3016  0.2892
  0.2227  0.2227  0.1887

 Free energy of the ion-electron system (eV)
  ---------------------------------------------------
  alpha Z        PSCENC =       805.93019789
  Ewald energy   TEWEN  =    200165.05570311
  -Hartree energ DENC   =   -242302.06404083
  -exchange      EXHF   =         0.00000000
  -V(xc)+E(xc)   XCENC  =      -343.61459951
  PAW double counting   =     49342.91824086   -47421.62199645
  entropy T*S    EENTRO =        -0.25416009
  eigenvalues    EBANDS =     -2095.00377778
  atomic energy  EATOM  =     41659.78587232
  Solvation  Ediel_sol  =         0.00000000
  ---------------------------------------------------
  free energy    TOTEN  =      -188.86856049 eV

  energy without entropy =     -188.61440040  energy(sigma->0) =     -188.74148045


--------------------------------------------------------------------------------------------------------




----------------------------------------- Iteration    1(  19)  ---------------------------------------


    POTLOK:  cpu time    0.0411: real time    0.0412
    SETDIJ:  cpu time    0.0052: real time    0.0053
    EDDIAG:  cpu time    1.2247: real time    1.2278
  RMM-DIIS:  cpu time    3.3946: real time    3.4028
    ORTHCH:  cpu time    0.2873: real time    0.2880
       DOS:  cpu time    0.0015: real time    0.0015
    CHARGE:  cpu time    0.2344: real time    0.2350
    MIXING:  cpu time    0.0035: real time    0.0035
    --------------------------------------------
      LOOP:  cpu time    5.1930: real time    5.2085

 eigenvalue-minimisations  :  3681
 total energy-change (2. order) : 0.1376134E-01  (-0.1803229E-02)
 number of electron     503.9998362 magnetization 
 augmentation part      197.1378311 magnetization 

 DIPCOR: dipole corrections for dipol
 direction  3 min pos     1,
 dipolmoment           0.000000      0.000000      0.081300 electrons x Angstroem
 Tr[quadrupol]    -10294.086398

 energy correction for charged system         0.000000 eV
 dipol+quadrupol energy correction           -0.000233 eV
 added-field ion interaction          0.051472 eV  (added to PSCEN)


 Broyden mixing:
  rms(total) = 0.79467E-01    rms(broyden)= 0.79450E-01
  rms(prec ) = 0.87557E-01
  weight for this iteration     100.00

 eigenvalues of (default mixing * dielectric matrix)
  average eigenvalue GAMMA=   0.7235
  2.2399  1.6455  1.6455  0.7915  0.7915  0.5231  0.4938  0.4938  0.3134  0.3134
  0.2587  0.2210  0.2069  0.1904

 Free energy of the ion-electron system (eV)
  ---------------------------------------------------
  alpha Z        PSCENC =       805.92060374
  Ewald energy   TEWEN  =    200165.05570311
  -Hartree energ DENC   =   -242309.30491961
  -exchange      EXHF   =         0.00000000
  -V(xc)+E(xc)   XCENC  =      -343.55626581
  PAW double counting   =     49353.77797493   -47432.11741462
  entropy T*S    EENTRO =        -0.25256124
  eigenvalues    EBANDS =     -2088.16379196
  atomic energy  EATOM  =     41659.78587232
  Solvation  Ediel_sol  =         0.00000000
  ---------------------------------------------------
  free energy    TOTEN  =      -188.85479915 eV

  energy without entropy =     -188.60223791  energy(sigma->0) =     -188.72851853


--------------------------------------------------------------------------------------------------------




----------------------------------------- Iteration    1(  20)  ---------------------------------------


    POTLOK:  cpu time    0.0411: real time    0.0412
    SETDIJ:  cpu time    0.0055: real time    0.0055
    EDDIAG:  cpu time    1.2210: real time    1.2241
  RMM-DIIS:  cpu time    3.3654: real time    3.3759
    ORTHCH:  cpu time    0.2879: real time    0.2886
       DOS:  cpu time    0.0015: real time    0.0015
    CHARGE:  cpu time    0.2339: real time    0.2345
    MIXING:  cpu time    0.0037: real time    0.0037
    --------------------------------------------
      LOOP:  cpu time    5.1607: real time    5.1771

 eigenvalue-minimisations  :  3682
 total energy-change (2. order) : 0.2635866E-02  (-0.6387621E-03)
 number of electron     503.9998362 magnetization 
 augmentation part      197.1102222 magnetization 

 DIPCOR: dipole corrections for dipol
 direction  3 min pos     1,
 dipolmoment           0.000000      0.000000      0.073252 electrons x Angstroem
 Tr[quadrupol]    -10294.220207

 energy correction for charged system         0.000000 eV
 dipol+quadrupol energy correction           -0.000189 eV
 added-field ion interaction          0.046377 eV  (added to PSCEN)


 Broyden mixing:
  rms(total) = 0.66386E-01    rms(broyden)= 0.66379E-01
  rms(prec ) = 0.72454E-01
  weight for this iteration     100.00

 eigenvalues of (default mixing * dielectric matrix)
  average eigenvalue GAMMA=   0.7408
  2.2280  1.7334  1.7334  0.9496  0.9496  0.7419  0.4858  0.4858  0.3268  0.3268
  0.2674  0.2674  0.2202  0.2075  0.1892

 Free energy of the ion-electron system (eV)
  ---------------------------------------------------
  alpha Z        PSCENC =       805.91555186
  Ewald energy   TEWEN  =    200165.05570311
  -Hartree energ DENC   =   -242315.07126388
  -exchange      EXHF   =         0.00000000
  -V(xc)+E(xc)   XCENC  =      -343.51864112
  PAW double counting   =     49358.71015214   -47436.85798494
  entropy T*S    EENTRO =        -0.25403851
  eigenvalues    EBANDS =     -2082.61751425
  atomic energy  EATOM  =     41659.78587232
  Solvation  Ediel_sol  =         0.00000000
  ---------------------------------------------------
  free energy    TOTEN  =      -188.85216329 eV

  energy without entropy =     -188.59812477  energy(sigma->0) =     -188.72514403


--------------------------------------------------------------------------------------------------------




----------------------------------------- Iteration    1(  21)  ---------------------------------------


    POTLOK:  cpu time    0.0412: real time    0.0413
    SETDIJ:  cpu time    0.0054: real time    0.0054
    EDDIAG:  cpu time    1.2164: real time    1.2194
  RMM-DIIS:  cpu time    3.3890: real time    3.3972
    ORTHCH:  cpu time    0.2879: real time    0.2886
       DOS:  cpu time    0.0015: real time    0.0015
    CHARGE:  cpu time    0.2390: real time    0.2395
    MIXING:  cpu time    0.0039: real time    0.0040
    --------------------------------------------
      LOOP:  cpu time    5.1849: real time    5.2001

 eigenvalue-minimisations  :  3681
 total energy-change (2. order) : 0.3118585E-02  (-0.5525633E-03)
 number of electron     503.9998363 magnetization 
 augmentation part      197.0848168 magnetization 

 DIPCOR: dipole corrections for dipol
 direction  3 min pos     1,
 dipolmoment           0.000000      0.000000      0.065262 electrons x Angstroem
 Tr[quadrupol]    -10294.386397

 energy correction for charged system         0.000000 eV
 dipol+quadrupol energy correction           -0.000150 eV
 added-field ion interaction          0.041318 eV  (added to PSCEN)


 Broyden mixing:
  rms(total) = 0.46101E-01    rms(broyden)= 0.46093E-01
  rms(prec ) = 0.50713E-01
  weight for this iteration     100.00

 eigenvalues of (default mixing * dielectric matrix)
  average eigenvalue GAMMA=   0.7695
  2.2886  1.9949  1.9949  0.9012  0.9012  0.9122  0.5594  0.5594  0.3878  0.3644
  0.3107  0.2762  0.2427  0.2221  0.2082  0.1886

 Free energy of the ion-electron system (eV)
  ---------------------------------------------------
  alpha Z        PSCENC =       805.91053255
  Ewald energy   TEWEN  =    200165.05570311
  -Hartree energ DENC   =   -242321.87282818
  -exchange      EXHF   =         0.00000000
  -V(xc)+E(xc)   XCENC  =      -343.48243705
  PAW double counting   =     49362.74001154   -47440.74322467
  entropy T*S    EENTRO =        -0.25365971
  eigenvalues    EBANDS =     -2075.98901461
  atomic energy  EATOM  =     41659.78587232
  Solvation  Ediel_sol  =         0.00000000
  ---------------------------------------------------
  free energy    TOTEN  =      -188.84904470 eV

  energy without entropy =     -188.59538499  energy(sigma->0) =     -188.72221485


--------------------------------------------------------------------------------------------------------




----------------------------------------- Iteration    1(  22)  ---------------------------------------


    POTLOK:  cpu time    0.0413: real time    0.0414
    SETDIJ:  cpu time    0.0054: real time    0.0055
    EDDIAG:  cpu time    1.2154: real time    1.2184
  RMM-DIIS:  cpu time    3.4124: real time    3.4207
    ORTHCH:  cpu time    0.2882: real time    0.2889
       DOS:  cpu time    0.0015: real time    0.0015
    CHARGE:  cpu time    0.2363: real time    0.2368
    MIXING:  cpu time    0.0041: real time    0.0041
    --------------------------------------------
      LOOP:  cpu time    5.2053: real time    5.2206

 eigenvalue-minimisations  :  3681
 total energy-change (2. order) : 0.1293918E-02  (-0.2820726E-03)
 number of electron     503.9998363 magnetization 
 augmentation part      197.0726599 magnetization 

 DIPCOR: dipole corrections for dipol
 direction  3 min pos     1,
 dipolmoment           0.000000      0.000000      0.062840 electrons x Angstroem
 Tr[quadrupol]    -10294.556737

 energy correction for charged system         0.000000 eV
 dipol+quadrupol energy correction           -0.000139 eV
 added-field ion interaction          0.039785 eV  (added to PSCEN)


 Broyden mixing:
  rms(total) = 0.29365E-01    rms(broyden)= 0.29360E-01
  rms(prec ) = 0.33197E-01
  weight for this iteration     100.00

 eigenvalues of (default mixing * dielectric matrix)
  average eigenvalue GAMMA=   0.7789
  2.3104  2.1596  2.1596  1.1853  0.8182  0.8182  0.7120  0.4857  0.4309  0.3998
  0.3139  0.3139  0.2643  0.2520  0.2204  0.2075  0.1889

 Free energy of the ion-electron system (eV)
  ---------------------------------------------------
  alpha Z        PSCENC =       805.90901009
  Ewald energy   TEWEN  =    200165.05570311
  -Hartree energ DENC   =   -242328.51152987
  -exchange      EXHF   =         0.00000000
  -V(xc)+E(xc)   XCENC  =      -343.45474362
  PAW double counting   =     49366.37386308   -47444.31393623
  entropy T*S    EENTRO =        -0.25293137
  eigenvalues    EBANDS =     -2069.43905829
  atomic energy  EATOM  =     41659.78587232
  Solvation  Ediel_sol  =         0.00000000
  ---------------------------------------------------
  free energy    TOTEN  =      -188.84775078 eV

  energy without entropy =     -188.59481941  energy(sigma->0) =     -188.72128510


--------------------------------------------------------------------------------------------------------




----------------------------------------- Iteration    1(  23)  ---------------------------------------


    POTLOK:  cpu time    0.0418: real time    0.0419
    SETDIJ:  cpu time    0.0055: real time    0.0055
    EDDIAG:  cpu time    1.2259: real time    1.2288
  RMM-DIIS:  cpu time    3.3742: real time    3.4145
    ORTHCH:  cpu time    0.2831: real time    0.2883
       DOS:  cpu time    0.0015: real time    0.0015
    CHARGE:  cpu time    0.2319: real time    0.2347
    MIXING:  cpu time    0.0043: real time    0.0043
    --------------------------------------------
      LOOP:  cpu time    5.1688: real time    5.2229

 eigenvalue-minimisations  :  3684
 total energy-change (2. order) : 0.7450569E-03  (-0.1264069E-03)
 number of electron     503.9998363 magnetization 
 augmentation part      197.0693098 magnetization 

 DIPCOR: dipole corrections for dipol
 direction  3 min pos     1,
 dipolmoment           0.000000      0.000000      0.059970 electrons x Angstroem
 Tr[quadrupol]    -10294.668659

 energy correction for charged system         0.000000 eV
 dipol+quadrupol energy correction           -0.000127 eV
[...]
    275       1.7344      0.00000
    276       1.8480      0.00000
    277       2.1330      0.00000
    278       2.2221      0.00000
    279       2.3182      0.00000
    280       2.3815      0.00000
    281       2.4555      0.00000
    282       2.5822      0.00000
    283       2.6769      0.00000
    284       2.9811      0.00000
    285       3.1301      0.00000
    286       3.2270      0.00000
    287       3.5381      0.00000
    288       3.6133      0.00000
    289       3.7451      0.00000
    290       3.9450      0.00000
    291       4.0690      0.00000
    292       4.2039      0.00000
    293       4.4697      0.00000
    294       4.5249      0.00000
    295       4.5907      0.00000
    296       4.6303      0.00000
    297       4.7125      0.00000
    298       4.7791      0.00000
    299       4.8607      0.00000
    300       4.9183      0.00000
    301       4.9672      0.00000
    302       4.9884      0.00000
    303       5.0791      0.00000
    304       5.0846      0.00000
    305       5.2155      0.00000
    306       5.2558      0.00000


--------------------------------------------------------------------------------------------------------


 soft charge-density along one line, spin component           1
         0         1         2         3         4         5         6         7         8         9
 total charge-density along one line
 
 pseudopotential strength for first ion, spin component:           1
 -7.995  -0.002  -0.001  -0.003   0.000  -8.143  -0.002  -0.001
 -0.002  -7.912  -0.000   0.001  -0.001  -0.002  -8.062  -0.000
 -0.001  -0.000  -7.909   0.001   0.003  -0.001  -0.000  -8.059
 -0.003   0.001   0.001  -7.917  -0.004  -0.003   0.001   0.001
  0.000  -0.001   0.003  -0.004  -7.995   0.000  -0.001   0.003
 -8.143  -0.002  -0.001  -0.003   0.000  -8.275  -0.002  -0.001
 -0.002  -8.062  -0.000   0.001  -0.001  -0.002  -8.195  -0.000
 -0.001  -0.000  -8.059   0.001   0.003  -0.001  -0.000  -8.193
 -0.003   0.001   0.001  -8.066  -0.004  -0.003   0.001   0.001
  0.000  -0.001   0.003  -0.004  -8.143   0.000  -0.001   0.003
 -0.001   0.000  -0.025   0.001   0.001  -0.001   0.000  -0.025
 -0.002   0.000  -0.036   0.002   0.002  -0.002   0.000  -0.036
  0.002   0.004   0.001   0.000   0.002   0.002   0.004   0.001
  0.000  -0.003   0.006   0.002  -0.000   0.000  -0.003   0.006
 -0.002   0.000  -0.001   0.004   0.002  -0.002   0.000  -0.001
  0.002   0.004   0.001   0.000   0.003   0.002   0.004   0.001
  0.000  -0.003   0.007   0.002  -0.000   0.000  -0.003   0.006
 -0.003   0.000  -0.002   0.004   0.003  -0.003   0.000  -0.002
 total augmentation occupancy for first ion, spin component:           1
  3.857   0.011   0.010   0.041  -0.006  -2.061  -0.017  -0.016  -0.070   0.004   0.039   0.002   0.018   0.002   0.021   0.002
  0.011   4.084   0.063   0.006   0.030  -0.017  -1.798  -0.054  -0.001  -0.054  -0.025   0.031   0.181   0.011   0.000  -0.003
  0.010   0.063   4.183   0.077  -0.058  -0.016  -0.054  -2.078  -0.047   0.069   0.890  -0.067   0.012   0.201   0.022   0.000
  0.041   0.006   0.077   4.139  -0.038  -0.069  -0.001  -0.047  -1.855   0.005  -0.056   0.015  -0.002   0.014   0.161  -0.000
 -0.006   0.030  -0.058  -0.038   4.072   0.004  -0.055   0.069   0.004  -2.270  -0.094   0.069   0.026   0.000  -0.046   0.001
 -2.061  -0.017  -0.016  -0.069   0.004   2.141   0.022   0.021   0.091  -0.002  -0.033  -0.001  -0.017  -0.001  -0.017   0.000
 -0.017  -1.798  -0.054  -0.001  -0.055   0.022   1.490   0.046  -0.003   0.073   0.020  -0.026  -0.173  -0.005   0.000   0.006
 -0.016  -0.054  -2.078  -0.047   0.069   0.021   0.046   1.916   0.025  -0.077  -0.833   0.085  -0.011  -0.207  -0.016   0.001
 -0.070  -0.001  -0.047  -1.855   0.004   0.091  -0.003   0.025   1.546   0.020   0.051  -0.015   0.002  -0.012  -0.151  -0.000
  0.004  -0.054   0.069   0.005  -2.270  -0.002   0.073  -0.077   0.020   2.347   0.084  -0.061  -0.028   0.003   0.036   0.001
  0.039  -0.025   0.890  -0.056  -0.094  -0.033   0.020  -0.833   0.051   0.084   2.314  -0.447   0.008  -0.122   0.005  -0.001
  0.002   0.031  -0.067   0.015   0.069  -0.001  -0.026   0.085  -0.015  -0.061  -0.447   0.127   0.003   0.056  -0.011  -0.000
  0.018   0.181   0.012  -0.002   0.026  -0.017  -0.173  -0.011   0.002  -0.028   0.008   0.003   0.176   0.001  -0.002  -0.005
  0.002   0.011   0.201   0.014   0.000  -0.001  -0.005  -0.207  -0.012   0.003  -0.122   0.056   0.001   0.086   0.004  -0.000
  0.021   0.000   0.022   0.161  -0.046  -0.017   0.000  -0.016  -0.151   0.036   0.005  -0.011  -0.002   0.004   0.181   0.000
  0.002  -0.003   0.000  -0.000   0.001   0.000   0.006   0.001  -0.000   0.001  -0.001  -0.000  -0.005  -0.000   0.000   0.000
 -0.000  -0.004   0.000   0.002  -0.000   0.000   0.001   0.006  -0.000   0.000   0.008  -0.003  -0.000  -0.003  -0.000   0.000
 -0.003  -0.000  -0.003  -0.004   0.005   0.001  -0.000   0.001   0.006  -0.002  -0.000   0.000   0.000  -0.000  -0.005  -0.000


------------------------ aborting loop because EDIFF is reached ----------------------------------------


    CHARGE:  cpu time    0.2321: real time    0.2326
    FORLOC:  cpu time    0.0168: real time    0.0168
    FORNL :  cpu time    1.3179: real time    1.3211
    FORCOR:  cpu time    0.0580: real time    0.0581
    FORHAR:  cpu time    0.0248: real time    0.0249
    MIXING:  cpu time    0.0027: real time    0.0027
    OFIELD:  cpu time    0.0000: real time    0.0000

 VOLUME and BASIS-vectors are now :
 -----------------------------------------------------------------------------
  energy-cutoff  :      400.00
  volume of cell :     2567.68
      direct lattice vectors                 reciprocal lattice vectors
    11.002581515  0.000000000  0.000000000     0.090887761 -0.052474073  0.000000000
     5.501290758  9.528515099  0.000000000     0.000000000  0.104948147  0.000000000
     0.000000000  0.000000000 24.491785094     0.000000000  0.000000000  0.040830017

  length of vectors
    11.002581515 11.002581515 24.491785094     0.104948147  0.104948147  0.040830017


 FORCES acting on ions
    electron-ion (+dipol)            ewald-force                    non-local-force                 convergence-correction
 -----------------------------------------------------------------------------------------------
   0.659E+01 0.542E+01 -.231E+04   -.700E+01 -.495E+01 0.231E+04   0.429E+00 -.458E+00 0.114E+00   -.126E-01 -.125E-01 -.627E-03
   0.691E+01 -.107E+02 -.365E+02   -.604E+01 0.103E+02 0.365E+02   -.868E+00 0.424E+00 0.651E-01   0.684E-02 -.794E-02 -.164E-02
   0.558E+01 -.105E+02 -.230E+04   -.577E+01 0.113E+02 0.230E+04   0.184E+00 -.813E+00 -.420E-01   0.586E-02 0.238E-02 0.227E-03
   -.844E+01 0.229E+01 0.226E+04   0.798E+01 -.216E+01 -.226E+04   0.471E+00 -.124E+00 0.167E-01   -.913E-03 -.279E-02 -.107E-02
   0.684E+01 -.957E+01 -.374E+02   -.669E+01 0.918E+01 0.373E+02   -.148E+00 0.410E+00 0.428E-01   -.437E-02 -.884E-02 -.983E-02
   0.189E+01 -.525E+00 0.226E+04   -.193E+01 0.179E+00 -.226E+04   0.315E-01 0.349E+00 0.660E-01   0.623E-02 -.414E-02 -.364E-02
   0.576E+01 -.882E+01 0.224E+04   -.639E+01 0.937E+01 -.224E+04   0.619E+00 -.549E+00 0.751E-01   0.695E-02 -.578E-02 -.134E-01
   -.686E+01 0.114E+02 -.437E+02   0.668E+01 -.111E+02 0.437E+02   0.177E+00 -.284E+00 0.567E-01   0.442E-02 -.165E-01 -.119E-01
   -.747E+01 0.632E+01 -.196E+02   0.703E+01 -.570E+01 0.200E+02   0.448E+00 -.608E+00 -.477E+00   -.575E-02 -.948E-02 0.663E-02
   -.106E+02 -.612E+01 0.230E+04   0.111E+02 0.595E+01 -.230E+04   -.502E+00 0.159E+00 0.221E+00   0.568E-02 0.378E-02 0.179E-02
   -.115E+01 0.804E+01 -.230E+04   0.176E+01 -.855E+01 0.230E+04   -.613E+00 0.526E+00 0.160E-01   0.586E-02 -.168E-01 -.653E-02
   -.855E+01 0.476E+01 0.222E+04   0.900E+01 -.553E+01 -.222E+04   -.438E+00 0.748E+00 -.418E+00   -.862E-02 0.785E-02 -.894E-02
   -.185E+01 0.651E+01 0.223E+04   0.202E+01 -.713E+01 -.223E+04   -.187E+00 0.601E+00 -.902E-01   0.331E-02 0.612E-02 0.146E-01
   0.541E+01 -.566E+01 -.306E+01   -.556E+01 0.511E+01 0.416E+01   0.163E+00 0.532E+00 -.112E+01   -.427E-02 0.181E-02 0.802E-02
   -.119E+01 0.925E+01 -.414E+02   0.137E+01 -.892E+01 0.413E+02   -.166E+00 -.338E+00 0.615E-01   -.714E-02 0.968E-02 -.559E-02
   -.293E+01 -.588E+00 -.231E+04   0.352E+01 -.502E-01 0.231E+04   -.590E+00 0.658E+00 0.988E-01   0.144E-02 -.135E-01 -.389E-02
   0.748E+01 0.723E+01 0.221E+04   -.816E+01 -.715E+01 -.221E+04   0.685E+00 -.105E+00 -.586E+00   -.521E-02 0.147E-01 0.292E-02
   -.659E+01 -.802E+01 -.228E+04   0.719E+01 0.871E+01 0.228E+04   -.589E+00 -.696E+00 0.432E+00   -.706E-02 0.891E-02 -.302E-02
   -.114E+01 0.933E+01 -.226E+04   0.115E+01 -.950E+01 0.226E+04   -.146E-01 0.170E+00 0.368E+00   0.409E-02 0.856E-02 -.534E-02
   -.688E+00 0.104E+02 -.258E+02   0.385E+00 -.103E+02 0.262E+02   0.303E+00 -.102E+00 -.478E+00   -.241E-02 -.180E-01 0.685E-03
   0.212E+01 -.134E+02 0.226E+04   -.220E+01 0.142E+02 -.226E+04   0.707E-01 -.743E+00 -.959E-01   -.168E-02 0.452E-02 0.133E-01
   0.440E+01 -.895E+00 0.223E+04   -.487E+01 0.135E+01 -.223E+04   0.461E+00 -.476E+00 -.276E+00   0.159E-02 0.793E-02 0.139E-01
   0.802E+01 0.110E+02 0.223E+04   -.790E+01 -.117E+02 -.223E+04   -.134E+00 0.671E+00 -.471E+00   0.690E-02 0.969E-02 0.155E-01
   -.182E+01 -.551E+01 -.233E+02   0.164E+01 0.566E+01 0.238E+02   0.169E+00 -.158E+00 -.471E+00   0.109E-01 0.141E-01 -.634E-02
   -.627E+00 0.229E+01 -.335E+02   0.118E+01 -.190E+01 0.335E+02   -.535E+00 -.398E+00 0.287E-02   -.664E-02 0.792E-02 -.104E-02
   0.167E+01 -.551E+01 -.119E+02   -.174E+01 0.472E+01 0.123E+02   0.531E-01 0.798E+00 -.414E+00   0.287E-02 -.409E-02 -.514E-02
   0.247E+01 0.869E+01 -.201E+04   -.237E+01 -.901E+01 0.201E+04   -.109E+00 0.332E+00 0.140E+01   0.408E-02 -.413E-02 -.870E-02
   -.668E+01 0.556E+01 -.197E+04   0.657E+01 -.555E+01 0.197E+04   0.119E+00 -.199E-01 0.190E+01   -.652E-02 0.840E-02 -.266E-02
   -.108E+02 -.585E+01 0.195E+04   0.114E+02 0.591E+01 -.195E+04   -.563E+00 -.649E-01 -.120E+01   -.280E-02 -.339E-02 -.130E-02
   0.298E+01 0.782E+01 0.194E+04   -.290E+01 -.817E+01 -.194E+04   -.819E-01 0.339E+00 -.154E+01   0.392E-02 0.164E-02 0.623E-02
   0.544E+01 0.703E+01 0.195E+04   -.536E+01 -.743E+01 -.194E+04   -.936E-01 0.386E+00 -.157E+01   0.735E-02 0.427E-02 -.111E-01
   -.131E+02 -.118E+01 0.196E+04   0.133E+02 0.178E+01 -.196E+04   -.222E+00 -.604E+00 -.138E+01   0.637E-02 0.522E-02 0.755E-02
   0.739E+01 -.377E+01 -.251E+02   -.699E+01 0.346E+01 0.255E+02   -.385E+00 0.305E+00 -.401E+00   -.113E-01 0.903E-02 -.651E-02
   -.812E+01 -.772E+01 -.199E+04   0.835E+01 0.758E+01 0.199E+04   -.210E+00 0.165E+00 0.184E+01   -.139E-01 -.137E-01 -.281E-02
   -.561E+01 -.411E+01 0.105E+01   0.499E+01 0.404E+01 -.159E+00   0.619E+00 0.594E-01 -.876E+00   0.334E-02 0.184E-01 -.400E-02
   -.188E+01 -.484E+01 -.199E+04   0.189E+01 0.464E+01 0.199E+04   -.688E-02 0.192E+00 0.184E+01   -.211E-03 0.104E-01 0.690E-03
   0.257E+01 -.149E+02 0.194E+04   -.266E+01 0.152E+02 -.194E+04   0.855E-01 -.286E+00 -.161E+01   0.456E-03 -.175E-01 -.685E-02
   0.433E+01 -.411E+01 -.452E+02   -.360E+01 0.413E+01 0.452E+02   -.722E+00 -.136E-01 0.430E-01   -.778E-02 -.540E-02 0.396E-02
   0.542E+01 -.118E+02 -.201E+04   -.609E+01 0.121E+02 0.200E+04   0.682E+00 -.320E+00 0.157E+01   -.108E-01 0.577E-02 -.300E-02
   0.539E+00 0.937E+01 -.201E+04   -.505E+00 -.905E+01 0.201E+04   -.243E-01 -.325E+00 0.139E+01   -.534E-02 -.296E-02 -.101E-03
   0.664E+01 -.113E+02 -.202E+04   -.717E+01 0.117E+02 0.201E+04   0.533E+00 -.359E+00 0.158E+01   0.168E-02 -.120E-02 0.444E-03
   0.115E+01 -.494E+01 0.139E+02   -.108E+01 0.452E+01 -.130E+02   -.719E-01 0.417E+00 -.921E+00   -.103E-02 0.833E-02 0.830E-02
   0.248E+01 -.104E+02 -.199E+04   -.226E+01 0.104E+02 0.199E+04   -.236E+00 -.897E-02 0.169E+01   0.114E-01 0.571E-02 0.396E-02
   0.605E+01 0.693E+01 -.200E+04   -.599E+01 -.730E+01 0.200E+04   -.377E-01 0.380E+00 0.172E+01   -.748E-02 -.419E-02 -.594E-02
   -.465E+01 0.106E+02 -.438E+02   0.393E+01 -.995E+01 0.439E+02   0.707E+00 -.576E+00 -.460E-01   0.523E-02 -.202E-01 -.219E-02
   -.466E+01 0.358E+01 -.925E+01   0.433E+01 -.320E+01 0.970E+01   0.306E+00 -.389E+00 -.451E+00   0.103E-01 0.120E-01 0.817E-03
   0.917E+01 0.363E+01 0.196E+04   -.924E+01 -.343E+01 -.196E+04   0.649E-01 -.195E+00 -.137E+01   0.549E-02 -.188E-03 0.676E-03
   -.395E+01 0.133E+02 -.200E+04   0.380E+01 -.137E+02 0.200E+04   0.160E+00 0.395E+00 0.148E+01   0.569E-03 -.522E-02 -.418E-03
 -----------------------------------------------------------------------------------------------
   -.235E-01 0.363E-02 -.176E+01   0.666E-13 0.888E-12 0.296E-11   -.731E-02 0.410E-02 0.180E+01   -.560E-03 -.145E-02 -.334E-01
 
 
 POSITION                                       TOTAL-FORCE (eV/Angst)
 -----------------------------------------------------------------------------------
      6.87287      7.16472     14.81447         0.006791      0.002586     -0.004063
      8.27310      6.34313     12.27387         0.002495      0.003056     -0.008169
      5.50691      0.03539     14.81825        -0.000415      0.003839     -0.009854
      6.86331      0.78408      9.70523         0.002293      0.003565     -0.000488
     12.37933      8.73364     12.27027         0.001953      0.007703      0.013791
     10.98037      7.92862      9.70007        -0.007221     -0.001066      0.013765
      8.21549      7.95212      9.72785        -0.004243     -0.005928      0.015907
      9.62262      8.73697     12.27632         0.006226      0.001645      0.003707
      5.49652      6.36823     12.26304         0.002711     -0.004241     -0.007060
      6.88191      5.54944      9.62804        -0.007820     -0.005045      0.015026
      9.65445      7.13544     14.82501         0.000883      0.006955      0.001741
      9.62805      0.76097      9.78512         0.005111     -0.005560     -0.005429
      5.49220      3.15815      9.72701        -0.010247     -0.008758     -0.011258
      6.87280      3.96593     12.24627         0.005316     -0.013313     -0.010919
      8.26548      1.59343     12.27389         0.002644     -0.003235      0.003772
      8.28603     -0.00683     14.82609        -0.002114      0.005460      0.000693
     10.96541      3.16792      9.78906         0.000824     -0.011728     -0.004440
      9.65961      2.41129     14.76051        -0.001340      0.001569      0.004012
      2.76349      4.76016     14.71747         0.003592     -0.000081      0.017403
     13.74743      6.34126     12.26479        -0.001698      0.013101      0.003046
      4.11544      5.57405      9.68423        -0.001181     -0.008802     -0.009811
     12.35044      5.56006      9.74288        -0.005433     -0.013366     -0.006391
      2.73196      3.14412      9.74077        -0.008247     -0.004618     -0.015717
      2.74559      1.60006     12.25634        -0.000889      0.007630      0.000538
      9.66399      3.96009     12.27024         0.010603      0.002040     -0.003238
     11.00589      6.33953     12.24264        -0.007238      0.005224      0.002507
      8.25652      4.76556     14.64838        -0.006361      0.005894      0.002452
     11.02135      4.77220     14.59955         0.004442     -0.006753     -0.006905
     13.74728      7.93695      9.87747        -0.005535     -0.008702      0.004809
      9.60629      5.55414      9.88908        -0.003350     -0.008048     -0.002052
      1.36184      0.77413      9.90842        -0.001781     -0.001388      0.005835
      8.24281      3.17305      9.86492        -0.002058     -0.001508      0.000842
     11.00544      1.58360     12.26012         0.004481      0.005643      0.001612
      0.01945      0.00760     14.63580         0.001940      0.003347      0.001317
     12.35903      3.96639     12.22952         0.005464      0.001103      0.009395
      1.39626      2.38099     14.60834        -0.001115      0.001322      0.008586
      5.49045      7.93198      9.90066        -0.001608      0.013327      0.003280
     15.14503      8.75588     12.28547         0.005472     -0.004584     -0.008494
      6.87175      2.40477     14.64881         0.008225      0.000418     -0.002826
      4.13861      7.15165     14.65906         0.005007     -0.007956     -0.001608
      2.74858      0.02973     14.66482         0.004800     -0.003803     -0.004744
      4.11239      3.96282     12.21839         0.001654     -0.000101     -0.001444
      4.14228      2.39500     14.61012        -0.004463      0.010627     -0.004180
      5.51573      4.75512     14.61952         0.007464      0.009290      0.011820
      6.86279      8.74172     12.28520        -0.006261      0.014331     -0.007070
      5.50162      1.59460     12.24014        -0.011789     -0.000547     -0.000155
      4.11325      0.77982      9.85945        -0.001776      0.003369     -0.000199
     12.38576      7.14769     14.65993         0.003794     -0.003917     -0.009342
 -----------------------------------------------------------------------------------
    total drift:                               -0.031398      0.006269      0.008067


--------------------------------------------------------------------------------------------------------



  FREE ENERGIE OF THE ION-ELECTRON SYSTEM (eV)
  ---------------------------------------------------
  free  energy   TOTEN  =      -192.54240313 eV

  energy  without entropy=     -192.31959477  energy(sigma->0) =     -192.43099895
 
 d Force = 0.5359560E-03[ 0.401E-03, 0.671E-03]  d Energy = 0.5387910E-03-0.283E-05
 d Force =-0.1156762E+01[-0.116E+01,-0.116E+01]  d Ewald  =-0.1156764E+01 0.145E-05


--------------------------------------------------------------------------------------------------------


    POTLOK:  cpu time    0.0480: real time    0.0481


--------------------------------------------------------------------------------------------------------


 stress matrix after NEB project (eV)
      0.00000      0.00000      0.00000
      0.00000      0.00000      0.00000
      0.00000      0.00000      0.00000
  FORCES: max atom, RMS     0.018341    0.011490
  FORCE total and by dimension    0.079603    0.017403
  Stress total and by dimension    0.000000    0.000000
 Conjugate gradient step on ions:
 trial-energy change:   -0.000539  1 .order   -0.000536   -0.000671   -0.000401
  (g-gl).g = 0.209E-03      g.g   = 0.511E-03  gl.gl    = 0.107E-02
 g(Force)  = 0.511E-03   g(Stress)= 0.000E+00 ortho     =-0.928E-05
 gamma     =   0.19480
 trial     =   1.31828
 opt step  =   3.28029  (harmonic =   3.28029) maximal distance =0.00383010
 next E    =  -192.542699   (d E  =  -0.00083)


--------------------------------------------------------------------------------------------------------


  
 reached required accuracy - stopping structural energy minimisation
     LOOP+:  cpu time   43.5722: real time   43.9221
    4ORBIT:  cpu time    0.0000: real time    0.0000

 total amount of memory used by VASP on root node    84353. kBytes
========================================================================

   base      :      30000. kBytes
   nonlr-proj:       4285. kBytes
   fftplans  :       4447. kBytes
   grid      :       6721. kBytes
   one-center:        124. kBytes
   wavefun   :      38776. kBytes
 
  
  
 General timing and accounting informations for this job:
 ========================================================
  
                  Total CPU time used (sec):     1549.460
                            User time (sec):     1474.659
                          System time (sec):       74.801
                         Elapsed time (sec):     1559.059
  
                   Maximum memory used (kb):      855056.
                   Average memory used (kb):           0.
  
                          Minor page faults:       758523
                          Major page faults:            0
                 Voluntary context switches:        10659
