unknown system                          
           1
    11.002582    0.000000    0.000000
     5.501291    9.528515    0.000000
     0.000000    0.000000   24.491785
   Au   Pd
  24  24
Direct configuration=     1
   0.25000000  0.75000000  0.59169983
   0.41666667  0.66666667  0.50000000
   0.50000000  0.00000000  0.59169983
   0.58333333  0.08333333  0.40830017
   0.66666667  0.91666667  0.50000000
   0.58333333  0.83333333  0.40830017
   0.33333333  0.83333333  0.40830017
   0.41666667  0.91666667  0.50000000
   0.16666667  0.66666667  0.50000000
   0.33333333  0.58333333  0.40830017
   0.50000000  0.75000000  0.59169983
   0.83333333  0.08333333  0.40830017
   0.33333333  0.33333333  0.40830017
   0.41666667  0.41666667  0.50000000
   0.66666667  0.16666667  0.50000000
   0.75000000  0.00000000  0.59169983
   0.83333333  0.33333333  0.40830017
   0.75000000  0.25000000  0.59169983
   0.00000000  0.50000000  0.59169983
   0.91666667  0.66666667  0.50000000
   0.08333333  0.58333333  0.40830017
   0.83333333  0.58333333  0.40830017
   0.08333333  0.33333333  0.40830017
   0.16666667  0.16666667  0.50000000
   0.66666667  0.41666667  0.50000000
   0.66666667  0.66666667  0.50000000
   0.50000000  0.50000000  0.59169983
   0.75000000  0.50000000  0.59169983
   0.83333333  0.83333333  0.40830017
   0.58333333  0.58333333  0.40830017
   0.08333333  0.08333333  0.40830017
   0.58333333  0.33333333  0.40830017
   0.91666667  0.16666667  0.50000000
   0.00000000  0.00000000  0.59169983
   0.91666667  0.41666667  0.50000000
   0.00000000  0.25000000  0.59169983
   0.08333333  0.83333333  0.40830017
   0.91666667  0.91666667  0.50000000
   0.50000000  0.25000000  0.59169983
   0.00000000  0.75000000  0.59169983
   0.25000000  0.00000000  0.59169983
   0.16666667  0.41666667  0.50000000
   0.25000000  0.25000000  0.59169983
   0.25000000  0.50000000  0.59169983
   0.16666667  0.91666667  0.50000000
   0.41666667  0.16666667  0.50000000
   0.33333333  0.08333333  0.40830017
   0.75000000  0.75000000  0.59169983
Direct configuration=     2
   0.24884792  0.75063570  0.59388201
   0.41878276  0.66539970  0.50005492
   0.49900424  0.00128137  0.59390454
   0.58278450  0.08361847  0.40606068
   0.66782945  0.91553262  0.50003570
   0.58358709  0.83278652  0.40608618
   0.33203192  0.83430610  0.40612112
   0.41535671  0.91792666  0.50000811
   0.16492270  0.66805245  0.50047278
   0.33404287  0.58334478  0.40577475
   0.50137240  0.74886435  0.59390889
   0.83467769  0.08236975  0.40652165
   0.33382937  0.33226795  0.40635534
   0.41739733  0.41539289  0.50080425
   0.66646614  0.16781597  0.50002966
   0.75141101 -0.00100849  0.59388936
   0.83248926  0.33343449  0.40676727
   0.75044288  0.25098356  0.59347196
   0.00018620  0.49958907  0.59348672
   0.91601351  0.66720677  0.50047821
   0.08285442  0.58427830  0.40606692
   0.83223018  0.58371282  0.40642634
   0.08390360  0.33217684  0.40648861
   0.16610748  0.16683453  0.50039501
   0.66748457  0.41722377  0.50008762
   0.66749352  0.66500583  0.50019699
   0.50029359  0.49943837  0.59288173
   0.75000364  0.49982075  0.59243774
   0.83388269  0.83355613  0.40704699
   0.58377160  0.58278843  0.40726120
   0.08355394  0.08271071  0.40738683
   0.58359296  0.33387558  0.40704163
   0.91782190  0.16612218  0.50023861
   0.00048504 -0.00024758  0.59249233
   0.91578582  0.41626620  0.50053907
   0.00029062  0.24960095  0.59250368
   0.08276706  0.83426445  0.40727871
   0.91807587  0.91672268  0.50003260
   0.49846154  0.25101527  0.59291008
  -0.00008429  0.75035712  0.59288472
   0.24858988  0.00111115  0.59285889
   0.16709506  0.41558525  0.50061106
   0.25008819  0.25019027  0.59268089
   0.25055917  0.49914590  0.59289855
   0.16452446  0.91825024  0.50002966
   0.41548636  0.16758376  0.50025091
   0.33307237  0.08356921  0.40703426
   0.75033281  0.74924024  0.59292429
Direct configuration=     3
   0.24539168  0.75254281  0.60042857
   0.42513105  0.66159879  0.50021968
   0.49601697  0.00512548  0.60051868
   0.58113800  0.08447387  0.39934222
   0.67131782  0.91213050  0.50014279
   0.58434834  0.83114607  0.39944423
   0.32812766  0.83722441  0.39958397
   0.41142683  0.92170663  0.50003243
   0.15969082  0.67220979  0.50189111
   0.33617147  0.58337911  0.39819849
   0.50548959  0.74545742  0.60053608
   0.83871075  0.07947899  0.40118609
   0.33531748  0.32907179  0.40052085
   0.41958931  0.41157154  0.50321699
   0.66586454  0.17126388  0.50011862
   0.75564403 -0.00403398  0.60045795
   0.82995704  0.33373794  0.40216857
   0.75177154  0.25393422  0.59878837
   0.00074482  0.49835627  0.59884737
   0.91405405  0.66882710  0.50191283
   0.08141768  0.58711318  0.39936716
   0.82892072  0.58485129  0.40080485
   0.08561441  0.32870737  0.40105394
   0.16442992  0.16733811  0.50158006
   0.66993829  0.41889507  0.50035047
   0.66997410  0.66002334  0.50078794
   0.50117437  0.49775349  0.59642743
   0.75001458  0.49928300  0.59465145
   0.83553077  0.83422451  0.40328744
   0.58508641  0.58115371  0.40414429
   0.08421574  0.08084285  0.40464681
   0.58437185  0.33550233  0.40326602
   0.92128758  0.16448873  0.50095443
   0.00194015 -0.00099033  0.59486981
   0.91314329  0.41506479  0.50215627
   0.00116247  0.24840379  0.59491523
   0.08106823  0.83705779  0.40421431
   0.92230346  0.91689071  0.50013041
   0.49384617  0.25406106  0.59654083
  -0.00033715  0.75142849  0.59643938
   0.24435951  0.00444459  0.59633608
   0.16838024  0.41234099  0.50244424
   0.25035274  0.25076107  0.59562408
   0.25223670  0.49658359  0.59649471
   0.15809784  0.92300097  0.50011864
   0.41194545  0.17033503  0.50100363
   0.33228948  0.08427685  0.40323653
   0.75133122  0.74696096  0.59659766
Direct configuration=     4
   0.24743715  0.75182347  0.60199914
   0.42102622  0.66410815  0.50023800
   0.49701293  0.00394636  0.60206888
   0.58282300  0.08346489  0.39795418
   0.66840557  0.91527655  0.50013354
   0.58302202  0.83218101  0.39800537
   0.32914298  0.83639271  0.39814697
   0.41340342  0.91917746  0.50012222
   0.16441036  0.66884412  0.50146158
   0.33538662  0.58322538  0.39679840
   0.50377235  0.74695113  0.60219172
   0.83675469  0.08074296  0.39987572
   0.33437453  0.33165512  0.39923975
   0.41687628  0.41545276  0.50219416
   0.66844088  0.16809436  0.50012848
   0.75430795 -0.00249395  0.60193632
   0.83148435  0.33269295  0.40094799
   0.75152423  0.25262800  0.60028936
   0.00090075  0.49842761  0.60056309
   0.91598759  0.66545772  0.50146790
   0.08213885  0.58608443  0.39808013
   0.83120741  0.58382115  0.39955287
   0.08403042  0.33013382  0.39997821
   0.16402176  0.16883991  0.50098606
   0.67142395  0.41586641  0.50027452
   0.66923581  0.66284900  0.50047027
   0.50031337  0.49863881  0.59773311
   0.75073208  0.49912355  0.59598876
   0.83465626  0.83445077  0.40248969
   0.58352923  0.58259072  0.40312547
   0.08394751  0.08215195  0.40382633
   0.58384917  0.33468701  0.40252897
   0.91819417  0.16606737  0.50059408
   0.00102587 -0.00015246  0.59603729
   0.91474347  0.41521829  0.50155965
   0.00142833  0.24861992  0.59630862
   0.08276361  0.83491720  0.40326586
   0.91800859  0.91996247  0.50010814
   0.49603908  0.25232269  0.59815458
  -0.00013111  0.75030346  0.59794107
   0.24554447  0.00328039  0.59756032
   0.16594854  0.41485011  0.50177019
   0.24948971  0.25085922  0.59708861
   0.25124694  0.49807044  0.59778676
   0.16208358  0.92000411  0.50011922
   0.41442571  0.16771966  0.50063589
   0.33282990  0.08294705  0.40238948
   0.75077942  0.74772378  0.59788310
Direct configuration=     5
   0.24825262  0.75153670  0.60262527
   0.41938976  0.66510854  0.50024530
   0.49740999  0.00347628  0.60268689
   0.58349475  0.08306264  0.39740082
   0.66724455  0.91653078  0.50012985
   0.58249326  0.83259361  0.39743175
   0.32954775  0.83606114  0.39757409
   0.41419143  0.91816916  0.50015802
   0.16629188  0.66750234  0.50129035
   0.33507373  0.58316409  0.39624023
   0.50308775  0.74754663  0.60285176
   0.83597488  0.08124686  0.39935332
   0.33399861  0.33268501  0.39872902
   0.41579469  0.41700008  0.50178639
   0.66946798  0.16683078  0.50013241
   0.75377531 -0.00187999  0.60252570
   0.83209323  0.33227634  0.40046138
   0.75142564  0.25210725  0.60088776
   0.00096291  0.49845604  0.60124708
   0.91675842  0.66411447  0.50129052
   0.08242636  0.58567430  0.39756703
   0.83211904  0.58341047  0.39905375
   0.08339893  0.33070250  0.39954935
   0.16385905  0.16943862  0.50074926
   0.67201624  0.41465898  0.50024424
   0.66894148  0.66397549  0.50034362
   0.49997012  0.49899175  0.59825365
   0.75101812  0.49905999  0.59652190
   0.83430763  0.83454097  0.40217166
   0.58290843  0.58316360  0.40271930
   0.08384057  0.08267385  0.40349923
   0.58364079  0.33436196  0.40223513
   0.91696093  0.16669672  0.50045042
   0.00066138  0.00018157  0.59650273
   0.91538142  0.41527949  0.50132180
   0.00153432  0.24870609  0.59686411
   0.08343950  0.83406382  0.40288775
   0.91629637  0.92118708  0.50009925
   0.49691332  0.25162966  0.59879793
  -0.00004896  0.74985495  0.59853974
   0.24601688  0.00281627  0.59804839
   0.16497910  0.41585041  0.50150147
   0.24914565  0.25089836  0.59767246
   0.25085235  0.49866320  0.59830186
   0.16367256  0.91880936  0.50011944
   0.41541451  0.16667700  0.50048928
   0.33304535  0.08241690  0.40205180
   0.75055943  0.74802790  0.59839557
Direct configuration=     6
   0.24851143  0.75147038  0.60306108
   0.41940407  0.66565161  0.50028706
   0.49786236  0.00275476  0.60304677
   0.58322598  0.08326875  0.39705689
   0.66699690  0.91639604  0.50021476
   0.58270482  0.83253485  0.39708905
   0.32999645  0.83550093  0.39721304
   0.41510840  0.91716661  0.50030511
   0.16526320  0.66839862  0.50109201
   0.33481503  0.58322475  0.39579167
   0.50246270  0.74811516  0.60325363
   0.83579718  0.08126935  0.39890973
   0.33384862  0.33257155  0.39857858
   0.41676990  0.41562917  0.50137400
   0.66742854  0.16766778  0.50026962
   0.75299837 -0.00160501  0.60296032
   0.83183026  0.33272036  0.40011504
   0.75085180  0.25194614  0.60137935
   0.00073910  0.49879081  0.60181221
   0.91693617  0.66516793  0.50110571
   0.08246722  0.58549463  0.39729016
   0.83210812  0.58371060  0.39879882
   0.08378071  0.33112720  0.39925621
   0.16465698  0.16872945  0.50056524
   0.67107408  0.41508019  0.50028258
   0.66782009  0.66500722  0.50014665
   0.49994294  0.49923443  0.59842024
   0.75094645  0.49925903  0.59677508
   0.83406097  0.83392427  0.40227259
   0.58274849  0.58341971  0.40274070
   0.08378371  0.08253586  0.40349141
   0.58336315  0.33403571  0.40230860
   0.91720125  0.16665726  0.50030060
   0.00076953  0.00002478  0.59672489
   0.91529089  0.41578922  0.50099247
   0.00158719  0.24870139  0.59723382
   0.08357336  0.83361024  0.40294273
   0.91700750  0.91930716  0.50017469
   0.49764804  0.25141851  0.59884790
   0.00019488  0.74962879  0.59863295
   0.24691134  0.00231689  0.59820483
   0.16532163  0.41601456  0.50111549
   0.24936330  0.25075425  0.59789835
   0.25082155  0.49887450  0.59858363
   0.16441754  0.91801415  0.50018554
   0.41603541  0.16713980  0.50034160
   0.33320376  0.08280196  0.40201165
   0.75034864  0.74874770  0.59854498
Direct configuration=     7
   0.24858571  0.75145135  0.60318617
   0.41940818  0.66580749  0.50029904
   0.49799220  0.00254765  0.60315007
   0.58314883  0.08332792  0.39695817
   0.66692582  0.91635736  0.50023914
   0.58276554  0.83251798  0.39699069
   0.33012524  0.83534013  0.39710940
   0.41537162  0.91687883  0.50034733
   0.16496793  0.66865589  0.50103509
   0.33474077  0.58324217  0.39566291
   0.50228328  0.74827836  0.60336898
   0.83574617  0.08127580  0.39878240
   0.33380557  0.33253898  0.39853539
   0.41704983  0.41523566  0.50125562
   0.66684313  0.16790804  0.50030900
   0.75277536 -0.00152608  0.60308507
   0.83175477  0.33284782  0.40001562
   0.75068708  0.25189989  0.60152045
   0.00067486  0.49888690  0.60197442
   0.91698719  0.66547031  0.50105266
   0.08247895  0.58544306  0.39721068
   0.83210498  0.58379675  0.39872565
   0.08389029  0.33124911  0.39917207
   0.16488603  0.16852589  0.50051242
   0.67080364  0.41520109  0.50029358
   0.66749820  0.66530338  0.50009011
   0.49993513  0.49930409  0.59846806
   0.75092587  0.49931617  0.59684775
   0.83399017  0.83374725  0.40230156
   0.58270258  0.58349322  0.40274684
   0.08376739  0.08249625  0.40348917
   0.58328346  0.33394206  0.40232968
   0.91727023  0.16664593  0.50025759
   0.00080057 -0.00002022  0.59678866
   0.91526491  0.41593554  0.50089794
   0.00160237  0.24870004  0.59733994
   0.08361179  0.83348004  0.40295851
   0.91721163  0.91876754  0.50019634
   0.49785893  0.25135790  0.59886224
   0.00026487  0.74956387  0.59865970
   0.24716809  0.00217355  0.59824973
   0.16541995  0.41606168  0.50100470
   0.24942577  0.25071288  0.59796319
   0.25081271  0.49893515  0.59866451
   0.16463138  0.91778589  0.50020452
   0.41621364  0.16727265  0.50029921
   0.33324923  0.08291249  0.40200013
   0.75028813  0.74895431  0.59858787
Direct configuration=     8
   0.24838175  0.75142675  0.60345182
   0.41946964  0.66518997  0.50036947
   0.49797934  0.00257587  0.60334981
   0.58302281  0.08330182  0.39672985
   0.66705863  0.91619859  0.50031678
   0.58285384  0.83256736  0.39675616
   0.33020048  0.83535252  0.39690590
   0.41549842  0.91722113  0.50041223
   0.16521956  0.66852570  0.50101652
   0.33480258  0.58310082  0.39538521
   0.50235061  0.74821586  0.60365789
   0.83585144  0.08092803  0.39865117
   0.33384836  0.33232498  0.39844029
   0.41673218  0.41567836  0.50115456
   0.66706753  0.16753138  0.50041384
   0.75275118 -0.00161145  0.60334506
   0.83140782  0.33322096  0.39986314
   0.75066363  0.25197043  0.60175268
   0.00052005  0.49905543  0.60215765
   0.91652388  0.66593560  0.50105457
   0.08243828  0.58549650  0.39699160
   0.83179302  0.58393438  0.39861965
   0.08407111  0.33121218  0.39899532
   0.16552501  0.16799056  0.50055227
   0.67035530  0.41584197  0.50042525
   0.66758166  0.66517276  0.50003180
   0.49994506  0.49944795  0.59838441
   0.75077097  0.49953072  0.59679291
   0.83381678  0.83360733  0.40243705
   0.58277219  0.58335573  0.40287608
   0.08383429  0.08222471  0.40360017
   0.58320786  0.33395007  0.40240695
   0.91734001  0.16626222  0.50022050
   0.00087946 -0.00015801  0.59678665
   0.91496302  0.41645663  0.50074805
   0.00158537  0.24866829  0.59736272
   0.08334134  0.83358853  0.40308568
   0.91725443  0.91858471  0.50028394
   0.49778375  0.25151679  0.59878994
   0.00035110  0.74969408  0.59863383
   0.24747567  0.00218719  0.59823796
   0.16581306  0.41598128  0.50087498
   0.24977683  0.25065469  0.59787156
   0.25109838  0.49876587  0.59857752
   0.16452592  0.91785063  0.50030680
   0.41588679  0.16736702  0.50029087
   0.33330825  0.08299594  0.40209523
   0.75030136  0.74910916  0.59853572
Direct configuration=     9
   0.24828492  0.75141508  0.60357794
   0.41949882  0.66489678  0.50040291
   0.49797323  0.00258926  0.60344465
   0.58296298  0.08328943  0.39662144
   0.66712169  0.91612321  0.50035364
   0.58289576  0.83259081  0.39664481
   0.33023621  0.83535840  0.39680929
   0.41555862  0.91738364  0.50044304
   0.16533903  0.66846389  0.50100771
   0.33483192  0.58303372  0.39525337
   0.50238257  0.74818619  0.60379506
   0.83590142  0.08076293  0.39858887
   0.33386868  0.33222337  0.39839514
   0.41658138  0.41588855  0.50110658
   0.66717407  0.16735256  0.50046362
   0.75273970 -0.00165197  0.60346849
   0.83124311  0.33339812  0.39979075
   0.75065250  0.25200392  0.60186294
   0.00044655  0.49913544  0.60224463
   0.91630392  0.66615650  0.50105547
   0.08241896  0.58552187  0.39688758
   0.83164491  0.58399972  0.39856932
   0.08415696  0.33119465  0.39891141
   0.16582838  0.16773641  0.50057118
   0.67014243  0.41614624  0.50048776
   0.66762129  0.66511074  0.50000411
   0.49994977  0.49951626  0.59834470
   0.75069743  0.49963258  0.59676687
   0.83373446  0.83354090  0.40250138
   0.58280523  0.58329046  0.40293744
   0.08386605  0.08209580  0.40365287
   0.58317196  0.33395387  0.40244363
   0.91737314  0.16608004  0.50020289
   0.00091692 -0.00022343  0.59678569
   0.91481969  0.41670404  0.50067688
   0.00157730  0.24865322  0.59737354
   0.08321294  0.83364004  0.40314605
   0.91727474  0.91849790  0.50032553
   0.49774805  0.25159223  0.59875561
   0.00039204  0.74975591  0.59862154
   0.24762169  0.00219366  0.59823236
   0.16599969  0.41594310  0.50081340
   0.24994350  0.25062706  0.59782806
   0.25123401  0.49868550  0.59853622
   0.16447584  0.91788136  0.50035537
   0.41573161  0.16741182  0.50028690
   0.33333627  0.08303557  0.40214038
   0.75030765  0.74918267  0.59851096
Direct configuration=    10
   0.24820721  0.75143019  0.60383302
   0.41929017  0.66517047  0.50047856
   0.49797049  0.00277753  0.60365822
   0.58302124  0.08321001  0.39641332
   0.66695337  0.91631177  0.50043451
   0.58271893  0.83269861  0.39640393
   0.33022523  0.83536328  0.39668061
   0.41581134  0.91704063  0.50048257
   0.16544265  0.66831939  0.50100610
   0.33483688  0.58301540  0.39494591
   0.50246400  0.74812450  0.60407256
   0.83583389  0.08065811  0.39853066
   0.33396213  0.33214208  0.39828710
   0.41652780  0.41589135  0.50100984
   0.66754678  0.16717257  0.50055579
   0.75284436 -0.00164935  0.60374749
   0.83118307  0.33329901  0.39971226
   0.75079238  0.25208506  0.60201498
   0.00052057  0.49913393  0.60226766
   0.91640194  0.66595714  0.50110569
   0.08230212  0.58558974  0.39666735
   0.83153818  0.58398370  0.39845225
   0.08399219  0.33105667  0.39878959
   0.16545753  0.16800982  0.50066138
   0.67027988  0.41603707  0.50063022
   0.66750966  0.66512611  0.49997340
   0.49994860  0.49961505  0.59827681
   0.75067977  0.49977088  0.59665107
   0.83361051  0.83354331  0.40262431
   0.58264712  0.58330993  0.40307567
   0.08381806  0.08209365  0.40381012
   0.58324480  0.33384312  0.40257391
   0.91726881  0.16612394  0.50018790
   0.00093149 -0.00019142  0.59676912
   0.91499833  0.41664000  0.50056188
   0.00158288  0.24870192  0.59723429
   0.08312157  0.83361718  0.40331717
   0.91725247  0.91865070  0.50043540
   0.49769159  0.25172920  0.59862194
   0.00046259  0.74980696  0.59857636
   0.24774455  0.00218473  0.59823138
   0.16585737  0.41601453  0.50072258
   0.25007664  0.25075973  0.59767579
   0.25138551  0.49854810  0.59837180
   0.16459940  0.91776418  0.50047268
   0.41574618  0.16746309  0.50029582
   0.33337088  0.08287557  0.40223686
   0.75032685  0.74918085  0.59846217
Direct configuration=    11
   0.24809880  0.75145128  0.60418887
   0.41899911  0.66555226  0.50058410
   0.49796666  0.00304017  0.60395617
   0.58310252  0.08309921  0.39612298
   0.66671857  0.91657480  0.50054732
   0.58247226  0.83284901  0.39606790
   0.33020992  0.83537009  0.39650111
   0.41616387  0.91656214  0.50053771
   0.16558719  0.66811781  0.50100386
   0.33484381  0.58298986  0.39451699
   0.50257760  0.74803845  0.60445968
   0.83573968  0.08051189  0.39844946
   0.33409251  0.33202868  0.39813638
   0.41645306  0.41589527  0.50087488
   0.66806671  0.16692149  0.50068437
   0.75299037 -0.00164570  0.60413669
   0.83109932  0.33316075  0.39960277
   0.75098751  0.25219825  0.60222708
   0.00062383  0.49913181  0.60229979
   0.91653868  0.66567905  0.50117574
   0.08213913  0.58568441  0.39636013
   0.83138928  0.58396135  0.39828895
   0.08376235  0.33086419  0.39861966
   0.16494019  0.16839124  0.50078721
   0.67047162  0.41588477  0.50082894
   0.66735394  0.66514755  0.49993057
   0.49994696  0.49975285  0.59818210
   0.75065515  0.49996381  0.59648954
   0.83343761  0.83354667  0.40279579
   0.58242656  0.58333709  0.40326850
   0.08375111  0.08209065  0.40402947
   0.58334642  0.33368861  0.40275564
   0.91712329  0.16618518  0.50016698
   0.00095182 -0.00014677  0.59674601
   0.91524754  0.41655067  0.50040146
   0.00159066  0.24876985  0.59704002
   0.08299410  0.83358530  0.40355587
   0.91722141  0.91886385  0.50058867
   0.49761282  0.25192026  0.59843546
   0.00056102  0.74987818  0.59851333
   0.24791594  0.00217229  0.59823002
   0.16565882  0.41611416  0.50059588
   0.25026236  0.25094481  0.59746337
   0.25159686  0.49835641  0.59814244
   0.16477177  0.91760072  0.50063632
   0.41576649  0.16753462  0.50030825
   0.33341917  0.08265238  0.40237144
   0.75035363  0.74917830  0.59839411
Direct configuration=    12
   0.24806841  0.75145719  0.60428861
   0.41891753  0.66565927  0.50061368
   0.49796558  0.00311378  0.60403968
   0.58312530  0.08306816  0.39604160
   0.66665275  0.91664853  0.50057894
   0.58240313  0.83289116  0.39597372
   0.33020563  0.83537200  0.39645080
   0.41626269  0.91642802  0.50055317
   0.16562771  0.66806131  0.50100323
   0.33484575  0.58298270  0.39439678
   0.50260945  0.74801433  0.60456818
   0.83571328  0.08047091  0.39842671
   0.33412905  0.33199690  0.39809413
   0.41643212  0.41589637  0.50083706
   0.66821244  0.16685111  0.50072041
   0.75303129 -0.00164467  0.60424578
   0.83107585  0.33312200  0.39957208
   0.75104220  0.25222998  0.60228653
   0.00065277  0.49913122  0.60230880
   0.91657701  0.66560110  0.50119537
   0.08209345  0.58571095  0.39627403
   0.83134754  0.58395509  0.39824318
   0.08369793  0.33081024  0.39857203
   0.16479519  0.16849815  0.50082247
   0.67052537  0.41584209  0.50088464
   0.66731030  0.66515356  0.49991857
   0.49994650  0.49979148  0.59815556
   0.75064825  0.50001788  0.59644427
   0.83338915  0.83354762  0.40284385
   0.58236474  0.58334470  0.40332254
   0.08373235  0.08208981  0.40409095
   0.58337490  0.33364531  0.40280658
   0.91708250  0.16620235  0.50016112
   0.00095752 -0.00013425  0.59673953
   0.91531739  0.41652563  0.50035650
   0.00159284  0.24878889  0.59698558
   0.08295837  0.83357637  0.40362277
   0.91721270  0.91892359  0.50063163
   0.49759074  0.25197381  0.59838320
   0.00058861  0.74989814  0.59849567
   0.24796397  0.00216880  0.59822964
   0.16560317  0.41614208  0.50056037
   0.25031442  0.25099668  0.59740384
   0.25165610  0.49830269  0.59807815
   0.16482008  0.91755490  0.50068219
   0.41577218  0.16755467  0.50031173
   0.33343270  0.08258982  0.40240916
   0.75036114  0.74917759  0.59837503
Direct configuration=    13
   0.24824428  0.75149463  0.60460801
   0.41876293  0.66576271  0.50071851
   0.49812671  0.00319920  0.60433610
   0.58311873  0.08299791  0.39586236
   0.66663630  0.91675732  0.50066021
   0.58236710  0.83272310  0.39572442
   0.32979839  0.83533436  0.39637385
   0.41596910  0.91675228  0.50064092
   0.16542835  0.66817294  0.50093764
   0.33472025  0.58301245  0.39398936
   0.50255771  0.74828750  0.60491957
   0.83562692  0.08048833  0.39844178
   0.33386179  0.33201747  0.39794372
   0.41692872  0.41562011  0.50058481
   0.66793364  0.16709085  0.50083841
   0.75303289 -0.00140248  0.60461596
   0.83098883  0.33289839  0.39954929
   0.75109159  0.25231381  0.60248523
   0.00085714  0.49905497  0.60222971
   0.91653562  0.66561103  0.50117371
   0.08205111  0.58547496  0.39600616
   0.83119963  0.58394678  0.39812453
   0.08372779  0.33069746  0.39839836
   0.16511719  0.16820112  0.50078929
   0.67070830  0.41552878  0.50099170
   0.66746160  0.66519030  0.49984578
   0.49993104  0.49976953  0.59809569
   0.75092169  0.50009519  0.59630050
   0.83325653  0.83348404  0.40304539
   0.58215863  0.58338291  0.40352599
   0.08361056  0.08196731  0.40432179
   0.58341082  0.33346616  0.40302064
   0.91700997  0.16645907  0.50012748
   0.00100909  0.00010946  0.59678499
   0.91518220  0.41648360  0.50014763
   0.00162604  0.24903803  0.59681955
   0.08315630  0.83336741  0.40386851
   0.91732146  0.91871267  0.50079610
   0.49803161  0.25193049  0.59822321
   0.00063233  0.74983565  0.59845510
   0.24810035  0.00212846  0.59825570
   0.16542788  0.41618001  0.50029071
   0.25019784  0.25108861  0.59723691
   0.25155574  0.49852817  0.59787394
   0.16509012  0.91749903  0.50085570
   0.41597390  0.16733055  0.50021062
   0.33326979  0.08260773  0.40261225
   0.75027349  0.74930963  0.59834222
Direct configuration=    14
   0.24827844  0.75150190  0.60467004
   0.41873290  0.66578280  0.50073887
   0.49815800  0.00321579  0.60439368
   0.58311746  0.08298426  0.39582754
   0.66663311  0.91677845  0.50067599
   0.58236010  0.83269046  0.39567600
   0.32971930  0.83532705  0.39635890
   0.41591208  0.91681526  0.50065796
   0.16538963  0.66819462  0.50092490
   0.33469587  0.58301823  0.39391023
   0.50254766  0.74834056  0.60498782
   0.83561015  0.08049171  0.39844471
   0.33380989  0.33202146  0.39791451
   0.41702517  0.41556646  0.50053581
   0.66787949  0.16713741  0.50086133
   0.75303320 -0.00135544  0.60468786
   0.83097193  0.33285497  0.39954486
   0.75110118  0.25233010  0.60252382
   0.00089684  0.49904017  0.60221435
   0.91652758  0.66561295  0.50116950
   0.08204288  0.58542912  0.39595413
   0.83117091  0.58394516  0.39810148
   0.08373359  0.33067555  0.39836462
   0.16517973  0.16814343  0.50078284
   0.67074383  0.41546793  0.50101250
   0.66749099  0.66519743  0.49983165
   0.49992803  0.49976527  0.59808406
   0.75097480  0.50011020  0.59627258
   0.83323077  0.83347169  0.40308454
   0.58211860  0.58339033  0.40356551
   0.08358691  0.08194352  0.40436662
   0.58341780  0.33343137  0.40306221
   0.91699588  0.16650894  0.50012094
   0.00101911  0.00015680  0.59679382
   0.91515595  0.41647543  0.50010706
   0.00163249  0.24908642  0.59678730
   0.08319474  0.83332683  0.40391624
   0.91734258  0.91867171  0.50082804
   0.49811724  0.25192207  0.59819213
   0.00064082  0.74982351  0.59844722
   0.24812684  0.00212063  0.59826077
   0.16539383  0.41618737  0.50023834
   0.25017520  0.25110646  0.59720449
   0.25153624  0.49857196  0.59783428
   0.16514257  0.91748817  0.50088940
   0.41601308  0.16728702  0.50019098
   0.33323815  0.08261121  0.40265170
   0.75025646  0.74933528  0.59833584
Direct configuration=    15
   0.24841281  0.75154419  0.60477463
   0.41894135  0.66556763  0.50080963
   0.49824856  0.00326242  0.60452897
   0.58296158  0.08294030  0.39585090
   0.66669118  0.91673887  0.50070562
   0.58220858  0.83259209  0.39566076
   0.32963375  0.83527315  0.39640935
   0.41602657  0.91688114  0.50072932
   0.16551618  0.66809526  0.50087095
   0.33464364  0.58284315  0.39374137
   0.50257752  0.74847987  0.60508806
   0.83564440  0.08029670  0.39857776
   0.33370078  0.33204543  0.39783536
   0.41673699  0.41587017  0.50038030
   0.66787608  0.16687531  0.50090641
   0.75314503 -0.00129110  0.60483029
   0.83091861  0.33292539  0.39957070
   0.75117056  0.25242318  0.60259841
   0.00094853  0.49911588  0.60205679
   0.91640263  0.66570394  0.50108278
   0.08198920  0.58532663  0.39585054
   0.83117506  0.58378720  0.39805839
   0.08369684  0.33064367  0.39828818
   0.16549255  0.16802847  0.50066553
   0.67070217  0.41563504  0.50101298
   0.66735019  0.66539590  0.49979303
   0.49997412  0.49982309  0.59808192
   0.75107876  0.50017681  0.59624864
   0.83330579  0.83339499  0.40317194
   0.58206442  0.58335458  0.40366159
   0.08349278  0.08185171  0.40444131
   0.58317431  0.33344945  0.40307509
   0.91705092  0.16639889  0.50014607
   0.00109366  0.00028976  0.59687381
   0.91505388  0.41643160  0.49993958
   0.00166463  0.24921919  0.59673185
   0.08316036  0.83313124  0.40400484
   0.91720645  0.91881813  0.50093580
   0.49828814  0.25187904  0.59817961
   0.00060090  0.74989260  0.59846641
   0.24814638  0.00222072  0.59835304
   0.16559641  0.41605052  0.49998671
   0.25025451  0.25099850  0.59712734
   0.25148529  0.49878106  0.59768953
   0.16500494  0.91752595  0.50102249
   0.41606650  0.16725177  0.50008842
   0.33319421  0.08256709  0.40272354
   0.75023130  0.74949344  0.59837347
Direct configuration=    16
   0.24845605  0.75155780  0.60480829
   0.41900843  0.66549839  0.50083239
   0.49827770  0.00327743  0.60457251
   0.58291142  0.08292616  0.39585842
   0.66670987  0.91672613  0.50071515
   0.58215982  0.83256043  0.39565585
   0.32960623  0.83525581  0.39642558
   0.41606341  0.91690234  0.50075229
   0.16555690  0.66806329  0.50085359
   0.33462684  0.58278682  0.39368704
   0.50258712  0.74852470  0.60512032
   0.83565543  0.08023394  0.39862057
   0.33366566  0.33205314  0.39780989
   0.41664426  0.41596790  0.50033026
   0.66787498  0.16679097  0.50092092
   0.75318102 -0.00127039  0.60487612
   0.83090145  0.33294805  0.39957902
   0.75119289  0.25245313  0.60262241
   0.00096517  0.49914024  0.60200608
   0.91636242  0.66573322  0.50105488
   0.08197192  0.58529365  0.39581721
   0.83117640  0.58373636  0.39804452
   0.08368501  0.33063341  0.39826357
   0.16559322  0.16799148  0.50062777
   0.67068876  0.41568881  0.50101313
   0.66730489  0.66545977  0.49978060
   0.49998895  0.49984170  0.59808123
   0.75111221  0.50019824  0.59624094
   0.83332993  0.83337030  0.40320007
   0.58204699  0.58334307  0.40369251
   0.08346249  0.08182217  0.40446534
   0.58309596  0.33345527  0.40307923
   0.91706864  0.16636348  0.50015416
   0.00111766  0.00033255  0.59689955
   0.91502104  0.41641750  0.49988568
   0.00167496  0.24926191  0.59671401
   0.08314930  0.83306830  0.40403335
   0.91716264  0.91886524  0.50097048
   0.49834313  0.25186520  0.59817558
   0.00058805  0.74991483  0.59847259
   0.24815267  0.00225293  0.59838273
   0.16566160  0.41600648  0.49990574
   0.25028004  0.25096376  0.59710251
   0.25146889  0.49884834  0.59764295
   0.16496065  0.91753811  0.50106532
   0.41608369  0.16724042  0.50005541
   0.33318006  0.08255290  0.40274666
   0.75022321  0.74954434  0.59838558
Direct configuration=    17
   0.24848376  0.75165302  0.60483686
   0.41907071  0.66563145  0.50090454
   0.49834823  0.00337702  0.60468950
   0.58279258  0.08277886  0.39594353