  48  48   0   0
  0.5349325E+02  0.1100258E-08  0.1100258E-08  0.2449179E-08  0.3500000E-15
  1.000000000000000E-004
  CAR 
 unknown system                          
      6.42294489     -9.60516506  301     -1.08854540      1.00000000
     -9.605  0.0000E+00  0.0000E+00
     -9.552  0.0000E+00  0.0000E+00
     -9.498  0.0000E+00  0.0000E+00
     -9.445  0.0000E+00  0.0000E+00
     -9.391  0.0000E+00  0.0000E+00
     -9.338  0.0000E+00  0.0000E+00
     -9.285  0.0000E+00  0.0000E+00
     -9.231  0.0000E+00  0.0000E+00
     -9.178  0.8312E-17  0.4441E-18
     -9.124  0.3074E-14  0.1647E-15
     -9.071  0.6716E-12  0.3605E-13
     -9.017  0.8380E-10  0.4513E-11
     -8.964  0.5980E-08  0.3240E-09
     -8.911  0.2445E-06  0.1339E-07
     -8.857  0.5743E-05  0.3202E-06
     -8.804  0.7763E-04  0.4467E-05
     -8.750  0.6054E-03  0.3681E-04
     -8.697  0.2730E-02  0.1827E-03
     -8.643  0.7138E-02  0.5641E-03
     -8.590  0.1089E-01  0.1146E-02
     -8.537  0.1011E-01  0.1686E-02
     -8.483  0.7542E-02  0.2089E-02
     -8.430  0.8471E-02  0.2541E-02
     -8.376  0.1098E-01  0.3128E-02
     -8.323  0.9576E-02  0.3639E-02
     -8.269  0.4963E-02  0.3904E-02
     -8.216  0.1552E-02  0.3987E-02
     -8.163  0.6792E-03  0.4024E-02
     -8.109  0.1975E-02  0.4129E-02
     -8.056  0.5566E-02  0.4427E-02
     -8.002  0.1025E-01  0.4974E-02
     -7.949  0.1411E-01  0.5728E-02
     -7.895  0.1822E-01  0.6701E-02
     -7.842  0.2284E-01  0.7921E-02
     -7.789  0.2355E-01  0.9180E-02
     -7.735  0.1911E-01  0.1020E-01
     -7.682  0.1405E-01  0.1095E-01
     -7.628  0.1172E-01  0.1158E-01
     -7.575  0.1267E-01  0.1225E-01
     -7.522  0.1593E-01  0.1311E-01
     -7.468  0.1821E-01  0.1408E-01
     -7.415  0.1729E-01  0.1500E-01
     -7.361  0.1566E-01  0.1584E-01
     -7.308  0.1753E-01  0.1677E-01
     -7.254  0.2342E-01  0.1803E-01
     -7.201  0.2823E-01  0.1953E-01
     -7.148  0.2844E-01  0.2105E-01
     -7.094  0.2883E-01  0.2259E-01
     -7.041  0.3405E-01  0.2441E-01
     -6.987  0.4077E-01  0.2659E-01
     -6.934  0.4595E-01  0.2905E-01
     -6.880  0.5168E-01  0.3181E-01
     -6.827  0.5983E-01  0.3500E-01
     -6.774  0.6956E-01  0.3872E-01
     -6.720  0.7855E-01  0.4292E-01
     -6.667  0.8688E-01  0.4756E-01
     -6.613  0.9683E-01  0.5273E-01
     -6.560  0.1074E+00  0.5847E-01
     -6.506  0.1146E+00  0.6459E-01
     -6.453  0.1163E+00  0.7080E-01
     -6.400  0.1157E+00  0.7699E-01
     -6.346  0.1190E+00  0.8335E-01
     -6.293  0.1272E+00  0.9014E-01
     -6.239  0.1362E+00  0.9742E-01
     -6.186  0.1458E+00  0.1052E+00
     -6.132  0.1547E+00  0.1135E+00
     -6.079  0.1583E+00  0.1219E+00
     -6.026  0.1586E+00  0.1304E+00
     -5.972  0.1624E+00  0.1391E+00
     -5.919  0.1699E+00  0.1482E+00
     -5.865  0.1750E+00  0.1575E+00
     -5.812  0.1730E+00  0.1667E+00
     -5.758  0.1650E+00  0.1756E+00
     -5.705  0.1562E+00  0.1839E+00
     -5.652  0.1500E+00  0.1919E+00
     -5.598  0.1462E+00  0.1997E+00
     -5.545  0.1427E+00  0.2074E+00
     -5.491  0.1387E+00  0.2148E+00
     -5.438  0.1362E+00  0.2220E+00
     -5.384  0.1373E+00  0.2294E+00
     -5.331  0.1420E+00  0.2370E+00
     -5.278  0.1503E+00  0.2450E+00
     -5.224  0.1591E+00  0.2535E+00
     -5.171  0.1629E+00  0.2622E+00
     -5.117  0.1638E+00  0.2710E+00
     -5.064  0.1661E+00  0.2798E+00
     -5.010  0.1666E+00  0.2887E+00
     -4.957  0.1638E+00  0.2975E+00
     -4.904  0.1631E+00  0.3062E+00
     -4.850  0.1679E+00  0.3152E+00
     -4.797  0.1759E+00  0.3246E+00
     -4.743  0.1836E+00  0.3344E+00
     -4.690  0.1880E+00  0.3444E+00
     -4.636  0.1876E+00  0.3544E+00
     -4.583  0.1859E+00  0.3644E+00
     -4.530  0.1857E+00  0.3743E+00
     -4.476  0.1840E+00  0.3841E+00
     -4.423  0.1788E+00  0.3937E+00
     -4.369  0.1747E+00  0.4030E+00
     -4.316  0.1751E+00  0.4124E+00
     -4.262  0.1771E+00  0.4218E+00
     -4.209  0.1763E+00  0.4313E+00
     -4.156  0.1729E+00  0.4405E+00
     -4.102  0.1712E+00  0.4496E+00
     -4.049  0.1738E+00  0.4589E+00
     -3.995  0.1796E+00  0.4685E+00
     -3.942  0.1849E+00  0.4784E+00
     -3.888  0.1856E+00  0.4883E+00
     -3.835  0.1827E+00  0.4981E+00
     -3.782  0.1815E+00  0.5078E+00
     -3.728  0.1832E+00  0.5176E+00
     -3.675  0.1838E+00  0.5274E+00
     -3.621  0.1840E+00  0.5372E+00
     -3.568  0.1888E+00  0.5473E+00
     -3.514  0.1965E+00  0.5578E+00
     -3.461  0.1983E+00  0.5684E+00
     -3.408  0.1913E+00  0.5786E+00
     -3.354  0.1823E+00  0.5884E+00
     -3.301  0.1781E+00  0.5979E+00
     -3.247  0.1778E+00  0.6074E+00
     -3.194  0.1775E+00  0.6168E+00
     -3.140  0.1768E+00  0.6263E+00
     -3.087  0.1762E+00  0.6357E+00
     -3.034  0.1762E+00  0.6451E+00
     -2.980  0.1767E+00  0.6546E+00
     -2.927  0.1785E+00  0.6641E+00
     -2.873  0.1827E+00  0.6739E+00
     -2.820  0.1863E+00  0.6838E+00
     -2.767  0.1862E+00  0.6938E+00
     -2.713  0.1830E+00  0.7035E+00
     -2.660  0.1781E+00  0.7131E+00
     -2.606  0.1740E+00  0.7224E+00
     -2.553  0.1755E+00  0.7317E+00
     -2.499  0.1808E+00  0.7414E+00
     -2.446  0.1849E+00  0.7513E+00
     -2.393  0.1902E+00  0.7614E+00
     -2.339  0.1967E+00  0.7719E+00
     -2.286  0.1975E+00  0.7825E+00
     -2.232  0.1931E+00  0.7928E+00
     -2.179  0.1901E+00  0.8030E+00
     -2.125  0.1896E+00  0.8131E+00
     -2.072  0.1884E+00  0.8232E+00
     -2.019  0.1867E+00  0.8331E+00
     -1.965  0.1897E+00  0.8433E+00
     -1.912  0.2005E+00  0.8540E+00
     -1.858  0.2119E+00  0.8653E+00
     -1.805  0.2143E+00  0.8768E+00
     -1.751  0.2094E+00  0.8879E+00
     -1.698  0.2073E+00  0.8990E+00
     -1.645  0.2121E+00  0.9103E+00
     -1.591  0.2176E+00  0.9220E+00
     -1.538  0.2165E+00  0.9335E+00
     -1.484  0.2082E+00  0.9447E+00
     -1.431  0.1967E+00  0.9552E+00
     -1.377  0.1853E+00  0.9651E+00
     -1.324  0.1774E+00  0.9745E+00
     -1.271  0.1714E+00  0.9837E+00
     -1.217  0.1593E+00  0.9922E+00
     -1.164  0.1391E+00  0.9996E+00
     -1.110  0.1159E+00  0.1006E+01
     -1.057  0.9281E-01  0.1011E+01
     -1.003  0.7156E-01  0.1015E+01
     -0.950  0.5238E-01  0.1017E+01
     -0.897  0.3626E-01  0.1019E+01
     -0.843  0.2554E-01  0.1021E+01
     -0.790  0.1926E-01  0.1022E+01
     -0.736  0.1513E-01  0.1023E+01
     -0.683  0.1247E-01  0.1023E+01
     -0.629  0.1078E-01  0.1024E+01
     -0.576  0.1176E-01  0.1024E+01
     -0.523  0.1872E-01  0.1025E+01
     -0.469  0.3080E-01  0.1027E+01
     -0.416  0.4264E-01  0.1029E+01
     -0.362  0.4864E-01  0.1032E+01
     -0.309  0.4673E-01  0.1034E+01
     -0.255  0.4235E-01  0.1037E+01
     -0.202  0.4224E-01  0.1039E+01
     -0.149  0.4197E-01  0.1041E+01
     -0.095  0.3478E-01  0.1043E+01
     -0.042  0.2569E-01  0.1044E+01
      0.012  0.2307E-01  0.1046E+01
      0.065  0.2739E-01  0.1047E+01
      0.119  0.3391E-01  0.1049E+01
      0.172  0.3848E-01  0.1051E+01
      0.225  0.4073E-01  0.1053E+01
      0.279  0.4236E-01  0.1055E+01
      0.332  0.4235E-01  0.1058E+01
      0.386  0.3794E-01  0.1060E+01
      0.439  0.3157E-01  0.1061E+01
      0.493  0.2947E-01  0.1063E+01
      0.546  0.3210E-01  0.1065E+01
      0.599  0.3413E-01  0.1067E+01
      0.653  0.3583E-01  0.1068E+01
      0.706  0.4049E-01  0.1071E+01
      0.760  0.4426E-01  0.1073E+01
      0.813  0.4326E-01  0.1075E+01
      0.867  0.3861E-01  0.1077E+01
      0.920  0.3167E-01  0.1079E+01
      0.973  0.2379E-01  0.1080E+01
      1.027  0.1638E-01  0.1081E+01
      1.080  0.1099E-01  0.1082E+01
      1.134  0.9949E-02  0.1082E+01
      1.187  0.1362E-01  0.1083E+01
      1.241  0.1809E-01  0.1084E+01
      1.294  0.1924E-01  0.1085E+01
      1.347  0.1727E-01  0.1086E+01
      1.401  0.1697E-01  0.1087E+01
      1.454  0.2314E-01  0.1088E+01
      1.508  0.3238E-01  0.1090E+01
      1.561  0.3575E-01  0.1092E+01
      1.615  0.3276E-01  0.1093E+01
      1.668  0.3173E-01  0.1095E+01
      1.721  0.3531E-01  0.1097E+01
      1.775  0.3791E-01  0.1099E+01
      1.828  0.3577E-01  0.1101E+01
      1.882  0.2869E-01  0.1103E+01
      1.935  0.1832E-01  0.1104E+01
      1.989  0.1045E-01  0.1104E+01
      2.042  0.9647E-02  0.1105E+01
      2.095  0.1249E-01  0.1105E+01
      2.149  0.1436E-01  0.1106E+01
      2.202  0.1843E-01  0.1107E+01
      2.256  0.2927E-01  0.1109E+01
      2.309  0.4333E-01  0.1111E+01
      2.362  0.5289E-01  0.1114E+01
      2.416  0.5655E-01  0.1117E+01
      2.469  0.5646E-01  0.1120E+01
      2.523  0.5217E-01  0.1123E+01
      2.576  0.4750E-01  0.1125E+01
      2.630  0.4734E-01  0.1128E+01
      2.683  0.5014E-01  0.1130E+01
      2.736  0.5119E-01  0.1133E+01
      2.790  0.4480E-01  0.1135E+01
      2.843  0.3085E-01  0.1137E+01
      2.897  0.1829E-01  0.1138E+01
      2.950  0.1364E-01  0.1139E+01
      3.004  0.1324E-01  0.1139E+01
      3.057  0.1332E-01  0.1140E+01
      3.110  0.1659E-01  0.1141E+01
      3.164  0.2333E-01  0.1142E+01
      3.217  0.2742E-01  0.1144E+01
      3.271  0.2363E-01  0.1145E+01
      3.324  0.1555E-01  0.1146E+01
      3.378  0.1153E-01  0.1146E+01
      3.431  0.1224E-01  0.1147E+01
      3.484  0.1295E-01  0.1148E+01
      3.538  0.1485E-01  0.1149E+01
      3.591  0.2144E-01  0.1150E+01
      3.645  0.2995E-01  0.1151E+01
      3.698  0.3601E-01  0.1153E+01
      3.752  0.4003E-01  0.1155E+01
      3.805  0.4155E-01  0.1158E+01
      3.858  0.3669E-01  0.1160E+01
      3.912  0.2751E-01  0.1161E+01
      3.965  0.2226E-01  0.1162E+01
      4.019  0.2510E-01  0.1164E+01
      4.072  0.2986E-01  0.1165E+01
      4.126  0.2910E-01  0.1167E+01
      4.179  0.2560E-01  0.1168E+01
      4.232  0.2454E-01  0.1169E+01
      4.286  0.2381E-01  0.1171E+01
      4.339  0.2090E-01  0.1172E+01
      4.393  0.1945E-01  0.1173E+01
      4.446  0.2200E-01  0.1174E+01
      4.500  0.2749E-01  0.1176E+01
      4.553  0.3639E-01  0.1177E+01
      4.606  0.4776E-01  0.1180E+01
      4.660  0.5486E-01  0.1183E+01
      4.713  0.5206E-01  0.1186E+01
      4.767  0.4437E-01  0.1188E+01
      4.820  0.4194E-01  0.1190E+01
      4.874  0.4681E-01  0.1193E+01
      4.927  0.5301E-01  0.1196E+01
      4.980  0.5868E-01  0.1199E+01
      5.034  0.6666E-01  0.1202E+01
      5.087  0.7226E-01  0.1206E+01
      5.141  0.6875E-01  0.1210E+01
      5.194  0.6221E-01  0.1213E+01
      5.248  0.5963E-01  0.1216E+01
      5.301  0.5467E-01  0.1219E+01
      5.354  0.4151E-01  0.1222E+01
      5.408  0.2554E-01  0.1223E+01
      5.461  0.1307E-01  0.1224E+01
      5.515  0.5312E-02  0.1224E+01
      5.568  0.1545E-02  0.1224E+01
      5.622  0.2936E-03  0.1224E+01
      5.675  0.3457E-04  0.1224E+01
      5.728  0.2447E-05  0.1224E+01
      5.782  0.1022E-06  0.1224E+01
      5.835  0.2491E-08  0.1224E+01
      5.889  0.3513E-10  0.1224E+01
      5.942  0.2849E-12  0.1224E+01
      5.996  0.1326E-14  0.1224E+01
      6.049  0.2771E-17  0.1224E+01
      6.102  0.0000E+00  0.1224E+01
      6.156  0.0000E+00  0.1224E+01
      6.209  0.0000E+00  0.1224E+01
      6.263  0.0000E+00  0.1224E+01
      6.316  0.0000E+00  0.1224E+01
      6.370  0.0000E+00  0.1224E+01
      6.423  0.0000E+00  0.1224E+01
