  48  48   0   0
  0.5349325E+02  0.1100258E-08  0.1100258E-08  0.2449179E-08  0.3500000E-15
  1.000000000000000E-004
  CAR 
 unknown system                          
      6.37528144     -9.77096659  301     -1.10629843      1.00000000
     -9.771  0.0000E+00  0.0000E+00
     -9.717  0.0000E+00  0.0000E+00
     -9.663  0.0000E+00  0.0000E+00
     -9.610  0.0000E+00  0.0000E+00
     -9.556  0.0000E+00  0.0000E+00
     -9.502  0.0000E+00  0.0000E+00
     -9.448  0.0000E+00  0.0000E+00
     -9.394  0.0000E+00  0.0000E+00
     -9.340  0.8251E-17  0.4441E-18
     -9.287  0.3309E-14  0.1786E-15
     -9.233  0.7383E-12  0.3992E-13
     -9.179  0.9347E-10  0.5070E-11
     -9.125  0.6726E-08  0.3670E-09
     -9.071  0.2756E-06  0.1520E-07
     -9.017  0.6448E-05  0.3622E-06
     -8.964  0.8630E-04  0.5007E-05
     -8.910  0.6626E-03  0.4067E-04
     -8.856  0.2926E-02  0.1981E-03
     -8.802  0.7470E-02  0.6002E-03
     -8.748  0.1127E-01  0.1207E-02
     -8.695  0.1118E-01  0.1808E-02
     -8.641  0.1037E-01  0.2366E-02
     -8.587  0.1144E-01  0.2982E-02
     -8.533  0.1044E-01  0.3544E-02
     -8.479  0.5995E-02  0.3867E-02
     -8.425  0.2030E-02  0.3976E-02
     -8.372  0.3998E-03  0.3997E-02
     -8.318  0.4724E-04  0.4000E-02
     -8.264  0.2940E-04  0.4002E-02
     -8.210  0.2521E-03  0.4015E-02
     -8.156  0.1405E-02  0.4091E-02
     -8.103  0.4636E-02  0.4340E-02
     -8.049  0.9313E-02  0.4841E-02
     -7.995  0.1261E-01  0.5520E-02
     -7.941  0.1513E-01  0.6334E-02
     -7.887  0.1980E-01  0.7400E-02
     -7.833  0.2258E-01  0.8615E-02
     -7.780  0.1904E-01  0.9640E-02
     -7.726  0.1426E-01  0.1041E-01
     -7.672  0.1366E-01  0.1114E-01
     -7.618  0.1628E-01  0.1202E-01
     -7.564  0.1973E-01  0.1308E-01
     -7.510  0.2265E-01  0.1430E-01
     -7.457  0.2355E-01  0.1557E-01
     -7.403  0.2176E-01  0.1674E-01
     -7.349  0.1977E-01  0.1780E-01
     -7.295  0.2155E-01  0.1896E-01
     -7.241  0.2501E-01  0.2031E-01
     -7.188  0.2467E-01  0.2164E-01
     -7.134  0.2417E-01  0.2294E-01
     -7.080  0.2992E-01  0.2455E-01
     -7.026  0.4005E-01  0.2670E-01
     -6.972  0.4940E-01  0.2936E-01
     -6.918  0.5587E-01  0.3237E-01
     -6.865  0.6096E-01  0.3565E-01
     -6.811  0.6696E-01  0.3925E-01
     -6.757  0.7455E-01  0.4327E-01
     -6.703  0.8375E-01  0.4777E-01
     -6.649  0.9237E-01  0.5274E-01
     -6.596  0.9648E-01  0.5794E-01
     -6.542  0.9717E-01  0.6317E-01
     -6.488  0.1004E+00  0.6857E-01
     -6.434  0.1094E+00  0.7446E-01
     -6.380  0.1209E+00  0.8097E-01
     -6.326  0.1295E+00  0.8794E-01
     -6.273  0.1342E+00  0.9517E-01
     -6.219  0.1383E+00  0.1026E+00
     -6.165  0.1452E+00  0.1104E+00
     -6.111  0.1542E+00  0.1187E+00
     -6.057  0.1604E+00  0.1274E+00
     -6.004  0.1633E+00  0.1361E+00
     -5.950  0.1666E+00  0.1451E+00
     -5.896  0.1706E+00  0.1543E+00
     -5.842  0.1705E+00  0.1635E+00
     -5.788  0.1635E+00  0.1723E+00
     -5.734  0.1531E+00  0.1805E+00
     -5.681  0.1459E+00  0.1884E+00
     -5.627  0.1436E+00  0.1961E+00
     -5.573  0.1412E+00  0.2037E+00
     -5.519  0.1369E+00  0.2111E+00
     -5.465  0.1348E+00  0.2183E+00
     -5.411  0.1373E+00  0.2257E+00
     -5.358  0.1416E+00  0.2333E+00
     -5.304  0.1443E+00  0.2411E+00
     -5.250  0.1459E+00  0.2489E+00
     -5.196  0.1502E+00  0.2570E+00
     -5.142  0.1593E+00  0.2656E+00
     -5.089  0.1683E+00  0.2747E+00
     -5.035  0.1732E+00  0.2840E+00
     -4.981  0.1758E+00  0.2934E+00
     -4.927  0.1762E+00  0.3029E+00
     -4.873  0.1737E+00  0.3123E+00
     -4.819  0.1713E+00  0.3215E+00
     -4.766  0.1726E+00  0.3308E+00
     -4.712  0.1770E+00  0.3403E+00
     -4.658  0.1788E+00  0.3499E+00
     -4.604  0.1749E+00  0.3594E+00
     -4.550  0.1707E+00  0.3685E+00
     -4.497  0.1707E+00  0.3777E+00
     -4.443  0.1719E+00  0.3870E+00
     -4.389  0.1713E+00  0.3962E+00
     -4.335  0.1706E+00  0.4054E+00
     -4.281  0.1716E+00  0.4146E+00
     -4.227  0.1741E+00  0.4240E+00
     -4.174  0.1755E+00  0.4334E+00
     -4.120  0.1749E+00  0.4428E+00
     -4.066  0.1747E+00  0.4523E+00
     -4.012  0.1779E+00  0.4618E+00
     -3.958  0.1850E+00  0.4718E+00
     -3.904  0.1920E+00  0.4821E+00
     -3.851  0.1947E+00  0.4926E+00
     -3.797  0.1947E+00  0.5031E+00
     -3.743  0.1966E+00  0.5137E+00
     -3.689  0.2006E+00  0.5244E+00
     -3.635  0.2020E+00  0.5353E+00
     -3.582  0.2013E+00  0.5461E+00
     -3.528  0.2027E+00  0.5571E+00
     -3.474  0.2040E+00  0.5680E+00
     -3.420  0.2006E+00  0.5788E+00
     -3.366  0.1966E+00  0.5894E+00
     -3.312  0.1984E+00  0.6001E+00
     -3.259  0.2031E+00  0.6110E+00
     -3.205  0.2030E+00  0.6220E+00
     -3.151  0.1991E+00  0.6327E+00
     -3.097  0.1971E+00  0.6433E+00
     -3.043  0.1963E+00  0.6538E+00
     -2.990  0.1907E+00  0.6641E+00
     -2.936  0.1809E+00  0.6738E+00
     -2.882  0.1749E+00  0.6833E+00
     -2.828  0.1763E+00  0.6927E+00
     -2.774  0.1819E+00  0.7025E+00
     -2.720  0.1877E+00  0.7126E+00
     -2.667  0.1928E+00  0.7230E+00
     -2.613  0.1957E+00  0.7335E+00
     -2.559  0.1944E+00  0.7440E+00
     -2.505  0.1889E+00  0.7542E+00
     -2.451  0.1830E+00  0.7640E+00
     -2.398  0.1794E+00  0.7737E+00
     -2.344  0.1779E+00  0.7833E+00
     -2.290  0.1783E+00  0.7928E+00
     -2.236  0.1814E+00  0.8026E+00
     -2.182  0.1855E+00  0.8126E+00
     -2.128  0.1883E+00  0.8227E+00
     -2.075  0.1894E+00  0.8329E+00
     -2.021  0.1894E+00  0.8431E+00
     -1.967  0.1889E+00  0.8533E+00
     -1.913  0.1870E+00  0.8634E+00
     -1.859  0.1849E+00  0.8733E+00
     -1.805  0.1838E+00  0.8832E+00
     -1.752  0.1826E+00  0.8930E+00
     -1.698  0.1813E+00  0.9028E+00
     -1.644  0.1831E+00  0.9126E+00
     -1.590  0.1886E+00  0.9228E+00
     -1.536  0.1943E+00  0.9332E+00
     -1.483  0.1975E+00  0.9439E+00
     -1.429  0.1995E+00  0.9546E+00
     -1.375  0.2004E+00  0.9654E+00
     -1.321  0.1959E+00  0.9759E+00
     -1.267  0.1825E+00  0.9858E+00
     -1.213  0.1617E+00  0.9945E+00
     -1.160  0.1377E+00  0.1002E+01
     -1.106  0.1148E+00  0.1008E+01
     -1.052  0.9165E-01  0.1013E+01
     -0.998  0.6358E-01  0.1016E+01
     -0.944  0.3643E-01  0.1018E+01
     -0.891  0.2043E-01  0.1019E+01
     -0.837  0.1558E-01  0.1020E+01
     -0.783  0.1610E-01  0.1021E+01
     -0.729  0.1811E-01  0.1022E+01
     -0.675  0.2120E-01  0.1023E+01
     -0.621  0.2694E-01  0.1025E+01
     -0.568  0.3601E-01  0.1027E+01
     -0.514  0.4436E-01  0.1029E+01
     -0.460  0.4575E-01  0.1032E+01
     -0.406  0.3983E-01  0.1034E+01
     -0.352  0.3170E-01  0.1035E+01
     -0.299  0.2907E-01  0.1037E+01
     -0.245  0.3567E-01  0.1039E+01
     -0.191  0.4293E-01  0.1041E+01
     -0.137  0.4134E-01  0.1043E+01
     -0.083  0.3372E-01  0.1045E+01
     -0.029  0.2704E-01  0.1047E+01
      0.024  0.2439E-01  0.1048E+01
      0.078  0.2657E-01  0.1049E+01
      0.132  0.3027E-01  0.1051E+01
      0.186  0.3060E-01  0.1053E+01
      0.240  0.3037E-01  0.1054E+01
      0.294  0.3537E-01  0.1056E+01
      0.347  0.4166E-01  0.1058E+01
      0.401  0.4237E-01  0.1061E+01
      0.455  0.3888E-01  0.1063E+01
      0.509  0.3636E-01  0.1065E+01
      0.563  0.3804E-01  0.1067E+01
      0.616  0.4279E-01  0.1069E+01
      0.670  0.4585E-01  0.1072E+01
      0.724  0.4448E-01  0.1074E+01
      0.778  0.3760E-01  0.1076E+01
      0.832  0.2633E-01  0.1077E+01
      0.886  0.1816E-01  0.1078E+01
      0.939  0.1741E-01  0.1079E+01
      0.993  0.1952E-01  0.1080E+01
      1.047  0.2254E-01  0.1082E+01
      1.101  0.2707E-01  0.1083E+01
      1.155  0.2773E-01  0.1085E+01
      1.208  0.2173E-01  0.1086E+01
      1.262  0.1550E-01  0.1087E+01
      1.316  0.1252E-01  0.1087E+01
      1.370  0.1018E-01  0.1088E+01
      1.424  0.9799E-02  0.1088E+01
      1.478  0.1622E-01  0.1089E+01
      1.531  0.2889E-01  0.1091E+01
      1.585  0.3827E-01  0.1093E+01
      1.639  0.3659E-01  0.1095E+01
      1.693  0.3109E-01  0.1096E+01
      1.747  0.3238E-01  0.1098E+01
      1.801  0.3758E-01  0.1100E+01
      1.854  0.3667E-01  0.1102E+01
      1.908  0.2835E-01  0.1104E+01
      1.962  0.2131E-01  0.1105E+01
      2.016  0.2003E-01  0.1106E+01
      2.070  0.2300E-01  0.1107E+01
      2.123  0.2882E-01  0.1109E+01
      2.177  0.3503E-01  0.1111E+01
      2.231  0.3949E-01  0.1113E+01
      2.285  0.4154E-01  0.1115E+01
      2.339  0.4158E-01  0.1117E+01
      2.393  0.4069E-01  0.1119E+01
      2.446  0.3834E-01  0.1121E+01
      2.500  0.3573E-01  0.1123E+01
      2.554  0.3698E-01  0.1125E+01
      2.608  0.4230E-01  0.1128E+01
      2.662  0.4681E-01  0.1130E+01
      2.715  0.4701E-01  0.1133E+01
      2.769  0.4139E-01  0.1135E+01
      2.823  0.3086E-01  0.1137E+01
      2.877  0.2030E-01  0.1138E+01
      2.931  0.1475E-01  0.1138E+01
      2.985  0.1326E-01  0.1139E+01
      3.038  0.1175E-01  0.1140E+01
      3.092  0.1241E-01  0.1141E+01
      3.146  0.1852E-01  0.1141E+01
      3.200  0.2536E-01  0.1143E+01
      3.254  0.2612E-01  0.1144E+01
      3.307  0.2044E-01  0.1145E+01
      3.361  0.1530E-01  0.1146E+01
      3.415  0.1726E-01  0.1147E+01
      3.469  0.2375E-01  0.1148E+01
      3.523  0.2885E-01  0.1150E+01
      3.577  0.3237E-01  0.1152E+01
      3.630  0.3468E-01  0.1154E+01
      3.684  0.3516E-01  0.1155E+01
      3.738  0.3586E-01  0.1157E+01
      3.792  0.3513E-01  0.1159E+01
      3.846  0.2913E-01  0.1161E+01
      3.900  0.2248E-01  0.1162E+01
      3.953  0.2247E-01  0.1163E+01
      4.007  0.2637E-01  0.1165E+01
      4.061  0.2737E-01  0.1166E+01
      4.115  0.2636E-01  0.1168E+01
      4.169  0.2563E-01  0.1169E+01
      4.222  0.2319E-01  0.1170E+01
      4.276  0.1876E-01  0.1171E+01
      4.330  0.1585E-01  0.1172E+01
      4.384  0.1920E-01  0.1173E+01
      4.438  0.2760E-01  0.1175E+01
      4.492  0.3502E-01  0.1176E+01
      4.545  0.4225E-01  0.1179E+01
      4.599  0.5138E-01  0.1182E+01
      4.653  0.5600E-01  0.1185E+01
      4.707  0.5265E-01  0.1187E+01
      4.761  0.4715E-01  0.1190E+01
      4.814  0.4441E-01  0.1192E+01
      4.868  0.4546E-01  0.1195E+01
      4.922  0.4955E-01  0.1197E+01
      4.976  0.5618E-01  0.1200E+01
      5.030  0.6492E-01  0.1204E+01
      5.084  0.6963E-01  0.1208E+01
      5.137  0.6539E-01  0.1211E+01
      5.191  0.5959E-01  0.1214E+01
      5.245  0.5692E-01  0.1217E+01
      5.299  0.4975E-01  0.1220E+01
      5.353  0.3579E-01  0.1222E+01
      5.407  0.2140E-01  0.1223E+01
      5.460  0.1032E-01  0.1224E+01
      5.514  0.3551E-02  0.1224E+01
      5.568  0.7772E-03  0.1224E+01
      5.622  0.1017E-03  0.1224E+01
      5.676  0.7751E-05  0.1224E+01
      5.729  0.3394E-06  0.1224E+01
      5.783  0.8491E-08  0.1224E+01
      5.837  0.1209E-09  0.1224E+01
      5.891  0.9766E-12  0.1224E+01
      5.945  0.4469E-14  0.1224E+01
      5.999  0.1100E-16  0.1224E+01
      6.052  0.0000E+00  0.1224E+01
      6.106  0.0000E+00  0.1224E+01
      6.160  0.0000E+00  0.1224E+01
      6.214  0.0000E+00  0.1224E+01
      6.268  0.0000E+00  0.1224E+01
      6.321  0.0000E+00  0.1224E+01
      6.375  0.0000E+00  0.1224E+01
