unknown system                          
           1
    11.002582    0.000000    0.000000
     5.501291    9.528515    0.000000
     0.000000    0.000000   24.491785
   Au   Pd
  24  24
Direct configuration=     1
   0.08333333  0.08333333  0.40830017
   0.16666667  0.66666667  0.50000000
   0.25000000  0.50000000  0.59169983
   0.58333333  0.08333333  0.40830017
   0.41666667  0.16666667  0.50000000
   0.41666667  0.41666667  0.50000000
   0.50000000  0.25000000  0.59169983
   0.33333333  0.58333333  0.40830017
   0.58333333  0.83333333  0.40830017
   0.75000000  0.00000000  0.59169983
   0.66666667  0.41666667  0.50000000
   0.75000000  0.25000000  0.59169983
   0.66666667  0.66666667  0.50000000
   0.75000000  0.50000000  0.59169983
   0.83333333  0.83333333  0.40830017
   0.66666667  0.16666667  0.50000000
   0.25000000  0.25000000  0.59169983
   0.75000000  0.75000000  0.59169983
   0.33333333  0.33333333  0.40830017
   0.25000000  0.00000000  0.59169983
   0.16666667  0.16666667  0.50000000
   0.00000000  0.00000000  0.59169983
   0.33333333  0.08333333  0.40830017
   0.91666667  0.91666667  0.50000000
   0.91666667  0.16666667  0.50000000
   0.08333333  0.33333333  0.40830017
   0.83333333  0.58333333  0.40830017
   0.91666667  0.41666667  0.50000000
   0.00000000  0.25000000  0.59169983
   0.83333333  0.33333333  0.40830017
   0.08333333  0.58333333  0.40830017
   0.91666667  0.66666667  0.50000000
   0.83333333  0.08333333  0.40830017
   0.50000000  0.75000000  0.59169983
   0.50000000  0.50000000  0.59169983
   0.00000000  0.50000000  0.59169983
   0.16666667  0.41666667  0.50000000
   0.41666667  0.66666667  0.50000000
   0.58333333  0.58333333  0.40830017
   0.08333333  0.83333333  0.40830017
   0.58333333  0.33333333  0.40830017
   0.50000000  0.00000000  0.59169983
   0.00000000  0.75000000  0.59169983
   0.66666667  0.91666667  0.50000000
   0.16666667  0.91666667  0.50000000
   0.33333333  0.83333333  0.40830017
   0.41666667  0.91666667  0.50000000
   0.25000000  0.75000000  0.59169983
Direct configuration=     2
   0.08239902  0.08298539  0.40651491
   0.16561078  0.66774712  0.50003304
   0.24893968  0.50123219  0.59382223
   0.58442478  0.08344262  0.40603580
   0.41702515  0.16486374  0.50033422
   0.41683854  0.41791919  0.49994644
   0.50001970  0.24999289  0.59430816
   0.33351593  0.58446369  0.40613627
   0.58316715  0.83227803  0.40645035
   0.74978513 -0.00107829  0.59392757
   0.66698999  0.41711846  0.49920884
   0.75056785  0.25048191  0.59398732
   0.66627990  0.66711278  0.49962068
   0.75065125  0.49972361  0.59383612
   0.83450497  0.83233441  0.40645345
   0.66795638  0.16624022  0.49919723
   0.24890610  0.25058220  0.59390362
   0.75028884  0.75020173  0.59350817
   0.33196777  0.33444167  0.40605553
   0.25098986 -0.00132653  0.59348781
   0.16452820  0.16794568  0.49999683
   0.00100018 -0.00041579  0.59357534
   0.33273878  0.08274224  0.40607714
   0.91766923  0.91605371  0.49959326
   0.91723357  0.16712998  0.49964087
   0.08211757  0.33482275  0.40739533
   0.83438813  0.58205948  0.40743629
   0.91772141  0.41651918  0.49963424
  -0.00037355  0.25070794  0.59267934
   0.83300105  0.33385428  0.40738588
   0.08262533  0.58305460  0.40732668
   0.91743438  0.66522676  0.49995066
   0.83360637  0.08393321  0.40714763
   0.49895257  0.75026239  0.59262934
   0.49929770  0.50134459  0.59294621
  -0.00005656  0.49997044  0.59246502
   0.16416065  0.41790731  0.49979082
   0.41614091  0.66823719  0.50019542
   0.58341230  0.58314564  0.40720949
   0.08347237  0.83356954  0.40720940
   0.58440164  0.33324292  0.40692389
   0.50009304 -0.00077157  0.59274820
   0.00021739  0.74923917  0.59284242
   0.66621448  0.91614182  0.50024105
   0.16781671  0.91562773  0.49980712
   0.33354382  0.83265792  0.40747943
   0.41695728  0.91539821  0.50028995
   0.25085628  0.74963564  0.59261500
Direct configuration=     3
   0.07959610  0.08194155  0.40115915
   0.16244310  0.67098848  0.50013217
   0.24575871  0.50492878  0.60018944
   0.58769911  0.08377047  0.39924270
   0.41810060  0.15945495  0.50133687
   0.41735416  0.42167674  0.49978577
   0.50007879  0.24997156  0.60213316
   0.33406373  0.58785476  0.39964459
   0.58266861  0.82911213  0.40090088
   0.74914052 -0.00431317  0.60061079
   0.66795997  0.41847386  0.49683535
   0.75227139  0.25192762  0.60084980
   0.66511960  0.66845113  0.49848272
   0.75260499  0.49889443  0.60024500
   0.83801988  0.82933763  0.40091328
   0.67182552  0.16496088  0.49678893
   0.24562442  0.25232881  0.60051499
   0.75115537  0.75080691  0.59893318
   0.32787106  0.33776667  0.39932160
   0.25395945 -0.00530610  0.59885173
   0.15811279  0.17178273  0.49998730
   0.00400073 -0.00166317  0.59920185
   0.33095511  0.08096897  0.39940807
   0.92067694  0.91421484  0.49837302
   0.91893428  0.16851991  0.49856347
   0.07847027  0.33929101  0.40468082
   0.83755250  0.57823794  0.40484463
   0.92088564  0.41607673  0.49853695
  -0.00149421  0.25283177  0.59561788
   0.83200421  0.33541713  0.40464303
   0.08050134  0.58221838  0.40440622
   0.91973753  0.66090704  0.49980266
   0.83442548  0.08573282  0.40369003
   0.49581028  0.75104958  0.59541786
   0.49719080  0.50537836  0.59668536
  -0.00022623  0.49988176  0.59476058
   0.15664260  0.42162926  0.49916327
   0.41456362  0.67294877  0.50078167
   0.58364919  0.58258256  0.40393747
   0.08388949  0.83427817  0.40393707
   0.58760654  0.33297168  0.40279504
   0.50037217 -0.00308629  0.59589331
   0.00086957  0.74695670  0.59627017
   0.66485793  0.91456728  0.50096419
   0.17126684  0.91251093  0.49922850
   0.33417526  0.83063167  0.40501722
   0.41782911  0.91159283  0.50115980
   0.25342514  0.74854256  0.59536050
Direct configuration=     4
   0.08045117  0.08242828  0.39963000
   0.16539745  0.66766945  0.50000475
   0.24706714  0.50365905  0.60147736
   0.58636181  0.08349166  0.39765749
   0.41640615  0.16230734  0.50101913
   0.41576738  0.42049796  0.49982255
   0.50011355  0.25059453  0.60351814
   0.33380412  0.58679132  0.39815343
   0.58342279  0.82989385  0.39934293
   0.74991949 -0.00234281  0.60179855
   0.66864507  0.41864246  0.49794822
   0.75124829  0.25116966  0.60204906
   0.66712794  0.66716929  0.49903236
   0.75129860  0.50057384  0.60140977
   0.83700485  0.82960305  0.39962475
   0.67059437  0.16474617  0.49768579
   0.24650364  0.25185093  0.60192779
   0.75082264  0.74882140  0.60019095
   0.32925368  0.33687071  0.39829059
   0.25277310 -0.00317041  0.60010947
   0.16252578  0.16858916  0.49995332
   0.00319077 -0.00181602  0.60024726
   0.33071447  0.08181362  0.39821177
   0.91801419  0.91604459  0.49893898
   0.91844109  0.16750926  0.49911346
   0.07950725  0.33709561  0.40335284
   0.83609781  0.57917549  0.40375687
   0.91656976  0.41804148  0.49908130
  -0.00075093  0.25188446  0.59646037
   0.83251149  0.33548219  0.40328983
   0.08152178  0.58303049  0.40335126
   0.91654665  0.66394084  0.49997196
   0.83484160  0.08506267  0.40230300
   0.49861509  0.74922625  0.59649019
   0.49834693  0.50410854  0.59733044
  -0.00063141  0.50023799  0.59558982
   0.16199262  0.41941054  0.49953600
   0.41474849  0.67100362  0.50046785
   0.58379451  0.58245491  0.40262157
   0.08404880  0.83352177  0.40266054
   0.58596025  0.33371178  0.40136342
   0.49959943 -0.00249510  0.59695519
   0.00035526  0.74824658  0.59708916
   0.66692092  0.91408911  0.50052677
   0.17037234  0.91523424  0.49945843
   0.33393329  0.83142310  0.40414685
   0.41591727  0.91433509  0.50075761
   0.25231124  0.74837000  0.59628086
Direct configuration=     5
   0.08082472  0.08264092  0.39896199
   0.16668808  0.66621951  0.49994908
   0.24763874  0.50310436  0.60204000
   0.58577761  0.08336987  0.39696497
   0.41566592  0.16355342  0.50088032
   0.41507419  0.41998300  0.49983862
   0.50012874  0.25086668  0.60412319
   0.33369071  0.58632674  0.39750200
   0.58375226  0.83023535  0.39866233
   0.75025979 -0.00148204  0.60231744
   0.66894436  0.41871611  0.49843438
   0.75080134  0.25083854  0.60257296
   0.66800530  0.66660931  0.49927248
   0.75072789  0.50130750  0.60191861
   0.83656143  0.82971899  0.39906184
   0.67005653  0.16465237  0.49807758
   0.24688774  0.25164217  0.60254498
   0.75067728  0.74795401  0.60074042
   0.32985769  0.33647931  0.39784018
   0.25225483 -0.00223742  0.60065892
   0.16445363  0.16719403  0.49993847
   0.00283694 -0.00188279  0.60070395
   0.33060934  0.08218261  0.39768915
   0.91685096  0.91684392  0.49918622
   0.91822564  0.16706775  0.49935373
   0.07996026  0.33613654  0.40277271
   0.83546231  0.57958507  0.40328167
   0.91468434  0.41889980  0.49931910
  -0.00042622  0.25147061  0.59682842
   0.83273310  0.33551061  0.40269868
   0.08196756  0.58338526  0.40289040
   0.91515269  0.66526618  0.50004593
   0.83502338  0.08476990  0.40169706
   0.49984040  0.74842972  0.59695865
   0.49885200  0.50355382  0.59761224
  -0.00080842  0.50039362  0.59595208
   0.16432981  0.41844128  0.49969883
   0.41482926  0.67015387  0.50033076
   0.58385800  0.58239914  0.40204671
   0.08411839  0.83319134  0.40210288
   0.58524106  0.33403509  0.40073801
   0.49926185 -0.00223683  0.59741908
   0.00013058  0.74881007  0.59744693
   0.66782216  0.91388022  0.50033568
   0.16998158  0.91642394  0.49955888
   0.33382758  0.83176885  0.40376663
   0.41508207  0.91553306  0.50058192
   0.25182462  0.74829461  0.59668293
Direct configuration=     6
   0.08105890  0.08292083  0.39839067
   0.16591159  0.66707793  0.49982313
   0.24817490  0.50242490  0.60256624
   0.58499663  0.08351205  0.39642702
   0.41653474  0.16456068  0.50070550
   0.41659056  0.41774587  0.49979297
   0.49993881  0.25090003  0.60464033
   0.33374419  0.58576134  0.39685338
   0.58368504  0.83074307  0.39812477
   0.74998246 -0.00128610  0.60270178
   0.66788511  0.41760748  0.49896151
   0.75054720  0.25108433  0.60299345
   0.66620315  0.66827913  0.49939534
   0.75066440  0.50012909  0.60252886
   0.83612297  0.83031901  0.39858317
   0.66769479  0.16607690  0.49843213
   0.24754678  0.25159922  0.60313283
   0.75035125  0.74921688  0.60128607
   0.33077742  0.33557852  0.39753334
   0.25197790 -0.00208583  0.60117201
   0.16431218  0.16808334  0.49983948
   0.00261197 -0.00182546  0.60103658
   0.33108935  0.08265658  0.39717852
   0.91775000  0.91604958  0.49936938
   0.91833977  0.16684202  0.49959151
   0.08045068  0.33550970  0.40265025
   0.83518440  0.58002862  0.40278533
   0.91624747  0.41782626  0.49962819
  -0.00051054  0.25124319  0.59694216
   0.83265131  0.33508762  0.40223712
   0.08237884  0.58329265  0.40275602
   0.91582356  0.66580256  0.50002730
   0.83453539  0.08454867  0.40133812
   0.49984060  0.74855334  0.59714059
   0.49946878  0.50253609  0.59767167
  -0.00029741  0.50019943  0.59611244
   0.16486658  0.41740770  0.49987115
   0.41535112  0.66939715  0.50000553
   0.58384152  0.58248833  0.40167634
   0.08392646  0.83304231  0.40190088
   0.58483814  0.33394315  0.40054961
   0.49974520 -0.00178374  0.59756502
  -0.00013318  0.74920738  0.59752693
   0.66713292  0.91482120  0.50016627
   0.16857800  0.91680657  0.49974383
   0.33394829  0.83195636  0.40345769
   0.41609767  0.91557119  0.50032141
   0.25154217  0.74854291  0.59686618
Direct configuration=     7
   0.08109295  0.08296153  0.39830759
   0.16579867  0.66720277  0.49980481
   0.24825288  0.50232609  0.60264277
   0.58488305  0.08353273  0.39634879
   0.41666109  0.16470716  0.50068007
   0.41681108  0.41742053  0.49978633
   0.49991119  0.25090487  0.60471554
   0.33375197  0.58567911  0.39675905
   0.58367527  0.83081691  0.39804659
   0.74994213 -0.00125761  0.60275768
   0.66773107  0.41744625  0.49903817
   0.75051024  0.25112007  0.60305460
   0.66594106  0.66852197  0.49941320
   0.75065516  0.49995772  0.60261760
   0.83605920  0.83040627  0.39851355
   0.66735132  0.16628407  0.49848369
   0.24764262  0.25159297  0.60321832
   0.75030384  0.74940053  0.60136543
   0.33091117  0.33544752  0.39748872
   0.25193762 -0.00206379  0.60124663
   0.16429160  0.16821267  0.49982509
   0.00257926 -0.00181712  0.60108496
   0.33115915  0.08272551  0.39710426
   0.91788075  0.91593406  0.49939602
   0.91835637  0.16680919  0.49962609
   0.08052200  0.33541854  0.40263244
   0.83514399  0.58009312  0.40271315
   0.91647480  0.41767014  0.49967314
  -0.00052280  0.25121011  0.59695870
   0.83263941  0.33502610  0.40216999
   0.08243865  0.58327919  0.40273648
   0.91592112  0.66588057  0.50002459
   0.83446442  0.08451650  0.40128591
   0.49984063  0.74857132  0.59716705
   0.49955847  0.50238809  0.59768031
  -0.00022309  0.50017119  0.59613576
   0.16494464  0.41725738  0.49989621
   0.41542701  0.66928710  0.49995823
   0.58383912  0.58250130  0.40162248
   0.08389854  0.83302064  0.40187151
   0.58477955  0.33392978  0.40052221
   0.49981549 -0.00171785  0.59758624
  -0.00017154  0.74926516  0.59753857
   0.66703268  0.91495804  0.50014164
   0.16837388  0.91686221  0.49977073
   0.33396584  0.83198363  0.40341276
   0.41624537  0.91557673  0.50028352
   0.25150110  0.74857902  0.59689282
Direct configuration=     8
   0.08105323  0.08286789  0.39809963
   0.16617708  0.66700555  0.49974886
   0.24825445  0.50255304  0.60283994
   0.58491345  0.08359528  0.39602492
   0.41694872  0.16436819  0.50063718
   0.41641289  0.41779564  0.49974024
   0.49992479  0.25070065  0.60514294
   0.33381932  0.58555761  0.39642634
   0.58353349  0.83081841  0.39777312
   0.74966520 -0.00115764  0.60292301
   0.66796973  0.41722421  0.49910816
   0.75071740  0.25087682  0.60335710
   0.66565691  0.66853844  0.49938776
   0.75103488  0.49959018  0.60293156
   0.83599715  0.83069912  0.39832798
   0.66779020  0.16572307  0.49854895
   0.24790463  0.25133756  0.60354917
   0.75030464  0.74983361  0.60157467
   0.33095742  0.33535972  0.39731281
   0.25225039 -0.00231155  0.60137920
   0.16426863  0.16840966  0.49977972
   0.00237890 -0.00160750  0.60128148
   0.33137026  0.08276378  0.39680995
   0.91751382  0.91640082  0.49936061
   0.91807128  0.16682680  0.49962021
   0.08050744  0.33569910  0.40277058
   0.83530573  0.58003050  0.40267158
   0.91687002  0.41765463  0.49972292
  -0.00041578  0.25110146  0.59695398
   0.83225361  0.33489124  0.40221080
   0.08253679  0.58282568  0.40284427
   0.91641995  0.66541396  0.49992923
   0.83397672  0.08455260  0.40141533
   0.49930035  0.74897451  0.59709713
   0.49931674  0.50227369  0.59763902
  -0.00013799  0.50021655  0.59614091
   0.16443851  0.41752571  0.49997652
   0.41519528  0.66915630  0.49970962
   0.58399126  0.58243866  0.40163276
   0.08379160  0.83318457  0.40188621
   0.58500449  0.33367833  0.40056251
   0.49992933 -0.00136718  0.59746385
  -0.00003313  0.74904907  0.59751347
   0.66660724  0.91571874  0.50002743
   0.16829516  0.91681922  0.49985493
   0.33395638  0.83203142  0.40333157
   0.41621555  0.91590818  0.50015541
   0.25178594  0.74845369  0.59680445
Direct configuration=     9
   0.08102296  0.08279655  0.39794117
   0.16646541  0.66685529  0.49970622
   0.24825565  0.50272597  0.60299018
   0.58493661  0.08364293  0.39577816
   0.41716788  0.16410991  0.50060450
   0.41610948  0.41808145  0.49970512
   0.49993515  0.25054504  0.60546859
   0.33387063  0.58546504  0.39617283
   0.58342547  0.83081956  0.39756475
   0.74945419 -0.00108147  0.60304898
   0.66815158  0.41705502  0.49916149
   0.75087524  0.25069148  0.60358759
   0.66544040  0.66855099  0.49936837
   0.75132420  0.49931014  0.60317077
   0.83594987  0.83092225  0.39818658
   0.66812460  0.16529563  0.49859868
   0.24810427  0.25114295  0.60380125
   0.75030524  0.75016360  0.60173409
   0.33099266  0.33529282  0.39717878
   0.25248870 -0.00250033  0.60148021
   0.16425112  0.16855975  0.49974516
   0.00222625 -0.00144777  0.60143122
   0.33153111  0.08279294  0.39658570
   0.91723425  0.91675646  0.49933364
   0.91785407  0.16684021  0.49961573
   0.08049635  0.33591287  0.40287584
   0.83542896  0.57998279  0.40263991
   0.91717115  0.41764282  0.49976084
  -0.00033424  0.25101867  0.59695039
   0.83195965  0.33478848  0.40224188
   0.08261156  0.58248014  0.40292640
   0.91680002  0.66505844  0.49985657
   0.83360512  0.08458010  0.40151394
   0.49888868  0.74928172  0.59704386
   0.49913255  0.50218652  0.59760755
  -0.00007314  0.50025111  0.59614483
   0.16405286  0.41773016  0.50003771
   0.41501871  0.66905664  0.49952019
   0.58410718  0.58239093  0.40164060
   0.08371011  0.83330948  0.40189742
   0.58517588  0.33348674  0.40059322
   0.50001606 -0.00110000  0.59737060
   0.00007233  0.74888442  0.59749435
   0.66628308  0.91629834  0.49994042
   0.16823518  0.91678646  0.49991909
   0.33394917  0.83206784  0.40326970
   0.41619282  0.91616072  0.50005780
   0.25200297  0.74835820  0.59673711
Direct configuration=    10
   0.08083464  0.08284143  0.39779601
   0.16642764  0.66699010  0.49961063
   0.24827424  0.50274478  0.60319111
   0.58492899  0.08370355  0.39534599
   0.41682936  0.16446935  0.50053660
   0.41589769  0.41802812  0.49964733
   0.49987084  0.25063584  0.60601726
   0.33391160  0.58545375  0.39575849
   0.58350635  0.83061690  0.39725772
   0.74952914 -0.00105581  0.60326440
   0.66845296  0.41704307  0.49926075
   0.75084743  0.25055926  0.60397674
   0.66568728  0.66847330  0.49939004
   0.75134978  0.49964410  0.60348234
   0.83604536  0.83078186  0.39803496
   0.66812217  0.16545645  0.49870744
   0.24815987  0.25103895  0.60415927
   0.75021551  0.75002979  0.60181452
   0.33100944  0.33532895  0.39700333
   0.25263881 -0.00254442  0.60154165
   0.16434248  0.16830019  0.49970052
   0.00231458 -0.00156781  0.60163234
   0.33145101  0.08281252  0.39622718
   0.91731927  0.91645712  0.49934101
   0.91789036  0.16697694  0.49958427
   0.08041258  0.33593491  0.40304487
   0.83542153  0.57997444  0.40269453
   0.91680620  0.41792518  0.49980850
   0.00008885  0.25079039  0.59690998
   0.83181066  0.33468169  0.40241153
   0.08265060  0.58233442  0.40306642
   0.91653441  0.66525395  0.49976349
   0.83342873  0.08457676  0.40168601
   0.49893849  0.74930522  0.59682259
   0.49916589  0.50209660  0.59749700
  -0.00003011  0.50030755  0.59618250
   0.16414481  0.41776502  0.50019995
   0.41487925  0.66922493  0.49921020
   0.58425743  0.58225129  0.40171571
   0.08367838  0.83336318  0.40198841
   0.58526151  0.33336021  0.40073588
   0.49998295 -0.00098113  0.59719916
   0.00022831  0.74887161  0.59736962
   0.66644285  0.91600166  0.49974861
   0.16831605  0.91693046  0.50000408
   0.33380838  0.83214456  0.40319886
   0.41583116  0.91631147  0.49989350
   0.25208427  0.74835736  0.59656668
Direct configuration=    11
   0.08059643  0.08289820  0.39761239
   0.16637987  0.66716062  0.49948972
   0.24829774  0.50276857  0.60344527
   0.58491934  0.08378023  0.39479933
   0.41640117  0.16492400  0.50045071
   0.41562978  0.41796067  0.49957422
   0.49978949  0.25075069  0.60671129
   0.33396341  0.58543948  0.39523438
   0.58360867  0.83036055  0.39686935
   0.74962393 -0.00102334  0.60353689
   0.66883419  0.41702797  0.49938630
   0.75081226  0.25039202  0.60446898
   0.66599957  0.66837501  0.49941746
   0.75138213  0.50006652  0.60387645
   0.83616615  0.83060429  0.39784317
   0.66811910  0.16565988  0.49884502
   0.24823022  0.25090740  0.60461213
   0.75010201  0.74986053  0.60191626
   0.33103066  0.33537466  0.39678141
   0.25282870 -0.00260019  0.60161936
   0.16445806  0.16797186  0.49964407
   0.00242632 -0.00171965  0.60188673
   0.33134968  0.08283730  0.39577367
   0.91742683  0.91607846  0.49935033
   0.91793627  0.16714989  0.49954447
   0.08030661  0.33596279  0.40325869
   0.83541214  0.57996388  0.40276363
   0.91634457  0.41828235  0.49986878
   0.00062403  0.25050162  0.59685887
   0.83162221  0.33454660  0.40262612
   0.08269998  0.58215011  0.40324354
   0.91619842  0.66550126  0.49964576
   0.83320561  0.08457254  0.40190366
   0.49900150  0.74933495  0.59654271
   0.49920806  0.50198285  0.59735717
   0.00002432  0.50037893  0.59623014
   0.16426112  0.41780911  0.50040517
   0.41470283  0.66943780  0.49881809
   0.58444749  0.58207466  0.40181072
   0.08363825  0.83343111  0.40210351
   0.58536983  0.33320016  0.40091634
   0.49994106 -0.00083078  0.59698230
   0.00042561  0.74885541  0.59721186
   0.66664494  0.91562637  0.49950599
   0.16841834  0.91711261  0.50011158
   0.33363030  0.83224162  0.40310926
   0.41537369  0.91650216  0.49968567
   0.25218710  0.74835629  0.59635110
Direct configuration=    12
   0.08041850  0.08305530  0.39756050
   0.16641015  0.66706614  0.49941597
   0.24844898  0.50253004  0.60357717
   0.58487133  0.08361163  0.39442376
   0.41638913  0.16502177  0.50035024
   0.41600803  0.41789130  0.49956437
   0.49970218  0.25093981  0.60729988
   0.33396153  0.58550477  0.39483310
   0.58358037  0.83038487  0.39661031
   0.74979813 -0.00128379  0.60368121
   0.66822614  0.41735541  0.49970910
   0.75093902  0.25082911  0.60483329
   0.66573168  0.66873537  0.49943464
   0.75129424  0.49981675  0.60413541
   0.83620848  0.83032510  0.39771619
   0.66763738  0.16585291  0.49909152
   0.24824395  0.25111220  0.60491545
   0.75013534  0.74997833  0.60185568
   0.33092236  0.33542840  0.39664934
   0.25281660 -0.00255575  0.60161552
   0.16433364  0.16823080  0.49960460
   0.00272778 -0.00186437  0.60199677
   0.33120925  0.08281422  0.39541386
   0.91738609  0.91619669  0.49946742
   0.91830888  0.16688439  0.49966083
   0.08034327  0.33558746  0.40345795
   0.83526302  0.57990286  0.40280003
   0.91639110  0.41819121  0.50003930
   0.00047100  0.25059772  0.59678209
   0.83185283  0.33453572  0.40278880
   0.08280241  0.58229225  0.40333042
   0.91588653  0.66580579  0.49967100
   0.83341977  0.08432987  0.40205758
   0.49940819  0.74897452  0.59617936
   0.49961078  0.50198240  0.59712763
   0.00015820  0.50033255  0.59628071
   0.16429917  0.41766447  0.50065716
   0.41501962  0.66925860  0.49853286
   0.58434563  0.58199364  0.40189491
   0.08371253  0.83329788  0.40219662
   0.58501844  0.33337675  0.40111319
   0.50006328 -0.00097774  0.59672083
   0.00030051  0.74900523  0.59703256
   0.66646672  0.91561979  0.49926411
   0.16813532  0.91737685  0.50013309
   0.33343734  0.83237740  0.40294559
   0.41567753  0.91631053  0.49942766
   0.25220765  0.74830287  0.59615039
Direct configuration=    13
   0.08036192  0.08310526  0.39754400
   0.16641978  0.66703609  0.49939252
   0.24849706  0.50245419  0.60361911
   0.58485607  0.08355802  0.39430435
   0.41638530  0.16505286  0.50031829
   0.41612830  0.41786924  0.49956124
   0.49967442  0.25099995  0.60748704
   0.33396093  0.58552554  0.39470551
   0.58357137  0.83039260  0.39652794
   0.74985352 -0.00136661  0.60372710
   0.66803281  0.41745952  0.49981174
   0.75097932  0.25096809  0.60494913
   0.66564649  0.66884995  0.49944011
   0.75126629  0.49973733  0.60421776
   0.83622194  0.83023633  0.39767582
   0.66748421  0.16591429  0.49916990
   0.24824832  0.25117732  0.60501189
   0.75014593  0.75001578  0.60183641
   0.33088793  0.33544549  0.39660734
   0.25281276 -0.00254161  0.60161430
   0.16429408  0.16831314  0.49959205
   0.00282364 -0.00191039  0.60203175
   0.33116459  0.08280688  0.39529945
   0.91737314  0.91623428  0.49950466
   0.91842735  0.16679997  0.49969783
   0.08035493  0.33546812  0.40352131
   0.83521560  0.57988345  0.40281161
   0.91640590  0.41816223  0.50009352
   0.00042234  0.25062827  0.59675768
   0.83192617  0.33453226  0.40284053
   0.08283497  0.58233745  0.40335805
   0.91578736  0.66590261  0.49967902
   0.83348786  0.08425271  0.40210653
   0.49953751  0.74885991  0.59606382
   0.49973883  0.50198226  0.59705464
   0.00020078  0.50031780  0.59629679
   0.16431127  0.41761847  0.50073729
   0.41512034  0.66920163  0.49844216
   0.58431324  0.58196788  0.40192168
   0.08373615  0.83325551  0.40222623
   0.58490671  0.33343290  0.40117579
   0.50010214 -0.00102448  0.59663770
   0.00026074  0.74905287  0.59697555
   0.66641005  0.91561770  0.49918720
   0.16804533  0.91746087  0.50013992
   0.33337599  0.83242058  0.40289355
   0.41577415  0.91624960  0.49934562
   0.25221418  0.74828588  0.59608657
Direct configuration=    14
   0.08035491  0.08304300  0.39756949
   0.16675513  0.66661629  0.49936905
   0.24871888  0.50246994  0.60364249
   0.58490051  0.08345943  0.39408403
   0.41641691  0.16492191  0.50021584
   0.41597886  0.41801621  0.49959427
   0.50005903  0.25081642  0.60794548
   0.33383457  0.58562532  0.39441876
   0.58340127  0.83048076  0.39632393
   0.74980736 -0.00106061  0.60377130
   0.66812986  0.41737501  0.50007795
   0.75118536  0.25082952  0.60523406
   0.66567752  0.66881743  0.49936209
   0.75149907  0.49961740  0.60438556
   0.83620117  0.83011254  0.39761068
   0.66747123  0.16565099  0.49942118
   0.24831733  0.25112986  0.60516707
   0.75035588  0.74991151  0.60168992
   0.33066469  0.33545889  0.39657499
   0.25297791 -0.00248582  0.60148498
   0.16465946  0.16836341  0.49963174
   0.00286511 -0.00181263  0.60208076
   0.33103439  0.08276081  0.39503759
   0.91691015  0.91678408  0.49963361
   0.91815719  0.16676125  0.49990983
   0.08047274  0.33531892  0.40368971
   0.83515978  0.57972407  0.40288783
   0.91618979  0.41826619  0.50029722
   0.00021756  0.25085319  0.59673231
   0.83187848  0.33468156  0.40304622
   0.08292770  0.58232459  0.40342018
   0.91575763  0.66588673  0.49975540
   0.83349367  0.08417163  0.40227491
   0.49966750  0.74874125  0.59575261
   0.49970981  0.50213760  0.59693997
   0.00008059  0.50037015  0.59638986
   0.16437142  0.41765499  0.50093531
   0.41491817  0.66930559  0.49822338
   0.58418893  0.58196009  0.40194964
   0.08377885  0.83313491  0.40228004
   0.58474316  0.33338097  0.40138286
   0.50013443 -0.00108135  0.59636029
   0.00028559  0.74897606  0.59684468
   0.66615740  0.91611461  0.49892478
   0.16806213  0.91743727  0.50006512
   0.33320791  0.83257421  0.40269062
   0.41582354  0.91640367  0.49905333
   0.25243946  0.74800017  0.59586703
Direct configuration=    15
   0.08035315  0.08302735  0.39757590
   0.16683943  0.66651076  0.49936315
   0.24877464  0.50247390  0.60364837
   0.58491169  0.08343465  0.39402865
   0.41642486  0.16488899  0.50019009
   0.41594129  0.41805315  0.49960257
   0.50015571  0.25077028  0.60806072
   0.33380281  0.58565041  0.39434668
   0.58335852  0.83050292  0.39627265
   0.74979576 -0.00098369  0.60378240
   0.66815426  0.41735377  0.50014487
   0.75123716  0.25079469  0.60530568
   0.66568532  0.66880926  0.49934248
   0.75155758  0.49958726  0.60442775
   0.83619595  0.83008142  0.39759431
   0.66746797  0.16558480  0.49948435
   0.24833468  0.25111793  0.60520608
   0.75040865  0.74988530  0.60165309
   0.33060858  0.33546226  0.39656686
   0.25301943 -0.00247179  0.60145247
   0.16475131  0.16837604  0.49964171
   0.00287554 -0.00178806  0.60209307
   0.33100166  0.08274924  0.39497177
   0.91679376  0.91692228  0.49966603
   0.91808928  0.16675152  0.49996312
   0.08050236  0.33528142  0.40373205
   0.83514575  0.57968401  0.40290699
   0.91613546  0.41829232  0.50034843
   0.00016608  0.25090973  0.59672594
   0.83186650  0.33471909  0.40309793
   0.08295101  0.58232136  0.40343580
   0.91575015  0.66588274  0.49977460
   0.83349512  0.08415125  0.40231724
   0.49970018  0.74871143  0.59567438
   0.49970251  0.50217665  0.59691115
   0.00005038  0.50038331  0.59641326
   0.16438654  0.41766417  0.50098509
   0.41486734  0.66933172  0.49816839
   0.58415769  0.58195813  0.40195666
   0.08378959  0.83310459  0.40229357
   0.58470204  0.33336791  0.40143492
   0.50014254 -0.00109565  0.59629056
   0.00029184  0.74895675  0.59681178
   0.66609389  0.91623952  0.49885881
   0.16806635  0.91743134  0.50004632
   0.33316566  0.83261283  0.40263961
   0.41583595  0.91644240  0.49897985
   0.25249609  0.74792835  0.59581184
Direct configuration=    16
   0.08025525  0.08297906  0.39769440
   0.16653413  0.66674067  0.49932771
   0.24900511  0.50235750  0.60364260
   0.58491119  0.08355737  0.39393374
   0.41641926  0.16510489  0.50006399
   0.41591813  0.41778706  0.49963825
   0.50038266  0.25064593  0.60839005
   0.33371063  0.58565985  0.39414634
   0.58324445  0.83044190  0.39609588
   0.74973147 -0.00083142  0.60379085
   0.66845536  0.41702874  0.50028780
   0.75128282  0.25062873  0.60556265
   0.66577424  0.66875193  0.49918625
   0.75163308  0.49975132  0.60456259
   0.83621323  0.83000198  0.39760959
   0.66722778  0.16584460  0.49969741
   0.24852140  0.25105955  0.60524527
   0.75045610  0.74995201  0.60143540
   0.33055018  0.33537546  0.39661821
   0.25316600 -0.00253273  0.60122145
   0.16475808  0.16829565  0.49971443
   0.00307198 -0.00185849  0.60209975
   0.33092041  0.08280792  0.39475913
   0.91697528  0.91666162  0.49972953
   0.91785636  0.16698771  0.50017456
   0.08052022  0.33540414  0.40390570
   0.83521022  0.57958129  0.40300944
   0.91609885  0.41828353  0.50051838
   0.00033285  0.25094612  0.59677957
   0.83160206  0.33478857  0.40335872
   0.08285783  0.58218065  0.40350427
   0.91591387  0.66588446  0.49980681
   0.83331033  0.08425473  0.40248653
   0.49967532  0.74882377  0.59541819
   0.49965378  0.50213861  0.59693326
   0.00010864  0.50037880  0.59657615
   0.16439313  0.41769980  0.50112748
   0.41461394  0.66957401  0.49798582
   0.58403868  0.58196066  0.40194463
   0.08364392  0.83307899  0.40235611
   0.58468053  0.33315903  0.40169006
   0.50030491 -0.00107985  0.59601509
   0.00045961  0.74886583  0.59672672
   0.66611519  0.91635639  0.49859343
   0.16813623  0.91734050  0.49992006
   0.33308073  0.83263970  0.40242132
   0.41568756  0.91655282  0.49866832
   0.25258700  0.74798867  0.59562610
Direct configuration=    17
   0.08021653  0.08295996  0.39774126
   0.16641339  0.66683159  0.49931369
   0.24909626  0.50231147  0.60364032
   0.58491100  0.08360591  0.39389621