  56  56   0   0
  0.4903395E+02  0.1100258E-08  0.1100258E-08  0.2619179E-08  0.3500000E-15
  1.000000000000000E-004
  CAR 
 unknown system                          
      6.46295242    -21.62498817  301     -1.36005443      1.00000000
    -21.625  0.0000E+00  0.0000E+00
    -21.531  0.0000E+00  0.0000E+00
    -21.438  0.0000E+00  0.0000E+00
    -21.344  0.0000E+00  0.0000E+00
    -21.250  0.0000E+00  0.0000E+00
    -21.157  0.0000E+00  0.0000E+00
    -21.063  0.0000E+00  0.0000E+00
    -20.970  0.0000E+00  0.0000E+00
    -20.876  0.1412E-14  0.1322E-15
    -20.782  0.1464E-10  0.1371E-11
    -20.689  0.2778E-07  0.2603E-08
    -20.595  0.1000E-04  0.9390E-06
    -20.501  0.7266E-03  0.6897E-04
    -20.408  0.1175E-01  0.1169E-02
    -20.314  0.4753E-01  0.5620E-02
    -20.221  0.5188E-01  0.1048E-01
    -20.127  0.1519E-01  0.1190E-01
    -20.033  0.2544E-02  0.1214E-01
    -19.940  0.1188E-01  0.1325E-01
    -19.846  0.2185E-01  0.1530E-01
    -19.752  0.2058E-01  0.1722E-01
    -19.659  0.3709E-01  0.2070E-01
    -19.565  0.3256E-01  0.2374E-01
    -19.472  0.3092E-01  0.2664E-01
    -19.378  0.4014E-01  0.3040E-01
    -19.284  0.1565E-01  0.3186E-01
    -19.191  0.1441E-02  0.3200E-01
    -19.097  0.2878E-04  0.3200E-01
    -19.003  0.1155E-06  0.3200E-01
    -18.910  0.8806E-10  0.3200E-01
    -18.816  0.1232E-13  0.3200E-01
    -18.723  0.0000E+00  0.3200E-01
    -18.629  0.0000E+00  0.3200E-01
    -18.535  0.0000E+00  0.3200E-01
    -18.442  0.0000E+00  0.3200E-01
    -18.348  0.0000E+00  0.3200E-01
    -18.254  0.0000E+00  0.3200E-01
    -18.161  0.0000E+00  0.3200E-01
    -18.067  0.0000E+00  0.3200E-01
    -17.974  0.0000E+00  0.3200E-01
    -17.880  0.0000E+00  0.3200E-01
    -17.786  0.0000E+00  0.3200E-01
    -17.693  0.0000E+00  0.3200E-01
    -17.599  0.0000E+00  0.3200E-01
    -17.505  0.0000E+00  0.3200E-01
    -17.412  0.0000E+00  0.3200E-01
    -17.318  0.0000E+00  0.3200E-01
    -17.225  0.0000E+00  0.3200E-01
    -17.131  0.0000E+00  0.3200E-01
    -17.037  0.0000E+00  0.3200E-01
    -16.944  0.0000E+00  0.3200E-01
    -16.850  0.0000E+00  0.3200E-01
    -16.756  0.0000E+00  0.3200E-01
    -16.663  0.0000E+00  0.3200E-01
    -16.569  0.0000E+00  0.3200E-01
    -16.476  0.0000E+00  0.3200E-01
    -16.382  0.0000E+00  0.3200E-01
    -16.288  0.0000E+00  0.3200E-01
    -16.195  0.0000E+00  0.3200E-01
    -16.101  0.0000E+00  0.3200E-01
    -16.007  0.0000E+00  0.3200E-01
    -15.914  0.0000E+00  0.3200E-01
    -15.820  0.0000E+00  0.3200E-01
    -15.727  0.0000E+00  0.3200E-01
    -15.633  0.0000E+00  0.3200E-01
    -15.539  0.0000E+00  0.3200E-01
    -15.446  0.0000E+00  0.3200E-01
    -15.352  0.0000E+00  0.3200E-01
    -15.258  0.0000E+00  0.3200E-01
    -15.165  0.0000E+00  0.3200E-01
    -15.071  0.0000E+00  0.3200E-01
    -14.978  0.0000E+00  0.3200E-01
    -14.884  0.0000E+00  0.3200E-01
    -14.790  0.0000E+00  0.3200E-01
    -14.697  0.0000E+00  0.3200E-01
    -14.603  0.0000E+00  0.3200E-01
    -14.509  0.0000E+00  0.3200E-01
    -14.416  0.0000E+00  0.3200E-01
    -14.322  0.0000E+00  0.3200E-01
    -14.228  0.0000E+00  0.3200E-01
    -14.135  0.0000E+00  0.3200E-01
    -14.041  0.0000E+00  0.3200E-01
    -13.948  0.0000E+00  0.3200E-01
    -13.854  0.0000E+00  0.3200E-01
    -13.760  0.0000E+00  0.3200E-01
    -13.667  0.0000E+00  0.3200E-01
    -13.573  0.0000E+00  0.3200E-01
    -13.479  0.0000E+00  0.3200E-01
    -13.386  0.0000E+00  0.3200E-01
    -13.292  0.0000E+00  0.3200E-01
    -13.199  0.0000E+00  0.3200E-01
    -13.105  0.0000E+00  0.3200E-01
    -13.011  0.0000E+00  0.3200E-01
    -12.918  0.0000E+00  0.3200E-01
    -12.824  0.0000E+00  0.3200E-01
    -12.730  0.0000E+00  0.3200E-01
    -12.637  0.0000E+00  0.3200E-01
    -12.543  0.0000E+00  0.3200E-01
    -12.450  0.0000E+00  0.3200E-01
    -12.356  0.0000E+00  0.3200E-01
    -12.262  0.0000E+00  0.3200E-01
    -12.169  0.0000E+00  0.3200E-01
    -12.075  0.0000E+00  0.3200E-01
    -11.981  0.0000E+00  0.3200E-01
    -11.888  0.0000E+00  0.3200E-01
    -11.794  0.0000E+00  0.3200E-01
    -11.701  0.0000E+00  0.3200E-01
    -11.607  0.0000E+00  0.3200E-01
    -11.513  0.0000E+00  0.3200E-01
    -11.420  0.0000E+00  0.3200E-01
    -11.326  0.0000E+00  0.3200E-01
    -11.232  0.0000E+00  0.3200E-01
    -11.139  0.0000E+00  0.3200E-01
    -11.045  0.0000E+00  0.3200E-01
    -10.952  0.0000E+00  0.3200E-01
    -10.858  0.0000E+00  0.3200E-01
    -10.764  0.0000E+00  0.3200E-01
    -10.671  0.0000E+00  0.3200E-01
    -10.577  0.0000E+00  0.3200E-01
    -10.483  0.0000E+00  0.3200E-01
    -10.390  0.0000E+00  0.3200E-01
    -10.296  0.0000E+00  0.3200E-01
    -10.203  0.0000E+00  0.3200E-01
    -10.109  0.0000E+00  0.3200E-01
    -10.015  0.0000E+00  0.3200E-01
     -9.922  0.0000E+00  0.3200E-01
     -9.828  0.0000E+00  0.3200E-01
     -9.734  0.0000E+00  0.3200E-01
     -9.641  0.8786E-14  0.3200E-01
     -9.547  0.5719E-10  0.3200E-01
     -9.454  0.6780E-07  0.3200E-01
     -9.360  0.1497E-04  0.3200E-01
     -9.266  0.6396E-03  0.3206E-01
     -9.173  0.5639E-02  0.3259E-01
     -9.079  0.1220E-01  0.3373E-01
     -8.985  0.1268E-01  0.3492E-01
     -8.892  0.9297E-02  0.3579E-01
     -8.798  0.2143E-02  0.3599E-01
     -8.705  0.1741E-03  0.3601E-01
     -8.611  0.1264E-02  0.3612E-01
     -8.517  0.6386E-02  0.3672E-01
     -8.424  0.1241E-01  0.3788E-01
     -8.330  0.2031E-01  0.3979E-01
     -8.236  0.3754E-01  0.4330E-01
     -8.143  0.4924E-01  0.4791E-01
     -8.049  0.4065E-01  0.5172E-01
     -7.956  0.3582E-01  0.5507E-01
     -7.862  0.4204E-01  0.5901E-01
     -7.768  0.4857E-01  0.6355E-01
     -7.675  0.5112E-01  0.6834E-01
     -7.581  0.5872E-01  0.7384E-01
     -7.487  0.6701E-01  0.8011E-01
     -7.394  0.7849E-01  0.8746E-01
     -7.300  0.8979E-01  0.9587E-01
     -7.207  0.1060E+00  0.1058E+00
     -7.113  0.1234E+00  0.1173E+00
     -7.019  0.1222E+00  0.1288E+00
     -6.926  0.1178E+00  0.1398E+00
     -6.832  0.1304E+00  0.1520E+00
     -6.738  0.1492E+00  0.1660E+00
     -6.645  0.1591E+00  0.1809E+00
     -6.551  0.1612E+00  0.1960E+00
     -6.458  0.1587E+00  0.2108E+00
     -6.364  0.1676E+00  0.2265E+00
     -6.270  0.1704E+00  0.2425E+00
     -6.177  0.1664E+00  0.2580E+00
     -6.083  0.1663E+00  0.2736E+00
     -5.989  0.1644E+00  0.2890E+00
     -5.896  0.1626E+00  0.3042E+00
     -5.802  0.1569E+00  0.3189E+00
     -5.708  0.1523E+00  0.3332E+00
     -5.615  0.1621E+00  0.3484E+00
     -5.521  0.1695E+00  0.3642E+00
     -5.428  0.1735E+00  0.3805E+00
     -5.334  0.1730E+00  0.3967E+00
     -5.240  0.1769E+00  0.4132E+00
     -5.147  0.1814E+00  0.4302E+00
     -5.053  0.1830E+00  0.4474E+00
     -4.959  0.1730E+00  0.4636E+00
     -4.866  0.1729E+00  0.4797E+00
     -4.772  0.1821E+00  0.4968E+00
     -4.679  0.1802E+00  0.5137E+00
     -4.585  0.1685E+00  0.5294E+00
     -4.491  0.1664E+00  0.5450E+00
     -4.398  0.1764E+00  0.5615E+00
     -4.304  0.1769E+00  0.5781E+00
     -4.210  0.1700E+00  0.5940E+00
     -4.117  0.1763E+00  0.6105E+00
     -4.023  0.1862E+00  0.6280E+00
     -3.930  0.1895E+00  0.6457E+00
     -3.836  0.1916E+00  0.6636E+00
     -3.742  0.1934E+00  0.6817E+00
     -3.649  0.1901E+00  0.6995E+00
     -3.555  0.1904E+00  0.7174E+00
     -3.461  0.1913E+00  0.7353E+00
     -3.368  0.1928E+00  0.7533E+00
     -3.274  0.1937E+00  0.7715E+00
     -3.181  0.1930E+00  0.7895E+00
     -3.087  0.1826E+00  0.8066E+00
     -2.993  0.1807E+00  0.8235E+00
     -2.900  0.1900E+00  0.8413E+00
     -2.806  0.1901E+00  0.8591E+00
     -2.712  0.1889E+00  0.8768E+00
     -2.619  0.1898E+00  0.8946E+00
     -2.525  0.1975E+00  0.9131E+00
     -2.432  0.2058E+00  0.9324E+00
     -2.338  0.2052E+00  0.9516E+00
     -2.244  0.1995E+00  0.9703E+00
     -2.151  0.1965E+00  0.9887E+00
     -2.057  0.1924E+00  0.1007E+01
     -1.963  0.1843E+00  0.1024E+01
     -1.870  0.1735E+00  0.1040E+01
     -1.776  0.1672E+00  0.1056E+01
     -1.683  0.1541E+00  0.1070E+01
     -1.589  0.1283E+00  0.1082E+01
     -1.495  0.1083E+00  0.1092E+01
     -1.402  0.9093E-01  0.1101E+01
     -1.308  0.6930E-01  0.1107E+01
     -1.214  0.6533E-01  0.1114E+01
     -1.121  0.5917E-01  0.1119E+01
     -1.027  0.5043E-01  0.1124E+01
     -0.934  0.4694E-01  0.1128E+01
     -0.840  0.4886E-01  0.1133E+01
     -0.746  0.5641E-01  0.1138E+01
     -0.653  0.6054E-01  0.1144E+01
     -0.559  0.5933E-01  0.1149E+01
     -0.465  0.5515E-01  0.1154E+01
     -0.372  0.4349E-01  0.1158E+01
     -0.278  0.3073E-01  0.1161E+01
     -0.185  0.2422E-01  0.1164E+01
     -0.091  0.1970E-01  0.1165E+01
      0.003  0.2193E-01  0.1168E+01
      0.096  0.1874E-01  0.1169E+01
      0.190  0.1267E-01  0.1170E+01
      0.284  0.1891E-01  0.1172E+01
      0.377  0.3096E-01  0.1175E+01
      0.471  0.4475E-01  0.1179E+01
      0.564  0.4772E-01  0.1184E+01
      0.658  0.4200E-01  0.1188E+01
      0.752  0.3789E-01  0.1191E+01
      0.845  0.3857E-01  0.1195E+01
      0.939  0.3350E-01  0.1198E+01
      1.033  0.2344E-01  0.1200E+01
      1.126  0.1851E-01  0.1202E+01
      1.220  0.1672E-01  0.1204E+01
      1.313  0.1447E-01  0.1205E+01
      1.407  0.1838E-01  0.1207E+01
      1.501  0.2669E-01  0.1209E+01
      1.594  0.3185E-01  0.1212E+01
      1.688  0.3282E-01  0.1215E+01
      1.782  0.3368E-01  0.1218E+01
      1.875  0.3471E-01  0.1222E+01
      1.969  0.3942E-01  0.1225E+01
      2.063  0.3749E-01  0.1229E+01
      2.156  0.3242E-01  0.1232E+01
      2.250  0.3170E-01  0.1235E+01
      2.343  0.3242E-01  0.1238E+01
      2.437  0.2852E-01  0.1240E+01
      2.531  0.2424E-01  0.1243E+01
      2.624  0.2280E-01  0.1245E+01
      2.718  0.1499E-01  0.1246E+01
      2.812  0.1477E-01  0.1248E+01
      2.905  0.1996E-01  0.1250E+01
      2.999  0.2832E-01  0.1252E+01
      3.092  0.3608E-01  0.1256E+01
      3.186  0.3496E-01  0.1259E+01
      3.280  0.3132E-01  0.1262E+01
      3.373  0.2991E-01  0.1265E+01
      3.467  0.3556E-01  0.1268E+01
      3.561  0.3524E-01  0.1271E+01
      3.654  0.3819E-01  0.1275E+01
      3.748  0.4139E-01  0.1279E+01
      3.841  0.3949E-01  0.1282E+01
      3.935  0.3213E-01  0.1285E+01
      4.029  0.3501E-01  0.1289E+01
      4.122  0.4007E-01  0.1292E+01
      4.216  0.4119E-01  0.1296E+01
      4.310  0.4179E-01  0.1300E+01
      4.403  0.4032E-01  0.1304E+01
      4.497  0.4139E-01  0.1308E+01
      4.590  0.4908E-01  0.1312E+01
      4.684  0.5687E-01  0.1318E+01
      4.778  0.5820E-01  0.1323E+01
      4.871  0.5785E-01  0.1329E+01
      4.965  0.5235E-01  0.1333E+01
      5.059  0.4763E-01  0.1338E+01
      5.152  0.4011E-01  0.1342E+01
      5.246  0.2040E-01  0.1344E+01
      5.339  0.3987E-02  0.1344E+01
      5.433  0.2140E-03  0.1344E+01
      5.527  0.2665E-05  0.1344E+01
      5.620  0.6958E-08  0.1344E+01
      5.714  0.3556E-11  0.1344E+01
      5.808  0.3399E-15  0.1344E+01
      5.901  0.0000E+00  0.1344E+01
      5.995  0.0000E+00  0.1344E+01
      6.088  0.0000E+00  0.1344E+01
      6.182  0.0000E+00  0.1344E+01
      6.276  0.0000E+00  0.1344E+01
      6.369  0.0000E+00  0.1344E+01
      6.463  0.0000E+00  0.1344E+01
