  48  48   0   0
  0.5349325E+02  0.1100258E-08  0.1100258E-08  0.2449179E-08  0.3500000E-15
  1.000000000000000E-004
  CAR 
 unknown system                          
      6.41593388     -9.75995997  301     -1.07543870      1.00000000
     -9.760  0.0000E+00  0.0000E+00
     -9.706  0.0000E+00  0.0000E+00
     -9.652  0.0000E+00  0.0000E+00
     -9.598  0.0000E+00  0.0000E+00
     -9.544  0.0000E+00  0.0000E+00
     -9.490  0.0000E+00  0.0000E+00
     -9.436  0.0000E+00  0.0000E+00
     -9.383  0.0000E+00  0.0000E+00
     -9.329  0.6177E-17  0.3331E-18
     -9.275  0.2402E-14  0.1298E-15
     -9.221  0.5332E-12  0.2888E-13
     -9.167  0.6747E-10  0.3667E-11
     -9.113  0.4882E-08  0.2669E-09
     -9.059  0.2026E-06  0.1119E-07
     -9.005  0.4841E-05  0.2722E-06
     -8.951  0.6680E-04  0.3874E-05
     -8.897  0.5341E-03  0.3267E-04
     -8.843  0.2482E-02  0.1665E-03
     -8.789  0.6730E-02  0.5294E-03
     -8.735  0.1081E-01  0.1112E-02
     -8.682  0.1105E-01  0.1708E-02
     -8.628  0.9542E-02  0.2222E-02
     -8.574  0.1002E-01  0.2762E-02
     -8.520  0.1029E-01  0.3317E-02
     -8.466  0.7586E-02  0.3726E-02
     -8.412  0.3695E-02  0.3925E-02
     -8.358  0.1245E-02  0.3992E-02
     -8.304  0.7973E-03  0.4035E-02
     -8.250  0.2056E-02  0.4146E-02
     -8.196  0.4595E-02  0.4394E-02
     -8.142  0.7444E-02  0.4795E-02
     -8.088  0.9831E-02  0.5325E-02
     -8.035  0.1170E-01  0.5957E-02
     -7.981  0.1354E-01  0.6687E-02
     -7.927  0.1540E-01  0.7517E-02
     -7.873  0.1632E-01  0.8397E-02
     -7.819  0.1607E-01  0.9264E-02
     -7.765  0.1511E-01  0.1008E-01
     -7.711  0.1266E-01  0.1076E-01
     -7.657  0.9223E-02  0.1126E-01
     -7.603  0.8618E-02  0.1172E-01
     -7.549  0.1341E-01  0.1245E-01
     -7.495  0.2135E-01  0.1360E-01
     -7.441  0.2690E-01  0.1505E-01
     -7.387  0.2684E-01  0.1650E-01
     -7.334  0.2379E-01  0.1778E-01
     -7.280  0.2187E-01  0.1896E-01
     -7.226  0.2225E-01  0.2016E-01
     -7.172  0.2563E-01  0.2154E-01
     -7.118  0.3242E-01  0.2329E-01
     -7.064  0.3936E-01  0.2541E-01
     -7.010  0.4393E-01  0.2778E-01
     -6.956  0.4668E-01  0.3029E-01
     -6.902  0.5105E-01  0.3305E-01
     -6.848  0.6132E-01  0.3635E-01
     -6.794  0.7369E-01  0.4033E-01
     -6.740  0.8099E-01  0.4469E-01
     -6.687  0.8468E-01  0.4926E-01
     -6.633  0.8994E-01  0.5411E-01
     -6.579  0.9700E-01  0.5934E-01
     -6.525  0.1025E+00  0.6486E-01
     -6.471  0.1041E+00  0.7048E-01
     -6.417  0.1037E+00  0.7607E-01
     -6.363  0.1070E+00  0.8184E-01
     -6.309  0.1172E+00  0.8816E-01
     -6.255  0.1303E+00  0.9519E-01
     -6.201  0.1387E+00  0.1027E+00
     -6.147  0.1418E+00  0.1103E+00
     -6.093  0.1458E+00  0.1182E+00
     -6.040  0.1523E+00  0.1264E+00
     -5.986  0.1577E+00  0.1349E+00
     -5.932  0.1618E+00  0.1436E+00
     -5.878  0.1641E+00  0.1525E+00
     -5.824  0.1607E+00  0.1611E+00
     -5.770  0.1523E+00  0.1693E+00
     -5.716  0.1444E+00  0.1771E+00
     -5.662  0.1390E+00  0.1846E+00
     -5.608  0.1359E+00  0.1919E+00
     -5.554  0.1367E+00  0.1993E+00
     -5.500  0.1410E+00  0.2069E+00
     -5.446  0.1461E+00  0.2148E+00
     -5.392  0.1493E+00  0.2228E+00
     -5.339  0.1492E+00  0.2309E+00
     -5.285  0.1466E+00  0.2388E+00
     -5.231  0.1454E+00  0.2466E+00
     -5.177  0.1491E+00  0.2547E+00
     -5.123  0.1574E+00  0.2632E+00
     -5.069  0.1678E+00  0.2722E+00
     -5.015  0.1771E+00  0.2818E+00
     -4.961  0.1824E+00  0.2916E+00
     -4.907  0.1829E+00  0.3015E+00
     -4.853  0.1797E+00  0.3111E+00
     -4.799  0.1738E+00  0.3205E+00
     -4.745  0.1652E+00  0.3294E+00
     -4.692  0.1586E+00  0.3380E+00
     -4.638  0.1591E+00  0.3465E+00
     -4.584  0.1634E+00  0.3554E+00
     -4.530  0.1680E+00  0.3644E+00
     -4.476  0.1742E+00  0.3738E+00
     -4.422  0.1821E+00  0.3836E+00
     -4.368  0.1880E+00  0.3938E+00
     -4.314  0.1880E+00  0.4039E+00
     -4.260  0.1824E+00  0.4137E+00
     -4.206  0.1760E+00  0.4232E+00
     -4.152  0.1733E+00  0.4326E+00
     -4.098  0.1754E+00  0.4420E+00
     -4.044  0.1826E+00  0.4519E+00
     -3.991  0.1916E+00  0.4622E+00
     -3.937  0.1978E+00  0.4729E+00
     -3.883  0.2006E+00  0.4837E+00
     -3.829  0.2003E+00  0.4945E+00
     -3.775  0.1973E+00  0.5051E+00
     -3.721  0.1935E+00  0.5156E+00
     -3.667  0.1935E+00  0.5260E+00
     -3.613  0.1996E+00  0.5368E+00
     -3.559  0.2058E+00  0.5479E+00
     -3.505  0.2084E+00  0.5591E+00
     -3.451  0.2112E+00  0.5705E+00
     -3.397  0.2146E+00  0.5820E+00
     -3.344  0.2136E+00  0.5936E+00
     -3.290  0.2096E+00  0.6049E+00
     -3.236  0.2058E+00  0.6160E+00
     -3.182  0.2006E+00  0.6268E+00
     -3.128  0.1914E+00  0.6371E+00
     -3.074  0.1799E+00  0.6468E+00
     -3.020  0.1720E+00  0.6561E+00
     -2.966  0.1716E+00  0.6653E+00
     -2.912  0.1770E+00  0.6749E+00
     -2.858  0.1833E+00  0.6847E+00
     -2.804  0.1871E+00  0.6948E+00
     -2.750  0.1901E+00  0.7051E+00
     -2.696  0.1923E+00  0.7155E+00
     -2.643  0.1885E+00  0.7256E+00
     -2.589  0.1792E+00  0.7353E+00
     -2.535  0.1731E+00  0.7446E+00
     -2.481  0.1731E+00  0.7540E+00
     -2.427  0.1741E+00  0.7633E+00
     -2.373  0.1746E+00  0.7728E+00
     -2.319  0.1755E+00  0.7822E+00
     -2.265  0.1746E+00  0.7916E+00
     -2.211  0.1722E+00  0.8009E+00
     -2.157  0.1736E+00  0.8103E+00
     -2.103  0.1795E+00  0.8200E+00
     -2.049  0.1825E+00  0.8298E+00
     -1.996  0.1826E+00  0.8396E+00
     -1.942  0.1874E+00  0.8497E+00
     -1.888  0.1984E+00  0.8604E+00
     -1.834  0.2084E+00  0.8717E+00
     -1.780  0.2122E+00  0.8831E+00
     -1.726  0.2120E+00  0.8946E+00
     -1.672  0.2103E+00  0.9059E+00
     -1.618  0.2069E+00  0.9170E+00
     -1.564  0.2014E+00  0.9279E+00
     -1.510  0.1928E+00  0.9383E+00
     -1.456  0.1819E+00  0.9481E+00
     -1.402  0.1725E+00  0.9574E+00
     -1.348  0.1686E+00  0.9665E+00
     -1.295  0.1696E+00  0.9756E+00
     -1.241  0.1697E+00  0.9848E+00
     -1.187  0.1614E+00  0.9935E+00
     -1.133  0.1430E+00  0.1001E+01
     -1.079  0.1192E+00  0.1008E+01
     -1.025  0.9107E-01  0.1013E+01
     -0.971  0.6034E-01  0.1016E+01
     -0.917  0.3668E-01  0.1018E+01
     -0.863  0.2546E-01  0.1019E+01
     -0.809  0.2091E-01  0.1020E+01
     -0.755  0.1775E-01  0.1021E+01
     -0.701  0.1665E-01  0.1022E+01
     -0.648  0.1934E-01  0.1023E+01
     -0.594  0.2566E-01  0.1025E+01
     -0.540  0.3400E-01  0.1026E+01
     -0.486  0.4074E-01  0.1029E+01
     -0.432  0.4284E-01  0.1031E+01
     -0.378  0.4203E-01  0.1033E+01
     -0.324  0.4097E-01  0.1035E+01
     -0.270  0.4130E-01  0.1038E+01
     -0.216  0.4318E-01  0.1040E+01
     -0.162  0.4226E-01  0.1042E+01
     -0.108  0.3593E-01  0.1044E+01
     -0.054  0.2869E-01  0.1046E+01
     -0.001  0.2424E-01  0.1047E+01
      0.053  0.2276E-01  0.1048E+01
      0.107  0.2389E-01  0.1050E+01
      0.161  0.2418E-01  0.1051E+01
      0.215  0.2245E-01  0.1052E+01
      0.269  0.2369E-01  0.1053E+01
      0.323  0.3030E-01  0.1055E+01
      0.377  0.3943E-01  0.1057E+01
      0.431  0.4581E-01  0.1060E+01
      0.485  0.4518E-01  0.1062E+01
      0.539  0.4100E-01  0.1064E+01
      0.593  0.4101E-01  0.1066E+01
      0.647  0.4557E-01  0.1069E+01
      0.700  0.4704E-01  0.1071E+01
      0.754  0.4300E-01  0.1074E+01
      0.808  0.3763E-01  0.1076E+01
      0.862  0.3278E-01  0.1078E+01
      0.916  0.2864E-01  0.1079E+01
      0.970  0.2595E-01  0.1080E+01
      1.024  0.2458E-01  0.1082E+01
      1.078  0.2299E-01  0.1083E+01
      1.132  0.1993E-01  0.1084E+01
      1.186  0.1624E-01  0.1085E+01
      1.240  0.1342E-01  0.1086E+01
      1.294  0.1206E-01  0.1086E+01
      1.347  0.1224E-01  0.1087E+01
      1.401  0.1395E-01  0.1088E+01
      1.455  0.1821E-01  0.1089E+01
      1.509  0.2595E-01  0.1090E+01
      1.563  0.3378E-01  0.1092E+01
      1.617  0.3634E-01  0.1094E+01
      1.671  0.3313E-01  0.1096E+01
      1.725  0.3049E-01  0.1097E+01
      1.779  0.3392E-01  0.1099E+01
      1.833  0.3910E-01  0.1101E+01
      1.887  0.3746E-01  0.1103E+01
      1.941  0.2779E-01  0.1105E+01
      1.995  0.1614E-01  0.1106E+01
      2.048  0.9807E-02  0.1106E+01
      2.102  0.1210E-01  0.1107E+01
      2.156  0.2063E-01  0.1108E+01
      2.210  0.3091E-01  0.1110E+01
      2.264  0.3935E-01  0.1112E+01
      2.318  0.4554E-01  0.1114E+01
      2.372  0.5188E-01  0.1117E+01
      2.426  0.5616E-01  0.1120E+01
      2.480  0.5344E-01  0.1123E+01
      2.534  0.4752E-01  0.1125E+01
      2.588  0.4436E-01  0.1128E+01
      2.642  0.4269E-01  0.1130E+01
      2.695  0.3965E-01  0.1132E+01
      2.749  0.3411E-01  0.1134E+01
      2.803  0.2777E-01  0.1136E+01
      2.857  0.2184E-01  0.1137E+01
      2.911  0.1588E-01  0.1138E+01
      2.965  0.1218E-01  0.1138E+01
      3.019  0.1211E-01  0.1139E+01
      3.073  0.1268E-01  0.1140E+01
      3.127  0.1369E-01  0.1140E+01
      3.181  0.1823E-01  0.1141E+01
      3.235  0.2448E-01  0.1143E+01
      3.289  0.2649E-01  0.1144E+01
      3.343  0.2332E-01  0.1145E+01
      3.396  0.2160E-01  0.1147E+01
      3.450  0.2561E-01  0.1148E+01
      3.504  0.3192E-01  0.1150E+01
      3.558  0.3595E-01  0.1152E+01
      3.612  0.3580E-01  0.1154E+01
      3.666  0.3137E-01  0.1155E+01
      3.720  0.2677E-01  0.1157E+01
      3.774  0.2635E-01  0.1158E+01
      3.828  0.2691E-01  0.1160E+01
      3.882  0.2411E-01  0.1161E+01
      3.936  0.2117E-01  0.1162E+01
      3.990  0.2311E-01  0.1163E+01
      4.043  0.2833E-01  0.1165E+01
      4.097  0.3156E-01  0.1166E+01
      4.151  0.3179E-01  0.1168E+01
      4.205  0.3004E-01  0.1170E+01
      4.259  0.2406E-01  0.1171E+01
      4.313  0.1630E-01  0.1172E+01
      4.367  0.1565E-01  0.1173E+01
      4.421  0.2204E-01  0.1174E+01
      4.475  0.2639E-01  0.1175E+01
      4.529  0.2902E-01  0.1177E+01
      4.583  0.3880E-01  0.1179E+01
      4.637  0.5482E-01  0.1182E+01
      4.691  0.6495E-01  0.1186E+01
      4.744  0.6203E-01  0.1189E+01
      4.798  0.5353E-01  0.1192E+01
      4.852  0.4931E-01  0.1194E+01
      4.906  0.5091E-01  0.1197E+01
      4.960  0.5767E-01  0.1200E+01
      5.014  0.6762E-01  0.1204E+01
      5.068  0.7483E-01  0.1208E+01
      5.122  0.7248E-01  0.1212E+01
      5.176  0.6143E-01  0.1215E+01
      5.230  0.5013E-01  0.1218E+01
      5.284  0.4106E-01  0.1220E+01
      5.338  0.3103E-01  0.1222E+01
      5.391  0.2087E-01  0.1223E+01
      5.445  0.1238E-01  0.1224E+01
      5.499  0.5809E-02  0.1224E+01
      5.553  0.1879E-02  0.1224E+01
      5.607  0.3855E-03  0.1224E+01
      5.661  0.4807E-04  0.1224E+01
      5.715  0.3559E-05  0.1224E+01
      5.769  0.1540E-06  0.1224E+01
      5.823  0.3854E-08  0.1224E+01
      5.877  0.5530E-10  0.1224E+01
      5.931  0.4523E-12  0.1224E+01
      5.985  0.2100E-14  0.1224E+01
      6.038  0.5491E-17  0.1224E+01
      6.092  0.0000E+00  0.1224E+01
      6.146  0.0000E+00  0.1224E+01
      6.200  0.0000E+00  0.1224E+01
      6.254  0.0000E+00  0.1224E+01
      6.308  0.0000E+00  0.1224E+01
      6.362  0.0000E+00  0.1224E+01
      6.416  0.0000E+00  0.1224E+01
