unknown system                          
           1
    11.002582    0.000000    0.000000
     5.501291    9.528515    0.000000
     0.000000    0.000000   24.491785
   Au   Pd
  24  24
Direct configuration=     1
   0.08333333  0.08333333  0.40830017
   0.33333333  0.83333333  0.40830017
   0.16666667  0.91666667  0.50000000
   0.41666667  0.16666667  0.50000000
   0.50000000  0.00000000  0.59169983
   0.41666667  0.41666667  0.50000000
   0.50000000  0.25000000  0.59169983
   0.25000000  0.50000000  0.59169983
   0.41666667  0.66666667  0.50000000
   0.41666667  0.91666667  0.50000000
   0.50000000  0.75000000  0.59169983
   0.83333333  0.08333333  0.40830017
   0.66666667  0.16666667  0.50000000
   0.83333333  0.33333333  0.40830017
   0.83333333  0.83333333  0.40830017
   0.50000000  0.50000000  0.59169983
   0.25000000  0.25000000  0.59169983
   0.75000000  0.75000000  0.59169983
   0.16666667  0.16666667  0.50000000
   0.00000000  0.75000000  0.59169983
   0.08333333  0.83333333  0.40830017
   0.08333333  0.33333333  0.40830017
   0.91666667  0.41666667  0.50000000
   0.08333333  0.58333333  0.40830017
   0.33333333  0.58333333  0.40830017
   0.91666667  0.16666667  0.50000000
   0.75000000  0.50000000  0.59169983
   0.66666667  0.66666667  0.50000000
   0.83333333  0.58333333  0.40830017
   0.75000000  0.25000000  0.59169983
   0.66666667  0.41666667  0.50000000
   0.00000000  0.00000000  0.59169983
   0.75000000  0.00000000  0.59169983
   0.00000000  0.25000000  0.59169983
   0.91666667  0.66666667  0.50000000
   0.16666667  0.41666667  0.50000000
   0.00000000  0.50000000  0.59169983
   0.58333333  0.58333333  0.40830017
   0.91666667  0.91666667  0.50000000
   0.58333333  0.33333333  0.40830017
   0.33333333  0.08333333  0.40830017
   0.58333333  0.08333333  0.40830017
   0.66666667  0.91666667  0.50000000
   0.25000000  0.00000000  0.59169983
   0.33333333  0.33333333  0.40830017
   0.16666667  0.66666667  0.50000000
   0.58333333  0.83333333  0.40830017
   0.25000000  0.75000000  0.59169983
Direct configuration=     2
   0.08353135  0.08361734  0.40596509
   0.33497382  0.83244634  0.40580678
   0.16478581  0.91672608  0.50119846
   0.41683962  0.16654980  0.49879267
   0.50055180 -0.00034610  0.59399347
   0.41585543  0.41763886  0.49879126
   0.50161879  0.24920835  0.59427552
   0.24852763  0.50111702  0.59365038
   0.41731426  0.66532784  0.49960013
   0.41815352  0.91641056  0.49957854
   0.49990120  0.74967592  0.59391492
   0.83214186  0.08397522  0.40642208
   0.66852723  0.16570897  0.49997586
   0.83148398  0.33461813  0.40640621
   0.83185344  0.83324174  0.40681424
   0.50139985  0.49975561  0.59393688
   0.24822949  0.25050629  0.59398322
   0.75071886  0.74944960  0.59322638
   0.16600262  0.16697120  0.50045674
  -0.00007551  0.75070035  0.59314548
   0.08379380  0.83218696  0.40634729
   0.08433228  0.33372715  0.40607581
   0.91521976  0.41832494  0.50077378
   0.08409986  0.58265628  0.40672563
   0.33401314  0.58245746  0.40716602
   0.91589254  0.16666851  0.50084439
   0.75070848  0.49898355  0.59253258
   0.66768668  0.66611993  0.49950760
   0.83203773  0.58429151  0.40741534
   0.75096373  0.24968398  0.59259938
   0.66746270  0.41672992  0.49996783
  -0.00011430  0.00053111  0.59260300
   0.75066686  0.00016043  0.59266558
  -0.00060434  0.25002179  0.59275628
   0.91644210  0.66668027  0.50003331
   0.16595325  0.41789536  0.49992317
  -0.00023634  0.49955383  0.59261225
   0.58368515  0.58302804  0.40737598
   0.91640707  0.91667257  0.50057929
   0.58261061  0.33401538  0.40718164
   0.33427054  0.08339671  0.40690975
   0.58262998  0.08350526  0.40717979
   0.66770126  0.91574869  0.49966630
   0.24889189  0.00008921  0.59312839
   0.33378248  0.33315835  0.40715789
   0.16611698  0.66660895  0.50001937
   0.58395712  0.83297346  0.40741924
   0.24929393  0.75083128  0.59289879
Direct configuration=     3
   0.08412541  0.08446937  0.39895985
   0.33989529  0.82978536  0.39832661
   0.15914322  0.91690433  0.50479385
   0.41735846  0.16619921  0.49517068
   0.50220719 -0.00138442  0.60087440
   0.41342173  0.42055544  0.49516505
   0.50647518  0.24683340  0.60200259
   0.24411052  0.50446809  0.59950204
   0.41925706  0.66131137  0.49840052
   0.42261409  0.91564224  0.49831414
   0.49960481  0.74870367  0.60056020
   0.82856745  0.08590090  0.40078780
   0.67410892  0.16283587  0.49990346
   0.82593592  0.33847253  0.40072433
   0.82741376  0.83296697  0.40235644
   0.50559940  0.49902246  0.60064802
   0.24291795  0.25202514  0.60083340
   0.75287545  0.74779839  0.59780601
   0.16401047  0.16788479  0.50182695
  -0.00030205  0.75280140  0.59748243
   0.08517518  0.82874783  0.40048865
   0.08732913  0.33490859  0.39940272
   0.91087905  0.42329976  0.50309513
   0.08639943  0.58062514  0.40200200
   0.33605258  0.57982982  0.40376358
   0.91357016  0.16667406  0.50337756
   0.75283394  0.49593422  0.59503084
   0.67074672  0.66447971  0.49803039
   0.82815092  0.58716604  0.40476084
   0.75385492  0.24873593  0.59529804
   0.66985080  0.41691966  0.49987132
  -0.00045721  0.00212444  0.59531251
   0.75266745  0.00064173  0.59556283
  -0.00241737  0.25008717  0.59592563
   0.91576839  0.66672108  0.50013323
   0.16381298  0.42158144  0.49969270
  -0.00094536  0.49821531  0.59534952
   0.58474060  0.58211216  0.40460340
   0.91562828  0.91669027  0.50231717
   0.58044242  0.33606150  0.40382606
   0.33708217  0.08358684  0.40273849
   0.58051994  0.08402103  0.40381867
   0.67080503  0.91299476  0.49866520
   0.24556755  0.00035683  0.59741407
   0.33512993  0.33263340  0.40373107
   0.16446792  0.66643580  0.50007750
   0.58582848  0.83189384  0.40477646
   0.24717573  0.75332513  0.59649566
Direct configuration=     4
   0.08415918  0.08422220  0.39764147
   0.33883038  0.83050037  0.39654039
   0.16206993  0.91608564  0.50337788
   0.41749080  0.16752074  0.49662659
   0.50098424 -0.00035055  0.60233137
   0.41499986  0.41754808  0.49676280
   0.50459676  0.24819103  0.60346540
   0.24679783  0.50264834  0.60089322
   0.41842864  0.66457263  0.49893600
   0.42092479  0.91432069  0.49889583
   0.49945431  0.74929250  0.60189976
   0.82961726  0.08505036  0.39919119
   0.67049488  0.16471640  0.49989778
   0.82836640  0.33749061  0.39934931
   0.82922866  0.83320226  0.40091164
   0.50427387  0.49841000  0.60222537
   0.24531740  0.25112669  0.60248891
   0.75241248  0.74766457  0.59907428
   0.16366409  0.16825675  0.50132080
  -0.00083389  0.75310878  0.59900447
   0.08493115  0.83014152  0.39925119
   0.08577375  0.33440057  0.39799156
   0.91396037  0.42022480  0.50187664
   0.08540474  0.58142929  0.40052831
   0.33560021  0.58131062  0.40181746
   0.91465372  0.16766281  0.50225319
   0.75220572  0.49661236  0.59647970
   0.66836576  0.66646648  0.49873361
   0.82965257  0.58540880  0.40374439
   0.75329064  0.24889449  0.59665692
   0.66903999  0.41613627  0.49990325
  -0.00148737  0.00293606  0.59754669
   0.75243097  0.00061175  0.59664774
  -0.00249864  0.24991911  0.59736024
   0.91632921  0.66803080  0.50003722
   0.16385354  0.42036139  0.49988129
  -0.00120780  0.49887272  0.59654067
   0.58392785  0.58271837  0.40340892
   0.91587678  0.91496128  0.50149158
   0.58073714  0.33528237  0.40258208
   0.33606075  0.08283272  0.40121538
   0.58132126  0.08420178  0.40235853
   0.67125828  0.91318157  0.49924587
   0.24686545  0.00031637  0.59865377
   0.33536707  0.33249570  0.40176300
   0.16336140  0.66719326  0.50004746
   0.58466687  0.83225955  0.40339946
   0.24898072  0.75155911  0.59774944
Direct configuration=     5
   0.08417583  0.08410032  0.39699138
   0.33830528  0.83085294  0.39565960
   0.16351309  0.91568194  0.50267966
   0.41755606  0.16817239  0.49734450
   0.50038120  0.00015925  0.60304981
   0.41577804  0.41606515  0.49755065
   0.50367051  0.24886048  0.60418671
   0.24812294  0.50175103  0.60157922
   0.41802015  0.66618076  0.49920004
   0.42009180  0.91366904  0.49918265
   0.49938009  0.74958285  0.60256030
   0.83013492  0.08463095  0.39840390
   0.66871280  0.16564369  0.49989498
   0.82956487  0.33700643  0.39867129
   0.83012359  0.83331828  0.40019921
   0.50362025  0.49810799  0.60300316
   0.24650057  0.25068366  0.60330524
   0.75218419  0.74759859  0.59969966
   0.16349329  0.16844017  0.50107121
  -0.00109614  0.75326035  0.59975498
   0.08481081  0.83082875  0.39864100
   0.08500680  0.33415006  0.39729572
   0.91547976  0.41870853  0.50127580
   0.08491425  0.58182583  0.39980163
   0.33537715  0.58204080  0.40085782
   0.91518802  0.16815037  0.50169876
   0.75189595  0.49694674  0.59719413
   0.66719171  0.66744616  0.49908036
   0.83039303  0.58454230  0.40324318
   0.75301240  0.24897268  0.59732699
   0.66864018  0.41574998  0.49991900
  -0.00199535  0.00333626  0.59864837
   0.75231436  0.00059696  0.59718271
  -0.00253872  0.24983624  0.59806764
   0.91660575  0.66867662  0.49998988
   0.16387354  0.41975979  0.49997429
  -0.00133720  0.49919689  0.59712804
   0.58352708  0.58301729  0.40281992
   0.91599932  0.91410871  0.50108448
   0.58088246  0.33489818  0.40196868
   0.33555709  0.08246086  0.40046433
   0.58171640  0.08429091  0.40163853
   0.67148178  0.91327369  0.49953219
   0.24750544  0.00029642  0.59926507
   0.33548400  0.33242780  0.40079254
   0.16281578  0.66756676  0.50003265
   0.58409408  0.83243988  0.40272046
   0.24987077  0.75068829  0.59836767
Direct configuration=     6
   0.08422014  0.08357937  0.39667474
   0.33726636  0.83142297  0.39508012
   0.16327624  0.91638010  0.50222289
   0.41678746  0.16654838  0.49793644
   0.50026531  0.00041475  0.60326434
   0.41496947  0.41828415  0.49813650
   0.50298693  0.24888286  0.60461994
   0.24857756  0.50136150  0.60177490
   0.41754358  0.66494082  0.49937784
   0.41884927  0.91593791  0.49943814
   0.49958782  0.74950145  0.60292777
   0.83075341  0.08467980  0.39808048
   0.66942001  0.16521318  0.49997014
   0.83016743  0.33621430  0.39838716
   0.83049725  0.83322811  0.39981337
   0.50312229  0.49840112  0.60332854
   0.24714780  0.25046874  0.60362293
   0.75137842  0.74810116  0.59999051
   0.16542124  0.16738546  0.50082764
  -0.00032198  0.75268074  0.60016639
   0.08489266  0.83173707  0.39838569
   0.08495661  0.33382459  0.39695879
   0.91478265  0.41933543  0.50079481
   0.08490648  0.58174658  0.39950543
   0.33540063  0.58198692  0.40080401
   0.91522464  0.16696942  0.50101817
   0.75168046  0.49728373  0.59732562
   0.66785667  0.66681393  0.49956825
   0.83077388  0.58441101  0.40320752
   0.75247280  0.24896526  0.59754539
   0.66790618  0.41641367  0.49992042
  -0.00122583  0.00283511  0.59884584
   0.75151529  0.00098987  0.59732457
  -0.00198950  0.24990476  0.59835637
   0.91654875  0.66819371  0.49993706
   0.16448184  0.41917104  0.49998109
  -0.00082119  0.49910820  0.59729224
   0.58338755  0.58295867  0.40269397
   0.91630268  0.91543992  0.50069424
   0.58112034  0.33489919  0.40174858
   0.33535918  0.08254698  0.40050642
   0.58160963  0.08405066  0.40147672
   0.66994735  0.91408588  0.49975941
   0.24769633  0.00029357  0.59928915
   0.33502858  0.33260270  0.40048648
   0.16417235  0.66661093  0.49996761
   0.58402402  0.83275180  0.40252409
   0.25007295  0.75044257  0.59844128
Direct configuration=     7
   0.08422101  0.08356914  0.39666853
   0.33724596  0.83143416  0.39506874
   0.16327158  0.91639380  0.50221392
   0.41677237  0.16651650  0.49794807
   0.50026304  0.00041976  0.60326855
   0.41495359  0.41832772  0.49814801
   0.50297350  0.24888330  0.60462845
   0.24858648  0.50135385  0.60177874
   0.41753423  0.66491647  0.49938133
   0.41882487  0.91598246  0.49944316
   0.49959190  0.74949985  0.60293499
   0.83076555  0.08468076  0.39807413
   0.66943389  0.16520473  0.49997161
   0.83017926  0.33619875  0.39838158
   0.83050459  0.83322634  0.39980580
   0.50311252  0.49840687  0.60333493
   0.24716051  0.25046451  0.60362917
   0.75136260  0.74811102  0.59999622
   0.16545909  0.16736475  0.50082286
  -0.00030678  0.75266936  0.60017446
   0.08489427  0.83175491  0.39838068
   0.08495563  0.33381819  0.39695218
   0.91476896  0.41934774  0.50078536
   0.08490633  0.58174502  0.39949962
   0.33540109  0.58198587  0.40080296
   0.91522536  0.16694624  0.50100481
   0.75167623  0.49729035  0.59732820
   0.66786973  0.66680151  0.49957783
   0.83078136  0.58440843  0.40320682
   0.75246221  0.24896511  0.59754968
   0.66789177  0.41642670  0.49992045
  -0.00121072  0.00282527  0.59884972
   0.75149960  0.00099759  0.59732736
  -0.00197872  0.24990611  0.59836203
   0.91654763  0.66818423  0.49993602
   0.16449378  0.41915948  0.49998122
  -0.00081106  0.49910645  0.59729546
   0.58338481  0.58295752  0.40269150
   0.91630863  0.91546606  0.50068658
   0.58112501  0.33489921  0.40174426
   0.33535529  0.08254867  0.40050724
   0.58160753  0.08404595  0.40147354
   0.66991722  0.91410183  0.49976387
   0.24770008  0.00029351  0.59928962
   0.33501964  0.33260613  0.40048047
   0.16419898  0.66659216  0.49996634
   0.58402264  0.83275792  0.40252024
   0.25007692  0.75043774  0.59844273
Direct configuration=     8
   0.08437712  0.08350898  0.39643448
   0.33713590  0.83150861  0.39475625
   0.16324733  0.91648544  0.50206171
   0.41689603  0.16675018  0.49818698
   0.50034087  0.00033760  0.60343075
   0.41482619  0.41819884  0.49833857
   0.50283532  0.24881413  0.60487789
   0.24847254  0.50132286  0.60185311
   0.41739700  0.66523426  0.49944082
   0.41878962  0.91560717  0.49953167
   0.49956946  0.74946000  0.60311326
   0.83063642  0.08483532  0.39788789
   0.66914467  0.16534612  0.49996926
   0.83016245  0.33600276  0.39825951
   0.83052263  0.83321079  0.39971651
   0.50318471  0.49854493  0.60356082
   0.24710986  0.25051263  0.60379508
   0.75126880  0.74844400  0.60010977
   0.16520923  0.16759037  0.50075028
  -0.00006988  0.75247028  0.60023120
   0.08499864  0.83174294  0.39826749
   0.08512093  0.33360081  0.39676942
   0.91460624  0.41909247  0.50063497
   0.08504176  0.58176249  0.39941540
   0.33541612  0.58176543  0.40093906
   0.91535957  0.16664799  0.50068215
   0.75183879  0.49716461  0.59725223
   0.66765069  0.66690213  0.49986522
   0.83068942  0.58460017  0.40326333
   0.75230308  0.24892670  0.59749875
   0.66778309  0.41661369  0.49991870
  -0.00060880  0.00241929  0.59866703
   0.75132824  0.00103676  0.59728125
  -0.00168337  0.24999729  0.59820100
   0.91651557  0.66824836  0.49996219
   0.16494917  0.41878015  0.49992914
  -0.00050869  0.49898451  0.59721455
   0.58334347  0.58306302  0.40278997
   0.91657130  0.91585428  0.50051317
   0.58108611  0.33488287  0.40182841
   0.33534937  0.08271486  0.40064108
   0.58141267  0.08405230  0.40162487
   0.66935060  0.91430261  0.49984990
   0.24767570  0.00020953  0.59916229
   0.33498251  0.33256966  0.40067690
   0.16433182  0.66647559  0.49990089
   0.58401517  0.83276893  0.40263930
   0.25002457  0.75063526  0.59830553
Direct configuration=     9
   0.08461950  0.08341558  0.39607112
   0.33696502  0.83162420  0.39427111
   0.16320968  0.91662770  0.50182540
   0.41708802  0.16711298  0.49855791
   0.50046172  0.00021005  0.60368257
   0.41462839  0.41799876  0.49863442
   0.50262077  0.24870674  0.60526516
   0.24829565  0.50127475  0.60196856
   0.41718394  0.66572763  0.49953317
   0.41873489  0.91502454  0.49966909
   0.49953461  0.74939814  0.60339002
   0.83043595  0.08507529  0.39759876
   0.66869563  0.16556563  0.49996560
   0.83013634  0.33569848  0.39807000
   0.83055064  0.83318665  0.39957790
   0.50329678  0.49875926  0.60391153
   0.24703123  0.25058733  0.60405266
   0.75112316  0.74896095  0.60028606
   0.16482133  0.16794065  0.50063759
   0.00029790  0.75216120  0.60031929
   0.08516067  0.83172436  0.39809177
   0.08537756  0.33326331  0.39648568
   0.91435362  0.41869615  0.50040148
   0.08525203  0.58178962  0.39928465
   0.33543946  0.58142320  0.40115035
   0.91556793  0.16618497  0.50018122
   0.75209116  0.49696939  0.59713429
   0.66731063  0.66705835  0.50031141
   0.83054669  0.58489784  0.40335105
   0.75205604  0.24886707  0.59741967
   0.66761436  0.41690399  0.49991598
   0.00032569  0.00178902  0.59838339
   0.75106220  0.00109757  0.59720967
  -0.00122485  0.25013887  0.59795098
   0.91646578  0.66834793  0.50000283
   0.16565616  0.41819125  0.49984828
  -0.00003926  0.49879519  0.59708893
   0.58327930  0.58322682  0.40294286
   0.91697910  0.91645700  0.50024394
   0.58102571  0.33485749  0.40195906
   0.33534016  0.08297287  0.40084886
   0.58111013  0.08406218  0.40185981
   0.66847091  0.91461433  0.49998347
   0.24763785  0.00007914  0.59896461
   0.33492487  0.33251303  0.40098186
   0.16453804  0.66629462  0.49979929
   0.58400358  0.83278603  0.40282415
   0.24994329  0.75094192  0.59809254
Direct configuration=    10
   0.08471957  0.08339603  0.39579837
   0.33710324  0.83155496  0.39397491
   0.16336367  0.91660989  0.50161006
   0.41706999  0.16701531  0.49881070
   0.50033745  0.00016647  0.60389151
   0.41477225  0.41805134  0.49883450
   0.50259051  0.24879241  0.60554286
   0.24839038  0.50131428  0.60204719
   0.41713228  0.66573024  0.49955205
   0.41855630  0.91505831  0.49971882
   0.49958937  0.74937584  0.60360404
   0.83025345  0.08504099  0.39739524
   0.66868335  0.16564515  0.49997499
   0.83003674  0.33582272  0.39794678
   0.83052329  0.83328791  0.39956481
   0.50335942  0.49872434  0.60413896
   0.24708903  0.25045173  0.60421611
   0.75133314  0.74894911  0.60038474
   0.16476238  0.16803323  0.50055213
   0.00021557  0.75224118  0.60028195
   0.08518702  0.83164556  0.39796827
   0.08530273  0.33336397  0.39630851
   0.91436123  0.41866060  0.50026166
   0.08523011  0.58174818  0.39923290
   0.33554097  0.58131081  0.40132138
   0.91542141  0.16626220  0.49993537
   0.75232787  0.49686634  0.59705675
   0.66730383  0.66709818  0.50056859
   0.83050100  0.58490395  0.40345638
   0.75220610  0.24868499  0.59727682
   0.66744759  0.41693637  0.49992222
   0.00041500  0.00175836  0.59815127
   0.75125996  0.00104776  0.59710539
  -0.00119588  0.25010764  0.59771391
   0.91642922  0.66846482  0.50003036
   0.16552727  0.41816956  0.49979059
  -0.00005836  0.49882909  0.59693474
   0.58324782  0.58333837  0.40308455
   0.91683410  0.91646473  0.50010530
   0.58090649  0.33490040  0.40208900
   0.33541178  0.08295918  0.40104364
   0.58105559  0.08403628  0.40203153
   0.66846792  0.91458027  0.50004224
   0.24773529  0.00009763  0.59883025
   0.33493275  0.33246679  0.40120971
   0.16438844  0.66634924  0.49973758
   0.58392394  0.83277564  0.40300194
   0.25000745  0.75091167  0.59794840
Direct configuration=    11
   0.08501978  0.08333736  0.39498010
   0.33751790  0.83134726  0.39308632
   0.16382564  0.91655646  0.50096402
   0.41701589  0.16672227  0.49956906
   0.49996466  0.00003575  0.60451834
   0.41520384  0.41820908  0.49943475
   0.50249973  0.24904942  0.60637597
   0.24867458  0.50143286  0.60228305
   0.41697728  0.66573808  0.49960871
   0.41802054  0.91515964  0.49986803
   0.49975363  0.74930897  0.60424611
   0.82970593  0.08493808  0.39678470
   0.66864648  0.16588372  0.50000317
   0.82973795  0.33619542  0.39757714
   0.83044121  0.83359169  0.39952556
   0.50354733  0.49861961  0.60482125
   0.24726245  0.25004492  0.60470645
   0.75196306  0.74891361  0.60068080
   0.16458554  0.16831098  0.50029572
  -0.00003142  0.75248111  0.60016993
   0.08526608  0.83140915  0.39759777
   0.08507822  0.33366595  0.39577702
   0.91438403  0.41855398  0.49984221
   0.08516435  0.58162385  0.39907764
   0.33584553  0.58097366  0.40183446
   0.91498183  0.16649387  0.49919781
   0.75303798  0.49655721  0.59682414
   0.66728341  0.66721768  0.50134013
   0.83036394  0.58492227  0.40377239
   0.75265627  0.24813874  0.59684826
   0.66694728  0.41703350  0.49994093
   0.00068293  0.00166639  0.59745490
   0.75185325  0.00089832  0.59679254
  -0.00110900  0.25001395  0.59700270
   0.91631952  0.66881547  0.50011296
   0.16514058  0.41810451  0.49961753
  -0.00011564  0.49893078  0.59647217
   0.58315338  0.58367302  0.40350964
   0.91639910  0.91648794  0.49968936
   0.58054885  0.33502912  0.40247884
   0.33562663  0.08291808  0.40162795
   0.58089195  0.08395858  0.40254668
   0.66845893  0.91447809  0.50021855
   0.24802759  0.00015307  0.59842716
   0.33495639  0.33232808  0.40189329
   0.16393964  0.66651311  0.49955244
   0.58368501  0.83274446  0.40353531
   0.25019996  0.75082090  0.59751599
Direct configuration=    12
   0.08562021  0.08322002  0.39334356
   0.33834720  0.83093186  0.39130915
   0.16474959  0.91644960  0.49967196
   0.41690770  0.16613621  0.50108580
   0.49921906 -0.00022571  0.60577201
   0.41606702  0.41852455  0.50063525
   0.50231817  0.24956344  0.60804219
   0.24924298  0.50167001  0.60275478
   0.41666728  0.66575375  0.49972202
   0.41694901  0.91536228  0.50016644
   0.50008215  0.74917523  0.60553024
   0.82861089  0.08473227  0.39556360
   0.66857276  0.16636085  0.50005953
   0.82914035  0.33694083  0.39683785
   0.83027707  0.83419926  0.39944706
   0.50392314  0.49841014  0.60618584
   0.24760928  0.24923131  0.60568713
   0.75322291  0.74884261  0.60127291
   0.16423186  0.16886647  0.49978292
  -0.00052540  0.75296097  0.59994589
   0.08542419  0.83093634  0.39685677
   0.08462920  0.33426991  0.39471404
   0.91442965  0.41834073  0.49900329
   0.08503284  0.58137521  0.39876713
   0.33645464  0.58029936  0.40286062
   0.91410268  0.16695723  0.49772270
   0.75445820  0.49593893  0.59635892
   0.66724257  0.66745668  0.50288321
   0.83008983  0.58495890  0.40440441
   0.75355661  0.24704625  0.59599115
   0.66594666  0.41722775  0.49997837
   0.00121880  0.00148245  0.59606218
   0.75303983  0.00059943  0.59616685
  -0.00093522  0.24982656  0.59558028
   0.91610013  0.66951677  0.50027816
   0.16436721  0.41797441  0.49927141
  -0.00023021  0.49913416  0.59554704
   0.58296451  0.58434233  0.40435982
   0.91552910  0.91653434  0.49885749
   0.57983357  0.33528656  0.40325851
   0.33605633  0.08283590  0.40279658
   0.58056466  0.08380320  0.40357697
   0.66844096  0.91427373  0.50057116
   0.24861219  0.00026397  0.59762099
   0.33500367  0.33205066  0.40326043
   0.16304204  0.66684084  0.49918217
   0.58320715  0.83268209  0.40460205
   0.25058497  0.75063937  0.59665116
Direct configuration=    13
   0.08530499  0.08328162  0.39420275
   0.33791181  0.83114994  0.39224217
   0.16426451  0.91650570  0.50035030
   0.41696450  0.16644389  0.50028951
   0.49961050 -0.00008844  0.60511383
   0.41561385  0.41835893  0.50000499
   0.50241349  0.24929357  0.60716742
   0.24894457  0.50154551  0.60250712
   0.41683003  0.66574552  0.49966253
   0.41751157  0.91525589  0.50000977
   0.49990967  0.74924544  0.60485607
   0.82918579  0.08484032  0.39620468
   0.66861146  0.16611036  0.50002994
   0.82945409  0.33654949  0.39722598
   0.83036325  0.83388029  0.39948828
   0.50372584  0.49852011  0.60546943
   0.24742719  0.24965846  0.60517227
   0.75256149  0.74887988  0.60096205
   0.16441754  0.16857484  0.50005214
  -0.00026606  0.75270904  0.60006352
   0.08534118  0.83118457  0.39724580
   0.08486493  0.33395283  0.39527211
   0.91440570  0.41845268  0.49944373
   0.08510189  0.58150575  0.39893015
   0.33613485  0.58065337  0.40232188
   0.91456424  0.16671396  0.49849714
   0.75371258  0.49626353  0.59660316
   0.66726401  0.66733121  0.50207309
   0.83023374  0.58493967  0.40407260
   0.75308393  0.24761981  0.59644114
   0.66647199  0.41712577  0.49995872
   0.00093747  0.00157902  0.59679336
   0.75241687  0.00075634  0.59649534
  -0.00102645  0.24992494  0.59632706
   0.91621531  0.66914858  0.50019143
   0.16477324  0.41804271  0.49945313
  -0.00017006  0.49902738  0.59603274
   0.58306367  0.58399094  0.40391347
   0.91598585  0.91650998  0.49929423
   0.58020909  0.33515140  0.40284918
   0.33583074  0.08287904  0.40218304
   0.58073649  0.08388478  0.40303606
   0.66845039  0.91438102  0.50038604
   0.24830527  0.00020575  0.59804423
   0.33497885  0.33219631  0.40254268
   0.16351328  0.66666878  0.49937656
   0.58345803  0.83271483  0.40404201
   0.25038284  0.75073467  0.59710520
Direct configuration=    14
   0.08521657  0.08330986  0.39385890
   0.33794983  0.83107372  0.39193571
   0.16401855  0.91658397  0.50001577
   0.41696007  0.16645143  0.50065758
   0.49985035 -0.00017279  0.60543346
   0.41544528  0.41830986  0.50031692
   0.50267941  0.24911546  0.60749487
   0.24888956  0.50158797  0.60258256
   0.41689107  0.66575874  0.49972819
   0.41761784  0.91523838  0.50009362
   0.50011440  0.74908933  0.60509798
   0.82918674  0.08493718  0.39594651
   0.66856652  0.16599797  0.50003785
   0.82933172  0.33656761  0.39705996
   0.83026087  0.83379059  0.39950002
   0.50400598  0.49843126  0.60575145
   0.24731131  0.24981872  0.60535246
   0.75250620  0.74889389  0.60111578
   0.16431827  0.16857442  0.49990025
  -0.00004767  0.75273543  0.59996949
   0.08542732  0.83115683  0.39706571
   0.08479036  0.33398891  0.39505486
   0.91427591  0.41859380  0.49926126
   0.08498252  0.58154233  0.39888308
   0.33611310  0.58073816  0.40249139
   0.91455540  0.16675205  0.49816930
   0.75375073  0.49620973  0.59656208
   0.66718560  0.66737955  0.50229613
   0.83011376  0.58509377  0.40420586
   0.75322569  0.24760766  0.59627093
   0.66654625  0.41718695  0.50000083
   0.00095372  0.00169050  0.59645377
   0.75231116  0.00086584  0.59639458
  -0.00102044  0.24980457  0.59602586
   0.91615289  0.66917040  0.50017125
   0.16467340  0.41823380  0.49943463
   0.00003095  0.49888298  0.59583442
   0.58307520  0.58405987  0.40408412
   0.91595219  0.91642952  0.49911378
   0.58019716  0.33514900  0.40298965
   0.33576460  0.08284655  0.40238099
   0.58067689  0.08389240  0.40326276
   0.66850784  0.91431670  0.50049442
   0.24836607  0.00013086  0.59789459
   0.33497607  0.33215525  0.40282215
   0.16334436  0.66672052  0.49932416
   0.58350418  0.83263599  0.40427406
   0.25049425  0.75067251  0.59693404
Direct configuration=    15
   0.08501421  0.08337450  0.39307195
   0.33803684  0.83089926  0.39123433
   0.16345563  0.91676310  0.49925014
   0.41694992  0.16646867  0.50149997
   0.50039927 -0.00036583  0.60616500
   0.41505948  0.41819757  0.50103084
   0.50328801  0.24870783  0.60824430
   0.24876367  0.50168516  0.60275522
   0.41703076  0.66578898  0.49987846
   0.41786107  0.91519829  0.50028552
   0.50058295  0.74873202  0.60565164
   0.82918893  0.08515886  0.39535563
   0.66846365  0.16574076  0.50005593
   0.82905166  0.33660907  0.39668001
   0.83002656  0.83358532  0.39952691
   0.50464713  0.49822790  0.60639692
   0.24704608  0.25018549  0.60576486
   0.75237968  0.74892595  0.60146761
   0.16409107  0.16857346  0.49955262
   0.00045214  0.75279583  0.59975431
   0.08562447  0.83109334  0.39665355
   0.08461969  0.33407149  0.39455764
   0.91397886  0.41891678  0.49884367
   0.08470934  0.58162607  0.39877534
   0.33606333  0.58093220  0.40287932
   0.91453516  0.16683923  0.49741899
   0.75383804  0.49608661  0.59646805
   0.66700614  0.66749021  0.50280657
   0.82983915  0.58544647  0.40451085
   0.75355014  0.24757986  0.59588137
   0.66671621  0.41732696  0.50009720
   0.00099090  0.00194563  0.59567657
   0.75206923  0.00111642  0.59616395
  -0.00100667  0.24952910  0.59533653
   0.91601001  0.66922034  0.50012508
   0.16444490  0.41867114  0.49939230
   0.00049099  0.49855250  0.59538055
   0.58310158  0.58421762  0.40447467
   0.91587516  0.91624538  0.49870081
   0.58016985  0.33514351  0.40331115
   0.33561323  0.08277217  0.40283403
   0.58054050  0.08390983  0.40378159
   0.66863933  0.91416950  0.50074249
   0.24850522 -0.00004054  0.59755210
   0.33496973  0.33206127  0.40346176
   0.16295775  0.66683893  0.49920422
   0.58360982  0.83245554  0.40480514
   0.25074925  0.75053025  0.59654233
Direct configuration=    16
   0.08460949  0.08350377  0.39149805
   0.33821085  0.83055035  0.38983157
   0.16232978  0.91712137  0.49771889
   0.41692961  0.16650316  0.50318475
   0.50149713 -0.00075192  0.60762807
   0.41428789  0.41797298  0.50245866
   0.50450520  0.24789255  0.60974317
   0.24851189  0.50187954  0.60310053
   0.41731015  0.66584946  0.50017900
   0.41834752  0.91511811  0.50066931
   0.50152005  0.74801742  0.60675896
   0.82919332  0.08560222  0.39417389
   0.66825793  0.16522633  0.50009211
   0.82849154  0.33669200  0.39592010
   0.82955793  0.83317478  0.39958069
   0.50592943  0.49782118  0.60768785
   0.24651562  0.25091903  0.60658967
   0.75212664  0.74899007  0.60217129
   0.16363668  0.16857154  0.49885736
   0.00145177  0.75291663  0.59932394
   0.08601877  0.83096638  0.39582922
   0.08427835  0.33423664  0.39356322
   0.91338475  0.41956272  0.49800848
   0.08416297  0.58179355  0.39855987
   0.33596377  0.58132028  0.40365518
   0.91449470  0.16701357  0.49591837
   0.75401266  0.49584036  0.59627999
   0.66664722  0.66771151  0.50382747
   0.82928995  0.58615187  0.40512082
   0.75419904  0.24752425  0.59510227
   0.66705613  0.41760700  0.50028994
   0.00106527  0.00245589  0.59412216
   0.75158537  0.00161759  0.59570271
  -0.00097913  0.24897815  0.59395787
   0.91572425  0.66932022  0.50003272
   0.16398791  0.41954581  0.49930765
   0.00141107  0.49789154  0.59447281
   0.58315435  0.58453312  0.40525576
   0.91572109  0.91587710  0.49787487
   0.58011524  0.33513252  0.40395414
   0.33531048  0.08262342  0.40374011
   0.58026770  0.08394471  0.40481925
   0.66890230  0.91387510  0.50123862
   0.24878352 -0.00038334  0.59686712
   0.33495703  0.33187331  0.40474097
   0.16218454  0.66707576  0.49896434
   0.58382108  0.83209465  0.40586731
   0.25125924  0.75024573  0.59575891
Direct configuration=    17
   0.08490817  0.08340837  0.39265958
   0.33808243  0.83080785  0.39086680
   0.16316065  0.91685697  0.49884894
   0.41694460  0.16647771  0.50194139