  48  48   0   0
  0.5349325E+02  0.1100258E-08  0.1100258E-08  0.2449179E-08  0.3500000E-15
  1.000000000000000E-004
  CAR 
 unknown system                          
      6.37982411     -9.75967440  301     -1.10315248      1.00000000
     -9.760  0.0000E+00  0.0000E+00
     -9.706  0.0000E+00  0.0000E+00
     -9.652  0.0000E+00  0.0000E+00
     -9.598  0.0000E+00  0.0000E+00
     -9.544  0.0000E+00  0.0000E+00
     -9.491  0.0000E+00  0.0000E+00
     -9.437  0.0000E+00  0.0000E+00
     -9.383  0.0000E+00  0.0000E+00
     -9.329  0.1101E-16  0.5921E-18
     -9.275  0.4236E-14  0.2285E-15
     -9.222  0.9280E-12  0.5015E-13
     -9.168  0.1152E-09  0.6248E-11
     -9.114  0.8119E-08  0.4430E-09
     -9.060  0.3254E-06  0.1795E-07
     -9.006  0.7436E-05  0.4180E-06
     -8.953  0.9709E-04  0.5641E-05
     -8.899  0.7261E-03  0.4470E-04
     -8.845  0.3118E-02  0.2124E-03
     -8.791  0.7704E-02  0.6269E-03
     -8.738  0.1101E-01  0.1219E-02
     -8.684  0.9468E-02  0.1729E-02
     -8.630  0.6600E-02  0.2084E-02
     -8.576  0.7732E-02  0.2500E-02
     -8.522  0.1077E-01  0.3079E-02
     -8.469  0.9865E-02  0.3610E-02
     -8.415  0.5289E-02  0.3895E-02
     -8.361  0.1662E-02  0.3984E-02
     -8.307  0.5142E-03  0.4012E-02
     -8.253  0.1215E-02  0.4077E-02
     -8.200  0.3985E-02  0.4291E-02
     -8.146  0.8936E-02  0.4772E-02
     -8.092  0.1461E-01  0.5558E-02
     -8.038  0.1930E-01  0.6596E-02
     -7.984  0.2143E-01  0.7750E-02
     -7.931  0.1905E-01  0.8775E-02
     -7.877  0.1387E-01  0.9521E-02
     -7.823  0.1060E-01  0.1009E-01
     -7.769  0.1069E-01  0.1067E-01
     -7.715  0.1189E-01  0.1131E-01
     -7.662  0.1188E-01  0.1194E-01
     -7.608  0.1127E-01  0.1255E-01
     -7.554  0.1215E-01  0.1320E-01
     -7.500  0.1475E-01  0.1400E-01
     -7.446  0.1775E-01  0.1495E-01
     -7.393  0.2075E-01  0.1607E-01
     -7.339  0.2456E-01  0.1739E-01
     -7.285  0.2768E-01  0.1888E-01
     -7.231  0.2651E-01  0.2031E-01
     -7.177  0.2218E-01  0.2150E-01
     -7.124  0.2061E-01  0.2261E-01
     -7.070  0.2536E-01  0.2397E-01
     -7.016  0.3710E-01  0.2597E-01
     -6.962  0.5276E-01  0.2881E-01
     -6.908  0.6501E-01  0.3230E-01
     -6.855  0.7172E-01  0.3616E-01
     -6.801  0.7784E-01  0.4035E-01
     -6.747  0.8654E-01  0.4501E-01
     -6.693  0.9469E-01  0.5010E-01
     -6.639  0.9691E-01  0.5531E-01
     -6.586  0.9454E-01  0.6040E-01
     -6.532  0.9524E-01  0.6552E-01
     -6.478  0.1027E+00  0.7105E-01
     -6.424  0.1145E+00  0.7721E-01
     -6.370  0.1263E+00  0.8400E-01
     -6.317  0.1342E+00  0.9122E-01
     -6.263  0.1399E+00  0.9875E-01
     -6.209  0.1486E+00  0.1067E+00
     -6.155  0.1586E+00  0.1153E+00
     -6.101  0.1638E+00  0.1241E+00
     -6.048  0.1628E+00  0.1328E+00
     -5.994  0.1611E+00  0.1415E+00
     -5.940  0.1623E+00  0.1502E+00
     -5.886  0.1637E+00  0.1590E+00
     -5.832  0.1624E+00  0.1678E+00
     -5.779  0.1600E+00  0.1764E+00
     -5.725  0.1557E+00  0.1848E+00
     -5.671  0.1478E+00  0.1927E+00
     -5.617  0.1379E+00  0.2001E+00
     -5.563  0.1281E+00  0.2070E+00
     -5.510  0.1204E+00  0.2135E+00
     -5.456  0.1172E+00  0.2198E+00
     -5.402  0.1210E+00  0.2263E+00
     -5.348  0.1317E+00  0.2334E+00
     -5.294  0.1450E+00  0.2412E+00
     -5.241  0.1541E+00  0.2495E+00
     -5.187  0.1590E+00  0.2581E+00
     -5.133  0.1666E+00  0.2670E+00
     -5.079  0.1774E+00  0.2766E+00
     -5.025  0.1850E+00  0.2865E+00
     -4.972  0.1855E+00  0.2965E+00
     -4.918  0.1807E+00  0.3062E+00
     -4.864  0.1744E+00  0.3156E+00
     -4.810  0.1687E+00  0.3247E+00
     -4.756  0.1641E+00  0.3335E+00
     -4.703  0.1617E+00  0.3422E+00
     -4.649  0.1631E+00  0.3510E+00
     -4.595  0.1667E+00  0.3600E+00
     -4.541  0.1696E+00  0.3691E+00
     -4.487  0.1728E+00  0.3784E+00
     -4.434  0.1766E+00  0.3879E+00
     -4.380  0.1761E+00  0.3973E+00
     -4.326  0.1696E+00  0.4065E+00
     -4.272  0.1629E+00  0.4152E+00
     -4.218  0.1636E+00  0.4240E+00
     -4.165  0.1722E+00  0.4333E+00
     -4.111  0.1822E+00  0.4431E+00
     -4.057  0.1863E+00  0.4531E+00
     -4.003  0.1835E+00  0.4630E+00
     -3.949  0.1809E+00  0.4727E+00
     -3.896  0.1843E+00  0.4826E+00
     -3.842  0.1892E+00  0.4928E+00
     -3.788  0.1908E+00  0.5031E+00
     -3.734  0.1900E+00  0.5133E+00
     -3.680  0.1881E+00  0.5234E+00
     -3.627  0.1877E+00  0.5335E+00
     -3.573  0.1926E+00  0.5439E+00
     -3.519  0.2008E+00  0.5547E+00
     -3.465  0.2060E+00  0.5658E+00
     -3.411  0.2081E+00  0.5770E+00
     -3.358  0.2098E+00  0.5883E+00
     -3.304  0.2090E+00  0.5995E+00
     -3.250  0.2035E+00  0.6105E+00
     -3.196  0.1960E+00  0.6210E+00
     -3.142  0.1892E+00  0.6312E+00
     -3.089  0.1834E+00  0.6410E+00
     -3.035  0.1782E+00  0.6506E+00
     -2.981  0.1764E+00  0.6601E+00
     -2.927  0.1791E+00  0.6698E+00
     -2.873  0.1823E+00  0.6796E+00
     -2.820  0.1831E+00  0.6894E+00
     -2.766  0.1816E+00  0.6992E+00
     -2.712  0.1779E+00  0.7088E+00
     -2.658  0.1753E+00  0.7182E+00
     -2.604  0.1780E+00  0.7278E+00
     -2.551  0.1861E+00  0.7378E+00
     -2.497  0.1955E+00  0.7483E+00
     -2.443  0.1998E+00  0.7590E+00
     -2.389  0.1968E+00  0.7696E+00
     -2.336  0.1895E+00  0.7798E+00
     -2.282  0.1814E+00  0.7896E+00
     -2.228  0.1755E+00  0.7990E+00
     -2.174  0.1740E+00  0.8084E+00
     -2.120  0.1762E+00  0.8179E+00
     -2.067  0.1821E+00  0.8277E+00
     -2.013  0.1917E+00  0.8380E+00
     -1.959  0.2015E+00  0.8488E+00
     -1.905  0.2062E+00  0.8599E+00
     -1.851  0.2057E+00  0.8710E+00
     -1.798  0.2060E+00  0.8821E+00
     -1.744  0.2088E+00  0.8933E+00
     -1.690  0.2097E+00  0.9046E+00
     -1.636  0.2085E+00  0.9158E+00
     -1.582  0.2073E+00  0.9269E+00
     -1.529  0.2058E+00  0.9380E+00
     -1.475  0.2046E+00  0.9490E+00
     -1.421  0.2034E+00  0.9600E+00
     -1.367  0.1971E+00  0.9706E+00
     -1.313  0.1819E+00  0.9804E+00
     -1.260  0.1603E+00  0.9890E+00
     -1.206  0.1389E+00  0.9964E+00
     -1.152  0.1208E+00  0.1003E+01
     -1.098  0.1027E+00  0.1008E+01
     -1.044  0.8115E-01  0.1013E+01
     -0.991  0.5636E-01  0.1016E+01
     -0.937  0.3499E-01  0.1018E+01
     -0.883  0.2402E-01  0.1019E+01
     -0.829  0.2099E-01  0.1020E+01
     -0.775  0.1960E-01  0.1021E+01
     -0.722  0.1774E-01  0.1022E+01
     -0.668  0.1730E-01  0.1023E+01
     -0.614  0.2030E-01  0.1024E+01
     -0.560  0.2772E-01  0.1026E+01
     -0.506  0.3820E-01  0.1028E+01
     -0.453  0.4725E-01  0.1030E+01
     -0.399  0.4952E-01  0.1033E+01
     -0.345  0.4535E-01  0.1035E+01
     -0.291  0.4332E-01  0.1038E+01
     -0.237  0.4521E-01  0.1040E+01
     -0.184  0.4256E-01  0.1042E+01
     -0.130  0.3321E-01  0.1044E+01
     -0.076  0.2340E-01  0.1045E+01
     -0.022  0.1822E-01  0.1046E+01
      0.032  0.1895E-01  0.1047E+01
      0.085  0.2376E-01  0.1049E+01
      0.139  0.2855E-01  0.1050E+01
      0.193  0.2932E-01  0.1052E+01
      0.247  0.2755E-01  0.1053E+01
      0.301  0.2825E-01  0.1055E+01
      0.354  0.3178E-01  0.1057E+01
      0.408  0.3580E-01  0.1059E+01
      0.462  0.4075E-01  0.1061E+01
      0.516  0.4536E-01  0.1063E+01
      0.570  0.4714E-01  0.1066E+01
      0.623  0.4835E-01  0.1068E+01
      0.677  0.5136E-01  0.1071E+01
      0.731  0.5263E-01  0.1074E+01
      0.785  0.4747E-01  0.1076E+01
      0.839  0.3736E-01  0.1078E+01
      0.892  0.2667E-01  0.1080E+01
      0.946  0.1822E-01  0.1081E+01
      1.000  0.1333E-01  0.1082E+01
      1.054  0.1263E-01  0.1082E+01
      1.108  0.1621E-01  0.1083E+01
      1.161  0.1918E-01  0.1084E+01
      1.215  0.1675E-01  0.1085E+01
      1.269  0.1347E-01  0.1086E+01
      1.323  0.1509E-01  0.1087E+01
      1.377  0.1991E-01  0.1088E+01
      1.430  0.2401E-01  0.1089E+01
      1.484  0.2708E-01  0.1090E+01
      1.538  0.2974E-01  0.1092E+01
      1.592  0.3100E-01  0.1094E+01
      1.646  0.2936E-01  0.1095E+01
      1.699  0.2574E-01  0.1097E+01
      1.753  0.2576E-01  0.1098E+01
      1.807  0.3182E-01  0.1100E+01
      1.861  0.3653E-01  0.1102E+01
      1.915  0.3282E-01  0.1103E+01
      1.968  0.2440E-01  0.1105E+01
      2.022  0.1786E-01  0.1106E+01
      2.076  0.1585E-01  0.1107E+01
      2.130  0.1881E-01  0.1108E+01
      2.184  0.2572E-01  0.1109E+01
      2.237  0.3641E-01  0.1111E+01
      2.291  0.4921E-01  0.1114E+01
      2.345  0.5776E-01  0.1117E+01
      2.399  0.5814E-01  0.1120E+01
      2.453  0.5327E-01  0.1123E+01
      2.506  0.4717E-01  0.1125E+01
      2.560  0.4201E-01  0.1128E+01
      2.614  0.4029E-01  0.1130E+01
      2.668  0.4166E-01  0.1132E+01
      2.722  0.4014E-01  0.1134E+01
      2.775  0.3227E-01  0.1136E+01
      2.829  0.2255E-01  0.1137E+01
      2.883  0.1599E-01  0.1138E+01
      2.937  0.1371E-01  0.1139E+01
      2.991  0.1291E-01  0.1139E+01
      3.044  0.1078E-01  0.1140E+01
      3.098  0.9819E-02  0.1140E+01
      3.152  0.1222E-01  0.1141E+01
      3.206  0.1605E-01  0.1142E+01
      3.260  0.1997E-01  0.1143E+01
      3.313  0.2312E-01  0.1144E+01
      3.367  0.2383E-01  0.1146E+01
      3.421  0.2373E-01  0.1147E+01
      3.475  0.2576E-01  0.1148E+01
      3.529  0.2944E-01  0.1150E+01
      3.582  0.3341E-01  0.1152E+01
      3.636  0.3606E-01  0.1154E+01
      3.690  0.3619E-01  0.1155E+01
      3.744  0.3521E-01  0.1157E+01
      3.798  0.3233E-01  0.1159E+01
      3.851  0.2580E-01  0.1160E+01
      3.905  0.1977E-01  0.1162E+01
      3.959  0.2081E-01  0.1163E+01
      4.013  0.2905E-01  0.1164E+01
      4.066  0.3400E-01  0.1166E+01
      4.120  0.2968E-01  0.1168E+01
      4.174  0.2520E-01  0.1169E+01
      4.228  0.2426E-01  0.1170E+01
      4.282  0.1994E-01  0.1171E+01
      4.335  0.1477E-01  0.1172E+01
      4.389  0.1710E-01  0.1173E+01
      4.443  0.2442E-01  0.1174E+01
      4.497  0.3029E-01  0.1176E+01
      4.551  0.3723E-01  0.1178E+01
      4.604  0.4804E-01  0.1181E+01
      4.658  0.5739E-01  0.1184E+01
      4.712  0.5937E-01  0.1187E+01
      4.766  0.5474E-01  0.1190E+01
      4.820  0.4946E-01  0.1193E+01
      4.873  0.4826E-01  0.1195E+01
      4.927  0.5175E-01  0.1198E+01
      4.981  0.5749E-01  0.1201E+01
      5.035  0.6321E-01  0.1204E+01
      5.089  0.6648E-01  0.1208E+01
      5.142  0.6437E-01  0.1211E+01
      5.196  0.6005E-01  0.1215E+01
      5.250  0.5636E-01  0.1218E+01
      5.304  0.4884E-01  0.1220E+01
      5.358  0.3539E-01  0.1222E+01
      5.411  0.2038E-01  0.1223E+01
      5.465  0.8888E-02  0.1224E+01
      5.519  0.2734E-02  0.1224E+01
      5.573  0.5495E-03  0.1224E+01
      5.627  0.6806E-04  0.1224E+01
      5.680  0.5010E-05  0.1224E+01
      5.734  0.2148E-06  0.1224E+01
      5.788  0.5302E-08  0.1224E+01
      5.842  0.7483E-10  0.1224E+01
      5.896  0.6013E-12  0.1224E+01
      5.949  0.2742E-14  0.1224E+01
      6.003  0.8255E-17  0.1224E+01
      6.057  0.0000E+00  0.1224E+01
      6.111  0.0000E+00  0.1224E+01
      6.165  0.0000E+00  0.1224E+01
      6.218  0.0000E+00  0.1224E+01
      6.272  0.0000E+00  0.1224E+01
      6.326  0.0000E+00  0.1224E+01
      6.380  0.0000E+00  0.1224E+01
