       N       E                     dE             d eps       ncg     rms          rms(c)
DAV:   1     0.320140262306E+04    0.32014E+04   -0.18980E+05  3672   0.112E+03
DAV:   2     0.155746565458E+02   -0.31858E+04   -0.29233E+04  4368   0.263E+02
DAV:   3    -0.199848241912E+03   -0.21542E+03   -0.20022E+03  4152   0.652E+01
DAV:   4    -0.205748775105E+03   -0.59005E+01   -0.58271E+01  4224   0.108E+01
DAV:   5    -0.205937004568E+03   -0.18823E+00   -0.18762E+00  4452   0.198E+00    0.625E+01
RMM:   6    -0.197279387256E+03    0.86576E+01   -0.90775E+01  3678   0.151E+01    0.519E+01
RMM:   7    -0.202039969031E+03   -0.47606E+01   -0.47875E+01  3684   0.118E+01    0.361E+01
RMM:   8    -0.229108040214E+03   -0.27068E+02   -0.81044E+01  3672   0.133E+01    0.455E+01
RMM:   9    -0.207298508622E+03    0.21810E+02   -0.37906E+01  3677   0.922E+00    0.336E+01
RMM:  10    -0.193572096301E+03    0.13726E+02   -0.15481E+01  3683   0.655E+00    0.155E+01
RMM:  11    -0.189727067689E+03    0.38450E+01   -0.91228E+00  3679   0.480E+00    0.851E+00
RMM:  12    -0.188852796257E+03    0.87427E+00   -0.35766E+00  3680   0.284E+00    0.752E+00
RMM:  13    -0.188757105867E+03    0.95690E-01   -0.11202E+00  3681   0.170E+00    0.607E+00
RMM:  14    -0.188777868142E+03   -0.20762E-01   -0.58334E-01  3680   0.125E+00    0.500E+00
RMM:  15    -0.188621813546E+03    0.15605E+00   -0.14283E-01  3678   0.596E-01    0.370E+00
RMM:  16    -0.188511430932E+03    0.11038E+00   -0.12731E-01  3678   0.543E-01    0.267E+00
RMM:  17    -0.188437632897E+03    0.73798E-01   -0.10726E-01  3682   0.491E-01    0.148E+00
RMM:  18    -0.188409368024E+03    0.28265E-01   -0.40121E-02  3680   0.295E-01    0.590E-01
RMM:  19    -0.188408248332E+03    0.11197E-02   -0.69266E-03  3683   0.125E-01    0.482E-01
RMM:  20    -0.188407404967E+03    0.84337E-03   -0.13289E-03  3681   0.566E-02    0.368E-01
RMM:  21    -0.188406763862E+03    0.64110E-03   -0.18935E-03  3682   0.660E-02    0.340E-01
RMM:  22    -0.188405770372E+03    0.99349E-03   -0.12628E-03  3683   0.545E-02    0.187E-01
RMM:  23    -0.188405429060E+03    0.34131E-03   -0.79058E-04  3681   0.400E-02    0.993E-02
RMM:  24    -0.188405498345E+03   -0.69285E-04   -0.29555E-04  3678   0.236E-02    0.518E-02
RMM:  25    -0.188405872958E+03   -0.37461E-03   -0.96000E-05  3679   0.142E-02    0.481E-02
RMM:  26    -0.188406260893E+03   -0.38793E-03   -0.62893E-05  3678   0.113E-02    0.453E-02
RMM:  27    -0.188406999634E+03   -0.73874E-03   -0.56033E-05  3672   0.102E-02    0.270E-02
RMM:  28    -0.188407491247E+03   -0.49161E-03   -0.34947E-05  3672   0.848E-03    0.202E-02
RMM:  29    -0.188408163634E+03   -0.67239E-03   -0.40005E-05  3672   0.884E-03    0.195E-02
RMM:  30    -0.188408542040E+03   -0.37841E-03   -0.23202E-05  3381   0.646E-03    0.175E-02
RMM:  31    -0.188408830594E+03   -0.28855E-03   -0.17484E-05  3091   0.533E-03    0.930E-03
RMM:  32    -0.188408911591E+03   -0.80997E-04   -0.44850E-06  2662   0.273E-03    0.478E-03
RMM:  33    -0.188409013093E+03   -0.10150E-03   -0.20889E-06  2330   0.200E-03    0.332E-03
RMM:  34    -0.188409071953E+03   -0.58860E-04   -0.10837E-06  2178   0.141E-03    0.271E-03
RMM:  35    -0.188409121548E+03   -0.49595E-04   -0.10469E-06  2191   0.142E-03    0.167E-03
RMM:  36    -0.188409138683E+03   -0.17135E-04   -0.40415E-07  2097   0.856E-04    0.140E-03
RMM:  37    -0.188409148903E+03   -0.10220E-04   -0.22521E-07  1717   0.692E-04    0.886E-04
RMM:  38    -0.188409154490E+03   -0.55871E-05   -0.15691E-07  1628   0.579E-04    0.741E-04
RMM:  39    -0.188409155367E+03   -0.87633E-06   -0.47065E-08  1076   0.380E-04
   1 F= -.18840916E+03 E0= -.18828132E+03  d E =-.188409E+03
       N       E                     dE             d eps       ncg     rms          rms(c)
DAV:   1    -0.189508926265E+03   -0.10998E+01   -0.38177E+02  3696   0.300E+01    0.374E+00
RMM:   2    -0.189897843898E+03   -0.38892E+00   -0.40216E+00  3678   0.434E+00    0.221E+00
RMM:   3    -0.189964667584E+03   -0.66824E-01   -0.31267E-01  3708   0.982E-01    0.331E+00
RMM:   4    -0.189892094738E+03    0.72573E-01   -0.13379E-01  3687   0.614E-01    0.154E+00
RMM:   5    -0.190002234081E+03   -0.11014E+00   -0.92131E-02  3687   0.453E-01    0.348E+00
RMM:   6    -0.189879816053E+03    0.12242E+00   -0.57406E-02  3684   0.364E-01    0.881E-01
RMM:   7    -0.189873648588E+03    0.61675E-02   -0.15791E-02  3681   0.203E-01    0.471E-01
RMM:   8    -0.189871470333E+03    0.21783E-02   -0.45322E-03  3683   0.105E-01    0.275E-01
RMM:   9    -0.189870724571E+03    0.74576E-03   -0.18831E-03  3685   0.685E-02    0.135E-01
RMM:  10    -0.189870624743E+03    0.99828E-04   -0.56872E-04  3687   0.376E-02    0.108E-01
RMM:  11    -0.189870533403E+03    0.91340E-04   -0.15363E-04  3689   0.198E-02    0.535E-02
RMM:  12    -0.189870527445E+03    0.59587E-05   -0.40957E-05  3683   0.105E-02    0.393E-02
RMM:  13    -0.189870518495E+03    0.89493E-05   -0.24217E-05  3673   0.804E-03    0.232E-02
RMM:  14    -0.189870515689E+03    0.28065E-05   -0.99528E-06  3608   0.526E-03    0.101E-02
RMM:  15    -0.189870515763E+03   -0.73669E-07   -0.25874E-06  2422   0.264E-03
   2 F= -.18987052E+03 E0= -.18974426E+03  d E =-.146136E+01
       N       E                     dE             d eps       ncg     rms          rms(c)
DAV:   1    -0.188312043558E+03    0.15585E+01   -0.35822E+03  3672   0.943E+01    0.889E+00
RMM:   2    -0.191743596292E+03   -0.34316E+01   -0.35490E+01  3680   0.130E+01    0.522E+00
RMM:   3    -0.192198432274E+03   -0.45484E+00   -0.21278E+00  3711   0.254E+00    0.867E+00
RMM:   4    -0.191641779807E+03    0.55665E+00   -0.68206E-01  3686   0.138E+00    0.424E+00
RMM:   5    -0.192223629073E+03   -0.58185E+00   -0.57391E-01  3685   0.113E+00    0.797E+00
RMM:   6    -0.191584056901E+03    0.63957E+00   -0.50399E-01  3684   0.110E+00    0.277E+00
RMM:   7    -0.191519219207E+03    0.64838E-01   -0.18386E-01  3684   0.682E-01    0.151E+00
RMM:   8    -0.191488040962E+03    0.31178E-01   -0.44728E-02  3685   0.333E-01    0.613E-01
RMM:   9    -0.191484255499E+03    0.37855E-02   -0.12968E-02  3683   0.179E-01    0.380E-01
RMM:  10    -0.191483156314E+03    0.10992E-02   -0.43173E-03  3686   0.101E-01    0.245E-01
RMM:  11    -0.191482917294E+03    0.23902E-03   -0.14266E-03  3685   0.599E-02    0.185E-01
RMM:  12    -0.191482735091E+03    0.18220E-03   -0.51555E-04  3683   0.377E-02    0.110E-01
RMM:  13    -0.191482703673E+03    0.31418E-04   -0.23456E-04  3681   0.245E-02    0.840E-02
RMM:  14    -0.191482645079E+03    0.58593E-04   -0.88979E-05  3680   0.154E-02    0.320E-02
RMM:  15    -0.191482645802E+03   -0.72245E-06   -0.23691E-05  3675   0.767E-03    0.177E-02
RMM:  16    -0.191482650265E+03   -0.44628E-05   -0.70849E-06  3119   0.422E-03    0.109E-02
RMM:  17    -0.191482656121E+03   -0.58562E-05   -0.20141E-06  2240   0.239E-03    0.937E-03
RMM:  18    -0.191482663178E+03   -0.70568E-05   -0.11384E-06  2124   0.195E-03    0.370E-03
RMM:  19    -0.191482666779E+03   -0.36013E-05   -0.40168E-07  2039   0.106E-03    0.204E-03
RMM:  20    -0.191482670771E+03   -0.39919E-05   -0.14822E-07  1533   0.636E-04    0.897E-04
RMM:  21    -0.191482676412E+03   -0.56416E-05   -0.13254E-07  1386   0.522E-04    0.958E-04
RMM:  22    -0.191482682826E+03   -0.64136E-05   -0.26691E-07  1865   0.622E-04    0.846E-04
RMM:  23    -0.191482688493E+03   -0.56665E-05   -0.27245E-07  1534   0.574E-04    0.674E-04
RMM:  24    -0.191482690247E+03   -0.17547E-05   -0.12510E-07  1190   0.446E-04    0.522E-04
RMM:  25    -0.191482692090E+03   -0.18431E-05   -0.15715E-07  1372   0.482E-04    0.363E-04
RMM:  26    -0.191482692689E+03   -0.59904E-06   -0.28769E-08   710   0.376E-04
   3 F= -.19148269E+03 E0= -.19136087E+03  d E =-.307354E+01
       N       E                     dE             d eps       ncg     rms          rms(c)
DAV:   1    -0.191616698405E+03   -0.13401E+00   -0.38961E+02  3672   0.306E+01    0.267E+00
RMM:   2    -0.192032012633E+03   -0.41531E+00   -0.43825E+00  3686   0.446E+00    0.166E+00
RMM:   3    -0.192091595233E+03   -0.59583E-01   -0.29083E-01  3707   0.942E-01    0.299E+00
RMM:   4    -0.192023673305E+03    0.67922E-01   -0.74496E-02  3686   0.466E-01    0.137E+00
RMM:   5    -0.192058280164E+03   -0.34607E-01   -0.42393E-02  3689   0.309E-01    0.225E+00
RMM:   6    -0.192017174716E+03    0.41105E-01   -0.53638E-02  3683   0.360E-01    0.970E-01
RMM:   7    -0.192008155594E+03    0.90191E-02   -0.19325E-02  3682   0.221E-01    0.410E-01
RMM:   8    -0.192006240866E+03    0.19147E-02   -0.46079E-03  3684   0.108E-01    0.275E-01
RMM:   9    -0.192005292987E+03    0.94788E-03   -0.15652E-03  3683   0.626E-02    0.106E-01
RMM:  10    -0.192005221751E+03    0.71236E-04   -0.39235E-04  3682   0.303E-02    0.757E-02
RMM:  11    -0.192005164006E+03    0.57745E-04   -0.13615E-04  3684   0.183E-02    0.340E-02
RMM:  12    -0.192005169592E+03   -0.55855E-05   -0.56194E-05  3683   0.118E-02    0.344E-02
RMM:  13    -0.192005160658E+03    0.89340E-05   -0.18867E-05  3675   0.715E-03    0.143E-02
RMM:  14    -0.192005160394E+03    0.26421E-06   -0.39342E-06  2781   0.334E-03
   4 F= -.19200516E+03 E0= -.19188715E+03  d E =-.522468E+00
       N       E                     dE             d eps       ncg     rms          rms(c)
DAV:   1    -0.191997316200E+03    0.78445E-02   -0.35437E+01  3744   0.918E+00    0.732E-01
RMM:   2    -0.192035784291E+03   -0.38468E-01   -0.40639E-01  3685   0.136E+00    0.493E-01
RMM:   3    -0.192040218575E+03   -0.44343E-02   -0.27516E-02  3710   0.291E-01    0.838E-01
RMM:   4    -0.192034045431E+03    0.61731E-02   -0.59799E-03  3687   0.135E-01    0.284E-01
RMM:   5    -0.192036925002E+03   -0.28796E-02   -0.47259E-03  3685   0.107E-01    0.588E-01
RMM:   6    -0.192035542103E+03    0.13829E-02   -0.36227E-03  3684   0.907E-02    0.452E-01
RMM:   7    -0.192033542610E+03    0.19995E-02   -0.17839E-03  3682   0.656E-02    0.129E-01
RMM:   8    -0.192033395921E+03    0.14669E-03   -0.43464E-04  3683   0.334E-02    0.843E-02
RMM:   9    -0.192033307302E+03    0.88619E-04   -0.14862E-04  3681   0.193E-02    0.339E-02
RMM:  10    -0.192033298002E+03    0.93005E-05   -0.39978E-05  3681   0.961E-03    0.207E-02
RMM:  11    -0.192033294337E+03    0.36645E-05   -0.13237E-05  3674   0.564E-03    0.982E-03
RMM:  12    -0.192033295656E+03   -0.13187E-05   -0.48732E-06  2966   0.357E-03    0.884E-03
RMM:  13    -0.192033295922E+03   -0.26642E-06   -0.16639E-06  2075   0.236E-03
   5 F= -.19203330E+03 E0= -.19191654E+03  d E =-.550603E+00
       N       E                     dE             d eps       ncg     rms          rms(c)
DAV:   1    -0.192046072608E+03   -0.12777E-01   -0.41742E+01  3672   0.999E+00    0.844E-01
RMM:   2    -0.192090131998E+03   -0.44059E-01   -0.47148E-01  3684   0.146E+00    0.531E-01
RMM:   3    -0.192098932539E+03   -0.88005E-02   -0.30376E-02  3707   0.303E-01    0.101E+00
RMM:   4    -0.192091749065E+03    0.71835E-02   -0.81060E-03  3687   0.146E-01    0.635E-01
RMM:   5    -0.192089544135E+03    0.22049E-02   -0.44811E-03  3684   0.104E-01    0.452E-01
RMM:   6    -0.192088951003E+03    0.59313E-03   -0.54193E-03  3683   0.117E-01    0.329E-01
RMM:   7    -0.192087960452E+03    0.99055E-03   -0.22199E-03  3682   0.750E-02    0.129E-01
RMM:   8    -0.192087831550E+03    0.12890E-03   -0.45586E-04  3683   0.344E-02    0.983E-02
RMM:   9    -0.192087708609E+03    0.12294E-03   -0.19588E-04  3682   0.224E-02    0.405E-02
RMM:  10    -0.192087692566E+03    0.16043E-04   -0.51423E-05  3682   0.110E-02    0.229E-02
RMM:  11    -0.192087686817E+03    0.57485E-05   -0.16976E-05  3673   0.635E-03    0.103E-02
RMM:  12    -0.192087686878E+03   -0.60551E-07   -0.69487E-06  3671   0.409E-03
   6 F= -.19208769E+03 E0= -.19197171E+03  d E =-.543910E-01
       N       E                     dE             d eps       ncg     rms          rms(c)
DAV:   1    -0.192087529534E+03    0.15728E-03   -0.17906E+00  3744   0.207E+00    0.169E-01
RMM:   2    -0.192089405131E+03   -0.18756E-02   -0.20248E-02  3684   0.303E-01    0.109E-01
RMM:   3    -0.192089685202E+03   -0.28007E-03   -0.12839E-03  3708   0.626E-02    0.188E-01
RMM:   4    -0.192089467092E+03    0.21811E-03   -0.32606E-04  3687   0.296E-02    0.131E-01
RMM:   5    -0.192089383985E+03    0.83107E-04   -0.17420E-04  3685   0.205E-02    0.965E-02
RMM:   6    -0.192089362186E+03    0.21799E-04   -0.23502E-04  3682   0.243E-02    0.710E-02
RMM:   7    -0.192089316199E+03    0.45988E-04   -0.10119E-04  3683   0.160E-02    0.268E-02
RMM:   8    -0.192089311267E+03    0.49320E-05   -0.19411E-05  3673   0.717E-03    0.198E-02
RMM:   9    -0.192089306501E+03    0.47658E-05   -0.84460E-06  3604   0.465E-03    0.926E-03
RMM:  10    -0.192089305410E+03    0.10911E-05   -0.23035E-06  2131   0.246E-03    0.460E-03
RMM:  11    -0.192089305253E+03    0.15661E-06   -0.93385E-07  1954   0.180E-03
   7 F= -.19208931E+03 E0= -.19197349E+03  d E =-.560093E-01
       N       E                     dE             d eps       ncg     rms          rms(c)
DAV:   1    -0.192093348088E+03   -0.40427E-02   -0.75938E+00  3696   0.425E+00    0.269E-01
RMM:   2    -0.192101293315E+03   -0.79452E-02   -0.84848E-02  3684   0.622E-01    0.202E-01
RMM:   3    -0.192101557482E+03   -0.26417E-03   -0.49405E-03  3718   0.125E-01    0.228E-01
RMM:   4    -0.192101180233E+03    0.37725E-03   -0.84541E-04  3682   0.501E-02    0.167E-01
RMM:   5    -0.192101467374E+03   -0.28714E-03   -0.48604E-04  3686   0.335E-02    0.242E-01
RMM:   6    -0.192101051122E+03    0.41625E-03   -0.79119E-04  3683   0.432E-02    0.148E-01
RMM:   7    -0.192100936371E+03    0.11475E-03   -0.55772E-04  3682   0.375E-02    0.775E-02
RMM:   8    -0.192100895587E+03    0.40784E-04   -0.10732E-04  3682   0.169E-02    0.390E-02
RMM:   9    -0.192100876103E+03    0.19484E-04   -0.32860E-05  3679   0.906E-03    0.253E-02
RMM:  10    -0.192100866517E+03    0.95855E-05   -0.20726E-05  3677   0.701E-03    0.151E-02
RMM:  11    -0.192100863728E+03    0.27894E-05   -0.78830E-06  3666   0.428E-03    0.757E-03
RMM:  12    -0.192100863231E+03    0.49673E-06   -0.38433E-06  2444   0.307E-03
   8 F= -.19210086E+03 E0= -.19198515E+03  d E =-.115580E-01
       N       E                     dE             d eps       ncg     rms          rms(c)
DAV:   1    -0.192100010427E+03    0.85330E-03   -0.31548E+00  3696   0.274E+00    0.171E-01
RMM:   2    -0.192103303963E+03   -0.32935E-02   -0.35240E-02  3684   0.401E-01    0.130E-01
RMM:   3    -0.192103402680E+03   -0.98718E-04   -0.20445E-03  3718   0.806E-02    0.145E-01
RMM:   4    -0.192103234417E+03    0.16826E-03   -0.33924E-04  3682   0.319E-02    0.989E-02
RMM:   5    -0.192103397531E+03   -0.16311E-03   -0.22019E-04  3685   0.226E-02    0.163E-01
RMM:   6    -0.192103216621E+03    0.18091E-03   -0.31462E-04  3683   0.270E-02    0.102E-01
RMM:   7    -0.192103157734E+03    0.58887E-04   -0.22929E-04  3682   0.240E-02    0.503E-02
RMM:   8    -0.192103141572E+03    0.16162E-04   -0.44407E-05  3681   0.109E-02    0.252E-02
RMM:   9    -0.192103133720E+03    0.78520E-05   -0.13546E-05  3672   0.582E-03    0.168E-02
RMM:  10    -0.192103129477E+03    0.42431E-05   -0.88111E-06  3672   0.457E-03    0.968E-03
RMM:  11    -0.192103128307E+03    0.11694E-05   -0.29994E-06  2278   0.278E-03    0.518E-03
RMM:  12    -0.192103128115E+03    0.19278E-06   -0.20354E-06  1952   0.248E-03
   9 F= -.19210313E+03 E0= -.19198748E+03  d E =-.138229E-01
       N       E                     dE             d eps       ncg     rms          rms(c)
DAV:   1    -0.192104499553E+03   -0.13712E-02   -0.89589E+00  3672   0.461E+00    0.220E-01
RMM:   2    -0.192114372347E+03   -0.98728E-02   -0.99438E-02  3682   0.679E-01    0.302E-01
RMM:   3    -0.192114194113E+03    0.17823E-03   -0.64355E-03  3808   0.142E-01    0.221E-01
RMM:   4    -0.192113916900E+03    0.27721E-03   -0.62913E-04  3675   0.434E-02    0.192E-01
RMM:   5    -0.192113932497E+03   -0.15597E-04   -0.27336E-04  3691   0.258E-02    0.216E-01
RMM:   6    -0.192113599078E+03    0.33342E-03   -0.66256E-04  3682   0.395E-02    0.162E-01
RMM:   7    -0.192113452892E+03    0.14619E-03   -0.14219E-03  3684   0.582E-02    0.889E-02
RMM:   8    -0.192113452763E+03    0.12882E-06   -0.31053E-04  3684   0.275E-02    0.552E-02
RMM:   9    -0.192113428700E+03    0.24063E-04   -0.30761E-05  3678   0.911E-03    0.456E-02
RMM:  10    -0.192113395548E+03    0.33153E-04   -0.46356E-05  3680   0.104E-02    0.256E-02
RMM:  11    -0.192113385838E+03    0.97093E-05   -0.32404E-05  3674   0.848E-03    0.139E-02
RMM:  12    -0.192113384237E+03    0.16007E-05   -0.25240E-05  3679   0.740E-03    0.643E-03
RMM:  13    -0.192113384348E+03   -0.11027E-06   -0.20033E-06  2063   0.244E-03
  10 F= -.19211338E+03 E0= -.19199761E+03  d E =-.102562E-01
       N       E                     dE             d eps       ncg     rms          rms(c)
DAV:   1    -0.192103590182E+03    0.97941E-02   -0.17304E+01  3672   0.640E+00    0.303E-01
RMM:   2    -0.192122686841E+03   -0.19097E-01   -0.19168E-01  3682   0.943E-01    0.418E-01
RMM:   3    -0.192122382911E+03    0.30393E-03   -0.12381E-02  3806   0.197E-01    0.309E-01
RMM:   4    -0.192121873933E+03    0.50898E-03   -0.12162E-03  3675   0.601E-02    0.274E-01
RMM:   5    -0.192121780164E+03    0.93770E-04   -0.49855E-04  3691   0.350E-02    0.287E-01
RMM:   6    -0.192121165111E+03    0.61505E-03   -0.12880E-03  3682   0.551E-02    0.223E-01
RMM:   7    -0.192120860226E+03    0.30488E-03   -0.27738E-03  3685   0.812E-02    0.124E-01
RMM:   8    -0.192120856148E+03    0.40779E-05   -0.60898E-04  3685   0.385E-02    0.774E-02
RMM:   9    -0.192120809524E+03    0.46625E-04   -0.60278E-05  3687   0.128E-02    0.638E-02
RMM:  10    -0.192120744569E+03    0.64955E-04   -0.90140E-05  3677   0.145E-02    0.360E-02
RMM:  11    -0.192120725458E+03    0.19111E-04   -0.64342E-05  3679   0.119E-02    0.193E-02
RMM:  12    -0.192120722768E+03    0.26898E-05   -0.50441E-05  3678   0.105E-02    0.893E-03
RMM:  13    -0.192120723021E+03   -0.25288E-06   -0.41028E-06  2716   0.334E-03
  11 F= -.19212072E+03 E0= -.19200477E+03  d E =-.175949E-01
       N       E                     dE             d eps       ncg     rms          rms(c)
DAV:   1    -0.192118327186E+03    0.23956E-02   -0.32355E+00  3684   0.277E+00    0.130E-01
RMM:   2    -0.192121869077E+03   -0.35419E-02   -0.35805E-02  3682   0.408E-01    0.181E-01
RMM:   3    -0.192121795929E+03    0.73148E-04   -0.23138E-03  3813   0.854E-02    0.135E-01
RMM:   4    -0.192121709850E+03    0.86080E-04   -0.22564E-04  3675   0.258E-02    0.122E-01
RMM:   5    -0.192121676322E+03    0.33528E-04   -0.88384E-05  3690   0.148E-02    0.120E-01
RMM:   6    -0.192121580805E+03    0.95516E-04   -0.24282E-04  3681   0.240E-02    0.957E-02
RMM:   7    -0.192121541089E+03    0.39717E-04   -0.53663E-04  3684   0.357E-02    0.547E-02
RMM:   8    -0.192121543135E+03   -0.20463E-05   -0.11847E-04  3684   0.170E-02    0.341E-02
RMM:   9    -0.192121534400E+03    0.87349E-05   -0.11385E-05  3604   0.556E-03    0.282E-02
RMM:  10    -0.192121521843E+03    0.12558E-04   -0.17131E-05  3672   0.635E-03    0.159E-02
RMM:  11    -0.192121518178E+03    0.36646E-05   -0.13234E-05  3673   0.543E-03    0.826E-03
RMM:  12    -0.192121517887E+03    0.29137E-06   -0.97641E-06  3671   0.462E-03
  12 F= -.19212152E+03 E0= -.19200549E+03  d E =-.183898E-01
       N       E                     dE             d eps       ncg     rms          rms(c)
DAV:   1    -0.192119432342E+03    0.20858E-02   -0.95104E+00  3672   0.475E+00    0.232E-01
RMM:   2    -0.192130107886E+03   -0.10676E-01   -0.10726E-01  3683   0.703E-01    0.331E-01
RMM:   3    -0.192129831866E+03    0.27602E-03   -0.70566E-03  3739   0.148E-01    0.242E-01
RMM:   4    -0.192129485152E+03    0.34671E-03   -0.69389E-04  3678   0.460E-02    0.198E-01
RMM:   5    -0.192129424916E+03    0.60237E-04   -0.26211E-04  3689   0.256E-02    0.204E-01
RMM:   6    -0.192129105538E+03    0.31938E-03   -0.68734E-04  3683   0.402E-02    0.156E-01
RMM:   7    -0.192128974948E+03    0.13059E-03   -0.15039E-03  3683   0.595E-02    0.870E-02
RMM:   8    -0.192128976312E+03   -0.13644E-05   -0.31231E-04  3683   0.276E-02    0.549E-02
RMM:   9    -0.192128950617E+03    0.25695E-04   -0.32636E-05  3680   0.943E-03    0.442E-02
RMM:  10    -0.192128919137E+03    0.31480E-04   -0.44887E-05  3678   0.102E-02    0.249E-02
RMM:  11    -0.192128910542E+03    0.85952E-05   -0.29528E-05  3676   0.806E-03    0.136E-02
RMM:  12    -0.192128909299E+03    0.12428E-05   -0.26790E-05  3677   0.762E-03    0.605E-03
RMM:  13    -0.192128909394E+03   -0.94951E-07   -0.15012E-06  2026   0.217E-03
  13 F= -.19212891E+03 E0= -.19201251E+03  d E =-.739151E-02
       N       E                     dE             d eps       ncg     rms          rms(c)
DAV:   1    -0.192120496180E+03    0.84131E-02   -0.11125E+01  3672   0.514E+00    0.251E-01
RMM:   2    -0.192132983442E+03   -0.12487E-01   -0.12544E-01  3683   0.760E-01    0.355E-01
RMM:   3    -0.192132695142E+03    0.28830E-03   -0.82521E-03  3738   0.160E-01    0.265E-01
RMM:   4    -0.192132296589E+03    0.39855E-03   -0.82417E-04  3678   0.499E-02    0.220E-01
RMM:   5    -0.192132166431E+03    0.13016E-03   -0.30045E-04  3689   0.275E-02    0.212E-01
RMM:   6    -0.192131825554E+03    0.34088E-03   -0.79795E-04  3683   0.434E-02    0.168E-01
RMM:   7    -0.192131664429E+03    0.16113E-03   -0.17489E-03  3683   0.642E-02    0.946E-02
RMM:   8    -0.192131666046E+03   -0.16172E-05   -0.37128E-04  3683   0.301E-02    0.595E-02
RMM:   9    -0.192131636216E+03    0.29831E-04   -0.38657E-05  3684   0.103E-02    0.478E-02
RMM:  10    -0.192131599622E+03    0.36594E-04   -0.51891E-05  3676   0.109E-02    0.271E-02
RMM:  11    -0.192131589663E+03    0.99588E-05   -0.34040E-05  3677   0.865E-03    0.150E-02
RMM:  12    -0.192131588179E+03    0.14837E-05   -0.31486E-05  3678   0.825E-03    0.692E-03
RMM:  13    -0.192131588316E+03   -0.13690E-06   -0.19686E-06  2089   0.246E-03
  14 F= -.19213159E+03 E0= -.19201480E+03  d E =-.100704E-01
       N       E                     dE             d eps       ncg     rms          rms(c)
DAV:   1    -0.192130159407E+03    0.14288E-02   -0.58938E+00  3672   0.375E+00    0.190E-01
RMM:   2    -0.192136640538E+03   -0.64811E-02   -0.65749E-02  3683   0.551E-01    0.234E-01
RMM:   3    -0.192136575100E+03    0.65438E-04   -0.42892E-03  3722   0.115E-01    0.203E-01
RMM:   4    -0.192136281804E+03    0.29330E-03   -0.45102E-04  3679   0.373E-02    0.145E-01
RMM:   5    -0.192136224509E+03    0.57295E-04   -0.13755E-04  3690   0.187E-02    0.138E-01
RMM:   6    -0.192136109543E+03    0.11497E-03   -0.35498E-04  3684   0.291E-02    0.119E-01
RMM:   7    -0.192136019271E+03    0.90272E-04   -0.83310E-04  3681   0.445E-02    0.603E-02
RMM:   8    -0.192136021813E+03   -0.25417E-05   -0.14755E-04  3680   0.191E-02    0.380E-02
RMM:   9    -0.192136008421E+03    0.13392E-04   -0.18371E-05  3674   0.707E-03    0.280E-02
RMM:  10    -0.192135996617E+03    0.11804E-04   -0.18331E-05  3674   0.660E-03    0.165E-02
RMM:  11    -0.192135993690E+03    0.29268E-05   -0.11451E-05  3674   0.507E-03    0.961E-03
RMM:  12    -0.192135993380E+03    0.31027E-06   -0.90580E-06  3670   0.448E-03
  15 F= -.19213599E+03 E0= -.19201898E+03  d E =-.440506E-02
       N       E                     dE             d eps       ncg     rms          rms(c)
DAV:   1    -0.192133237358E+03    0.27563E-02   -0.43023E+00  3672   0.320E+00    0.162E-01
RMM:   2    -0.192137964861E+03   -0.47275E-02   -0.47987E-02  3683   0.470E-01    0.200E-01
RMM:   3    -0.192137904644E+03    0.60217E-04   -0.31298E-03  3722   0.986E-02    0.171E-01
RMM:   4    -0.192137687051E+03    0.21759E-03   -0.32224E-04  3678   0.317E-02    0.120E-01
RMM:   5    -0.192137663744E+03    0.23306E-04   -0.10002E-04  3690   0.159E-02    0.121E-01
RMM:   6    -0.192137579276E+03    0.84468E-04   -0.25761E-04  3683   0.247E-02    0.103E-01
RMM:   7    -0.192137513812E+03    0.65463E-04   -0.61170E-04  3681   0.381E-02    0.514E-02
RMM:   8    -0.192137516923E+03   -0.31104E-05   -0.10802E-04  3680   0.163E-02    0.325E-02
RMM:   9    -0.192137507249E+03    0.96741E-05   -0.13399E-05  3671   0.604E-03    0.240E-02
RMM:  10    -0.192137498583E+03    0.86659E-05   -0.13329E-05  3672   0.563E-03    0.143E-02
RMM:  11    -0.192137496446E+03    0.21365E-05   -0.82231E-06  3628   0.431E-03    0.843E-03
RMM:  12    -0.192137496164E+03    0.28192E-06   -0.67154E-06  3551   0.388E-03
  16 F= -.19213750E+03 E0= -.19202030E+03  d E =-.590785E-02
       N       E                     dE             d eps       ncg     rms          rms(c)
DAV:   1    -0.192137283966E+03    0.21248E-03   -0.35230E+00  3684   0.290E+00    0.137E-01
RMM:   2    -0.192141091599E+03   -0.38076E-02   -0.38696E-02  3682   0.424E-01    0.169E-01
RMM:   3    -0.192141009108E+03    0.82491E-04   -0.24339E-03  3723   0.874E-02    0.133E-01
RMM:   4    -0.192140845823E+03    0.16329E-03   -0.22249E-04  3675   0.270E-02    0.895E-02
RMM:   5    -0.192140833025E+03    0.12798E-04   -0.98653E-05  3684   0.163E-02    0.996E-02
RMM:   6    -0.192140944389E+03   -0.11136E-03   -0.30619E-04  3683   0.263E-02    0.152E-01
RMM:   7    -0.192140731796E+03    0.21259E-03   -0.37455E-04  3682   0.295E-02    0.454E-02
RMM:   8    -0.192140744281E+03   -0.12485E-04   -0.66950E-05  3681   0.131E-02    0.296E-02
RMM:   9    -0.192140736339E+03    0.79426E-05   -0.93518E-06  3609   0.502E-03    0.200E-02
RMM:  10    -0.192140730765E+03    0.55736E-05   -0.10381E-05  3672   0.494E-03    0.128E-02
RMM:  11    -0.192140728521E+03    0.22442E-05   -0.96383E-06  3674   0.465E-03    0.541E-03
RMM:  12    -0.192140728630E+03   -0.10960E-06   -0.29597E-06  2124   0.277E-03
  17 F= -.19214073E+03 E0= -.19202338E+03  d E =-.323247E-02
       N       E                     dE             d eps       ncg     rms          rms(c)
DAV:   1    -0.192139642031E+03    0.10865E-02   -0.23560E+00  3672   0.237E+00    0.112E-01
RMM:   2    -0.192142184155E+03   -0.25421E-02   -0.25864E-02  3682   0.347E-01    0.139E-01
RMM:   3    -0.192142124706E+03    0.59449E-04   -0.16265E-03  3723   0.714E-02    0.109E-01
RMM:   4    -0.192142016827E+03    0.10788E-03   -0.14764E-04  3675   0.220E-02    0.732E-02
RMM:   5    -0.192142007997E+03    0.88298E-05   -0.66780E-05  3683   0.134E-02    0.807E-02
RMM:   6    -0.192142091271E+03   -0.83274E-04   -0.21922E-04  3681   0.223E-02    0.126E-01
RMM:   7    -0.192141947043E+03    0.14423E-03   -0.23931E-04  3684   0.236E-02    0.385E-02
RMM:   8    -0.192141955494E+03   -0.84510E-05   -0.44487E-05  3680   0.107E-02    0.244E-02
RMM:   9    -0.192141950223E+03    0.52712E-05   -0.61905E-06  3010   0.412E-03    0.165E-02
RMM:  10    -0.192141946757E+03    0.34661E-05   -0.66740E-06  3593   0.403E-03    0.113E-02
RMM:  11    -0.192141945157E+03    0.16002E-05   -0.60733E-06  3480   0.374E-03    0.552E-03
RMM:  12    -0.192141945098E+03    0.59037E-07   -0.22127E-06  2016   0.246E-03
  18 F= -.19214195E+03 E0= -.19202447E+03  d E =-.444893E-02
       N       E                     dE             d eps       ncg     rms          rms(c)
DAV:   1    -0.192141842881E+03    0.10228E-03   -0.30202E+00  3672   0.268E+00    0.121E-01
RMM:   2    -0.192145153546E+03   -0.33107E-02   -0.33163E-02  3677   0.393E-01    0.171E-01
RMM:   3    -0.192145025244E+03    0.12830E-03   -0.21367E-03  3748   0.822E-02    0.113E-01
RMM:   4    -0.192144919610E+03    0.10563E-03   -0.17434E-04  3679   0.238E-02    0.900E-02
RMM:   5    -0.192144910827E+03    0.87825E-05   -0.95935E-05  3685   0.160E-02    0.102E-01
RMM:   6    -0.192145002383E+03   -0.91556E-04   -0.28987E-04  3682   0.255E-02    0.148E-01
RMM:   7    -0.192144803053E+03    0.19933E-03   -0.37151E-04  3682   0.293E-02    0.443E-02
RMM:   8    -0.192144818244E+03   -0.15191E-04   -0.69121E-05  3682   0.132E-02    0.312E-02
RMM:   9    -0.192144810827E+03    0.74172E-05   -0.70741E-06  3209   0.448E-03    0.226E-02
RMM:  10    -0.192144803831E+03    0.69958E-05   -0.13108E-05  3672   0.555E-03    0.155E-02
RMM:  11    -0.192144800362E+03    0.34689E-05   -0.14352E-05  3674   0.565E-03    0.516E-03
RMM:  12    -0.192144800513E+03   -0.15099E-06   -0.26124E-06  2082   0.265E-03
  19 F= -.19214480E+03 E0= -.19202716E+03  d E =-.285542E-02
       N       E                     dE             d eps       ncg     rms          rms(c)
DAV:   1    -0.192143378120E+03    0.14222E-02   -0.33126E+00  3672   0.281E+00    0.127E-01
RMM:   2    -0.192147007368E+03   -0.36292E-02   -0.36346E-02  3677   0.412E-01    0.179E-01
RMM:   3    -0.192146865989E+03    0.14138E-03   -0.23391E-03  3751   0.860E-02    0.118E-01
RMM:   4    -0.192146750700E+03    0.11529E-03   -0.18948E-04  3678   0.248E-02    0.945E-02
RMM:   5    -0.192146739070E+03    0.11630E-04   -0.10694E-04  3684   0.169E-02    0.107E-01
RMM:   6    -0.192146844399E+03   -0.10533E-03   -0.33489E-04  3681   0.275E-02    0.157E-01
RMM:   7    -0.192146620342E+03    0.22406E-03   -0.39671E-04  3681   0.303E-02    0.474E-02
RMM:   8    -0.192146636865E+03   -0.16524E-04   -0.75490E-05  3681   0.138E-02    0.328E-02
RMM:   9    -0.192146628701E+03    0.81644E-05   -0.78028E-06  3335   0.469E-03    0.238E-02
RMM:  10    -0.192146621062E+03    0.76393E-05   -0.14380E-05  3672   0.581E-03    0.163E-02
RMM:  11    -0.192146617121E+03    0.39402E-05   -0.16066E-05  3677   0.596E-03    0.545E-03
RMM:  12    -0.192146617259E+03   -0.13706E-06   -0.28788E-06  2142   0.277E-03
  20 F= -.19214662E+03 E0= -.19202880E+03  d E =-.467216E-02
       N       E                     dE             d eps       ncg     rms          rms(c)
DAV:   1    -0.192133676669E+03    0.12940E-01   -0.13252E+01  3672   0.561E+00    0.254E-01
RMM:   2    -0.192148312193E+03   -0.14636E-01   -0.14555E-01  3677   0.824E-01    0.359E-01
RMM:   3    -0.192147785926E+03    0.52627E-03   -0.93849E-03  3749   0.172E-01    0.236E-01
RMM:   4    -0.192147292281E+03    0.49364E-03   -0.76240E-04  3678   0.498E-02    0.188E-01
RMM:   5    -0.192147196434E+03    0.95847E-04   -0.44660E-04  3686   0.346E-02    0.209E-01
RMM:   6    -0.192147607797E+03   -0.41136E-03   -0.15570E-03  3683   0.593E-02    0.314E-01
RMM:   7    -0.192146693093E+03    0.91470E-03   -0.13420E-03  3685   0.555E-02    0.100E-01
RMM:   8    -0.192146723360E+03   -0.30266E-04   -0.28549E-04  3686   0.269E-02    0.648E-02
RMM:   9    -0.192146691163E+03    0.32196E-04   -0.30705E-05  3686   0.924E-03    0.470E-02
RMM:  10    -0.192146660746E+03    0.30418E-04   -0.59627E-05  3681   0.117E-02    0.318E-02
RMM:  11    -0.192146646197E+03    0.14549E-04   -0.60553E-05  3679   0.115E-02    0.103E-02
RMM:  12    -0.192146646985E+03   -0.78835E-06   -0.12404E-05  3672   0.532E-03    0.753E-03
RMM:  13    -0.192146647099E+03   -0.11441E-06   -0.20794E-06  2096   0.245E-03
  21 F= -.19214665E+03 E0= -.19202848E+03  d E =-.470200E-02
       N       E                     dE             d eps       ncg     rms          rms(c)
DAV:   1    -0.192143716541E+03    0.29304E-02   -0.35690E+00  3672   0.291E+00    0.133E-01
RMM:   2    -0.192147617594E+03   -0.39011E-02   -0.39284E-02  3678   0.428E-01    0.181E-01
RMM:   3    -0.192147491966E+03    0.12563E-03   -0.25254E-03  3748   0.893E-02    0.123E-01
RMM:   4    -0.192147363285E+03    0.12868E-03   -0.21367E-04  3678   0.263E-02    0.960E-02
RMM:   5    -0.192147350466E+03    0.12819E-04   -0.11847E-04  3683   0.178E-02    0.109E-01
RMM:   6    -0.192147459080E+03   -0.10861E-03   -0.36595E-04  3681   0.288E-02    0.159E-01
RMM:   7    -0.192147231493E+03    0.22759E-03   -0.37780E-04  3682   0.295E-02    0.496E-02
RMM:   8    -0.192147246603E+03   -0.15110E-04   -0.77563E-05  3682   0.140E-02    0.336E-02
RMM:   9    -0.192147237953E+03    0.86495E-05   -0.84715E-06  3458   0.488E-03    0.239E-02
RMM:  10    -0.192147230595E+03    0.73588E-05   -0.14034E-05  3672   0.575E-03    0.166E-02
RMM:  11    -0.192147226636E+03    0.39583E-05   -0.16323E-05  3676   0.601E-03    0.568E-03
RMM:  12    -0.192147226662E+03   -0.25320E-07   -0.31204E-06  2227   0.286E-03
  22 F= -.19214723E+03 E0= -.19202923E+03  d E =-.528156E-02
       N       E                     dE             d eps       ncg     rms          rms(c)
DAV:   1    -0.192145932378E+03    0.12943E-02   -0.31739E+00  3672   0.275E+00    0.122E-01
RMM:   2    -0.192149405096E+03   -0.34727E-02   -0.34859E-02  3676   0.404E-01    0.173E-01
RMM:   3    -0.192149277602E+03    0.12749E-03   -0.22427E-03  3770   0.842E-02    0.114E-01
RMM:   4    -0.192149182453E+03    0.95148E-04   -0.17734E-04  3677   0.239E-02    0.963E-02
RMM:   5    -0.192149208739E+03   -0.26286E-04   -0.81428E-05  3690   0.144E-02    0.120E-01
RMM:   6    -0.192149161540E+03    0.47199E-04   -0.23977E-04  3683   0.235E-02    0.118E-01
RMM:   7    -0.192149052596E+03    0.10894E-03   -0.47978E-04  3680   0.336E-02    0.424E-02
RMM:   8    -0.192149068229E+03   -0.15633E-04   -0.85064E-05  3680   0.144E-02    0.329E-02
RMM:   9    -0.192149062759E+03    0.54700E-05   -0.76406E-06  3282   0.466E-03    0.253E-02
RMM:  10    -0.192149053419E+03    0.93399E-05   -0.15934E-05  3672   0.611E-03    0.166E-02
RMM:  11    -0.192149049202E+03    0.42172E-05   -0.17985E-05  3674   0.632E-03    0.480E-03
RMM:  12    -0.192149049468E+03   -0.26559E-06   -0.31037E-06  2192   0.285E-03
  23 F= -.19214905E+03 E0= -.19203092E+03  d E =-.182281E-02
       N       E                     dE             d eps       ncg     rms          rms(c)
DAV:   1    -0.192146732395E+03    0.23168E-02   -0.32938E+00  3672   0.280E+00    0.123E-01
RMM:   2    -0.192150337155E+03   -0.36048E-02   -0.36077E-02  3676   0.411E-01    0.179E-01
RMM:   3    -0.192150188719E+03    0.14844E-03   -0.23140E-03  3776   0.857E-02    0.116E-01
RMM:   4    -0.192150086263E+03    0.10246E-03   -0.17435E-04  3677   0.238E-02    0.968E-02
RMM:   5    -0.192150077513E+03    0.87497E-05   -0.11314E-04  3686   0.174E-02    0.112E-01
RMM:   6    -0.192150172966E+03   -0.95452E-04   -0.38074E-04  3683   0.294E-02    0.158E-01
RMM:   7    -0.192149946946E+03    0.22602E-03   -0.36924E-04  3682   0.291E-02    0.486E-02
RMM:   8    -0.192149965839E+03   -0.18893E-04   -0.78076E-05  3682   0.139E-02    0.341E-02
RMM:   9    -0.192149959672E+03    0.61674E-05   -0.75536E-06  3257   0.462E-03    0.262E-02
RMM:  10    -0.192149950316E+03    0.93555E-05   -0.15822E-05  3672   0.610E-03    0.179E-02
RMM:  11    -0.192149945369E+03    0.49476E-05   -0.20049E-05  3676   0.668E-03    0.569E-03
RMM:  12    -0.192149945531E+03   -0.16246E-06   -0.34429E-06  2392   0.297E-03
  24 F= -.19214995E+03 E0= -.19203168E+03  d E =-.271887E-02
       N       E                     dE             d eps       ncg     rms          rms(c)
DAV:   1    -0.192149517309E+03    0.42806E-03   -0.56005E-01  3696   0.115E+00    0.504E-02
RMM:   2    -0.192150124168E+03   -0.60686E-03   -0.61203E-03  3678   0.170E-01    0.745E-02
RMM:   3    -0.192150094013E+03    0.30155E-04   -0.39047E-04  3778   0.352E-02    0.478E-02
RMM:   4    -0.192150078160E+03    0.15854E-04   -0.28827E-05  3675   0.968E-03    0.404E-02
RMM:   5    -0.192150076556E+03    0.16034E-05   -0.19721E-05  3677   0.728E-03    0.450E-02
RMM:   6    -0.192150097618E+03   -0.21062E-04   -0.83774E-05  3683   0.138E-02    0.643E-02
RMM:   7    -0.192150061114E+03    0.36504E-04   -0.51067E-05  3678   0.108E-02    0.221E-02
RMM:   8    -0.192150064836E+03   -0.37216E-05   -0.12623E-05  3670   0.563E-03    0.144E-02
RMM:   9    -0.192150063739E+03    0.10969E-05   -0.11974E-06  2022   0.191E-03    0.111E-02
RMM:  10    -0.192150062138E+03    0.16009E-05   -0.23392E-06  1983   0.255E-03    0.810E-03
RMM:  11    -0.192150061168E+03    0.97012E-06   -0.41772E-06  2711   0.335E-03
  25 F= -.19215006E+03 E0= -.19203174E+03  d E =-.283451E-02
       N       E                     dE             d eps       ncg     rms          rms(c)
DAV:   1    -0.192150334100E+03   -0.27196E-03   -0.40121E-01  3684   0.981E-01    0.562E-02
RMM:   2    -0.192150757257E+03   -0.42316E-03   -0.44775E-03  3682   0.143E-01    0.478E-02
RMM:   3    -0.192150764864E+03   -0.76070E-05   -0.26613E-04  3715   0.286E-02    0.480E-02
RMM:   4    -0.192150748559E+03    0.16304E-04   -0.37425E-05  3675   0.106E-02    0.375E-02
RMM:   5    -0.192150755550E+03   -0.69912E-05   -0.17422E-05  3675   0.638E-03    0.462E-02
RMM:   6    -0.192150745308E+03    0.10242E-04   -0.51267E-05  3680   0.111E-02    0.323E-02
RMM:   7    -0.192150739427E+03    0.58815E-05   -0.28962E-05  3673   0.844E-03    0.140E-02
RMM:   8    -0.192150739302E+03    0.12439E-06   -0.43379E-06  2756   0.341E-03
  26 F= -.19215074E+03 E0= -.19203245E+03  d E =-.678135E-03
       N       E                     dE             d eps       ncg     rms          rms(c)
DAV:   1    -0.192150566946E+03    0.17248E-03   -0.38298E-01  3672   0.958E-01    0.573E-02
RMM:   2    -0.192150973266E+03   -0.40632E-03   -0.43536E-03  3683   0.140E-01    0.457E-02
RMM:   3    -0.192150985199E+03   -0.11933E-04   -0.26199E-04  3715   0.283E-02    0.470E-02
RMM:   4    -0.192150965181E+03    0.20019E-04   -0.38186E-05  3676   0.108E-02    0.303E-02
RMM:   5    -0.192150988593E+03   -0.23412E-04   -0.21925E-05  3673   0.713E-03    0.557E-02
RMM:   6    -0.192150964386E+03    0.24206E-04   -0.40278E-05  3676   0.977E-03    0.271E-02
RMM:   7    -0.192150961183E+03    0.32034E-05   -0.22162E-05  3672   0.743E-03    0.100E-02
RMM:   8    -0.192150961293E+03   -0.10967E-06   -0.23803E-06  2344   0.259E-03
  27 F= -.19215096E+03 E0= -.19203268E+03  d E =-.900125E-03
       N       E                     dE             d eps       ncg     rms          rms(c)
DAV:   1    -0.192150994004E+03   -0.32821E-04   -0.31032E-01  3672   0.861E-01    0.480E-02
RMM:   2    -0.192151331777E+03   -0.33777E-03   -0.36146E-03  3684   0.127E-01    0.417E-02
RMM:   3    -0.192151339064E+03   -0.72870E-05   -0.22414E-04  3716   0.261E-02    0.416E-02
RMM:   4    -0.192151329220E+03    0.98445E-05   -0.29386E-05  3673   0.933E-03    0.352E-02
RMM:   5    -0.192151326778E+03    0.24421E-05   -0.99484E-06  3541   0.492E-03    0.323E-02
RMM:   6    -0.192151324574E+03    0.22041E-05   -0.33676E-05  3682   0.895E-03    0.276E-02
RMM:   7    -0.192151320886E+03    0.36875E-05   -0.25525E-05  3672   0.783E-03    0.123E-02
RMM:   8    -0.192151321500E+03   -0.61414E-06   -0.40677E-06  2741   0.329E-03
  28 F= -.19215132E+03 E0= -.19203305E+03  d E =-.360208E-03
