<?xml version="1.0" encoding="ISO-8859-1"?>
<modeling>
 <generator>
  <i name="program" type="string">vasp </i>
  <i name="version" type="string">5.4.1  </i>
  <i name="subversion" type="string">24Jun15 (build Mar 14 2019 10:18:33) complex                          parallel </i>
  <i name="platform" type="string">INTEL-19.0.2+OPENMPI-3.1.3 </i>
  <i name="date" type="string">2022 07 15 </i>
  <i name="time" type="string">21:12:19 </i>
 </generator>
 <incar>
  <i type="int" name="ISTART">     0</i>
  <i type="string" name="PREC">normal</i>
  <i type="string" name="ALGO"> Fast</i>
  <i type="int" name="NELM">   500</i>
  <i type="int" name="IBRION">     2</i>
  <i type="int" name="NFREE">     2</i>
  <i name="EDIFF">      0.00000100</i>
  <i name="EDIFFG">     -0.02000000</i>
  <i type="int" name="NSW">   500</i>
  <i type="int" name="ISIF">     0</i>
  <i type="int" name="ISYM">     2</i>
  <i name="ENCUT">    400.00000000</i>
  <i name="POTIM">      0.35000000</i>
  <i type="string" name="LREAL"> Auto</i>
  <i type="logical" name="LPLANE"> T  </i>
  <i type="int" name="ISMEAR">     0</i>
  <i name="SIGMA">      0.10000000</i>
  <i type="int" name="NWRITE">     1</i>
  <i type="logical" name="LWAVE"> F  </i>
  <i type="logical" name="LCHARG"> F  </i>
  <i type="logical" name="LVTOT"> F  </i>
  <i type="logical" name="LORBIT"> F  </i>
  <i type="logical" name="LAECHG"> F  </i>
  <v type="int" name="KPOINT_BSE">    -1     0     0     0</v>
  <i type="int" name="NELM">   500</i>
  <i type="string" name="GGA"> PE          ! optPBE-vdW XC-functional</i>
  <i type="int" name="VOSKOWN">     1</i>
  <i type="logical" name="LDIPOL"> T  </i>
  <i type="logical" name="LMONO"> F  </i>
  <i type="int" name="IDIPOL">     3</i>
  <v name="DIPOL">      0.00000000      0.00000000      0.50000000</v>
 </incar>
 <kpoints>
  <generation param="Monkhorst-Pack">
   <v type="int" name="divisions">       2        2        1 </v>
   <v name="usershift">      0.00000000       0.00000000       0.00000000 </v>
   <v name="genvec1">      0.50000000      -0.00000000       0.00000000 </v>
   <v name="genvec2">      0.00000000       0.50000000       0.00000000 </v>
   <v name="genvec3">      0.00000000       0.00000000       1.00000000 </v>
   <v name="shift">      0.50000000       0.50000000       0.00000000 </v>
  </generation>
  <varray name="kpointlist" >
   <v>       0.25000000       0.25000000       0.00000000 </v>
   <v>       0.00000000       0.25000000       0.00000000 </v>
   <v>      -0.25000000       0.00000000       0.00000000 </v>
   <v>      -0.25000000       0.25000000       0.00000000 </v>
   <v>       0.50000000      -0.25000000       0.00000000 </v>
   <v>      -0.25000000       0.50000000       0.00000000 </v>
  </varray>
  <varray name="weights" >
   <v>       0.16666667 </v>
   <v>       0.16666667 </v>
   <v>       0.16666667 </v>
   <v>       0.16666667 </v>
   <v>       0.16666667 </v>
   <v>       0.16666667 </v>
  </varray>
 </kpoints>
 <parameters>
  <separator name="general" >
   <i type="string" name="SYSTEM">unknown system</i>
   <i type="logical" name="LCOMPAT"> F  </i>
  </separator>
  <separator name="electronic" >
   <i type="string" name="PREC">normal</i>
   <i name="ENMAX">    400.00000000</i>
   <i name="ENAUG">    416.23000000</i>
   <i name="EDIFF">      0.00000100</i>
   <i type="int" name="IALGO">    68</i>
   <i type="int" name="IWAVPR">    11</i>
   <i type="int" name="NBANDS">   306</i>
   <i name="NELECT">    504.00000000</i>
   <i type="int" name="TURBO">     0</i>
   <i type="int" name="IRESTART">     0</i>
   <i type="int" name="NREBOOT">     0</i>
   <i type="int" name="NMIN">     0</i>
   <i name="EREF">      0.00000000</i>
   <separator name="electronic smearing" >
    <i type="int" name="ISMEAR">     0</i>
    <i name="SIGMA">      0.10000000</i>
    <i name="KSPACING">      0.50000000</i>
    <i type="logical" name="KGAMMA"> T  </i>
   </separator>
   <separator name="electronic projectors" >
    <i type="logical" name="LREAL"> T  </i>
    <v name="ROPT">     -0.00050000     -0.00050000</v>
    <i type="int" name="LMAXPAW">  -100</i>
    <i type="int" name="LMAXMIX">     2</i>
    <i type="logical" name="NLSPLINE"> F  </i>
   </separator>
   <separator name="electronic startup" >
    <i type="int" name="ISTART">     0</i>
    <i type="int" name="ICHARG">     2</i>
    <i type="int" name="INIWAV">     1</i>
   </separator>
   <separator name="electronic spin" >
    <i type="int" name="ISPIN">     1</i>
    <i type="logical" name="LNONCOLLINEAR"> F  </i>
    <v name="MAGMOM">      1.00000000      1.00000000      1.00000000      1.00000000      1.00000000      1.00000000      1.00000000      1.00000000      1.00000000      1.00000000      1.00000000      1.00000000      1.00000000      1.00000000      1.00000000      1.00000000      1.00000000      1.00000000      1.00000000      1.00000000
      1.00000000      1.00000000      1.00000000      1.00000000      1.00000000      1.00000000      1.00000000      1.00000000      1.00000000      1.00000000      1.00000000      1.00000000      1.00000000      1.00000000      1.00000000      1.00000000      1.00000000      1.00000000      1.00000000      1.00000000
      1.00000000      1.00000000      1.00000000      1.00000000      1.00000000      1.00000000      1.00000000      1.00000000</v>
    <i name="NUPDOWN">     -1.00000000</i>
    <i type="logical" name="LSORBIT"> F  </i>
    <v name="SAXIS">      0.00000000      0.00000000      1.00000000</v>
    <i type="logical" name="LSPIRAL"> F  </i>
    <v name="QSPIRAL">      0.00000000      0.00000000      0.00000000</v>
    <i type="logical" name="LZEROZ"> F  </i>
   </separator>
   <separator name="electronic exchange-correlation" >
    <i type="logical" name="LASPH"> F  </i>
    <i type="logical" name="LMETAGGA"> F  </i>
   </separator>
   <separator name="electronic convergence" >
    <i type="int" name="NELM">   500</i>
    <i type="int" name="NELMDL">    -5</i>
    <i type="int" name="NELMIN">     2</i>
    <i name="ENINI">    400.00000000</i>
    <separator name="electronic convergence detail" >
     <i type="logical" name="LDIAG"> T  </i>
     <i type="logical" name="LSUBROT"> F  </i>
     <i name="WEIMIN">      0.00100000</i>
     <i name="EBREAK">      0.00000000</i>
     <i name="DEPER">      0.30000000</i>
     <i type="int" name="NRMM">     4</i>
     <i name="TIME">      0.40000000</i>
    </separator>
   </separator>
   <separator name="electronic mixer" >
    <i name="AMIX">      0.40000000</i>
    <i name="BMIX">      1.00000000</i>
    <i name="AMIN">      0.10000000</i>
    <i name="AMIX_MAG">      1.60000000</i>
    <i name="BMIX_MAG">      1.00000000</i>
    <separator name="electronic mixer details" >
     <i type="int" name="IMIX">     4</i>
     <i type="logical" name="MIXFIRST"> F  </i>
     <i type="int" name="MAXMIX">   -45</i>
     <i name="WC">    100.00000000</i>
     <i type="int" name="INIMIX">     1</i>
     <i type="int" name="MIXPRE">     1</i>
     <i type="int" name="MREMOVE">     5</i>
    </separator>
   </separator>
   <separator name="electronic dipolcorrection" >
    <i type="logical" name="LDIPOL"> T  </i>
    <i type="logical" name="LMONO"> F  </i>
    <i type="int" name="IDIPOL">     3</i>
    <i name="EPSILON">      1.00000000</i>
    <v name="DIPOL">      0.00000000      0.00000000      0.50000000</v>
    <i name="EFIELD">      0.00000000</i>
   </separator>
  </separator>
  <separator name="grids" >
   <i type="int" name="NGX">    54</i>
   <i type="int" name="NGY">    54</i>
   <i type="int" name="NGZ">   120</i>
   <i type="int" name="NGXF">   108</i>
   <i type="int" name="NGYF">   108</i>
   <i type="int" name="NGZF">   240</i>
   <i type="logical" name="ADDGRID"> F  </i>
  </separator>
  <separator name="ionic" >
   <i type="int" name="NSW">   500</i>
   <i type="int" name="IBRION">     2</i>
   <i type="int" name="ISIF">     0</i>
   <i name="PSTRESS">      0.00000000</i>
   <i name="EDIFFG">     -0.02000000</i>
   <i type="int" name="NFREE">     2</i>
   <i name="POTIM">      0.35000000</i>
   <i name="SMASS">     -3.00000000</i>
   <i name="SCALEE">      1.00000000</i>
  </separator>
  <separator name="ionic md" >
   <i name="TEBEG">      0.00010000</i>
   <i name="TEEND">      0.00010000</i>
   <i type="int" name="NBLOCK">     1</i>
   <i type="int" name="KBLOCK">   500</i>
   <i type="int" name="NPACO">   256</i>
   <i name="APACO">     16.00000000</i>
  </separator>
  <separator name="symmetry" >
   <i type="int" name="ISYM">     2</i>
   <i name="SYMPREC">      0.00001000</i>
  </separator>
  <separator name="dos" >
   <i type="logical" name="LORBIT"> F  </i>
   <v name="RWIGS">     -1.00000000     -1.00000000</v>
   <i type="int" name="NEDOS">   301</i>
   <i name="EMIN">     10.00000000</i>
   <i name="EMAX">    -10.00000000</i>
   <i name="EFERMI">      0.00000000</i>
  </separator>
  <separator name="writing" >
   <i type="int" name="NWRITE">     1</i>
   <i type="logical" name="LWAVE"> F  </i>
   <i type="logical" name="LCHARG"> F  </i>
   <i type="logical" name="LPARD"> F  </i>
   <i type="logical" name="LVTOT"> F  </i>
   <i type="logical" name="LVHAR"> F  </i>
   <i type="logical" name="LELF"> F  </i>
   <i type="logical" name="LOPTICS"> F  </i>
   <v name="STM">      0.00000000      0.00000000      0.00000000      0.00000000      0.00000000      0.00000000      0.00000000</v>
  </separator>
  <separator name="performance" >
   <i type="int" name="NPAR">     6</i>
   <i type="int" name="NSIM">     4</i>
   <i type="int" name="NBLK">    -1</i>
   <i type="logical" name="LPLANE"> T  </i>
   <i type="logical" name="LSCALAPACK"> T  </i>
   <i type="logical" name="LSCAAWARE"> F  </i>
   <i type="logical" name="LSCALU"> F  </i>
   <i type="logical" name="LASYNC"> F  </i>
   <i type="logical" name="LORBITALREAL"> F  </i>
  </separator>
  <separator name="miscellaneous" >
   <i type="int" name="IDIOT">     3</i>
   <i type="logical" name="LMUSIC"> F  </i>
   <v name="POMASS">    196.96600000    106.42000000</v>
   <v name="DARWINR">      0.00000000      0.00000000</v>
   <v name="DARWINV">      1.00000000      1.00000000</v>
   <i type="logical" name="LCORR"> T  </i>
  </separator>
  <i type="logical" name="GGA_COMPAT"> T  </i>
  <i type="logical" name="LBERRY"> F  </i>
  <i type="int" name="ICORELEVEL">     0</i>
  <i type="logical" name="LDAU"> F  </i>
  <i type="int" name="I_CONSTRAINED_M">     0</i>
  <separator name="electronic exchange-correlation" >
   <i type="string" name="GGA">PE</i>
   <i type="int" name="VOSKOWN">     1</i>
   <i type="logical" name="LHFCALC"> F  </i>
   <i type="string" name="PRECFOCK"></i>
   <i type="logical" name="LSYMGRAD"> F  </i>
   <i type="logical" name="LHFONE"> F  </i>
   <i type="logical" name="LRHFCALC"> F  </i>
   <i type="logical" name="LTHOMAS"> F  </i>
   <i type="logical" name="LMODELHF"> F  </i>
   <i name="ENCUT4O">     -1.00000000</i>
   <i type="int" name="EXXOEP">     0</i>
   <i type="int" name="FOURORBIT">     0</i>
   <i name="AEXX">      0.00000000</i>
   <i name="HFALPHA">      0.00000000</i>
   <i name="MCALPHA">      0.00000000</i>
   <i name="ALDAX">      1.00000000</i>
   <i name="AGGAX">      1.00000000</i>
   <i name="ALDAC">      1.00000000</i>
   <i name="AGGAC">      1.00000000</i>
   <i type="int" name="NKREDX">     1</i>
   <i type="int" name="NKREDY">     1</i>
   <i type="int" name="NKREDZ">     1</i>
   <i type="logical" name="SHIFTRED"> F  </i>
   <i type="logical" name="ODDONLY"> F  </i>
   <i type="logical" name="EVENONLY"> F  </i>
   <i type="int" name="LMAXFOCK">     0</i>
   <i type="int" name="NMAXFOCKAE">     0</i>
   <i type="logical" name="LFOCKAEDFT"> F  </i>
   <i name="HFSCREEN">      0.00000000</i>
   <i name="HFSCREENC">      0.00000000</i>
   <i type="int" name="NBANDSGWLOW">     0</i>
  </separator>
  <separator name="vdW DFT" >
   <i type="logical" name="LUSE_VDW"> F  </i>
   <i name="Zab_VDW">     -0.84910000</i>
   <i name="PARAM1">      0.12340000</i>
   <i name="PARAM2">      1.00000000</i>
   <i name="PARAM3">      0.00000000</i>
  </separator>
  <separator name="model GW" >
   <i type="int" name="MODEL_GW">     0</i>
   <i name="MODEL_EPS0">     32.09595293</i>
   <i name="MODEL_ALPHA">      1.00000000</i>
  </separator>
  <separator name="linear response parameters" >
   <i type="logical" name="LEPSILON"> F  </i>
   <i type="logical" name="LRPA"> F  </i>
   <i type="logical" name="LNABLA"> F  </i>
   <i type="logical" name="LVEL"> F  </i>
   <i type="int" name="KINTER">     0</i>
   <i name="CSHIFT">      0.10000000</i>
   <i name="OMEGAMAX">     -1.00000000</i>
   <i name="DEG_THRESHOLD">      0.00200000</i>
  </separator>
  <separator name="orbital magnetization" >
   <i type="logical" name="NUCIND"> F  </i>
   <v name="MAGPOS">      0.00000000      0.00000000      0.00000000</v>
   <i type="logical" name="LNICSALL"> T  </i>
   <i type="logical" name="ORBITALMAG"> F  </i>
   <i type="logical" name="LMAGBLOCH"> F  </i>
   <i type="logical" name="LCHIMAG"> F  </i>
   <i type="logical" name="LGAUGE"> T  </i>
   <i type="int" name="MAGATOM">     0</i>
   <v name="MAGDIPOL">      0.00000000      0.00000000      0.00000000</v>
   <v name="AVECCONST">      0.00000000      0.00000000      0.00000000</v>
  </separator>
  <separator name="response functions" >
   <i type="logical" name="LADDER"> F  </i>
   <i type="logical" name="LFXC"> F  </i>
   <i type="logical" name="LHARTREE"> T  </i>
   <i type="int" name="IBSE">     0</i>
   <v type="int" name="KPOINT">    -1     0     0     0</v>
   <i type="logical" name="LTCTE"> F  </i>
   <i type="logical" name="LTETE"> F  </i>
   <i type="logical" name="LTRIPLET"> F  </i>
   <i type="logical" name="LFXCEPS"> F  </i>
   <i type="logical" name="LFXHEG"> F  </i>
   <i type="int" name="NATURALO">     0</i>
   <i type="logical" name="L2ORDER"> F  </i>
   <i type="logical" name="LUSEW"> F  </i>
   <i name="ENCUTGW">     -2.00000000</i>
   <i name="ENCUTGWSOFT">     -2.00000000</i>
   <i name="ENCUTLF">     -1.00000000</i>
   <i type="int" name="LMAXMP2">    -1</i>
   <i name="SCISSOR">      0.00000000</i>
   <i type="int" name="NOMEGA">     0</i>
   <i type="int" name="NOMEGAR">     0</i>
   <i type="int" name="NBANDSGW">    -1</i>
   <i type="int" name="NBANDSO">    -1</i>
   <i type="int" name="NBANDSV">    -1</i>
   <i type="int" name="NELM">   500</i>
   <i type="int" name="NELMHF">     1</i>
   <i type="int" name="DIM">     3</i>
   <i type="int" name="ANTIRES">     0</i>
   <i name="OMEGAMAX">    -30.00000000</i>
   <i name="OMEGAMIN">    -30.00000000</i>
   <i name="OMEGATL">   -200.00000000</i>
   <i type="int" name="OMEGAGRID">     0</i>
   <i name="CSHIFT">     -0.10000000</i>
   <i type="logical" name="SELFENERGY"> F  </i>
   <i type="logical" name="LSPECTRAL"> F  </i>
   <i type="logical" name="LSPECTRALGW"> F  </i>
   <i type="logical" name="LSINGLES"> F  </i>
   <i type="logical" name="LFERMIGW"> F  </i>
   <i type="logical" name="ODDONLYGW"> F  </i>
   <i type="logical" name="EVENONLYGW"> F  </i>
   <i type="int" name="NKREDLFX">     1</i>
   <i type="int" name="NKREDLFY">     1</i>
   <i type="int" name="NKREDLFZ">     1</i>
   <i type="int" name="MAXMEM">  1800</i>
   <i type="int" name="TELESCOPE">     0</i>
   <i type="int" name="TAUPAR">     1</i>
   <i type="int" name="OMEGAPAR">    -1</i>
   <i name="LAMBDA">      1.00000000</i>
  </separator>
  <separator name="External order field" >
   <i name="OFIELD_KAPPA">      0.00000000</i>
   <v name="OFIELD_K">      0.00000000      0.00000000      0.00000000</v>
   <i name="OFIELD_Q6_NEAR">      0.00000000</i>
   <i name="OFIELD_Q6_FAR">      0.00000000</i>
   <i name="OFIELD_A">      0.00000000</i>
  </separator>
 </parameters>
 <atominfo>
  <atoms>      48 </atoms>
  <types>       2 </types>
  <array name="atoms" >
   <dimension dim="1">ion</dimension>
   <field type="string">element</field>
   <field type="int">atomtype</field>
   <set>
    <rc><c>Au</c><c>   1</c></rc>
    <rc><c>Au</c><c>   1</c></rc>
    <rc><c>Au</c><c>   1</c></rc>
    <rc><c>Au</c><c>   1</c></rc>
    <rc><c>Au</c><c>   1</c></rc>
    <rc><c>Au</c><c>   1</c></rc>
    <rc><c>Au</c><c>   1</c></rc>
    <rc><c>Au</c><c>   1</c></rc>
    <rc><c>Au</c><c>   1</c></rc>
    <rc><c>Au</c><c>   1</c></rc>
    <rc><c>Au</c><c>   1</c></rc>
    <rc><c>Au</c><c>   1</c></rc>
    <rc><c>Au</c><c>   1</c></rc>
    <rc><c>Au</c><c>   1</c></rc>
    <rc><c>Au</c><c>   1</c></rc>
    <rc><c>Au</c><c>   1</c></rc>
    <rc><c>Au</c><c>   1</c></rc>
    <rc><c>Au</c><c>   1</c></rc>
    <rc><c>Au</c><c>   1</c></rc>
    <rc><c>Au</c><c>   1</c></rc>
    <rc><c>Au</c><c>   1</c></rc>
    <rc><c>Au</c><c>   1</c></rc>
    <rc><c>Au</c><c>   1</c></rc>
    <rc><c>Au</c><c>   1</c></rc>
    <rc><c>Pd</c><c>   2</c></rc>
    <rc><c>Pd</c><c>   2</c></rc>
    <rc><c>Pd</c><c>   2</c></rc>
    <rc><c>Pd</c><c>   2</c></rc>
    <rc><c>Pd</c><c>   2</c></rc>
    <rc><c>Pd</c><c>   2</c></rc>
    <rc><c>Pd</c><c>   2</c></rc>
    <rc><c>Pd</c><c>   2</c></rc>
    <rc><c>Pd</c><c>   2</c></rc>
    <rc><c>Pd</c><c>   2</c></rc>
    <rc><c>Pd</c><c>   2</c></rc>
    <rc><c>Pd</c><c>   2</c></rc>
    <rc><c>Pd</c><c>   2</c></rc>
    <rc><c>Pd</c><c>   2</c></rc>
    <rc><c>Pd</c><c>   2</c></rc>
    <rc><c>Pd</c><c>   2</c></rc>
    <rc><c>Pd</c><c>   2</c></rc>
    <rc><c>Pd</c><c>   2</c></rc>
    <rc><c>Pd</c><c>   2</c></rc>
    <rc><c>Pd</c><c>   2</c></rc>
    <rc><c>Pd</c><c>   2</c></rc>
    <rc><c>Pd</c><c>   2</c></rc>
    <rc><c>Pd</c><c>   2</c></rc>
    <rc><c>Pd</c><c>   2</c></rc>
   </set>
  </array>
  <array name="atomtypes" >
   <dimension dim="1">type</dimension>
   <field type="int">atomspertype</field>
   <field type="string">element</field>
   <field>mass</field>
   <field>valence</field>
   <field type="string">pseudopotential</field>
   <set>
    <rc><c>  24</c><c>Au</c><c>    196.96600000</c><c>     11.00000000</c><c>  PAW_PBE Au 04Oct2007                  </c></rc>
    <rc><c>  24</c><c>Pd</c><c>    106.42000000</c><c>     10.00000000</c><c>  PAW_PBE Pd 04Jan2005                  </c></rc>
   </set>
  </array>
 </atominfo>
 <structure name="initialpos" >
  <crystal>
   <varray name="basis" >
    <v>      11.00258152       0.00000000       0.00000000 </v>
    <v>       5.50129076       9.52851510       0.00000000 </v>
    <v>       0.00000000       0.00000000      24.49178509 </v>
   </varray>
   <i name="volume">   2567.67623402 </i>
   <varray name="rec_basis" >
    <v>       0.09088776      -0.05247407       0.00000000 </v>
    <v>       0.00000000       0.10494815       0.00000000 </v>
    <v>       0.00000000       0.00000000       0.04083002 </v>
   </varray>
  </crystal>
  <varray name="positions" >
   <v>       0.33333333       0.33333333       0.40830017 </v>
   <v>       0.41666667       0.41666667       0.50000000 </v>
   <v>       0.41666667       0.91666667       0.50000000 </v>
   <v>       0.58333333       0.08333333       0.40830017 </v>
   <v>       0.66666667       0.91666667       0.50000000 </v>
   <v>       0.16666667       0.91666667       0.50000000 </v>
   <v>       0.83333333       0.08333333       0.40830017 </v>
   <v>       0.75000000       0.00000000       0.59169983 </v>
   <v>       0.33333333       0.58333333       0.40830017 </v>
   <v>       0.16666667       0.41666667       0.50000000 </v>
   <v>       0.50000000       0.50000000       0.59169983 </v>
   <v>       0.25000000       0.00000000       0.59169983 </v>
   <v>       0.41666667       0.66666667       0.50000000 </v>
   <v>       0.08333333       0.58333333       0.40830017 </v>
   <v>       0.00000000       0.75000000       0.59169983 </v>
   <v>       0.91666667       0.91666667       0.50000000 </v>
   <v>       0.83333333       0.58333333       0.40830017 </v>
   <v>       0.91666667       0.16666667       0.50000000 </v>
   <v>       0.75000000       0.50000000       0.59169983 </v>
   <v>       0.83333333       0.83333333       0.40830017 </v>
   <v>       0.75000000       0.25000000       0.59169983 </v>
   <v>       0.00000000       0.25000000       0.59169983 </v>
   <v>       0.91666667       0.41666667       0.50000000 </v>
   <v>       0.08333333       0.33333333       0.40830017 </v>
   <v>       0.58333333       0.83333333       0.40830017 </v>
   <v>       0.66666667       0.41666667       0.50000000 </v>
   <v>       0.66666667       0.16666667       0.50000000 </v>
   <v>       0.66666667       0.66666667       0.50000000 </v>
   <v>       0.83333333       0.33333333       0.40830017 </v>
   <v>       0.50000000       0.75000000       0.59169983 </v>
   <v>       0.08333333       0.08333333       0.40830017 </v>
   <v>       0.25000000       0.75000000       0.59169983 </v>
   <v>       0.50000000       0.25000000       0.59169983 </v>
   <v>       0.58333333       0.33333333       0.40830017 </v>
   <v>       0.50000000       0.00000000       0.59169983 </v>
   <v>       0.41666667       0.16666667       0.50000000 </v>
   <v>       0.33333333       0.83333333       0.40830017 </v>
   <v>       0.25000000       0.50000000       0.59169983 </v>
   <v>       0.16666667       0.66666667       0.50000000 </v>
   <v>       0.25000000       0.25000000       0.59169983 </v>
   <v>       0.16666667       0.16666667       0.50000000 </v>
   <v>       0.33333333       0.08333333       0.40830017 </v>
   <v>       0.08333333       0.83333333       0.40830017 </v>
   <v>       0.00000000       0.50000000       0.59169983 </v>
   <v>       0.91666667       0.66666667       0.50000000 </v>
   <v>       0.00000000       0.00000000       0.59169983 </v>
   <v>       0.58333333       0.58333333       0.40830017 </v>
   <v>       0.75000000       0.75000000       0.59169983 </v>
  </varray>
 </structure>
 <calculation>
  <scstep>
   <time name="dav">    6.87    6.96</time>
   <time name="total">    6.92    7.02</time>
   <dipole>
    <v name="dipole">      0.00000000       0.00000000       0.00000074 </v>
    <i name="Tr[quadrupol]"> -10247.89858443 </i>
    <i name="Echarged">      0.00000000 </i>
    <i name="Edipol_quadrupol">      0.00000000 </i>
    <i name="Eion">      0.00000000 </i>
   </dipole>
   <energy>
    <i name="alphaZ">    805.86936440 </i>
    <i name="ewald"> 200395.45070280 </i>
    <i name="hartreedc">-242810.51120220 </i>
    <i name="XCdc">   -327.56301762 </i>
    <i name="pawpsdc">  40340.05962942 </i>
    <i name="pawaedc"> -38292.62782345 </i>
    <i name="eentropy">     -0.12529678 </i>
    <i name="bandstr">   1431.06439416 </i>
    <i name="atom">  41659.78587232 </i>
    <i name="e_fr_energy">   3201.40262306 </i>
    <i name="e_wo_entrp">   3201.52791984 </i>
    <i name="e_0_energy">   3201.46527145 </i>
   </energy>
  </scstep>
  <scstep>
   <time name="dav">    7.96    7.99</time>
   <time name="total">    7.96    7.99</time>
   <dipole>
    <v name="dipole">      0.00000000       0.00000000       0.00000074 </v>
    <i name="Tr[quadrupol]"> -10247.89858443 </i>
    <i name="Echarged">      0.00000000 </i>
    <i name="Edipol_quadrupol">      0.00000000 </i>
    <i name="Eion">      0.00000000 </i>
   </dipole>
   <energy>
    <i name="e_fr_energy">     15.57465655 </i>
    <i name="e_wo_entrp">     15.69794961 </i>
    <i name="e_0_energy">     15.63630308 </i>
   </energy>
  </scstep>
  <scstep>
   <time name="dav">    7.92    7.94</time>
   <time name="total">    7.92    7.95</time>
   <dipole>
    <v name="dipole">      0.00000000       0.00000000       0.00000074 </v>
    <i name="Tr[quadrupol]"> -10247.89858443 </i>
    <i name="Echarged">      0.00000000 </i>
    <i name="Edipol_quadrupol">      0.00000000 </i>
    <i name="Eion">      0.00000000 </i>
   </dipole>
   <energy>
    <i name="e_fr_energy">   -199.84824191 </i>
    <i name="e_wo_entrp">   -199.64138244 </i>
    <i name="e_0_energy">   -199.74481218 </i>
   </energy>
  </scstep>
  <scstep>
   <time name="dav">    8.05    8.08</time>
   <time name="total">    8.05    8.09</time>
   <dipole>
    <v name="dipole">      0.00000000       0.00000000       0.00000074 </v>
    <i name="Tr[quadrupol]"> -10247.89858443 </i>
    <i name="Echarged">      0.00000000 </i>
    <i name="Edipol_quadrupol">      0.00000000 </i>
    <i name="Eion">      0.00000000 </i>
   </dipole>
   <energy>
    <i name="e_fr_energy">   -205.74877511 </i>
    <i name="e_wo_entrp">   -205.52962196 </i>
    <i name="e_0_energy">   -205.63919853 </i>
   </energy>
  </scstep>
  <scstep>
   <time name="dav">    8.35    8.37</time>
   <time name="total">    8.60    8.62</time>
   <dipole>
    <v name="dipole">      0.00000000       0.00000000       0.00000074 </v>
    <i name="Tr[quadrupol]"> -10247.89858443 </i>
    <i name="Echarged">      0.00000000 </i>
    <i name="Edipol_quadrupol">      0.00000000 </i>
    <i name="Eion">      0.00000000 </i>
   </dipole>
   <energy>
    <i name="e_fr_energy">   -205.93700457 </i>
    <i name="e_wo_entrp">   -205.71809917 </i>
    <i name="e_0_energy">   -205.82755187 </i>
   </energy>
  </scstep>
  <scstep>
   <time name="diag">    1.23    1.24</time>
   <time name="diis">    3.36    3.45</time>
   <time name="orth">    0.29    0.30</time>
   <time name="total">    5.17    5.28</time>
   <dipole>
    <v name="dipole">      0.00000000       0.00000000       0.33970941 </v>
    <i name="Tr[quadrupol]"> -10248.62279681 </i>
    <i name="Echarged">      0.00000000 </i>
    <i name="Edipol_quadrupol">      0.00000000 </i>
    <i name="Eion">      0.00000000 </i>
   </dipole>
   <energy>
    <i name="e_fr_energy">   -197.27938726 </i>
    <i name="e_wo_entrp">   -197.00538105 </i>
    <i name="e_0_energy">   -197.14238415 </i>
   </energy>
  </scstep>
  <scstep>
   <time name="diag">    1.24    1.24</time>
   <time name="diis">    3.36    3.37</time>
   <time name="orth">    0.30    0.30</time>
   <time name="total">    5.19    5.21</time>
   <dipole>
    <v name="dipole">      0.00000000       0.00000000      -0.89377846 </v>
    <i name="Tr[quadrupol]"> -10248.39616343 </i>
    <i name="Echarged">      0.00000000 </i>
    <i name="Edipol_quadrupol">      0.00000000 </i>
    <i name="Eion">      0.00000000 </i>
   </dipole>
   <energy>
    <i name="e_fr_energy">   -202.03996903 </i>
    <i name="e_wo_entrp">   -201.82368735 </i>
    <i name="e_0_energy">   -201.93182819 </i>
   </energy>
  </scstep>
  <scstep>
   <time name="diag">    1.24    1.24</time>
   <time name="diis">    3.39    3.40</time>
   <time name="orth">    0.29    0.29</time>
   <time name="total">    5.21    5.23</time>
   <dipole>
    <v name="dipole">      0.00000000       0.00000000       2.19659082 </v>
    <i name="Tr[quadrupol]"> -10250.06380017 </i>
    <i name="Echarged">      0.00000000 </i>
    <i name="Edipol_quadrupol">      0.00000000 </i>
    <i name="Eion">      0.00000000 </i>
   </dipole>
   <energy>
    <i name="e_fr_energy">   -229.10804021 </i>
    <i name="e_wo_entrp">   -228.77706386 </i>
    <i name="e_0_energy">   -228.94255204 </i>
   </energy>
  </scstep>
  <scstep>
   <time name="diag">    1.23    1.23</time>
   <time name="diis">    3.41    3.42</time>
   <time name="orth">    0.29    0.29</time>
   <time name="total">    5.22    5.23</time>
   <dipole>
    <v name="dipole">      0.00000000       0.00000000      -0.45329702 </v>
    <i name="Tr[quadrupol]"> -10250.91821386 </i>
    <i name="Echarged">      0.00000000 </i>
    <i name="Edipol_quadrupol">      0.00000000 </i>
    <i name="Eion">      0.00000000 </i>
   </dipole>
   <energy>
    <i name="e_fr_energy">   -207.29850862 </i>
    <i name="e_wo_entrp">   -207.09696594 </i>
    <i name="e_0_energy">   -207.19773728 </i>
   </energy>
  </scstep>
  <scstep>
   <time name="diag">    1.22    1.23</time>
   <time name="diis">    3.41    3.42</time>
   <time name="orth">    0.29    0.29</time>
   <time name="total">    5.21    5.23</time>
   <dipole>
    <v name="dipole">      0.00000000       0.00000000       0.08743240 </v>
    <i name="Tr[quadrupol]"> -10249.57925711 </i>
    <i name="Echarged">      0.00000000 </i>
    <i name="Edipol_quadrupol">      0.00000000 </i>
    <i name="Eion">      0.00000000 </i>
   </dipole>
   <energy>
    <i name="e_fr_energy">   -193.57209630 </i>
    <i name="e_wo_entrp">   -193.38177581 </i>
    <i name="e_0_energy">   -193.47693605 </i>
   </energy>
  </scstep>
  <scstep>
   <time name="diag">    1.23    1.23</time>
   <time name="diis">    3.36    3.39</time>
   <time name="orth">    0.29    0.29</time>
   <time name="total">    5.16    5.20</time>
   <dipole>
    <v name="dipole">      0.00000000       0.00000000       0.00901498 </v>
    <i name="Tr[quadrupol]"> -10250.37550341 </i>
    <i name="Echarged">      0.00000000 </i>
    <i name="Edipol_quadrupol">      0.00000000 </i>
    <i name="Eion">      0.00000000 </i>
   </dipole>
   <energy>
    <i name="e_fr_energy">   -189.72706769 </i>
    <i name="e_wo_entrp">   -189.47886352 </i>
    <i name="e_0_energy">   -189.60296560 </i>
   </energy>
  </scstep>
  <scstep>
   <time name="diag">    1.23    1.23</time>
   <time name="diis">    3.43    3.44</time>
   <time name="orth">    0.29    0.29</time>
   <time name="total">    5.24    5.25</time>
   <dipole>
    <v name="dipole">      0.00000000       0.00000000       0.04398090 </v>
    <i name="Tr[quadrupol]"> -10250.73887971 </i>
    <i name="Echarged">      0.00000000 </i>
    <i name="Edipol_quadrupol">      0.00000000 </i>
    <i name="Eion">      0.00000000 </i>
   </dipole>
   <energy>
    <i name="e_fr_energy">   -188.85279626 </i>
    <i name="e_wo_entrp">   -188.61464256 </i>
    <i name="e_0_energy">   -188.73371941 </i>
   </energy>
  </scstep>
  <scstep>
   <time name="diag">    1.23    1.23</time>
   <time name="diis">    3.38    3.39</time>
   <time name="orth">    0.28    0.30</time>
   <time name="total">    5.19    5.25</time>
   <dipole>
    <v name="dipole">      0.00000000       0.00000000      -0.01790341 </v>
    <i name="Tr[quadrupol]"> -10250.91987385 </i>
    <i name="Echarged">      0.00000000 </i>
    <i name="Edipol_quadrupol">      0.00000000 </i>
    <i name="Eion">      0.00000000 </i>
   </dipole>
   <energy>
    <i name="e_fr_energy">   -188.75710587 </i>
    <i name="e_wo_entrp">   -188.51046797 </i>
    <i name="e_0_energy">   -188.63378692 </i>
   </energy>
  </scstep>
  <scstep>
   <time name="diag">    1.22    1.26</time>
   <time name="diis">    3.41    3.42</time>
   <time name="orth">    0.29    0.29</time>
   <time name="total">    5.22    5.27</time>
   <dipole>
    <v name="dipole">      0.00000000       0.00000000       0.01089664 </v>
    <i name="Tr[quadrupol]"> -10251.06378436 </i>
    <i name="Echarged">      0.00000000 </i>
    <i name="Edipol_quadrupol">      0.00000000 </i>
    <i name="Eion">      0.00000000 </i>
   </dipole>
   <energy>
    <i name="e_fr_energy">   -188.77786814 </i>
    <i name="e_wo_entrp">   -188.53116080 </i>
    <i name="e_0_energy">   -188.65451447 </i>
   </energy>
  </scstep>
  <scstep>
   <time name="diag">    1.23    1.23</time>
   <time name="diis">    3.42    3.43</time>
   <time name="orth">    0.29    0.29</time>
   <time name="total">    5.22    5.24</time>
   <dipole>
    <v name="dipole">      0.00000000       0.00000000       0.01139270 </v>
    <i name="Tr[quadrupol]"> -10251.21576193 </i>
    <i name="Echarged">      0.00000000 </i>
    <i name="Edipol_quadrupol">      0.00000000 </i>
    <i name="Eion">      0.00000000 </i>
   </dipole>
   <energy>
    <i name="e_fr_energy">   -188.62181355 </i>
    <i name="e_wo_entrp">   -188.37324494 </i>
    <i name="e_0_energy">   -188.49752924 </i>
   </energy>
  </scstep>
  <scstep>
   <time name="diag">    1.23    1.23</time>
   <time name="diis">    3.43    3.44</time>
   <time name="orth">    0.29    0.29</time>
   <time name="total">    5.24    5.26</time>
   <dipole>
    <v name="dipole">      0.00000000       0.00000000       0.00827983 </v>
    <i name="Tr[quadrupol]"> -10251.55872616 </i>
    <i name="Echarged">      0.00000000 </i>
    <i name="Edipol_quadrupol">      0.00000000 </i>
    <i name="Eion">      0.00000000 </i>
   </dipole>
   <energy>
    <i name="e_fr_energy">   -188.51143093 </i>
    <i name="e_wo_entrp">   -188.25472215 </i>
    <i name="e_0_energy">   -188.38307654 </i>
   </energy>
  </scstep>
  <scstep>
   <time name="diag">    1.22    1.23</time>
   <time name="diis">    3.45    3.47</time>
   <time name="orth">    0.29    0.29</time>
   <time name="total">    5.25    5.28</time>
   <dipole>
    <v name="dipole">      0.00000000       0.00000000       0.01095351 </v>
    <i name="Tr[quadrupol]"> -10251.99396589 </i>
    <i name="Echarged">      0.00000000 </i>
    <i name="Edipol_quadrupol">      0.00000000 </i>
    <i name="Eion">      0.00000000 </i>
   </dipole>
   <energy>
    <i name="e_fr_energy">   -188.43763290 </i>
    <i name="e_wo_entrp">   -188.17814068 </i>
    <i name="e_0_energy">   -188.30788679 </i>
   </energy>
  </scstep>
  <scstep>
   <time name="diag">    1.22    1.23</time>
   <time name="diis">    3.40    3.41</time>
   <time name="orth">    0.29    0.29</time>
   <time name="total">    5.20    5.22</time>
   <dipole>
    <v name="dipole">      0.00000000       0.00000000       0.00342886 </v>
    <i name="Tr[quadrupol]"> -10252.17049533 </i>
    <i name="Echarged">      0.00000000 </i>
    <i name="Edipol_quadrupol">      0.00000000 </i>
    <i name="Eion">      0.00000000 </i>
   </dipole>
   <energy>
    <i name="e_fr_energy">   -188.40936802 </i>
    <i name="e_wo_entrp">   -188.15420905 </i>
    <i name="e_0_energy">   -188.28178854 </i>
   </energy>
  </scstep>
  <scstep>
   <time name="diag">    1.23    1.23</time>
   <time name="diis">    3.39    3.40</time>
   <time name="orth">    0.29    0.29</time>
   <time name="total">    5.20    5.22</time>
   <dipole>
    <v name="dipole">      0.00000000       0.00000000       0.01228880 </v>
    <i name="Tr[quadrupol]"> -10252.22431888 </i>
    <i name="Echarged">      0.00000000 </i>
    <i name="Edipol_quadrupol">      0.00000000 </i>
    <i name="Eion">      0.00000000 </i>
   </dipole>
   <energy>
    <i name="e_fr_energy">   -188.40824833 </i>
    <i name="e_wo_entrp">   -188.15268641 </i>
    <i name="e_0_energy">   -188.28046737 </i>
   </energy>
  </scstep>
  <scstep>
   <time name="diag">    1.22    1.22</time>
   <time name="diis">    3.42    3.43</time>
   <time name="orth">    0.29    0.29</time>
   <time name="total">    5.21    5.23</time>
   <dipole>
    <v name="dipole">      0.00000000       0.00000000       0.01312659 </v>
    <i name="Tr[quadrupol]"> -10252.27770872 </i>
    <i name="Echarged">      0.00000000 </i>
    <i name="Edipol_quadrupol">      0.00000000 </i>
    <i name="Eion">      0.00000000 </i>
   </dipole>
   <energy>
    <i name="e_fr_energy">   -188.40740497 </i>
    <i name="e_wo_entrp">   -188.15186300 </i>
    <i name="e_0_energy">   -188.27963398 </i>
   </energy>
  </scstep>
  <scstep>
   <time name="diag">    1.22    1.22</time>
   <time name="diis">    3.33    3.43</time>
   <time name="orth">    0.29    0.29</time>
   <time name="total">    5.13    5.23</time>
   <dipole>
    <v name="dipole">      0.00000000       0.00000000       0.01123344 </v>
    <i name="Tr[quadrupol]"> -10252.42386700 </i>
    <i name="Echarged">      0.00000000 </i>
    <i name="Edipol_quadrupol">      0.00000000 </i>
    <i name="Eion">      0.00000000 </i>
   </dipole>
   <energy>
    <i name="e_fr_energy">   -188.40676386 </i>
    <i name="e_wo_entrp">   -188.15038510 </i>
    <i name="e_0_energy">   -188.27857448 </i>
   </energy>
  </scstep>
  <scstep>
   <time name="diag">    1.22    1.23</time>
   <time name="diis">    3.41    3.42</time>
   <time name="orth">    0.29    0.29</time>
   <time name="total">    5.21    5.23</time>
   <dipole>
    <v name="dipole">      0.00000000       0.00000000       0.00900297 </v>
    <i name="Tr[quadrupol]"> -10252.58532078 </i>
    <i name="Echarged">      0.00000000 </i>
    <i name="Edipol_quadrupol">      0.00000000 </i>
    <i name="Eion">      0.00000000 </i>
   </dipole>
   <energy>
    <i name="e_fr_energy">   -188.40577037 </i>
    <i name="e_wo_entrp">   -188.14935937 </i>
    <i name="e_0_energy">   -188.27756487 </i>
   </energy>
  </scstep>
  <scstep>
   <time name="diag">    1.21    1.23</time>
   <time name="diis">    3.39    3.41</time>
   <time name="orth">    0.29    0.29</time>
   <time name="total">    5.18    5.23</time>
   <dipole>
    <v name="dipole">      0.00000000       0.00000000       0.00963494 </v>
    <i name="Tr[quadrupol]"> -10252.69967255 </i>
    <i name="Echarged">      0.00000000 </i>
    <i name="Edipol_quadrupol">      0.00000000 </i>
    <i name="Eion">      0.00000000 </i>
   </dipole>
   <energy>
    <i name="e_fr_energy">   -188.40542906 </i>
    <i name="e_wo_entrp">   -188.14933874 </i>
    <i name="e_0_energy">   -188.27738390 </i>
   </energy>
  </scstep>
  <scstep>
   <time name="diag">    1.23    1.23</time>
   <time name="diis">    3.37    3.38</time>
   <time name="orth">    0.28    0.29</time>
   <time name="total">    5.18    5.20</time>
   <dipole>
    <v name="dipole">      0.00000000       0.00000000       0.01092166 </v>
    <i name="Tr[quadrupol]"> -10252.78008916 </i>
    <i name="Echarged">      0.00000000 </i>
    <i name="Edipol_quadrupol">      0.00000000 </i>
    <i name="Eion">      0.00000000 </i>
   </dipole>
   <energy>
    <i name="e_fr_energy">   -188.40549834 </i>
    <i name="e_wo_entrp">   -188.14982285 </i>
    <i name="e_0_energy">   -188.27766060 </i>
   </energy>
  </scstep>
  <scstep>
   <time name="diag">    1.24    1.24</time>
   <time name="diis">    3.41    3.42</time>
   <time name="orth">    0.29    0.29</time>
   <time name="total">    5.23    5.24</time>
   <dipole>
    <v name="dipole">      0.00000000       0.00000000       0.01085675 </v>
    <i name="Tr[quadrupol]"> -10252.85640363 </i>
    <i name="Echarged">      0.00000000 </i>
    <i name="Edipol_quadrupol">      0.00000000 </i>
    <i name="Eion">      0.00000000 </i>
   </dipole>
   <energy>
    <i name="e_fr_energy">   -188.40587296 </i>
    <i name="e_wo_entrp">   -188.15035418 </i>
    <i name="e_0_energy">   -188.27811357 </i>
   </energy>
  </scstep>
  <scstep>
   <time name="diag">    1.22    1.22</time>
   <time name="diis">    3.43    3.44</time>
   <time name="orth">    0.28    0.29</time>
   <time name="total">    5.22    5.24</time>
   <dipole>
    <v name="dipole">      0.00000000       0.00000000       0.00940036 </v>
    <i name="Tr[quadrupol]"> -10252.92230179 </i>
    <i name="Echarged">      0.00000000 </i>
    <i name="Edipol_quadrupol">      0.00000000 </i>
    <i name="Eion">      0.00000000 </i>
   </dipole>
   <energy>
    <i name="e_fr_energy">   -188.40626089 </i>
    <i name="e_wo_entrp">   -188.15069890 </i>
    <i name="e_0_energy">   -188.27847990 </i>
   </energy>
  </scstep>
  <scstep>
   <time name="diag">    1.22    1.22</time>
   <time name="diis">    3.52    3.53</time>
   <time name="orth">    0.28    0.28</time>
   <time name="total">    5.30    5.34</time>
   <dipole>
    <v name="dipole">      0.00000000       0.00000000       0.00829174 </v>
    <i name="Tr[quadrupol]"> -10253.02491656 </i>
    <i name="Echarged">      0.00000000 </i>
    <i name="Edipol_quadrupol">      0.00000000 </i>
    <i name="Eion">      0.00000000 </i>
   </dipole>
   <energy>
    <i name="e_fr_energy">   -188.40699963 </i>
    <i name="e_wo_entrp">   -188.15138104 </i>
    <i name="e_0_energy">   -188.27919033 </i>
   </energy>
  </scstep>
  <scstep>
   <time name="diag">    1.22    1.23</time>
   <time name="diis">    3.50    3.51</time>
   <time name="orth">    0.28    0.29</time>
   <time name="total">    5.30    5.32</time>
   <dipole>
    <v name="dipole">      0.00000000       0.00000000       0.00760883 </v>
    <i name="Tr[quadrupol]"> -10253.07875888 </i>
    <i name="Echarged">      0.00000000 </i>
    <i name="Edipol_quadrupol">      0.00000000 </i>
    <i name="Eion">      0.00000000 </i>
   </dipole>
   <energy>
    <i name="e_fr_energy">   -188.40749125 </i>
    <i name="e_wo_entrp">   -188.15181395 </i>
    <i name="e_0_energy">   -188.27965260 </i>
   </energy>
  </scstep>
  <scstep>
   <time name="diag">    1.22    1.27</time>
   <time name="diis">    3.42    3.47</time>
   <time name="orth">    0.28    0.28</time>
   <time name="total">    5.21    5.31</time>
   <dipole>
    <v name="dipole">      0.00000000       0.00000000       0.00683084 </v>
    <i name="Tr[quadrupol]"> -10253.14494134 </i>
    <i name="Echarged">      0.00000000 </i>
    <i name="Edipol_quadrupol">      0.00000000 </i>
    <i name="Eion">      0.00000000 </i>
   </dipole>
   <energy>
    <i name="e_fr_energy">   -188.40816363 </i>
    <i name="e_wo_entrp">   -188.15251429 </i>
    <i name="e_0_energy">   -188.28033896 </i>
   </energy>
  </scstep>
  <scstep>
   <time name="diag">    1.22    1.23</time>
   <time name="diis">    3.10    3.10</time>
   <time name="orth">    0.28    0.28</time>
   <time name="total">    4.90    4.91</time>
   <dipole>
    <v name="dipole">      0.00000000       0.00000000       0.00623183 </v>
    <i name="Tr[quadrupol]"> -10253.18728538 </i>
    <i name="Echarged">      0.00000000 </i>
    <i name="Edipol_quadrupol">      0.00000000 </i>
    <i name="Eion">      0.00000000 </i>
   </dipole>
   <energy>
    <i name="e_fr_energy">   -188.40854204 </i>
    <i name="e_wo_entrp">   -188.15292748 </i>
    <i name="e_0_energy">   -188.28073476 </i>
   </energy>
  </scstep>
  <scstep>
   <time name="diag">    1.22    1.22</time>
   <time name="diis">    2.87    2.88</time>
   <time name="orth">    0.28    0.28</time>
   <time name="total">    4.66    4.67</time>
   <dipole>
    <v name="dipole">      0.00000000       0.00000000       0.00551958 </v>
    <i name="Tr[quadrupol]"> -10253.22534311 </i>
    <i name="Echarged">      0.00000000 </i>
    <i name="Edipol_quadrupol">      0.00000000 </i>
    <i name="Eion">      0.00000000 </i>
   </dipole>
   <energy>
    <i name="e_fr_energy">   -188.40883059 </i>
    <i name="e_wo_entrp">   -188.15313988 </i>
    <i name="e_0_energy">   -188.28098524 </i>
   </energy>
  </scstep>
  <scstep>
   <time name="diag">    1.22    1.23</time>
   <time name="diis">    2.52    2.53</time>
   <time name="orth">    0.29    0.29</time>
   <time name="total">    4.32    4.34</time>
   <dipole>
    <v name="dipole">      0.00000000       0.00000000       0.00528271 </v>
    <i name="Tr[quadrupol]"> -10253.23614873 </i>
    <i name="Echarged">      0.00000000 </i>
    <i name="Edipol_quadrupol">      0.00000000 </i>
    <i name="Eion">      0.00000000 </i>
   </dipole>
   <energy>
    <i name="e_fr_energy">   -188.40891159 </i>
    <i name="e_wo_entrp">   -188.15322308 </i>
    <i name="e_0_energy">   -188.28106734 </i>
   </energy>
  </scstep>
  <scstep>
   <time name="diag">    1.23    1.23</time>
   <time name="diis">    2.23    2.24</time>
   <time name="orth">    0.28    0.28</time>
   <time name="total">    4.03    4.05</time>
   <dipole>
    <v name="dipole">      0.00000000       0.00000000       0.00504466 </v>
    <i name="Tr[quadrupol]"> -10253.24769421 </i>
    <i name="Echarged">      0.00000000 </i>
    <i name="Edipol_quadrupol">      0.00000000 </i>
    <i name="Eion">      0.00000000 </i>
   </dipole>
   <energy>
    <i name="e_fr_energy">   -188.40901309 </i>
    <i name="e_wo_entrp">   -188.15333109 </i>
    <i name="e_0_energy">   -188.28117209 </i>
   </energy>
  </scstep>
  <scstep>
   <time name="diag">    1.22    1.22</time>
   <time name="diis">    2.09    2.09</time>
   <time name="orth">    0.28    0.28</time>
   <time name="total">    3.88    3.90</time>
   <dipole>
    <v name="dipole">      0.00000000       0.00000000       0.00483783 </v>
    <i name="Tr[quadrupol]"> -10253.25570591 </i>
    <i name="Echarged">      0.00000000 </i>
    <i name="Edipol_quadrupol">      0.00000000 </i>
    <i name="Eion">      0.00000000 </i>
   </dipole>
   <energy>
    <i name="e_fr_energy">   -188.40907195 </i>
    <i name="e_wo_entrp">   -188.15339777 </i>
    <i name="e_0_energy">   -188.28123486 </i>
   </energy>
  </scstep>
  <scstep>
   <time name="diag">    1.22    1.23</time>
   <time name="diis">    2.12    2.13</time>
   <time name="orth">    0.28    0.28</time>
   <time name="total">    3.92    3.93</time>
   <dipole>
    <v name="dipole">      0.00000000       0.00000000       0.00459513 </v>
    <i name="Tr[quadrupol]"> -10253.26426976 </i>
    <i name="Echarged">      0.00000000 </i>
    <i name="Edipol_quadrupol">      0.00000000 </i>
    <i name="Eion">      0.00000000 </i>
   </dipole>
   <energy>
    <i name="e_fr_energy">   -188.40912155 </i>
    <i name="e_wo_entrp">   -188.15343819 </i>
    <i name="e_0_energy">   -188.28127987 </i>
   </energy>
  </scstep>
  <scstep>
   <time name="diag">    1.22    1.23</time>
   <time name="diis">    2.05    2.06</time>
   <time name="orth">    0.28    0.28</time>
   <time name="total">    3.85    3.87</time>
   <dipole>
    <v name="dipole">      0.00000000       0.00000000       0.00449408 </v>
    <i name="Tr[quadrupol]"> -10253.26853072 </i>
    <i name="Echarged">      0.00000000 </i>
    <i name="Edipol_quadrupol">      0.00000000 </i>
    <i name="Eion">      0.00000000 </i>
   </dipole>
   <energy>
    <i name="e_fr_energy">   -188.40913868 </i>
    <i name="e_wo_entrp">   -188.15346319 </i>
    <i name="e_0_energy">   -188.28130094 </i>
   </energy>
  </scstep>
  <scstep>
   <time name="diag">    1.22    1.22</time>
   <time name="diis">    1.90    1.91</time>
   <time name="orth">    0.28    0.28</time>
   <time name="total">    3.70    3.71</time>
   <dipole>
    <v name="dipole">      0.00000000       0.00000000       0.00440214 </v>
    <i name="Tr[quadrupol]"> -10253.27217526 </i>
    <i name="Echarged">      0.00000000 </i>
    <i name="Edipol_quadrupol">      0.00000000 </i>
    <i name="Eion">      0.00000000 </i>
   </dipole>
   <energy>
    <i name="e_fr_energy">   -188.40914890 </i>
    <i name="e_wo_entrp">   -188.15346838 </i>
    <i name="e_0_energy">   -188.28130864 </i>
   </energy>
  </scstep>
  <scstep>
   <time name="diag">    1.22    1.23</time>
   <time name="diis">    1.82    1.90</time>
   <time name="orth">    0.28    0.28</time>
   <time name="total">    3.62    3.71</time>
   <dipole>
    <v name="dipole">      0.00000000       0.00000000       0.00432148 </v>
    <i name="Tr[quadrupol]"> -10253.27651298 </i>
    <i name="Echarged">      0.00000000 </i>
    <i name="Edipol_quadrupol">      0.00000000 </i>
    <i name="Eion">      0.00000000 </i>
   </dipole>
   <energy>
    <i name="e_fr_energy">   -188.40915449 </i>
    <i name="e_wo_entrp">   -188.15347666 </i>
    <i name="e_0_energy">   -188.28131558 </i>
   </energy>
  </scstep>
  <scstep>
   <time name="diag">    1.22    1.22</time>
   <time name="diis">    1.61    1.61</time>
   <time name="orth">    0.28    0.28</time>
   <time name="total">    3.16    3.17</time>
   <dipole>
    <v name="dipole">      0.00000000       0.00000000       0.00427779 </v>
    <i name="Tr[quadrupol]"> -10253.27833431 </i>
    <i name="Echarged">      0.00000000 </i>
    <i name="Edipol_quadrupol">      0.00000000 </i>
    <i name="Eion">      0.00000000 </i>
   </dipole>
   <energy>
    <i name="alphaZ">    805.87004072 </i>
    <i name="ewald"> 200395.45070280 </i>
    <i name="hartreedc">-242585.71120596 </i>
    <i name="XCdc">   -343.23617891 </i>
    <i name="pawpsdc">  49404.55507155 </i>
    <i name="pawaedc"> -47482.25476059 </i>
    <i name="eentropy">     -0.25567900 </i>
    <i name="bandstr">  -2042.61301830 </i>
    <i name="atom">  41659.78587232 </i>
    <i name="e_fr_energy">   -188.40915537 </i>
    <i name="e_wo_entrp">   -188.15347637 </i>
    <i name="e_0_energy">   -188.28131587 </i>
   </energy>
  </scstep>
  <structure>
   <crystal>
    <varray name="basis" >
     <v>      11.00258152       0.00000000       0.00000000 </v>
     <v>       5.50129076       9.52851510       0.00000000 </v>
     <v>       0.00000000       0.00000000      24.49178509 </v>
    </varray>
    <i name="volume">   2567.67623402 </i>
    <varray name="rec_basis" >
     <v>       0.09088776      -0.05247407       0.00000000 </v>
     <v>       0.00000000       0.10494815       0.00000000 </v>
     <v>       0.00000000       0.00000000       0.04083002 </v>
    </varray>
   </crystal>
   <varray name="positions" >
    <v>       0.33333333       0.33333333       0.40830017 </v>
    <v>       0.41666667       0.41666667       0.50000000 </v>
    <v>       0.41666667       0.91666667       0.50000000 </v>
    <v>       0.58333333       0.08333333       0.40830017 </v>
    <v>       0.66666667       0.91666667       0.50000000 </v>
    <v>       0.16666667       0.91666667       0.50000000 </v>
    <v>       0.83333333       0.08333333       0.40830017 </v>
    <v>       0.75000000       0.00000000       0.59169983 </v>
    <v>       0.33333333       0.58333333       0.40830017 </v>
    <v>       0.16666667       0.41666667       0.50000000 </v>
    <v>       0.50000000       0.50000000       0.59169983 </v>
    <v>       0.25000000       0.00000000       0.59169983 </v>
    <v>       0.41666667       0.66666667       0.50000000 </v>
    <v>       0.08333333       0.58333333       0.40830017 </v>
    <v>       0.00000000       0.75000000       0.59169983 </v>
    <v>       0.91666667       0.91666667       0.50000000 </v>
    <v>       0.83333333       0.58333333       0.40830017 </v>
    <v>       0.91666667       0.16666667       0.50000000 </v>
    <v>       0.75000000       0.50000000       0.59169983 </v>
    <v>       0.83333333       0.83333333       0.40830017 </v>
    <v>       0.75000000       0.25000000       0.59169983 </v>
    <v>       0.00000000       0.25000000       0.59169983 </v>
    <v>       0.91666667       0.41666667       0.50000000 </v>
    <v>       0.08333333       0.33333333       0.40830017 </v>
    <v>       0.58333333       0.83333333       0.40830017 </v>
    <v>       0.66666667       0.41666667       0.50000000 </v>
    <v>       0.66666667       0.16666667       0.50000000 </v>
    <v>       0.66666667       0.66666667       0.50000000 </v>
    <v>       0.83333333       0.33333333       0.40830017 </v>
    <v>       0.50000000       0.75000000       0.59169983 </v>
    <v>       0.08333333       0.08333333       0.40830017 </v>
    <v>       0.25000000       0.75000000       0.59169983 </v>
    <v>       0.50000000       0.25000000       0.59169983 </v>
    <v>       0.58333333       0.33333333       0.40830017 </v>
    <v>       0.50000000       0.00000000       0.59169983 </v>
    <v>       0.41666667       0.16666667       0.50000000 </v>
    <v>       0.33333333       0.83333333       0.40830017 </v>
    <v>       0.25000000       0.50000000       0.59169983 </v>
    <v>       0.16666667       0.66666667       0.50000000 </v>
    <v>       0.25000000       0.25000000       0.59169983 </v>
    <v>       0.16666667       0.16666667       0.50000000 </v>
    <v>       0.33333333       0.08333333       0.40830017 </v>
    <v>       0.08333333       0.83333333       0.40830017 </v>
    <v>       0.00000000       0.50000000       0.59169983 </v>
    <v>       0.91666667       0.66666667       0.50000000 </v>
    <v>       0.00000000       0.00000000       0.59169983 </v>
    <v>       0.58333333       0.58333333       0.40830017 </v>
    <v>       0.75000000       0.75000000       0.59169983 </v>
   </varray>
  </structure>
  <varray name="forces" >
   <v>       0.12928500      -0.39750593      -1.61656726 </v>
   <v>       0.16072705      -0.46815436       0.29970047 </v>
   <v>       0.30072090       0.16383881      -0.26835041 </v>
   <v>      -0.24214948       0.16554068      -1.38693607 </v>
   <v>      -0.46826483      -0.19201456       0.31270868 </v>
   <v>      -0.11481978      -0.12445520      -0.27709349 </v>
   <v>       0.19991606       0.34519952      -1.57502996 </v>
   <v>      -0.25726504       0.15082632       1.53500261 </v>
   <v>       0.25847889       0.28728624      -1.57994262 </v>
   <v>       0.03025758      -0.04642306       0.86704563 </v>
   <v>      -0.23467098       0.16197760       1.52777165 </v>
   <v>       0.12501939      -0.04494998       1.58288975 </v>
   <v>       0.30651498       0.07203454      -0.05139830 </v>
   <v>       0.14024381       0.36526882      -1.42715873 </v>
   <v>       0.14130286      -0.38132010       1.35497150 </v>
   <v>       0.27750754      -0.27418989       0.03508316 </v>
   <v>      -0.53662188       0.14933755      -1.36821109 </v>
   <v>       0.02117658       0.13061725      -0.34373028 </v>
   <v>       0.13547497       0.51858089       1.38995899 </v>
   <v>      -0.01408935      -0.15075327      -1.59199366 </v>
   <v>      -0.27228417      -0.13146674       1.39977118 </v>
   <v>       0.38118167      -0.08822658       1.61662366 </v>
   <v>      -0.14539441       0.25643523       0.00913656 </v>
   <v>      -0.23594562      -0.61628252      -1.60633563 </v>
   <v>      -0.32711581      -0.10029598      -0.82770343 </v>
   <v>      -0.03830116       0.02262723      -0.48863139 </v>
   <v>      -0.23259528       0.43911522       0.03731726 </v>
   <v>      -0.02758850       0.02821358      -0.01819846 </v>
   <v>      -0.22730292       0.06722818      -0.83406665 </v>
   <v>       0.15426962       0.07713200       0.87459114 </v>
   <v>       0.20504004      -0.07937050      -0.84497294 </v>
   <v>      -0.05393490      -0.05476471       0.91192013 </v>
   <v>      -0.33001776      -0.14914154       0.69030528 </v>
   <v>       0.30914982       0.07662180      -0.72086301 </v>
   <v>       0.00964702       0.12285678       0.81215964 </v>
   <v>      -0.11839630      -0.10135882       0.33637130 </v>
   <v>       0.08905192       0.17495543      -0.96284339 </v>
   <v>      -0.11723907       0.01055166       0.78876519 </v>
   <v>      -0.09070962       0.06462817       0.22383807 </v>
   <v>       0.21298919       0.05192793       0.67122544 </v>
   <v>       0.36461737      -0.07962896      -0.16218962 </v>
   <v>      -0.12795349      -0.16982794      -0.72935346 </v>
   <v>       0.24887980      -0.01194946      -0.88410323 </v>
   <v>       0.15452103       0.10461107       0.81394298 </v>
   <v>      -0.12299238      -0.05452937       0.33671550 </v>
   <v>       0.06030708      -0.13092325       1.10551120 </v>
   <v>       0.12262503      -0.04696177      -0.69794065 </v>
   <v>      -0.20325247      -0.11291798       0.73028678 </v>
  </varray>
  <energy>
   <i name="e_fr_energy">   -188.40915537 </i>
   <i name="e_wo_entrp">   -188.28131587 </i>
   <i name="e_0_energy">     -0.25567900 </i>
  </energy>
  <time name="totalsc">  207.05  208.35</time>
 </calculation>
 <calculation>
  <scstep>
   <time name="dav">    6.96    6.98</time>
   <time name="total">    7.25    7.27</time>
   <dipole>
    <v name="dipole">      0.00000000       0.00000000       0.00423507 </v>
    <i name="Tr[quadrupol]"> -10252.37230583 </i>
    <i name="Echarged">      0.00000000 </i>
    <i name="Edipol_quadrupol">      0.00000000 </i>
    <i name="Eion">      0.00000000 </i>
   </dipole>
   <energy>
    <i name="alphaZ">    805.87004569 </i>
    <i name="ewald"> 197653.55374220 </i>
    <i name="hartreedc">-239860.31003571 </i>
    <i name="XCdc">   -345.49341508 </i>
    <i name="pawpsdc">  49404.54388194 </i>
    <i name="pawaedc"> -47482.24389599 </i>
    <i name="eentropy">     -0.25070712 </i>
    <i name="bandstr">  -2024.96441452 </i>
    <i name="atom">  41659.78587232 </i>
    <i name="e_fr_energy">   -189.50892626 </i>
    <i name="e_wo_entrp">   -189.25821915 </i>
    <i name="e_0_energy">   -189.38357271 </i>
   </energy>
  </scstep>
  <scstep>
   <time name="diag">    1.22    1.22</time>
   <time name="diis">    3.44    3.45</time>
   <time name="orth">    0.28    0.28</time>
   <time name="total">    5.22    5.24</time>
   <dipole>
    <v name="dipole">      0.00000000       0.00000000       0.00361196 </v>
    <i name="Tr[quadrupol]"> -10252.12890704 </i>
    <i name="Echarged">      0.00000000 </i>
    <i name="Edipol_quadrupol">      0.00000000 </i>
    <i name="Eion">      0.00000000 </i>
   </dipole>
   <energy>
    <i name="e_fr_energy">   -189.89784390 </i>
    <i name="e_wo_entrp">   -189.65049784 </i>
    <i name="e_0_energy">   -189.77417087 </i>
   </energy>
  </scstep>
  <scstep>
   <time name="diag">    1.22    1.22</time>
   <time name="diis">    3.53    3.54</time>
   <time name="orth">    0.28    0.28</time>
   <time name="total">    5.32    5.33</time>
   <dipole>
    <v name="dipole">      0.00000000       0.00000000      -0.00821974 </v>
    <i name="Tr[quadrupol]"> -10252.58192065 </i>
    <i name="Echarged">      0.00000000 </i>
    <i name="Edipol_quadrupol">      0.00000000 </i>
    <i name="Eion">      0.00000000 </i>
   </dipole>
   <energy>
    <i name="e_fr_energy">   -189.96466758 </i>
    <i name="e_wo_entrp">   -189.70425351 </i>
    <i name="e_0_energy">   -189.83446055 </i>
   </energy>
  </scstep>
  <scstep>
   <time name="diag">    1.22    1.22</time>
   <time name="diis">    3.42    3.44</time>
   <time name="orth">    0.28    0.28</time>
   <time name="total">    5.21    5.23</time>
   <dipole>
    <v name="dipole">      0.00000000       0.00000000       0.02744352 </v>
    <i name="Tr[quadrupol]"> -10252.46689006 </i>
    <i name="Echarged">      0.00000000 </i>
    <i name="Edipol_quadrupol">      0.00000000 </i>
    <i name="Eion">      0.00000000 </i>
   </dipole>
   <energy>
    <i name="e_fr_energy">   -189.89209474 </i>
    <i name="e_wo_entrp">   -189.64878288 </i>
    <i name="e_0_energy">   -189.77043881 </i>
   </energy>
  </scstep>
  <scstep>
   <time name="diag">    1.21    1.22</time>
   <time name="diis">    3.44    3.45</time>
   <time name="orth">    0.28    0.28</time>
   <time name="total">    5.22    5.24</time>
   <dipole>
    <v name="dipole">      0.00000000       0.00000000      -0.08327504 </v>
    <i name="Tr[quadrupol]"> -10252.44851935 </i>
    <i name="Echarged">      0.00000000 </i>
    <i name="Edipol_quadrupol">      0.00000000 </i>
    <i name="Eion">      0.00000000 </i>
   </dipole>
   <energy>
    <i name="e_fr_energy">   -190.00223408 </i>
    <i name="e_wo_entrp">   -189.75931912 </i>
    <i name="e_0_energy">   -189.88077660 </i>
   </energy>
  </scstep>
  <scstep>
   <time name="diag">    1.22    1.22</time>
   <time name="diis">    3.43    3.48</time>
   <time name="orth">    0.28    0.30</time>
   <time name="total">    5.22    5.32</time>
   <dipole>
    <v name="dipole">      0.00000000       0.00000000       0.01421589 </v>
    <i name="Tr[quadrupol]"> -10252.45197206 </i>
    <i name="Echarged">      0.00000000 </i>
    <i name="Edipol_quadrupol">      0.00000000 </i>
    <i name="Eion">      0.00000000 </i>
   </dipole>
   <energy>
    <i name="e_fr_energy">   -189.87981605 </i>
    <i name="e_wo_entrp">   -189.62898216 </i>
    <i name="e_0_energy">   -189.75439911 </i>
   </energy>
  </scstep>
  <scstep>
   <time name="diag">    1.22    1.22</time>
   <time name="diis">    3.42    3.43</time>
   <time name="orth">    0.28    0.28</time>
   <time name="total">    5.21    5.23</time>
   <dipole>
    <v name="dipole">      0.00000000       0.00000000       0.00031535 </v>
    <i name="Tr[quadrupol]"> -10252.43829824 </i>
    <i name="Echarged">      0.00000000 </i>
    <i name="Edipol_quadrupol">      0.00000000 </i>
    <i name="Eion">      0.00000000 </i>
   </dipole>
   <energy>
    <i name="e_fr_energy">   -189.87364859 </i>
    <i name="e_wo_entrp">   -189.62207878 </i>
    <i name="e_0_energy">   -189.74786369 </i>
   </energy>
  </scstep>
  <scstep>
   <time name="diag">    1.22    1.22</time>
   <time name="diis">    3.40    3.42</time>
   <time name="orth">    0.28    0.28</time>
   <time name="total">    5.19    5.21</time>
   <dipole>
    <v name="dipole">      0.00000000       0.00000000       0.00380758 </v>
    <i name="Tr[quadrupol]"> -10252.41183129 </i>
    <i name="Echarged">      0.00000000 </i>
    <i name="Edipol_quadrupol">      0.00000000 </i>
    <i name="Eion">      0.00000000 </i>
   </dipole>
   <energy>
    <i name="e_fr_energy">   -189.87147033 </i>
    <i name="e_wo_entrp">   -189.61892180 </i>
    <i name="e_0_energy">   -189.74519607 </i>
   </energy>
  </scstep>
  <scstep>
   <time name="diag">    1.22    1.23</time>
   <time name="diis">    3.40    3.41</time>
   <time name="orth">    0.28    0.28</time>
   <time name="total">    5.19    5.21</time>
   <dipole>
    <v name="dipole">      0.00000000       0.00000000       0.00357898 </v>
    <i name="Tr[quadrupol]"> -10252.40499428 </i>
    <i name="Echarged">      0.00000000 </i>
    <i name="Edipol_quadrupol">      0.00000000 </i>
    <i name="Eion">      0.00000000 </i>
   </dipole>
   <energy>
    <i name="e_fr_energy">   -189.87072457 </i>
    <i name="e_wo_entrp">   -189.61857609 </i>
    <i name="e_0_energy">   -189.74465033 </i>
   </energy>
  </scstep>
  <scstep>
   <time name="diag">    1.22    1.22</time>
   <time name="diis">    3.42    3.43</time>
   <time name="orth">    0.28    0.28</time>
   <time name="total">    5.21    5.23</time>
   <dipole>
    <v name="dipole">      0.00000000       0.00000000       0.00269397 </v>
    <i name="Tr[quadrupol]"> -10252.40277930 </i>
    <i name="Echarged">      0.00000000 </i>
    <i name="Edipol_quadrupol">      0.00000000 </i>
    <i name="Eion">      0.00000000 </i>
   </dipole>
   <energy>
    <i name="e_fr_energy">   -189.87062474 </i>
    <i name="e_wo_entrp">   -189.61779586 </i>
    <i name="e_0_energy">   -189.74421030 </i>
   </energy>
  </scstep>
  <scstep>
   <time name="diag">    1.22    1.23</time>
   <time name="diis">    3.41    3.42</time>
   <time name="orth">    0.28    0.28</time>
   <time name="total">    5.21    5.22</time>
   <dipole>
    <v name="dipole">      0.00000000       0.00000000       0.00321937 </v>
    <i name="Tr[quadrupol]"> -10252.40314978 </i>
    <i name="Echarged">      0.00000000 </i>
    <i name="Edipol_quadrupol">      0.00000000 </i>
    <i name="Eion">      0.00000000 </i>
   </dipole>
   <energy>
    <i name="e_fr_energy">   -189.87053340 </i>
    <i name="e_wo_entrp">   -189.61796015 </i>
    <i name="e_0_energy">   -189.74424678 </i>
   </energy>
  </scstep>
  <scstep>
   <time name="diag">    1.22    1.22</time>
   <time name="diis">    3.36    3.38</time>
   <time name="orth">    0.28    0.28</time>
   <time name="total">    5.15    5.17</time>
   <dipole>
    <v name="dipole">      0.00000000       0.00000000       0.00315263 </v>
    <i name="Tr[quadrupol]"> -10252.40780411 </i>
    <i name="Echarged">      0.00000000 </i>
    <i name="Edipol_quadrupol">      0.00000000 </i>
    <i name="Eion">      0.00000000 </i>
   </dipole>
   <energy>
    <i name="e_fr_energy">   -189.87052744 </i>
    <i name="e_wo_entrp">   -189.61791276 </i>
    <i name="e_0_energy">   -189.74422010 </i>
   </energy>
  </scstep>
  <scstep>
   <time name="diag">    1.22    1.22</time>
   <time name="diis">    3.47    3.48</time>
   <time name="orth">    0.28    0.28</time>
   <time name="total">    5.25    5.27</time>
   <dipole>
    <v name="dipole">      0.00000000       0.00000000       0.00325244 </v>
    <i name="Tr[quadrupol]"> -10252.41253728 </i>
    <i name="Echarged">      0.00000000 </i>
    <i name="Edipol_quadrupol">      0.00000000 </i>
    <i name="Eion">      0.00000000 </i>
   </dipole>
   <energy>
    <i name="e_fr_energy">   -189.87051850 </i>
    <i name="e_wo_entrp">   -189.61792719 </i>
    <i name="e_0_energy">   -189.74422284 </i>
   </energy>
  </scstep>
  <scstep>
   <time name="diag">    1.23    1.24</time>
   <time name="diis">    3.26    3.34</time>
   <time name="orth">    0.28    0.28</time>
   <time name="total">    5.06    5.16</time>
   <dipole>
    <v name="dipole">      0.00000000       0.00000000       0.00314054 </v>
    <i name="Tr[quadrupol]"> -10252.41623825 </i>
    <i name="Echarged">      0.00000000 </i>
    <i name="Edipol_quadrupol">      0.00000000 </i>
    <i name="Eion">      0.00000000 </i>
   </dipole>
   <energy>
    <i name="e_fr_energy">   -189.87051569 </i>
    <i name="e_wo_entrp">   -189.61801340 </i>
    <i name="e_0_energy">   -189.74426455 </i>
   </energy>
  </scstep>
  <scstep>
   <time name="diag">    1.22    1.22</time>
   <time name="diis">    2.32    2.32</time>
   <time name="orth">    0.28    0.28</time>
   <time name="total">    3.87    3.88</time>
   <dipole>
    <v name="dipole">      0.00000000       0.00000000       0.00312255 </v>
    <i name="Tr[quadrupol]"> -10252.41849137 </i>
    <i name="Echarged">      0.00000000 </i>
    <i name="Edipol_quadrupol">      0.00000000 </i>
    <i name="Eion">      0.00000000 </i>
   </dipole>
   <energy>
    <i name="alphaZ">    805.86986681 </i>
    <i name="ewald"> 197653.55374220 </i>
    <i name="hartreedc">-239862.55445430 </i>
    <i name="XCdc">   -345.42722322 </i>
    <i name="pawpsdc">  48949.74029929 </i>
    <i name="pawaedc"> -47024.22598676 </i>
    <i name="eentropy">     -0.25251892 </i>
    <i name="bandstr">  -2026.36011319 </i>
    <i name="atom">  41659.78587232 </i>
    <i name="e_fr_energy">   -189.87051576 </i>
    <i name="e_wo_entrp">   -189.61799684 </i>
    <i name="e_0_energy">   -189.74425630 </i>
   </energy>
  </scstep>
  <structure>
   <crystal>
    <varray name="basis" >
     <v>      11.00258152       0.00000000       0.00000000 </v>
     <v>       5.50129076       9.52851510       0.00000000 </v>
     <v>       0.00000000       0.00000000      24.49178509 </v>
    </varray>
    <i name="volume">   2567.67623402 </i>
    <varray name="rec_basis" >
     <v>       0.09088776      -0.05247407       0.00000000 </v>
     <v>       0.00000000       0.10494815       0.00000000 </v>
     <v>       0.00000000       0.00000000       0.04083002 </v>
    </varray>
   </crystal>
   <varray name="positions" >
    <v>       0.33443454       0.33192454       0.40607121 </v>
    <v>       0.41798957       0.41500749       0.50041323 </v>
    <v>       0.41729933       0.91724733       0.49962999 </v>
    <v>       0.58229677       0.08392002       0.40638783 </v>
    <v>       0.66556969       0.91598615       0.50043117 </v>
    <v>       0.16653479       0.91622559       0.49961794 </v>
    <v>       0.83333522       0.08455675       0.40612848 </v>
    <v>       0.74894311       0.00053454       0.59381633 </v>
    <v>       0.33361759       0.58435150       0.40612171 </v>
    <v>       0.16684180       0.41650214       0.50119550 </v>
    <v>       0.49899270       0.50057406       0.59380636 </v>
    <v>       0.25046337      -0.00015931       0.59388236 </v>
    <v>       0.41747979       0.66692196       0.49992913 </v>
    <v>       0.08311651       0.58462788       0.40633237 </v>
    <v>       0.00110941       0.74864857       0.59356810 </v>
    <v>       0.91800429       0.91569491       0.50004837 </v>
    <v>       0.83142167       0.58386260       0.40641365 </v>
    <v>       0.91650020       0.16712959       0.49952606 </v>
    <v>       0.74949686       0.50183789       0.59361634 </v>
    <v>       0.83355723       0.83279905       0.40610509 </v>
    <v>       0.74939725       0.24953407       0.59362987 </v>
    <v>       0.00132629       0.24968732       0.59392887 </v>
    <v>       0.91576600       0.41757549       0.50001260 </v>
    <v>       0.08370123       0.33114918       0.40608532 </v>
    <v>       0.58250706       0.83297788       0.40715891 </v>
    <v>       0.66650901       0.41674686       0.49932626 </v>
    <v>       0.66517464       0.16822293       0.50005145 </v>
    <v>       0.66653199       0.66676666       0.49997491 </v>
    <v>       0.83251655       0.33357160       0.40715014 </v>
    <v>       0.50033681       0.75027336       0.59290574 </v>
    <v>       0.08410330       0.08305204       0.40713510 </v>
    <v>       0.24993150       0.74980591       0.59295721 </v>
    <v>       0.49925137       0.24947143       0.59265164 </v>
    <v>       0.58414642       0.33360489       0.40730623 </v>
    <v>       0.49981190       0.00043541       0.59281966 </v>
    <v>       0.41648289       0.16630744       0.50046380 </v>
    <v>       0.33329663       0.83395339       0.40697258 </v>
    <v>       0.24962146       0.50003740       0.59278740 </v>
    <v>       0.16627373       0.66689571       0.50030863 </v>
    <v>       0.25056170       0.25018404       0.59262533 </v>
    <v>       0.16792688       0.16638445       0.49977637 </v>
    <v>       0.33324155       0.08273145       0.40729452 </v>
    <v>       0.08411839       0.83329098       0.40708115 </v>
    <v>       0.00028889       0.50037075       0.59282211 </v>
    <v>       0.91638580       0.66647341       0.50046427 </v>
    <v>       0.00041710      -0.00046400       0.59322414 </v>
    <v>       0.58379292       0.58316690       0.40733783 </v>
    <v>       0.74957626       0.74959981       0.59270677 </v>
   </varray>
  </structure>
  <varray name="forces" >
   <v>       0.00564146      -0.09189701      -1.06228311 </v>
   <v>       0.04551312      -0.12043186       0.03391942 </v>
   <v>       0.01390793       0.10632005      -0.06255237 </v>
   <v>      -0.09053204      -0.00839355      -0.96015408 </v>
   <v>      -0.00971379      -0.04856864       0.06730799 </v>
   <v>       0.07006390      -0.01912062      -0.05210128 </v>
   <v>       0.07863743       0.13023650      -1.12627643 </v>
   <v>      -0.12730828      -0.00068510       1.05896474 </v>
   <v>       0.16965200       0.10473260      -1.06258463 </v>
   <v>       0.00842056      -0.00788788       0.15203400 </v>
   <v>      -0.11391726       0.09552958       1.09960000 </v>
   <v>       0.08955361      -0.08624132       1.09244833 </v>
   <v>       0.11126206      -0.02958742      -0.01039799 </v>
   <v>       0.04484378       0.02613715      -0.92432284 </v>
   <v>       0.04075305      -0.16235095       1.06177723 </v>
   <v>      -0.07124680      -0.06619363       0.01071464 </v>
   <v>      -0.24343538       0.02981477      -1.01147371 </v>
   <v>       0.01777734       0.09805045      -0.05426381 </v>
   <v>       0.03616096       0.20411304       1.00802634 </v>
   <v>      -0.04433805       0.03214309      -1.05752520 </v>
   <v>      -0.07184024       0.00472761       0.96940891 </v>
   <v>       0.17590191      -0.02222771       1.10298181 </v>
   <v>      -0.04979650       0.09627104       0.00083058 </v>
   <v>      -0.09390371      -0.22181105      -1.08910453 </v>
   <v>      -0.19883977      -0.03113305      -0.68340050 </v>
   <v>      -0.00529771       0.04038430      -0.07121397 </v>
   <v>      -0.07282847       0.03985157      -0.01144614 </v>
   <v>      -0.00849631      -0.04729975      -0.00558031 </v>
   <v>      -0.08723060       0.05846890      -0.68971616 </v>
   <v>       0.06147691       0.11466905       0.65860337 </v>
   <v>       0.10365780      -0.08693760      -0.68816326 </v>
   <v>       0.01372374      -0.00537194       0.67329622 </v>
   <v>      -0.23259054      -0.07987884       0.62240041 </v>
   <v>       0.14501268       0.09274422      -0.59623386 </v>
   <v>      -0.03777043       0.05963049       0.69905660 </v>
   <v>      -0.03557729      -0.03446311       0.08270084 </v>
   <v>       0.07315903       0.10831716      -0.75594993 </v>
   <v>      -0.01503424      -0.00783527       0.69323856 </v>
   <v>       0.00048209      -0.10582172       0.05637859 </v>
   <v>       0.12805315       0.00088857       0.63253011 </v>
   <v>       0.14486981      -0.02781839      -0.01570198 </v>
   <v>      -0.06599789      -0.13797413      -0.62021647 </v>
   <v>       0.14912237       0.04773785      -0.71799098 </v>
   <v>       0.03954890       0.04121395       0.70966929 </v>
   <v>      -0.05761722       0.00092593       0.06622843 </v>
   <v>       0.02782642      -0.05895177       0.75868830 </v>
   <v>       0.02568222      -0.00511697      -0.60661666 </v>
   <v>      -0.08739170      -0.01890859       0.62446552 </v>
  </varray>
  <energy>
   <i name="e_fr_energy">   -189.87051576 </i>
   <i name="e_wo_entrp">   -189.74425630 </i>
   <i name="e_0_energy">     -0.25251892 </i>
  </energy>
  <time name="totalsc">   81.24   81.71</time>
 </calculation>
 <calculation>
  <scstep>
   <time name="dav">    6.92    6.94</time>
   <time name="total">    7.20    7.23</time>
   <dipole>
    <v name="dipole">      0.00000000       0.00000000       0.00316232 </v>
    <i name="Tr[quadrupol]"> -10250.58464380 </i>
    <i name="Echarged">      0.00000000 </i>
    <i name="Edipol_quadrupol">      0.00000000 </i>
    <i name="Eion">      0.00000000 </i>
   </dipole>
   <energy>
    <i name="alphaZ">    805.86989944 </i>
    <i name="ewald"> 189551.76218786 </i>
    <i name="hartreedc">-231803.32354751 </i>
    <i name="XCdc">   -351.04691565 </i>
    <i name="pawpsdc">  48949.62693358 </i>
    <i name="pawaedc"> -47024.11248080 </i>
    <i name="eentropy">     -0.23822275 </i>
    <i name="bandstr">  -1976.63577005 </i>
    <i name="atom">  41659.78587232 </i>
    <i name="e_fr_energy">   -188.31204356 </i>
    <i name="e_wo_entrp">   -188.07382081 </i>
    <i name="e_0_energy">   -188.19293218 </i>
   </energy>
  </scstep>
  <scstep>
   <time name="diag">    1.22    1.22</time>
   <time name="diis">    3.44    3.45</time>
   <time name="orth">    0.28    0.28</time>
   <time name="total">    5.22    5.24</time>
   <dipole>
    <v name="dipole">      0.00000000       0.00000000       0.01352039 </v>
    <i name="Tr[quadrupol]"> -10249.80235577 </i>
    <i name="Echarged">      0.00000000 </i>
    <i name="Edipol_quadrupol">      0.00000000 </i>
    <i name="Eion">      0.00000000 </i>
   </dipole>
   <energy>
    <i name="e_fr_energy">   -191.74359629 </i>
    <i name="e_wo_entrp">   -191.51737829 </i>
    <i name="e_0_energy">   -191.63048729 </i>
   </energy>
  </scstep>
  <scstep>
   <time name="diag">    1.22    1.22</time>
   <time name="diis">    3.52    3.52</time>
   <time name="orth">    0.28    0.28</time>
   <time name="total">    5.30    5.31</time>
   <dipole>
    <v name="dipole">      0.00000000       0.00000000      -0.10895088 </v>
    <i name="Tr[quadrupol]"> -10250.84914055 </i>
    <i name="Echarged">      0.00000000 </i>
    <i name="Edipol_quadrupol">      0.00000000 </i>
    <i name="Eion">      0.00000000 </i>
   </dipole>
   <energy>
    <i name="e_fr_energy">   -192.19843227 </i>
    <i name="e_wo_entrp">   -191.97722056 </i>
    <i name="e_0_energy">   -192.08782642 </i>
   </energy>
  </scstep>
  <scstep>
   <time name="diag">    1.23    1.24</time>
   <time name="diis">    3.40    3.41</time>
   <time name="orth">    0.28    0.28</time>
   <time name="total">    5.19    5.22</time>
   <dipole>
    <v name="dipole">      0.00000000       0.00000000       0.07428464 </v>
    <i name="Tr[quadrupol]"> -10250.67075156 </i>
    <i name="Echarged">      0.00000000 </i>
    <i name="Edipol_quadrupol">      0.00000000 </i>
    <i name="Eion">      0.00000000 </i>
   </dipole>
   <energy>
    <i name="e_fr_energy">   -191.64177981 </i>
    <i name="e_wo_entrp">   -191.41679919 </i>
    <i name="e_0_energy">   -191.52928950 </i>
   </energy>
  </scstep>
  <scstep>
   <time name="diag">    1.22    1.22</time>
   <time name="diis">    3.36    3.37</time>
   <time name="orth">    0.28    0.28</time>
   <time name="total">    5.14    5.16</time>
   <dipole>
    <v name="dipole">      0.00000000       0.00000000      -0.19340263 </v>
    <i name="Tr[quadrupol]"> -10250.65868301 </i>
    <i name="Echarged">      0.00000000 </i>
    <i name="Edipol_quadrupol">      0.00000000 </i>
    <i name="Eion">      0.00000000 </i>
   </dipole>
   <energy>
    <i name="e_fr_energy">   -192.22362907 </i>
    <i name="e_wo_entrp">   -192.02745166 </i>
    <i name="e_0_energy">   -192.12554037 </i>
   </energy>
  </scstep>
  <scstep>
   <time name="diag">    1.22    1.23</time>
   <time name="diis">    3.30    3.40</time>
   <time name="orth">    0.28    0.28</time>
   <time name="total">    5.09    5.19</time>
   <dipole>
    <v name="dipole">      0.00000000       0.00000000       0.04197721 </v>
    <i name="Tr[quadrupol]"> -10250.82153339 </i>
    <i name="Echarged">      0.00000000 </i>
    <i name="Edipol_quadrupol">      0.00000000 </i>
    <i name="Eion">      0.00000000 </i>
   </dipole>
   <energy>
    <i name="e_fr_energy">   -191.58405690 </i>
    <i name="e_wo_entrp">   -191.34537657 </i>
    <i name="e_0_energy">   -191.46471673 </i>
   </energy>
  </scstep>
  <scstep>
   <time name="diag">    1.21    1.22</time>
   <time name="diis">    3.46    3.47</time>
   <time name="orth">    0.28    0.28</time>
   <time name="total">    5.24    5.26</time>
   <dipole>
    <v name="dipole">      0.00000000       0.00000000      -0.00586246 </v>
    <i name="Tr[quadrupol]"> -10250.70171561 </i>
    <i name="Echarged">      0.00000000 </i>
    <i name="Edipol_quadrupol">      0.00000000 </i>
    <i name="Eion">      0.00000000 </i>
   </dipole>
   <energy>
    <i name="e_fr_energy">   -191.51921921 </i>
    <i name="e_wo_entrp">   -191.27815624 </i>
    <i name="e_0_energy">   -191.39868772 </i>
   </energy>
  </scstep>
  <scstep>
   <time name="diag">    1.22    1.23</time>
   <time name="diis">    3.38    3.39</time>
   <time name="orth">    0.28    0.28</time>
   <time name="total">    5.17    5.19</time>
   <dipole>
    <v name="dipole">      0.00000000       0.00000000       0.00191529 </v>
    <i name="Tr[quadrupol]"> -10250.59965649 </i>
    <i name="Echarged">      0.00000000 </i>
    <i name="Edipol_quadrupol">      0.00000000 </i>
    <i name="Eion">      0.00000000 </i>
   </dipole>
   <energy>
    <i name="e_fr_energy">   -191.48804096 </i>
    <i name="e_wo_entrp">   -191.24594266 </i>
    <i name="e_0_energy">   -191.36699181 </i>
   </energy>
  </scstep>
  <scstep>
   <time name="diag">    1.22    1.22</time>
   <time name="diis">    3.40    3.41</time>
   <time name="orth">    0.28    0.28</time>
   <time name="total">    5.20    5.21</time>
   <dipole>
    <v name="dipole">      0.00000000       0.00000000      -0.00054043 </v>
    <i name="Tr[quadrupol]"> -10250.59391925 </i>
    <i name="Echarged">      0.00000000 </i>
    <i name="Edipol_quadrupol">      0.00000000 </i>
    <i name="Eion">      0.00000000 </i>
   </dipole>
   <energy>
    <i name="e_fr_energy">   -191.48425550 </i>
    <i name="e_wo_entrp">   -191.24010536 </i>
    <i name="e_0_energy">   -191.36218043 </i>
   </energy>
  </scstep>
  <scstep>
   <time name="diag">    1.22    1.23</time>
   <time name="diis">    3.43    3.44</time>
   <time name="orth">    0.28    0.28</time>
   <time name="total">    5.22    5.24</time>
   <dipole>
    <v name="dipole">      0.00000000       0.00000000       0.00094600 </v>
    <i name="Tr[quadrupol]"> -10250.58310654 </i>
    <i name="Echarged">      0.00000000 </i>
    <i name="Edipol_quadrupol">      0.00000000 </i>
    <i name="Eion">      0.00000000 </i>
   </dipole>
   <energy>
    <i name="e_fr_energy">   -191.48315631 </i>
    <i name="e_wo_entrp">   -191.23935175 </i>
    <i name="e_0_energy">   -191.36125403 </i>
   </energy>
  </scstep>
  <scstep>
   <time name="diag">    1.22    1.22</time>
   <time name="diis">    3.48    3.48</time>
   <time name="orth">    0.28    0.28</time>
   <time name="total">    5.26    5.27</time>
   <dipole>
    <v name="dipole">      0.00000000       0.00000000       0.00053206 </v>
    <i name="Tr[quadrupol]"> -10250.59555188 </i>
    <i name="Echarged">      0.00000000 </i>
    <i name="Edipol_quadrupol">      0.00000000 </i>
    <i name="Eion">      0.00000000 </i>
[...]
       <r>    2.2978    0.0000 </r>
       <r>    2.3513    0.0000 </r>
       <r>    2.4056    0.0000 </r>
       <r>    2.4527    0.0000 </r>
       <r>    2.7099    0.0000 </r>
       <r>    2.9724    0.0000 </r>
       <r>    3.1600    0.0000 </r>
       <r>    3.2932    0.0000 </r>
       <r>    3.5030    0.0000 </r>
       <r>    3.6251    0.0000 </r>
       <r>    3.7803    0.0000 </r>
       <r>    4.0064    0.0000 </r>
       <r>    4.0667    0.0000 </r>
       <r>    4.1986    0.0000 </r>
       <r>    4.4274    0.0000 </r>
       <r>    4.5425    0.0000 </r>
       <r>    4.5869    0.0000 </r>
       <r>    4.6405    0.0000 </r>
       <r>    4.7170    0.0000 </r>
       <r>    4.8027    0.0000 </r>
       <r>    4.8776    0.0000 </r>
       <r>    4.9193    0.0000 </r>
       <r>    4.9765    0.0000 </r>
       <r>    4.9893    0.0000 </r>
       <r>    5.0625    0.0000 </r>
       <r>    5.0933    0.0000 </r>
       <r>    5.1957    0.0000 </r>
       <r>    5.2496    0.0000 </r>
      </set>
     </set>
    </set>
   </array>
  </eigenvalues>
  <separator name="orbital magnetization" >
   <v name="MAGDIPOLOUT">      0.00000000      0.00000000      0.00000000</v>
  </separator>
  <dos>
   <i name="efermi">     -1.10315248 </i>
   <total>
    <array>
     <dimension dim="1">gridpoints</dimension>
     <dimension dim="2">spin</dimension>
     <field>energy</field>
     <field>total</field>
     <field>integrated</field>
     <set>
      <set comment="spin 1">
       <r>    -9.7597     0.0000     0.0000 </r>
       <r>    -9.7059     0.0000     0.0000 </r>
       <r>    -9.6521     0.0000     0.0000 </r>
       <r>    -9.5983     0.0000     0.0000 </r>
       <r>    -9.5445     0.0000     0.0000 </r>
       <r>    -9.4907     0.0000     0.0000 </r>
       <r>    -9.4369     0.0000     0.0000 </r>
       <r>    -9.3831     0.0000     0.0000 </r>
       <r>    -9.3293     0.0000     0.0000 </r>
       <r>    -9.2755     0.0000     0.0000 </r>
       <r>    -9.2217     0.0000     0.0000 </r>
       <r>    -9.1679     0.0000     0.0000 </r>
       <r>    -9.1141     0.0000     0.0000 </r>
       <r>    -9.0603     0.0002     0.0000 </r>
       <r>    -9.0065     0.0037     0.0002 </r>
       <r>    -8.9527     0.0485     0.0028 </r>
       <r>    -8.8989     0.3630     0.0224 </r>
       <r>    -8.8451     1.5589     0.1062 </r>
       <r>    -8.7913     3.8520     0.3135 </r>
       <r>    -8.7375     5.5060     0.6097 </r>
       <r>    -8.6837     4.7338     0.8643 </r>
       <r>    -8.6299     3.2998     1.0419 </r>
       <r>    -8.5761     3.8662     1.2499 </r>
       <r>    -8.5223     5.3870     1.5397 </r>
       <r>    -8.4685     4.9327     1.8050 </r>
       <r>    -8.4147     2.6446     1.9473 </r>
       <r>    -8.3609     0.8311     1.9920 </r>
       <r>    -8.3071     0.2571     2.0059 </r>
       <r>    -8.2533     0.6075     2.0385 </r>
       <r>    -8.1995     1.9923     2.1457 </r>
       <r>    -8.1457     4.4679     2.3861 </r>
       <r>    -8.0919     7.3033     2.7790 </r>
       <r>    -8.0381     9.6511     3.2982 </r>
       <r>    -7.9843    10.7171     3.8748 </r>
       <r>    -7.9305     9.5263     4.3873 </r>
       <r>    -7.8767     6.9349     4.7604 </r>
       <r>    -7.8229     5.2976     5.0454 </r>
       <r>    -7.7691     5.3434     5.3328 </r>
       <r>    -7.7153     5.9428     5.6525 </r>
       <r>    -7.6615     5.9378     5.9720 </r>
       <r>    -7.6077     5.6340     6.2751 </r>
       <r>    -7.5539     6.0730     6.6018 </r>
       <r>    -7.5001     7.3755     6.9986 </r>
       <r>    -7.4463     8.8771     7.4762 </r>
       <r>    -7.3925    10.3758     8.0344 </r>
       <r>    -7.3387    12.2809     8.6951 </r>
       <r>    -7.2850    13.8418     9.4397 </r>
       <r>    -7.2312    13.2542    10.1528 </r>
       <r>    -7.1774    11.0887    10.7493 </r>
       <r>    -7.1236    10.3057    11.3037 </r>
       <r>    -7.0698    12.6822    11.9860 </r>
       <r>    -7.0160    18.5482    12.9839 </r>
       <r>    -6.9622    26.3784    14.4030 </r>
       <r>    -6.9084    32.5058    16.1518 </r>
       <r>    -6.8546    35.8608    18.0810 </r>
       <r>    -6.8008    38.9214    20.1749 </r>
       <r>    -6.7470    43.2695    22.5027 </r>
       <r>    -6.6932    47.3465    25.0499 </r>
       <r>    -6.6394    48.4569    27.6568 </r>
       <r>    -6.5856    47.2720    30.2000 </r>
       <r>    -6.5318    47.6180    32.7617 </r>
       <r>    -6.4780    51.3416    35.5238 </r>
       <r>    -6.4242    57.2427    38.6034 </r>
       <r>    -6.3704    63.1546    42.0010 </r>
       <r>    -6.3166    67.1123    45.6115 </r>
       <r>    -6.2628    69.9437    49.3744 </r>
       <r>    -6.2090    74.2772    53.3704 </r>
       <r>    -6.1552    79.3148    57.6374 </r>
       <r>    -6.1014    81.8807    62.0424 </r>
       <r>    -6.0476    81.4230    66.4228 </r>
       <r>    -5.9938    80.5467    70.7561 </r>
       <r>    -5.9400    81.1545    75.1221 </r>
       <r>    -5.8862    81.8256    79.5242 </r>
       <r>    -5.8324    81.2068    83.8930 </r>
       <r>    -5.7786    80.0102    88.1974 </r>
       <r>    -5.7248    77.8340    92.3847 </r>
       <r>    -5.6710    73.9057    96.3607 </r>
       <r>    -5.6172    68.9524   100.0702 </r>
       <r>    -5.5634    64.0747   103.5174 </r>
       <r>    -5.5096    60.1974   106.7559 </r>
       <r>    -5.4558    58.6034   109.9086 </r>
       <r>    -5.4020    60.4901   113.1629 </r>
       <r>    -5.3482    65.8384   116.7049 </r>
       <r>    -5.2944    72.5204   120.6064 </r>
       <r>    -5.2406    77.0356   124.7508 </r>
       <r>    -5.1868    79.4857   129.0270 </r>
       <r>    -5.1330    83.3230   133.5096 </r>
       <r>    -5.0792    88.7026   138.2817 </r>
       <r>    -5.0254    92.5005   143.2580 </r>
       <r>    -4.9716    92.7749   148.2492 </r>
       <r>    -4.9178    90.3635   153.1106 </r>
       <r>    -4.8640    87.2100   157.8023 </r>
       <r>    -4.8102    84.3722   162.3414 </r>
       <r>    -4.7564    82.0740   166.7568 </r>
       <r>    -4.7026    80.8295   171.1053 </r>
       <r>    -4.6488    81.5355   175.4918 </r>
       <r>    -4.5950    83.3617   179.9765 </r>
       <r>    -4.5412    84.7795   184.5375 </r>
       <r>    -4.4874    86.3848   189.1849 </r>
       <r>    -4.4336    88.3017   193.9354 </r>
       <r>    -4.3798    88.0745   198.6736 </r>
       <r>    -4.3260    84.7774   203.2345 </r>
       <r>    -4.2722    81.4666   207.6173 </r>
       <r>    -4.2184    81.7799   212.0169 </r>
       <r>    -4.1646    86.0858   216.6482 </r>
       <r>    -4.1108    91.1217   221.5504 </r>
       <r>    -4.0571    93.1558   226.5620 </r>
       <r>    -4.0033    91.7506   231.4980 </r>
       <r>    -3.9495    90.4535   236.3643 </r>
       <r>    -3.8957    92.1256   241.3205 </r>
       <r>    -3.8419    94.6107   246.4104 </r>
       <r>    -3.7881    95.3919   251.5423 </r>
       <r>    -3.7343    95.0210   256.6543 </r>
       <r>    -3.6805    94.0670   261.7149 </r>
       <r>    -3.6267    93.8328   266.7630 </r>
       <r>    -3.5729    96.3224   271.9450 </r>
       <r>    -3.5191   100.3897   277.3458 </r>
       <r>    -3.4653   103.0127   282.8877 </r>
       <r>    -3.4115   104.0300   288.4843 </r>
       <r>    -3.3577   104.9217   294.1289 </r>
       <r>    -3.3039   104.5242   299.7521 </r>
       <r>    -3.2501   101.7495   305.2261 </r>
       <r>    -3.1963    98.0071   310.4987 </r>
       <r>    -3.1425    94.6178   315.5890 </r>
       <r>    -3.0887    91.6865   320.5216 </r>
       <r>    -3.0349    89.1244   325.3163 </r>
       <r>    -2.9811    88.1763   330.0601 </r>
       <r>    -2.9273    89.5466   334.8775 </r>
       <r>    -2.8735    91.1480   339.7811 </r>
       <r>    -2.8197    91.5633   344.7071 </r>
       <r>    -2.7659    90.8047   349.5922 </r>
       <r>    -2.7121    88.9297   354.3765 </r>
       <r>    -2.6583    87.6532   359.0921 </r>
       <r>    -2.6045    89.0073   363.8805 </r>
       <r>    -2.5507    93.0420   368.8860 </r>
       <r>    -2.4969    97.7356   374.1440 </r>
       <r>    -2.4431    99.9125   379.5192 </r>
       <r>    -2.3893    98.3771   384.8117 </r>
       <r>    -2.3355    94.7505   389.9091 </r>
       <r>    -2.2817    90.6896   394.7881 </r>
       <r>    -2.2279    87.7386   399.5082 </r>
       <r>    -2.1741    86.9885   404.1881 </r>
       <r>    -2.1203    88.1191   408.9287 </r>
       <r>    -2.0665    91.0544   413.8273 </r>
       <r>    -2.0127    95.8419   418.9835 </r>
       <r>    -1.9589   100.7590   424.4041 </r>
       <r>    -1.9051   103.1129   429.9514 </r>
       <r>    -1.8513   102.8483   435.4845 </r>
       <r>    -1.7975   103.0114   441.0263 </r>
       <r>    -1.7437   104.4149   446.6437 </r>
       <r>    -1.6899   104.8662   452.2853 </r>
       <r>    -1.6361   104.2338   457.8929 </r>
       <r>    -1.5823   103.6450   463.4688 </r>
       <r>    -1.5285   102.8792   469.0036 </r>
       <r>    -1.4747   102.3144   474.5079 </r>
       <r>    -1.4209   101.7158   479.9800 </r>
       <r>    -1.3671    98.5618   485.2825 </r>
       <r>    -1.3133    90.9610   490.1761 </r>
       <r>    -1.2595    80.1440   494.4877 </r>
       <r>    -1.2057    69.4348   498.2231 </r>
       <r>    -1.1519    60.3966   501.4724 </r>
       <r>    -1.0981    51.3419   504.2345 </r>
       <r>    -1.0443    40.5743   506.4173 </r>
       <r>    -0.9905    28.1822   507.9335 </r>
       <r>    -0.9367    17.4966   508.8748 </r>
       <r>    -0.8830    12.0106   509.5209 </r>
       <r>    -0.8292    10.4964   510.0856 </r>
       <r>    -0.7754     9.8013   510.6129 </r>
       <r>    -0.7216     8.8681   511.0900 </r>
       <r>    -0.6678     8.6507   511.5554 </r>
       <r>    -0.6140    10.1501   512.1014 </r>
       <r>    -0.5602    13.8618   512.8472 </r>
       <r>    -0.5064    19.1021   513.8748 </r>
       <r>    -0.4526    23.6234   515.1457 </r>
       <r>    -0.3988    24.7575   516.4777 </r>
       <r>    -0.3450    22.6753   517.6975 </r>
       <r>    -0.2912    21.6600   518.8628 </r>
       <r>    -0.2374    22.6049   520.0789 </r>
       <r>    -0.1836    21.2799   521.2237 </r>
       <r>    -0.1298    16.6048   522.1171 </r>
       <r>    -0.0760    11.7024   522.7466 </r>
       <r>    -0.0222     9.1118   523.2368 </r>
       <r>     0.0316     9.4737   523.7465 </r>
       <r>     0.0854    11.8786   524.3855 </r>
       <r>     0.1392    14.2730   525.1534 </r>
       <r>     0.1930    14.6582   525.9420 </r>
       <r>     0.2468    13.7766   526.6831 </r>
       <r>     0.3006    14.1241   527.4430 </r>
       <r>     0.3544    15.8913   528.2979 </r>
       <r>     0.4082    17.9000   529.2609 </r>
       <r>     0.4620    20.3734   530.3570 </r>
       <r>     0.5158    22.6782   531.5770 </r>
       <r>     0.5696    23.5704   532.8451 </r>
       <r>     0.6234    24.1748   534.1456 </r>
       <r>     0.6772    25.6796   535.5271 </r>
       <r>     0.7310    26.3142   536.9428 </r>
       <r>     0.7848    23.7355   538.2197 </r>
       <r>     0.8386    18.6801   539.2247 </r>
       <r>     0.8924    13.3361   539.9422 </r>
       <r>     0.9462     9.1112   540.4323 </r>
       <r>     1.0000     6.6654   540.7909 </r>
       <r>     1.0538     6.3127   541.1305 </r>
       <r>     1.1076     8.1068   541.5667 </r>
       <r>     1.1614     9.5898   542.0826 </r>
       <r>     1.2152     8.3764   542.5332 </r>
       <r>     1.2690     6.7367   542.8956 </r>
       <r>     1.3228     7.5427   543.3014 </r>
       <r>     1.3766     9.9571   543.8371 </r>
       <r>     1.4304    12.0072   544.4830 </r>
       <r>     1.4842    13.5424   545.2116 </r>
       <r>     1.5380    14.8704   546.0116 </r>
       <r>     1.5918    15.5002   546.8455 </r>
       <r>     1.6456    14.6786   547.6352 </r>
       <r>     1.6994    12.8704   548.3276 </r>
       <r>     1.7532    12.8823   549.0206 </r>
       <r>     1.8070    15.9100   549.8766 </r>
       <r>     1.8608    18.2643   550.8592 </r>
       <r>     1.9146    16.4109   551.7420 </r>
       <r>     1.9684    12.2000   552.3984 </r>
       <r>     2.0222     8.9291   552.8787 </r>
       <r>     2.0760     7.9259   553.3051 </r>
       <r>     2.1298     9.4027   553.8110 </r>
       <r>     2.1836    12.8576   554.5027 </r>
       <r>     2.2374    18.2071   555.4822 </r>
       <r>     2.2912    24.6037   556.8059 </r>
       <r>     2.3449    28.8813   558.3596 </r>
       <r>     2.3987    29.0693   559.9235 </r>
       <r>     2.4525    26.6328   561.3563 </r>
       <r>     2.5063    23.5837   562.6251 </r>
       <r>     2.5601    21.0044   563.7551 </r>
       <r>     2.6139    20.1431   564.8387 </r>
       <r>     2.6677    20.8284   565.9593 </r>
       <r>     2.7215    20.0684   567.0389 </r>
       <r>     2.7753    16.1361   567.9070 </r>
       <r>     2.8291    11.2742   568.5135 </r>
       <r>     2.8829     7.9943   568.9436 </r>
       <r>     2.9367     6.8528   569.3123 </r>
       <r>     2.9905     6.4536   569.6595 </r>
       <r>     3.0443     5.3906   569.9495 </r>
       <r>     3.0981     4.9094   570.2136 </r>
       <r>     3.1519     6.1076   570.5422 </r>
       <r>     3.2057     8.0226   570.9738 </r>
       <r>     3.2595     9.9835   571.5109 </r>
       <r>     3.3133    11.5581   572.1327 </r>
       <r>     3.3671    11.9148   572.7737 </r>
       <r>     3.4209    11.8631   573.4119 </r>
       <r>     3.4747    12.8823   574.1050 </r>
       <r>     3.5285    14.7220   574.8970 </r>
       <r>     3.5823    16.7038   575.7956 </r>
       <r>     3.6361    18.0310   576.7656 </r>
       <r>     3.6899    18.0958   577.7392 </r>
       <r>     3.7437    17.6074   578.6864 </r>
       <r>     3.7975    16.1631   579.5560 </r>
       <r>     3.8513    12.8997   580.2499 </r>
       <r>     3.9051     9.8871   580.7819 </r>
       <r>     3.9589    10.4051   581.3416 </r>
       <r>     4.0127    14.5242   582.1230 </r>
       <r>     4.0665    17.0000   583.0376 </r>
       <r>     4.1203    14.8410   583.8360 </r>
       <r>     4.1741    12.6002   584.5139 </r>
       <r>     4.2279    12.1275   585.1663 </r>
       <r>     4.2817     9.9725   585.7028 </r>
       <r>     4.3355     7.3844   586.1001 </r>
       <r>     4.3893     8.5512   586.5601 </r>
       <r>     4.4431    12.2119   587.2171 </r>
       <r>     4.4969    15.1462   588.0319 </r>
       <r>     4.5507    18.6160   589.0335 </r>
       <r>     4.6045    24.0175   590.3256 </r>
       <r>     4.6583    28.6943   591.8693 </r>
       <r>     4.7121    29.6843   593.4662 </r>
       <r>     4.7659    27.3685   594.9386 </r>
       <r>     4.8197    24.7283   596.2689 </r>
       <r>     4.8735    24.1303   597.5671 </r>
       <r>     4.9273    25.8735   598.9591 </r>
       <r>     4.9811    28.7454   600.5055 </r>
       <r>     5.0349    31.6039   602.2058 </r>
       <r>     5.0887    33.2410   603.9941 </r>
       <r>     5.1425    32.1857   605.7256 </r>
       <r>     5.1963    30.0249   607.3409 </r>
       <r>     5.2501    28.1787   608.8569 </r>
       <r>     5.3039    24.4208   610.1707 </r>
       <r>     5.3577    17.6937   611.1225 </r>
       <r>     5.4115    10.1876   611.6706 </r>
       <r>     5.4653     4.4439   611.9097 </r>
       <r>     5.5191     1.3672   611.9832 </r>
       <r>     5.5728     0.2748   611.9980 </r>
       <r>     5.6266     0.0340   611.9999 </r>
       <r>     5.6804     0.0025   612.0000 </r>
       <r>     5.7342     0.0001   612.0000 </r>
       <r>     5.7880     0.0000   612.0000 </r>
       <r>     5.8418     0.0000   612.0000 </r>
       <r>     5.8956     0.0000   612.0000 </r>
       <r>     5.9494     0.0000   612.0000 </r>
       <r>     6.0032     0.0000   612.0000 </r>
       <r>     6.0570     0.0000   612.0000 </r>
       <r>     6.1108     0.0000   612.0000 </r>
       <r>     6.1646     0.0000   612.0000 </r>
       <r>     6.2184     0.0000   612.0000 </r>
       <r>     6.2722     0.0000   612.0000 </r>
       <r>     6.3260     0.0000   612.0000 </r>
       <r>     6.3798     0.0000   612.0000 </r>
      </set>
     </set>
    </array>
   </total>
  </dos>
 </calculation>
 <structure name="finalpos" >
  <crystal>
   <varray name="basis" >
    <v>      11.00258152       0.00000000       0.00000000 </v>
    <v>       5.50129076       9.52851510       0.00000000 </v>
    <v>       0.00000000       0.00000000      24.49178509 </v>
   </varray>
   <i name="volume">   2567.67623402 </i>
   <varray name="rec_basis" >
    <v>       0.09088776      -0.05247407       0.00000000 </v>
    <v>       0.00000000       0.10494815       0.00000000 </v>
    <v>       0.00000000       0.00000000       0.04083002 </v>
   </varray>
  </crystal>
  <varray name="positions" >
   <v>       0.33452560       0.33185765       0.39248853 </v>
   <v>       0.41930662       0.41392882       0.49973087 </v>
   <v>       0.41659479       0.91845153       0.50063420 </v>
   <v>       0.58180013       0.08400312       0.39659985 </v>
   <v>       0.66710699       0.91595517       0.49922485 </v>
   <v>       0.16741603       0.91608526       0.50106913 </v>
   <v>       0.83377250       0.08610480       0.39713638 </v>
   <v>       0.74803261       0.00003229       0.60261340 </v>
   <v>       0.33482365       0.58557430       0.39607043 </v>
   <v>       0.16762719       0.41556098       0.49794833 </v>
   <v>       0.49592625       0.50205130       0.60645769 </v>
   <v>       0.25158372      -0.00094428       0.60548543 </v>
   <v>       0.41894687       0.66468943       0.50120663 </v>
   <v>       0.08332775       0.58442241       0.39538665 </v>
   <v>       0.00199304       0.74739761       0.60090481 </v>
   <v>       0.91803638       0.91428549       0.49977201 </v>
   <v>       0.82930058       0.58390559       0.39720169 </v>
   <v>       0.91572122       0.16760075       0.50199201 </v>
   <v>       0.74895958       0.50394651       0.60457504 </v>
   <v>       0.83256908       0.83403195       0.39453979 </v>
   <v>       0.74837609       0.25005705       0.60493935 </v>
   <v>       0.00274056       0.25003963       0.60589473 </v>
   <v>       0.91552293       0.41795072       0.50084029 </v>
   <v>       0.08287029       0.32903292       0.39492523 </v>
   <v>       0.58025272       0.83295220       0.40248459 </v>
   <v>       0.66655416       0.41643880       0.50423398 </v>
   <v>       0.66707888       0.16653484       0.50069905 </v>
   <v>       0.66848441       0.66497933       0.50052476 </v>
   <v>       0.83110174       0.33443405       0.40532274 </v>
   <v>       0.49981297       0.75184298       0.59850858 </v>
   <v>       0.08452009       0.08236123       0.40413384 </v>
   <v>       0.24963573       0.74985838       0.59796167 </v>
   <v>       0.49782981       0.24901167       0.59631973 </v>
   <v>       0.58435093       0.33482253       0.40460740 </v>
   <v>       0.49867726       0.00167221       0.59722510 </v>
   <v>       0.41780846       0.16647153       0.49778831 </v>
   <v>       0.33309985       0.83524632       0.40263061 </v>
   <v>       0.24959668       0.49929378       0.59559293 </v>
   <v>       0.16710601       0.66495548       0.49851938 </v>
   <v>       0.25137396       0.25067279       0.59559459 </v>
   <v>       0.16753173       0.16738650       0.50106153 </v>
   <v>       0.33274067       0.08182368       0.40273733 </v>
   <v>       0.08470952       0.83426000       0.40191972 </v>
   <v>       0.00070126       0.50057998       0.59596073 </v>
   <v>       0.91708203       0.66622708       0.49772260 </v>
   <v>       0.00044558      -0.00083890       0.59993531 </v>
   <v>       0.58351172       0.58277635       0.40496810 </v>
   <v>       0.74911338       0.75021617       0.59591011 </v>
  </varray>
 </structure>
</modeling>
