unknown system                          
           1
    11.002582    0.000000    0.000000
     5.501291    9.528515    0.000000
     0.000000    0.000000   24.491785
   Au   Pd
  24  24
Direct configuration=     1
   0.33333333  0.33333333  0.40830017
   0.41666667  0.41666667  0.50000000
   0.41666667  0.91666667  0.50000000
   0.58333333  0.08333333  0.40830017
   0.66666667  0.91666667  0.50000000
   0.16666667  0.91666667  0.50000000
   0.83333333  0.08333333  0.40830017
   0.75000000  0.00000000  0.59169983
   0.33333333  0.58333333  0.40830017
   0.16666667  0.41666667  0.50000000
   0.50000000  0.50000000  0.59169983
   0.25000000  0.00000000  0.59169983
   0.41666667  0.66666667  0.50000000
   0.08333333  0.58333333  0.40830017
   0.00000000  0.75000000  0.59169983
   0.91666667  0.91666667  0.50000000
   0.83333333  0.58333333  0.40830017
   0.91666667  0.16666667  0.50000000
   0.75000000  0.50000000  0.59169983
   0.83333333  0.83333333  0.40830017
   0.75000000  0.25000000  0.59169983
   0.00000000  0.25000000  0.59169983
   0.91666667  0.41666667  0.50000000
   0.08333333  0.33333333  0.40830017
   0.58333333  0.83333333  0.40830017
   0.66666667  0.41666667  0.50000000
   0.66666667  0.16666667  0.50000000
   0.66666667  0.66666667  0.50000000
   0.83333333  0.33333333  0.40830017
   0.50000000  0.75000000  0.59169983
   0.08333333  0.08333333  0.40830017
   0.25000000  0.75000000  0.59169983
   0.50000000  0.25000000  0.59169983
   0.58333333  0.33333333  0.40830017
   0.50000000  0.00000000  0.59169983
   0.41666667  0.16666667  0.50000000
   0.33333333  0.83333333  0.40830017
   0.25000000  0.50000000  0.59169983
   0.16666667  0.66666667  0.50000000
   0.25000000  0.25000000  0.59169983
   0.16666667  0.16666667  0.50000000
   0.33333333  0.08333333  0.40830017
   0.08333333  0.83333333  0.40830017
   0.00000000  0.50000000  0.59169983
   0.91666667  0.66666667  0.50000000
   0.00000000  0.00000000  0.59169983
   0.58333333  0.58333333  0.40830017
   0.75000000  0.75000000  0.59169983
Direct configuration=     2
   0.33443454  0.33192454  0.40607121
   0.41798957  0.41500749  0.50041323
   0.41729933  0.91724733  0.49962999
   0.58229677  0.08392002  0.40638783
   0.66556969  0.91598615  0.50043117
   0.16653479  0.91622559  0.49961794
   0.83333522  0.08455675  0.40612848
   0.74894311  0.00053454  0.59381633
   0.33361759  0.58435150  0.40612171
   0.16684180  0.41650214  0.50119550
   0.49899270  0.50057406  0.59380636
   0.25046337 -0.00015931  0.59388236
   0.41747979  0.66692196  0.49992913
   0.08311651  0.58462788  0.40633237
   0.00110941  0.74864857  0.59356810
   0.91800429  0.91569491  0.50004837
   0.83142167  0.58386260  0.40641365
   0.91650020  0.16712959  0.49952606
   0.74949686  0.50183789  0.59361634
   0.83355723  0.83279905  0.40610509
   0.74939725  0.24953407  0.59362987
   0.00132629  0.24968732  0.59392887
   0.91576600  0.41757549  0.50001260
   0.08370123  0.33114918  0.40608532
   0.58250706  0.83297788  0.40715891
   0.66650901  0.41674686  0.49932626
   0.66517464  0.16822293  0.50005145
   0.66653199  0.66676666  0.49997491
   0.83251655  0.33357160  0.40715014
   0.50033681  0.75027336  0.59290574
   0.08410330  0.08305204  0.40713510
   0.24993150  0.74980591  0.59295721
   0.49925137  0.24947143  0.59265164
   0.58414642  0.33360489  0.40730623
   0.49981190  0.00043541  0.59281966
   0.41648289  0.16630744  0.50046380
   0.33329663  0.83395339  0.40697258
   0.24962146  0.50003740  0.59278740
   0.16627373  0.66689571  0.50030863
   0.25056170  0.25018404  0.59262533
   0.16792688  0.16638445  0.49977637
   0.33324155  0.08273145  0.40729452
   0.08411839  0.83329098  0.40708115
   0.00028889  0.50037075  0.59282211
   0.91638580  0.66647341  0.50046427
   0.00041710 -0.00046400  0.59322414
   0.58379292  0.58316690  0.40733783
   0.74957626  0.74959981  0.59270677
Direct configuration=     3
   0.33773816  0.32769816  0.39938432
   0.42195828  0.41002995  0.50165294
   0.41919732  0.91898930  0.49851997
   0.57918707  0.08568009  0.40065081
   0.66227878  0.91394460  0.50172468
   0.16613918  0.91490235  0.49847175
   0.83334088  0.08822700  0.39961341
   0.74577246  0.00213816  0.60016582
   0.33447036  0.58740600  0.39958632
   0.16736720  0.41600856  0.50478201
   0.49597080  0.50229625  0.60012594
   0.25185348 -0.00063723  0.60042994
   0.41991918  0.66768785  0.49971652
   0.08246603  0.58851151  0.40042897
   0.00443765  0.74459428  0.59917290
   0.92201715  0.91277966  0.50019349
   0.82568666  0.58545039  0.40075408
   0.91600082  0.16851834  0.49810423
   0.74798745  0.50735158  0.59936587
   0.83422892  0.83119620  0.39951985
   0.74758901  0.24813628  0.59941998
   0.00530516  0.24874927  0.60061599
   0.91306399  0.42030198  0.50005039
   0.08480493  0.32459671  0.39944075
   0.58002823  0.83191150  0.40373514
   0.66603606  0.41698744  0.49730505
   0.66069856  0.17289171  0.50020582
   0.66612798  0.66706663  0.49989963
   0.83006620  0.33428638  0.40370005
   0.50134725  0.75109345  0.59652346
   0.08641322  0.08220815  0.40363989
   0.24972602  0.74922364  0.59672934
   0.49700549  0.24788572  0.59550707
   0.58658568  0.33441955  0.40432440
   0.49924761  0.00174166  0.59617913
   0.41593156  0.16522977  0.50185519
   0.33318652  0.83581356  0.40298980
   0.24848586  0.50014958  0.59605010
   0.16509492  0.66758286  0.50123453
   0.25224681  0.25073615  0.59540184
   0.17170752  0.16553782  0.49910548
   0.33296621  0.08092580  0.40427757
   0.08647355  0.83316393  0.40342408
   0.00115556  0.50148300  0.59618897
   0.91554319  0.66589364  0.50185709
   0.00166840 -0.00185601  0.59779705
   0.58517168  0.58266759  0.40445082
   0.74830504  0.74839924  0.59572758
Direct configuration=     4
   0.33508995  0.33077195  0.39801602
   0.41893154  0.41376898  0.50109037
   0.41602494  0.91869224  0.49897880
   0.58180159  0.08315544  0.39941967
   0.66654097  0.91512776  0.50128551
   0.16801464  0.91587319  0.49901992
   0.83365431  0.08637343  0.39796707
   0.74727011  0.00013003  0.60152171
   0.33537572  0.58609946  0.39824823
   0.16696218  0.41650726  0.50320178
   0.49651180  0.50210977  0.60180434
   0.25255942 -0.00159521  0.60187384
   0.41913478  0.66662912  0.49985031
   0.08375534  0.58513636  0.39941154
   0.00270810  0.74646934  0.60100171
   0.91735804  0.91466999  0.50022684
   0.82808385  0.58425973  0.39921480
   0.91604408  0.16851655  0.49872470
   0.74856315  0.50466488  0.60085978
   0.83237586  0.83365589  0.39822375
   0.74816372  0.24971307  0.60065855
   0.00400232  0.24948937  0.60201544
   0.91418637  0.41917986  0.50004090
   0.08393398  0.32741451  0.39795076
   0.57991983  0.83262143  0.40248080
   0.66613105  0.41752657  0.49831308
   0.66441756  0.16823800  0.50007143
   0.66685071  0.66576654  0.49992377
   0.83101018  0.33465926  0.40237663
   0.49993612  0.75235218  0.59740384
   0.08613369  0.08117861  0.40251023
   0.25014245  0.74982424  0.59754960
   0.49664366  0.24840824  0.59693254
   0.58495730  0.33524703  0.40321806
   0.49860211  0.00140267  0.59764965
   0.41636892  0.16577955  0.50117224
   0.33347350  0.83572314  0.40173807
   0.24990026  0.49975543  0.59755624
   0.16759560  0.66464140  0.50085660
   0.25232269  0.24990497  0.59705063
   0.16991852  0.16620411  0.49944619
   0.33358640  0.08036563  0.40306767
   0.08567046  0.83444831  0.40217964
   0.00030336  0.50096158  0.59778255
   0.91548910  0.66665229  0.50126396
   0.00133205 -0.00165594  0.59865239
   0.58358888  0.58322723  0.40323204
   0.74865884  0.74995454  0.59696580
Direct configuration=     5
   0.33428983  0.33170065  0.39760260
   0.41801705  0.41489868  0.50092040
   0.41506645  0.91860249  0.49911742
   0.58259153  0.08239266  0.39904770
   0.66782874  0.91548523  0.50115281
   0.16858129  0.91616652  0.49918554
   0.83374901  0.08581340  0.39746966
   0.74772261 -0.00047671  0.60193137
   0.33564926  0.58570471  0.39784395
   0.16683982  0.41665793  0.50272434
   0.49667526  0.50205343  0.60231145
   0.25277270 -0.00188465  0.60231010
   0.41889778  0.66630924  0.49989073
   0.08414489  0.58411661  0.39910414
   0.00218555  0.74703586  0.60155426
   0.91595036  0.91524113  0.50023692
   0.82880813  0.58389999  0.39874973
   0.91605715  0.16851601  0.49891217
   0.74873710  0.50385313  0.60131115
   0.83181598  0.83439906  0.39783215
   0.74833736  0.25018947  0.60103277
   0.00360869  0.24971299  0.60243827
   0.91452548  0.41884083  0.50003803
   0.08367083  0.32826587  0.39750058
   0.57988708  0.83283592  0.40210182
   0.66615975  0.41768947  0.49861765
   0.66554121  0.16683195  0.50003083
   0.66706907  0.66537373  0.49993107
   0.83129540  0.33477192  0.40197678
   0.49950977  0.75273249  0.59766983
   0.08604923  0.08086755  0.40216892
   0.25026827  0.75000570  0.59779743
   0.49653433  0.24856612  0.59736323
   0.58446531  0.33549704  0.40288379
   0.49840708  0.00130025  0.59809395
   0.41650106  0.16594566  0.50096589
   0.33356021  0.83569582  0.40135988
   0.25032760  0.49963635  0.59801129
   0.16835115  0.66375268  0.50074242
   0.25234562  0.24965385  0.59754879
   0.16937799  0.16640542  0.49954914
   0.33377378  0.08019639  0.40270211
   0.08542781  0.83483637  0.40180365
   0.00004588  0.50080403  0.59826404
   0.91547275  0.66688150  0.50108475
   0.00123042 -0.00159549  0.59891082
   0.58311065  0.58339632  0.40286380
   0.74876573  0.75042446  0.59733991
Direct configuration=     6
   0.33429426  0.33175320  0.39726821
   0.41868367  0.41454142  0.50060564
   0.41672112  0.91824146  0.49946049
   0.58214806  0.08305821  0.39874620
   0.66653776  0.91576832  0.50086984
   0.16685733  0.91628635  0.49955379
   0.83387233  0.08574917  0.39700054
   0.74811233 -0.00019519  0.60243392
   0.33512439  0.58564881  0.39743743
   0.16642547  0.41637409  0.50202416
   0.49714558  0.50188996  0.60285252
   0.25200732 -0.00147560  0.60283344
   0.41872047  0.66553013  0.49996883
   0.08369543  0.58399530  0.39894678
   0.00209074  0.74748725  0.60202586
   0.91742896  0.91509945  0.50018993
   0.82980056  0.58401883  0.39831138
   0.91611792  0.16789973  0.49923426
   0.74865171  0.50331910  0.60173665
   0.83255608  0.83370192  0.39746333
   0.74857143  0.25023434  0.60126504
   0.00311858  0.24956411  0.60281389
   0.91543271  0.41829921  0.50007413
   0.08351464  0.32912086  0.39708446
   0.58033086  0.83272695  0.40198097
   0.66624058  0.41705800  0.49936303
   0.66591163  0.16690370  0.50001556
   0.66723634  0.66585298  0.49996012
   0.83182784  0.33427520  0.40172093
   0.49977104  0.75238062  0.59779239
   0.08533155  0.08133481  0.40193897
   0.25010938  0.75024015  0.59787683
   0.49723620  0.24873860  0.59761386
   0.58404594  0.33502315  0.40278425
   0.49866234  0.00091995  0.59835226
   0.41708992  0.16604334  0.50041414
   0.33366610  0.83510618  0.40096873
   0.25030218  0.49950368  0.59843788
   0.16749474  0.66490559  0.50045902
   0.25179976  0.24980213  0.59795063
   0.16785166  0.16771517  0.49980928
   0.33376030  0.08097308  0.40238713
   0.08499180  0.83447572  0.40174253
   0.00002403  0.50052772  0.59860182
   0.91619865  0.66654967  0.50066246
   0.00086809 -0.00112097  0.59882931
   0.58289964  0.58371402  0.40252454
   0.74872059  0.75044013  0.59761260
Direct configuration=     7
   0.33429518  0.33176408  0.39719893
   0.41882178  0.41446741  0.50054043
   0.41706392  0.91816666  0.49953157
   0.58205619  0.08319610  0.39868374
   0.66627031  0.91582697  0.50081122
   0.16650018  0.91631118  0.49963008
   0.83389787  0.08573586  0.39690336
   0.74819307 -0.00013686  0.60253804
   0.33501565  0.58563723  0.39735322
   0.16633964  0.41631529  0.50187910
   0.49724301  0.50185610  0.60296462
   0.25184876 -0.00139086  0.60294186
   0.41868374  0.66536872  0.49998501
   0.08360231  0.58397017  0.39891419
   0.00207110  0.74758077  0.60212356
   0.91773528  0.91507009  0.50018019
   0.83000616  0.58404345  0.39822057
   0.91613051  0.16777205  0.49930099
   0.74863402  0.50320847  0.60182481
   0.83270940  0.83355749  0.39738692
   0.74861992  0.25024364  0.60131316
   0.00301704  0.24953327  0.60289171
   0.91562066  0.41818700  0.50008161
   0.08348228  0.32929799  0.39699825
   0.58042279  0.83270437  0.40195594
   0.66625732  0.41692718  0.49951745
   0.66598837  0.16691857  0.50001239
   0.66727099  0.66595226  0.49996614
   0.83193814  0.33417230  0.40166793
   0.49982517  0.75230772  0.59781778
   0.08518287  0.08143161  0.40189133
   0.25007647  0.75028872  0.59789327
   0.49738160  0.24877433  0.59766578
   0.58395906  0.33492498  0.40276363
   0.49871522  0.00084117  0.59840578
   0.41721191  0.16606358  0.50029983
   0.33368804  0.83498402  0.40088770
   0.25029691  0.49947620  0.59852626
   0.16731732  0.66514443  0.50040030
   0.25168668  0.24983285  0.59803387
   0.16753545  0.16798650  0.49986317
   0.33375751  0.08113399  0.40232188
   0.08490147  0.83440100  0.40172987
   0.00001950  0.50047048  0.59867180
   0.91634904  0.66648093  0.50057498
   0.00079303 -0.00102267  0.59881243
   0.58285592  0.58377984  0.40245426
   0.74871123  0.75044337  0.59766910
Direct configuration=     8
   0.33449105  0.33160868  0.39696420
   0.41898821  0.41391220  0.50048543
   0.41668051  0.91833865  0.49965842
   0.58189606  0.08357631  0.39850009
   0.66635237  0.91582773  0.50070104
   0.16696038  0.91630028  0.49971105
   0.83377483  0.08585483  0.39666327
   0.74816514  0.00021951  0.60274064
   0.33454263  0.58571026  0.39712616
   0.16688436  0.41621075  0.50168962
   0.49707158  0.50191678  0.60329825
   0.25147356 -0.00108830  0.60321646
   0.41854278  0.66552837  0.49996539
   0.08350670  0.58428012  0.39880167
   0.00225797  0.74741853  0.60228249
   0.91781931  0.91467850  0.50014494
   0.82988304  0.58408995  0.39802851
   0.91577022  0.16796002  0.49937886
   0.74867092  0.50342668  0.60201239
   0.83301832  0.83339622  0.39722823
   0.74865710  0.24996014  0.60146480
   0.00277528  0.24948778  0.60315281
   0.91518153  0.41834818  0.50009838
   0.08354908  0.32912826  0.39674114
   0.58068541  0.83262162  0.40196831
   0.66672991  0.41658962  0.49992047
   0.66608162  0.16703453  0.50004104
   0.66781649  0.66555679  0.49995464
   0.83187220  0.33410170  0.40178009
   0.50005164  0.75193379  0.59781617
   0.08504680  0.08180700  0.40194333
   0.25001753  0.75023442  0.59786096
   0.49770843  0.24878904  0.59758665
   0.58414721  0.33467284  0.40286568
   0.49890609  0.00089221  0.59844059
   0.41708302  0.16642663  0.50004531
   0.33347497  0.83504312  0.40094196
   0.25002613  0.49940724  0.59845141
   0.16683998  0.66536278  0.50029969
   0.25151303  0.25008635  0.59800754
   0.16759496  0.16770762  0.50002578
   0.33339574  0.08148759  0.40232648
   0.08482348  0.83401501  0.40176268
   0.00013679  0.50049812  0.59861891
   0.91649834  0.66663080  0.50040731
   0.00055099 -0.00074981  0.59877258
   0.58326535  0.58358453  0.40246347
   0.74882097  0.75017602  0.59764471
Direct configuration=     9
   0.33461730  0.33150852  0.39681291
   0.41909548  0.41355435  0.50044998
   0.41643339  0.91844951  0.49974017
   0.58179286  0.08382137  0.39838172
   0.66640526  0.91582823  0.50063002
   0.16725700  0.91629325  0.49976324
   0.83369552  0.08593150  0.39650853
   0.74814713  0.00044920  0.60287122
   0.33423774  0.58575733  0.39697981
   0.16723545  0.41614338  0.50156749
   0.49696109  0.50195589  0.60351329
   0.25123173 -0.00089329  0.60339344
   0.41845192  0.66563128  0.49995274
   0.08344507  0.58447989  0.39872914
   0.00237841  0.74731396  0.60238493
   0.91787348  0.91442610  0.50012222
   0.82980369  0.58411993  0.39790472
   0.91553800  0.16808117  0.49942906
   0.74869470  0.50356732  0.60213329
   0.83321742  0.83329227  0.39712595
   0.74868106  0.24977741  0.60156253
   0.00261945  0.24945846  0.60332110
   0.91489850  0.41845207  0.50010919
   0.08359214  0.32901886  0.39657542
   0.58085467  0.83256829  0.40197628
   0.66703450  0.41637206  0.50018023
   0.66614173  0.16710927  0.50005951
   0.66816808  0.66530190  0.49994723
   0.83182969  0.33405619  0.40185238
   0.50019762  0.75169278  0.59781513
   0.08495911  0.08204895  0.40197685
   0.24997955  0.75019942  0.59784013
   0.49791908  0.24879852  0.59753565
   0.58426848  0.33451033  0.40293146
   0.49902911  0.00092510  0.59846302
   0.41699994  0.16666062  0.49988126
   0.33333764  0.83508121  0.40097694
   0.24985160  0.49936280  0.59840316
   0.16653231  0.66550351  0.50023485
   0.25140110  0.25024973  0.59799057
   0.16763332  0.16752787  0.50013058
   0.33316257  0.08171550  0.40232945
   0.08477321  0.83376623  0.40178383
   0.00021238  0.50051594  0.59858482
   0.91659456  0.66672740  0.50029924
   0.00039499 -0.00057394  0.59874690
   0.58352924  0.58345866  0.40246941
   0.74889170  0.75000370  0.59762900
Direct configuration=    10
   0.33457996  0.33160466  0.39642926
   0.41924789  0.41371338  0.50043047
   0.41632893  0.91864824  0.49986871
   0.58193964  0.08371043  0.39813967
   0.66643203  0.91595216  0.50054831
   0.16747152  0.91643477  0.49979187
   0.83375751  0.08585410  0.39625160
   0.74819723  0.00026711  0.60305860
   0.33429763  0.58564385  0.39674105
   0.16730302  0.41609687  0.50136993
   0.49656295  0.50204359  0.60389533
   0.25124164 -0.00078990  0.60375938
   0.41873323  0.66522743  0.49987660
   0.08344217  0.58434044  0.39852055
   0.00241633  0.74725868  0.60253209
   0.91768610  0.91445150  0.50010651
   0.82975244  0.58392531  0.39766627
   0.91559078  0.16782914  0.49945144
   0.74884330  0.50363611  0.60240115
   0.83305266  0.83361498  0.39690612
   0.74853295  0.24988218  0.60183825
   0.00227578  0.24972904  0.60366620
   0.91507639  0.41852119  0.50013549
   0.08353103  0.32905630  0.39628849
   0.58081700  0.83276595  0.40208170
   0.66687718  0.41652344  0.50066834
   0.66640336  0.16686825  0.50009519
   0.66830175  0.66521147  0.49991523
   0.83164892  0.33413208  0.40209764
   0.50014458  0.75160231  0.59776959
   0.08483969  0.08216016  0.40216215
   0.24992418  0.75012622  0.59775825
   0.49793064  0.24887439  0.59736128
   0.58443548  0.33467523  0.40314675
   0.49911986  0.00105603  0.59837664
   0.41694999  0.16650868  0.49963293
   0.33316778  0.83521676  0.40115025
   0.24970017  0.49926295  0.59816525
   0.16660290  0.66534645  0.50016918
   0.25141701  0.25042196  0.59781256
   0.16762271  0.16747374  0.50035775
   0.33297069  0.08169831  0.40241886
   0.08466430  0.83388713  0.40186768
   0.00035360  0.50046191  0.59835517
   0.91669564  0.66656979  0.50015706
   0.00029104 -0.00058926  0.59868342
   0.58371806  0.58313983  0.40264369
   0.74911038  0.74995471  0.59748009
Direct configuration=    11
   0.33452807  0.33173825  0.39589616
   0.41945966  0.41393436  0.50040335
   0.41618378  0.91892440  0.50004732
   0.58214359  0.08355626  0.39780334
   0.66646924  0.91612437  0.50043477
   0.16776960  0.91663141  0.49983165
   0.83384364  0.08574654  0.39589459
   0.74826684  0.00001410  0.60331897
   0.33438084  0.58548615  0.39640929
   0.16739691  0.41603225  0.50109541
   0.49600970  0.50216545  0.60442620
   0.25125540 -0.00064623  0.60426788
   0.41912412  0.66466627  0.49977079
   0.08343813  0.58414665  0.39823070
   0.00246903  0.74718185  0.60273657
   0.91742573  0.91448679  0.50008467
   0.82968123  0.58365487  0.39733492
   0.91566413  0.16747894  0.49948254
   0.74904980  0.50373171  0.60277335
   0.83282370  0.83406342  0.39660064
   0.74832714  0.25002776  0.60222137
   0.00179823  0.25010503  0.60414574
   0.91532357  0.41861724  0.50017203
   0.08344611  0.32910832  0.39588977
   0.58076466  0.83304061  0.40222819
   0.66665858  0.41673379  0.50134660
   0.66676691  0.16653333  0.50014476
   0.66848748  0.66508581  0.49987076
   0.83139772  0.33423753  0.40243846
   0.50007089  0.75147659  0.59770631
   0.08467376  0.08231469  0.40241964
   0.24984723  0.75002450  0.59764447
   0.49794671  0.24897983  0.59711898
   0.58466753  0.33490436  0.40344592
   0.49924596  0.00123797  0.59825661
   0.41688057  0.16629754  0.49928786
   0.33293175  0.83540511  0.40139107
   0.24948975  0.49912419  0.59783466
   0.16670098  0.66512820  0.50007792
   0.25143912  0.25066128  0.59756521
   0.16760797  0.16739852  0.50067341
   0.33270407  0.08167443  0.40254311
   0.08451296  0.83405513  0.40198420
   0.00054983  0.50038683  0.59803607
   0.91683610  0.66635076  0.49995950
   0.00014660 -0.00061054  0.59859520
   0.58398043  0.58269680  0.40288587
   0.74941423  0.74988662  0.59727316
Direct configuration=    12
   0.33450563  0.33179601  0.39566565
   0.41955124  0.41402991  0.50039163
   0.41612101  0.91904381  0.50012456
   0.58223178  0.08348960  0.39765791
   0.66648533  0.91619883  0.50038567
   0.16789849  0.91671644  0.49984885
   0.83388088  0.08570003  0.39574022
   0.74829694 -0.00009531  0.60343155
   0.33441681  0.58541797  0.39626583
   0.16743750  0.41600430  0.50097671
   0.49577048  0.50221814  0.60465575
   0.25126135 -0.00058411  0.60448775
   0.41929314  0.66442363  0.49972503
   0.08343638  0.58406286  0.39810537
   0.00249181  0.74714864  0.60282499
   0.91731314  0.91450204  0.50007523
   0.82965044  0.58353794  0.39719164
   0.91569584  0.16732751  0.49949598
   0.74913908  0.50377304  0.60293428
   0.83272470  0.83425732  0.39646856
   0.74823815  0.25009071  0.60238703
   0.00159174  0.25026761  0.60435309
   0.91543046  0.41865876  0.50018783
   0.08340939  0.32913082  0.39571737
   0.58074203  0.83315938  0.40229154
   0.66656405  0.41682474  0.50163988
   0.66692411  0.16638852  0.50016619
   0.66856780  0.66503147  0.49985154
   0.83128911  0.33428313  0.40258583
   0.50003903  0.75142223  0.59767895
   0.08460201  0.08238151  0.40253098
   0.24981396  0.74998052  0.59759527
   0.49795365  0.24902542  0.59701422
   0.58476787  0.33500343  0.40357529
   0.49930049  0.00131663  0.59820471
   0.41685056  0.16620624  0.49913866
   0.33282969  0.83548656  0.40149520
   0.24939877  0.49906419  0.59769172
   0.16674340  0.66503383  0.50003847
   0.25144868  0.25076476  0.59745826
   0.16760160  0.16736599  0.50080990
   0.33258878  0.08166410  0.40259683
   0.08444753  0.83412777  0.40203458
   0.00063467  0.50035437  0.59789809
   0.91689684  0.66625606  0.49987408
   0.00008415 -0.00061975  0.59855706
   0.58409388  0.58250523  0.40299059
   0.74954562  0.74985718  0.59718369
Direct configuration=    13
   0.33467481  0.33166449  0.39523356
   0.41955398  0.41395328  0.50033206
   0.41650567  0.91869016  0.50028188
   0.58205717  0.08368873  0.39743120
   0.66648279  0.91614713  0.50032877
   0.16781095  0.91641366  0.49997027
   0.83391421  0.08581517  0.39554403
   0.74834377 -0.00027529  0.60356752
   0.33457954  0.58545415  0.39606228
   0.16754289  0.41580954  0.50063983
   0.49563688  0.50228822  0.60505408
   0.25132609 -0.00056687  0.60482719
   0.41928834  0.66455831  0.49970928
   0.08324684  0.58409763  0.39786843
   0.00243994  0.74720625  0.60288579
   0.91758190  0.91434767  0.50008769
   0.82961489  0.58365500  0.39699666
   0.91571803  0.16744428  0.49958750
   0.74898365  0.50388167  0.60320513
   0.83266610  0.83412272  0.39623937
   0.74804966  0.25027032  0.60268630
   0.00162069  0.25027826  0.60467088
   0.91571589  0.41823048  0.50019291
   0.08331440  0.32912937  0.39547267
   0.58058246  0.83316969  0.40243303
   0.66680283  0.41671423  0.50213532
   0.66695111  0.16628071  0.50020486
   0.66841403  0.66526530  0.49982535
   0.83133799  0.33422484  0.40291447
   0.49990496  0.75156898  0.59761890
   0.08449108  0.08242806  0.40272097
   0.24970976  0.75008283  0.59746888
   0.49789263  0.24897884  0.59680591
   0.58477244  0.33499702  0.40383175
   0.49921025  0.00138022  0.59806751
   0.41697858  0.16631354  0.49889209
   0.33294645  0.83535974  0.40166743
   0.24940890  0.49909318  0.59744633
   0.16692047  0.66512196  0.49994190
   0.25149438  0.25063866  0.59724744
   0.16728475  0.16774138  0.50103977
   0.33260144  0.08163694  0.40268293
   0.08448612  0.83419856  0.40213498
   0.00064350  0.50032750  0.59766315
   0.91684612  0.66631222  0.49966845
   0.00013949 -0.00063061  0.59851979
   0.58391355  0.58255439  0.40322147
   0.74959762  0.74993746  0.59697207
Direct configuration=    14
   0.33485778  0.33152226  0.39476626
   0.41955694  0.41387042  0.50026764
   0.41692167  0.91830770  0.50045202
   0.58186832  0.08390408  0.39718602
   0.66648004  0.91609123  0.50026723
   0.16771628  0.91608622  0.50010158
   0.83395025  0.08593969  0.39533185
   0.74839442 -0.00046993  0.60371456
   0.33475553  0.58549328  0.39584214
   0.16765686  0.41559892  0.50027552
   0.49549239  0.50236401  0.60548486
   0.25139610 -0.00054823  0.60519427
   0.41928315  0.66470396  0.49969223
   0.08304186  0.58413523  0.39761218
   0.00238385  0.74726857  0.60295154
   0.91787255  0.91418072  0.50010116
   0.82957644  0.58378160  0.39678579
   0.91574202  0.16757056  0.49968647
   0.74881555  0.50399914  0.60349805
   0.83260273  0.83397716  0.39599150
   0.74784582  0.25046456  0.60300995
   0.00165201  0.25028978  0.60501457
   0.91602457  0.41776730  0.50019839
   0.08321166  0.32912781  0.39520803
   0.58040989  0.83318084  0.40258605
   0.66706106  0.41659472  0.50267112
   0.66698031  0.16616411  0.50024668
   0.66824775  0.66551818  0.49979704
   0.83139086  0.33416181  0.40326988
   0.49975996  0.75172770  0.59755395
   0.08437113  0.08247841  0.40292643
   0.24959707  0.75019347  0.59733218
   0.49782662  0.24892847  0.59658063
   0.58477738  0.33499010  0.40410912
   0.49911265  0.00144899  0.59791913
   0.41711703  0.16642959  0.49862545
   0.33307271  0.83522260  0.40185370
   0.24941986  0.49912452  0.59718095
   0.16711198  0.66521727  0.49983748
   0.25154380  0.25050230  0.59701945
   0.16694209  0.16814734  0.50128837
   0.33261513  0.08160756  0.40277605
   0.08452785  0.83427512  0.40224355
   0.00065304  0.50029845  0.59740907
   0.91679128  0.66637297  0.49944607
   0.00019935 -0.00064236  0.59847948
   0.58371853  0.58260755  0.40347115
   0.74965385  0.75002427  0.59674321
Direct configuration=    15
   0.33481927  0.33159768  0.39438102
   0.41943669  0.41392483  0.50017206
   0.41662454  0.91845656  0.50054755
   0.58184134  0.08397488  0.39705047
   0.66674288  0.91613122  0.50018759
   0.16763926  0.91612152  0.50025806
   0.83386410  0.08597924  0.39532121
   0.74836281 -0.00027456  0.60369545
   0.33466010  0.58555195  0.39576118
   0.16767410  0.41573421  0.49988578
   0.49555576  0.50247235  0.60574894
   0.25140336 -0.00062296  0.60534925
   0.41920248  0.66473870  0.49982436
   0.08315788  0.58424339  0.39741653
   0.00235626  0.74726548  0.60286108
   0.91791596  0.91415802  0.50010585
   0.82940926  0.58396713  0.39674293
   0.91566221  0.16756851  0.49990693
   0.74850780  0.50419047  0.60366820
   0.83252160  0.83388786  0.39583134
   0.74785438  0.25035306  0.60325028
   0.00195322  0.25007136  0.60521437
   0.91580454  0.41788486  0.50023353
   0.08323822  0.32900522  0.39507777
   0.58031833  0.83307139  0.40264274
   0.66723066  0.41652552  0.50301256
   0.66708813  0.16604810  0.50029278
   0.66851346  0.66523769  0.49982012
   0.83138267  0.33430830  0.40352319
   0.49972013  0.75182641  0.59757861
   0.08452361  0.08238591  0.40309223
   0.24961448  0.75031510  0.59727588
   0.49782947  0.24875414  0.59645578
   0.58471085  0.33483429  0.40431489
   0.49896350  0.00144573  0.59780845
   0.41729293  0.16648273  0.49844857
   0.33319064  0.83518627  0.40194028
   0.24951755  0.49924294  0.59698381
   0.16727928  0.66501379  0.49969022
   0.25152774  0.25031082  0.59685260
   0.16710732  0.16782887  0.50137247
   0.33264488  0.08161833  0.40287877
   0.08461845  0.83416754  0.40226310
   0.00053349  0.50032503  0.59722653
   0.91682417  0.66636059  0.49922450
   0.00019079 -0.00043041  0.59855386
   0.58364551  0.58273523  0.40367260
   0.74952397  0.75002467  0.59658372
Direct configuration=    16
   0.33478636  0.33166212  0.39405186
   0.41933394  0.41397131  0.50009039
   0.41637067  0.91858374  0.50062917
   0.58181828  0.08403538  0.39693465
   0.66696746  0.91616540  0.50011955
   0.16757344  0.91615168  0.50039175
   0.83379050  0.08601304  0.39531211
   0.74833580 -0.00010764  0.60367913
   0.33457857  0.58560209  0.39569200
   0.16768882  0.41584982  0.49955277
   0.49560991  0.50256492  0.60597458
   0.25140956 -0.00068682  0.60548166
   0.41913356  0.66476838  0.49993725
   0.08325700  0.58433581  0.39724936
   0.00233268  0.74726285  0.60278379
   0.91795304  0.91413863  0.50010986
   0.82926642  0.58412566  0.39670632
   0.91559401  0.16756675  0.50009531
   0.74824484  0.50435396  0.60381359
   0.83245227  0.83381156  0.39569450
   0.74786169  0.25025779  0.60345564
   0.00221059  0.24988474  0.60538509
   0.91561653  0.41798530  0.50026355
   0.08326091  0.32890048  0.39496647
   0.58024009  0.83297788  0.40269118
   0.66737557  0.41646640  0.50330429
   0.66718026  0.16594898  0.50033218
   0.66874049  0.66499803  0.49983984
   0.83137566  0.33443346  0.40373963
   0.49968609  0.75191075  0.59759967
   0.08465390  0.08230687  0.40323389
   0.24962936  0.75041903  0.59722778
   0.49783190  0.24860519  0.59634910
   0.58465400  0.33470116  0.40449071
   0.49883606  0.00144294  0.59771388
   0.41744322  0.16652814  0.49829745
   0.33329140  0.83515524  0.40201425
   0.24960102  0.49934413  0.59681537
   0.16742223  0.66483992  0.49956441
   0.25151402  0.25014723  0.59671004
   0.16724850  0.16755676  0.50144432
   0.33267030  0.08162754  0.40296654
   0.08469585  0.83407562  0.40227980
   0.00043135  0.50034773  0.59707057
   0.91685228  0.66635001  0.49903519
   0.00018348 -0.00024931  0.59861741
   0.58358312  0.58284433  0.40384472
   0.74941299  0.75002500  0.59644745
Direct configuration=    17
   0.33458078  0.33182151  0.39377067
   0.41950982  0.41400774  0.50003758
   0.41635494  0.91874743  0.50063906
   0.58191712  0.08383805  0.39688280