  56  56   0   0
  0.4903395E+02  0.1100258E-08  0.1100258E-08  0.2619179E-08  0.3500000E-15
  1.000000000000000E-004
  CAR 
 unknown system                          
      6.47301731    -21.42964715  301     -1.23877523      1.00000000
    -21.430  0.0000E+00  0.0000E+00
    -21.337  0.0000E+00  0.0000E+00
    -21.244  0.0000E+00  0.0000E+00
    -21.151  0.0000E+00  0.0000E+00
    -21.058  0.0000E+00  0.0000E+00
    -20.965  0.0000E+00  0.0000E+00
    -20.872  0.0000E+00  0.0000E+00
    -20.779  0.0000E+00  0.0000E+00
    -20.686  0.2366E-14  0.2200E-15
    -20.593  0.2102E-10  0.1955E-11
    -20.500  0.3449E-07  0.3210E-08
    -20.407  0.1065E-04  0.9937E-06
    -20.314  0.6392E-03  0.6045E-04
    -20.221  0.7829E-02  0.7886E-03
    -20.128  0.2070E-01  0.2714E-02
    -20.035  0.1228E-01  0.3856E-02
    -19.942  0.3980E-02  0.4226E-02
    -19.848  0.2069E-01  0.6150E-02
    -19.755  0.5284E-01  0.1106E-01
    -19.662  0.5774E-01  0.1643E-01
    -19.569  0.4942E-01  0.2103E-01
    -19.476  0.2852E-01  0.2368E-01
    -19.383  0.1692E-01  0.2526E-01
    -19.290  0.2189E-01  0.2729E-01
    -19.197  0.1755E-01  0.2893E-01
    -19.104  0.2169E-01  0.3094E-01
    -19.011  0.1026E-01  0.3190E-01
    -18.918  0.1086E-02  0.3200E-01
    -18.825  0.2371E-04  0.3200E-01
    -18.732  0.1013E-06  0.3200E-01
    -18.639  0.8184E-10  0.3200E-01
    -18.546  0.1223E-13  0.3200E-01
    -18.453  0.0000E+00  0.3200E-01
    -18.360  0.0000E+00  0.3200E-01
    -18.267  0.0000E+00  0.3200E-01
    -18.174  0.0000E+00  0.3200E-01
    -18.081  0.0000E+00  0.3200E-01
    -17.988  0.0000E+00  0.3200E-01
    -17.895  0.0000E+00  0.3200E-01
    -17.802  0.0000E+00  0.3200E-01
    -17.709  0.0000E+00  0.3200E-01
    -17.616  0.0000E+00  0.3200E-01
    -17.523  0.0000E+00  0.3200E-01
    -17.430  0.0000E+00  0.3200E-01
    -17.337  0.0000E+00  0.3200E-01
    -17.244  0.0000E+00  0.3200E-01
    -17.151  0.0000E+00  0.3200E-01
    -17.058  0.0000E+00  0.3200E-01
    -16.965  0.0000E+00  0.3200E-01
    -16.872  0.0000E+00  0.3200E-01
    -16.779  0.0000E+00  0.3200E-01
    -16.686  0.0000E+00  0.3200E-01
    -16.593  0.0000E+00  0.3200E-01
    -16.500  0.0000E+00  0.3200E-01
    -16.407  0.0000E+00  0.3200E-01
    -16.314  0.0000E+00  0.3200E-01
    -16.221  0.0000E+00  0.3200E-01
    -16.128  0.0000E+00  0.3200E-01
    -16.035  0.0000E+00  0.3200E-01
    -15.942  0.0000E+00  0.3200E-01
    -15.849  0.0000E+00  0.3200E-01
    -15.756  0.0000E+00  0.3200E-01
    -15.663  0.0000E+00  0.3200E-01
    -15.570  0.0000E+00  0.3200E-01
    -15.477  0.0000E+00  0.3200E-01
    -15.384  0.0000E+00  0.3200E-01
    -15.291  0.0000E+00  0.3200E-01
    -15.198  0.0000E+00  0.3200E-01
    -15.105  0.0000E+00  0.3200E-01
    -15.012  0.0000E+00  0.3200E-01
    -14.919  0.0000E+00  0.3200E-01
    -14.826  0.0000E+00  0.3200E-01
    -14.733  0.0000E+00  0.3200E-01
    -14.640  0.0000E+00  0.3200E-01
    -14.547  0.0000E+00  0.3200E-01
    -14.454  0.0000E+00  0.3200E-01
    -14.361  0.0000E+00  0.3200E-01
    -14.268  0.0000E+00  0.3200E-01
    -14.175  0.0000E+00  0.3200E-01
    -14.082  0.0000E+00  0.3200E-01
    -13.989  0.0000E+00  0.3200E-01
    -13.896  0.0000E+00  0.3200E-01
    -13.803  0.0000E+00  0.3200E-01
    -13.710  0.0000E+00  0.3200E-01
    -13.617  0.0000E+00  0.3200E-01
    -13.524  0.0000E+00  0.3200E-01
    -13.431  0.0000E+00  0.3200E-01
    -13.338  0.0000E+00  0.3200E-01
    -13.245  0.0000E+00  0.3200E-01
    -13.152  0.0000E+00  0.3200E-01
    -13.059  0.0000E+00  0.3200E-01
    -12.966  0.0000E+00  0.3200E-01
    -12.873  0.0000E+00  0.3200E-01
    -12.780  0.0000E+00  0.3200E-01
    -12.687  0.0000E+00  0.3200E-01
    -12.594  0.0000E+00  0.3200E-01
    -12.501  0.0000E+00  0.3200E-01
    -12.408  0.0000E+00  0.3200E-01
    -12.315  0.0000E+00  0.3200E-01
    -12.222  0.0000E+00  0.3200E-01
    -12.129  0.0000E+00  0.3200E-01
    -12.036  0.0000E+00  0.3200E-01
    -11.943  0.0000E+00  0.3200E-01
    -11.850  0.0000E+00  0.3200E-01
    -11.757  0.0000E+00  0.3200E-01
    -11.664  0.0000E+00  0.3200E-01
    -11.571  0.0000E+00  0.3200E-01
    -11.478  0.0000E+00  0.3200E-01
    -11.385  0.0000E+00  0.3200E-01
    -11.292  0.0000E+00  0.3200E-01
    -11.199  0.0000E+00  0.3200E-01
    -11.106  0.0000E+00  0.3200E-01
    -11.013  0.0000E+00  0.3200E-01
    -10.920  0.0000E+00  0.3200E-01
    -10.827  0.0000E+00  0.3200E-01
    -10.734  0.0000E+00  0.3200E-01
    -10.641  0.0000E+00  0.3200E-01
    -10.548  0.0000E+00  0.3200E-01
    -10.455  0.0000E+00  0.3200E-01
    -10.362  0.0000E+00  0.3200E-01
    -10.269  0.0000E+00  0.3200E-01
    -10.176  0.0000E+00  0.3200E-01
    -10.083  0.0000E+00  0.3200E-01
     -9.990  0.0000E+00  0.3200E-01
     -9.897  0.0000E+00  0.3200E-01
     -9.804  0.0000E+00  0.3200E-01
     -9.711  0.3979E-18  0.3200E-01
     -9.618  0.9767E-14  0.3200E-01
     -9.525  0.5273E-10  0.3200E-01
     -9.432  0.5463E-07  0.3200E-01
     -9.338  0.1127E-04  0.3200E-01
     -9.245  0.4867E-03  0.3205E-01
     -9.152  0.4681E-02  0.3248E-01
     -9.059  0.1129E-01  0.3353E-01
     -8.966  0.1104E-01  0.3456E-01
     -8.873  0.9224E-02  0.3542E-01
     -8.780  0.5388E-02  0.3592E-01
     -8.687  0.3553E-02  0.3625E-01
     -8.594  0.3890E-02  0.3661E-01
     -8.501  0.5353E-02  0.3711E-01
     -8.408  0.1062E-01  0.3810E-01
     -8.315  0.1135E-01  0.3915E-01
     -8.222  0.1168E-01  0.4024E-01
     -8.129  0.1600E-01  0.4173E-01
     -8.036  0.2217E-01  0.4379E-01
     -7.943  0.3395E-01  0.4695E-01
     -7.850  0.3648E-01  0.5034E-01
     -7.757  0.3087E-01  0.5321E-01
     -7.664  0.4842E-01  0.5771E-01
     -7.571  0.7024E-01  0.6425E-01
     -7.478  0.7183E-01  0.7093E-01
     -7.385  0.7823E-01  0.7820E-01
     -7.292  0.8173E-01  0.8581E-01
     -7.199  0.8995E-01  0.9417E-01
     -7.106  0.9951E-01  0.1034E+00
     -7.013  0.1126E+00  0.1139E+00
     -6.920  0.1311E+00  0.1261E+00
     -6.827  0.1331E+00  0.1385E+00
     -6.734  0.1297E+00  0.1505E+00
     -6.641  0.1438E+00  0.1639E+00
     -6.548  0.1626E+00  0.1790E+00
     -6.455  0.1655E+00  0.1944E+00
     -6.362  0.1624E+00  0.2095E+00
     -6.269  0.1623E+00  0.2246E+00
     -6.176  0.1596E+00  0.2395E+00
     -6.083  0.1600E+00  0.2543E+00
     -5.990  0.1621E+00  0.2694E+00
     -5.897  0.1631E+00  0.2846E+00
     -5.804  0.1635E+00  0.2998E+00
     -5.711  0.1561E+00  0.3143E+00
     -5.618  0.1536E+00  0.3286E+00
     -5.525  0.1659E+00  0.3440E+00
     -5.432  0.1720E+00  0.3600E+00
     -5.339  0.1665E+00  0.3755E+00
     -5.246  0.1696E+00  0.3913E+00
     -5.153  0.1755E+00  0.4076E+00
     -5.060  0.1747E+00  0.4239E+00
     -4.967  0.1747E+00  0.4401E+00
     -4.874  0.1689E+00  0.4558E+00
     -4.781  0.1615E+00  0.4708E+00
     -4.688  0.1723E+00  0.4869E+00
     -4.595  0.1838E+00  0.5040E+00
     -4.502  0.1766E+00  0.5204E+00
     -4.409  0.1710E+00  0.5363E+00
     -4.316  0.1776E+00  0.5528E+00
     -4.223  0.1857E+00  0.5701E+00
     -4.130  0.1858E+00  0.5873E+00
     -4.037  0.1863E+00  0.6047E+00
     -3.944  0.1865E+00  0.6220E+00
     -3.851  0.1901E+00  0.6397E+00
     -3.758  0.1920E+00  0.6576E+00
     -3.665  0.1891E+00  0.6752E+00
     -3.572  0.1808E+00  0.6920E+00
     -3.479  0.1831E+00  0.7090E+00
     -3.386  0.1864E+00  0.7263E+00
     -3.293  0.1869E+00  0.7437E+00
     -3.200  0.1860E+00  0.7610E+00
     -3.107  0.1885E+00  0.7785E+00
     -3.014  0.1980E+00  0.7970E+00
     -2.921  0.2007E+00  0.8156E+00
     -2.828  0.2011E+00  0.8343E+00
     -2.735  0.1998E+00  0.8529E+00
     -2.642  0.2024E+00  0.8717E+00
     -2.549  0.1981E+00  0.8902E+00
     -2.456  0.1922E+00  0.9080E+00
     -2.363  0.1945E+00  0.9261E+00
     -2.270  0.2032E+00  0.9450E+00
     -2.177  0.2017E+00  0.9638E+00
     -2.084  0.1839E+00  0.9809E+00
     -1.991  0.1791E+00  0.9976E+00
     -1.898  0.1833E+00  0.1015E+01
     -1.805  0.1792E+00  0.1031E+01
     -1.712  0.1687E+00  0.1047E+01
     -1.619  0.1631E+00  0.1062E+01
     -1.526  0.1447E+00  0.1076E+01
     -1.433  0.1193E+00  0.1087E+01
     -1.340  0.9774E-01  0.1096E+01
     -1.247  0.8183E-01  0.1103E+01
     -1.154  0.7021E-01  0.1110E+01
     -1.061  0.5911E-01  0.1115E+01
     -0.968  0.5545E-01  0.1121E+01
     -0.875  0.6356E-01  0.1126E+01
     -0.782  0.6026E-01  0.1132E+01
     -0.689  0.5625E-01  0.1137E+01
     -0.596  0.5617E-01  0.1143E+01
     -0.503  0.4792E-01  0.1147E+01
     -0.410  0.4599E-01  0.1151E+01
     -0.317  0.4712E-01  0.1156E+01
     -0.224  0.4145E-01  0.1160E+01
     -0.131  0.3027E-01  0.1162E+01
     -0.038  0.2100E-01  0.1164E+01
      0.055  0.1610E-01  0.1166E+01
      0.148  0.1673E-01  0.1167E+01
      0.241  0.2322E-01  0.1170E+01
      0.334  0.2236E-01  0.1172E+01
      0.427  0.2697E-01  0.1174E+01
      0.520  0.3469E-01  0.1177E+01
      0.613  0.4173E-01  0.1181E+01
      0.706  0.3928E-01  0.1185E+01
      0.799  0.3465E-01  0.1188E+01
      0.892  0.3509E-01  0.1191E+01
      0.985  0.3406E-01  0.1195E+01
      1.079  0.2529E-01  0.1197E+01
      1.172  0.2679E-01  0.1199E+01
      1.265  0.2651E-01  0.1202E+01
      1.358  0.2147E-01  0.1204E+01
      1.451  0.2045E-01  0.1206E+01
      1.544  0.2678E-01  0.1208E+01
      1.637  0.3369E-01  0.1211E+01
      1.730  0.3368E-01  0.1214E+01
      1.823  0.3036E-01  0.1217E+01
      1.916  0.3421E-01  0.1220E+01
      2.009  0.4015E-01  0.1224E+01
      2.102  0.3668E-01  0.1228E+01
      2.195  0.3082E-01  0.1230E+01
      2.288  0.2857E-01  0.1233E+01
      2.381  0.2808E-01  0.1236E+01
      2.474  0.2848E-01  0.1238E+01
      2.567  0.2727E-01  0.1241E+01
      2.660  0.2622E-01  0.1243E+01
      2.753  0.2703E-01  0.1246E+01
      2.846  0.2461E-01  0.1248E+01
      2.939  0.2760E-01  0.1251E+01
      3.032  0.2814E-01  0.1253E+01
      3.125  0.2547E-01  0.1256E+01
      3.218  0.2701E-01  0.1258E+01
      3.311  0.3046E-01  0.1261E+01
      3.404  0.3408E-01  0.1264E+01
      3.497  0.4422E-01  0.1268E+01
      3.590  0.4433E-01  0.1272E+01
      3.683  0.4094E-01  0.1276E+01
      3.776  0.3488E-01  0.1280E+01
      3.869  0.3061E-01  0.1282E+01
      3.962  0.3192E-01  0.1285E+01
      4.055  0.3752E-01  0.1289E+01
      4.148  0.4072E-01  0.1293E+01
      4.241  0.3980E-01  0.1296E+01
      4.334  0.4167E-01  0.1300E+01
      4.427  0.4119E-01  0.1304E+01
      4.520  0.4212E-01  0.1308E+01
      4.613  0.4665E-01  0.1312E+01
      4.706  0.5214E-01  0.1317E+01
      4.799  0.5841E-01  0.1323E+01
      4.892  0.5239E-01  0.1327E+01
      4.985  0.4797E-01  0.1332E+01
      5.078  0.5230E-01  0.1337E+01
      5.171  0.4880E-01  0.1341E+01
      5.264  0.2405E-01  0.1344E+01
      5.357  0.4438E-02  0.1344E+01
      5.450  0.2420E-03  0.1344E+01
      5.543  0.3185E-05  0.1344E+01
      5.636  0.8903E-08  0.1344E+01
      5.729  0.4935E-11  0.1344E+01
      5.822  0.5220E-15  0.1344E+01
      5.915  0.0000E+00  0.1344E+01
      6.008  0.0000E+00  0.1344E+01
      6.101  0.0000E+00  0.1344E+01
      6.194  0.0000E+00  0.1344E+01
      6.287  0.0000E+00  0.1344E+01
      6.380  0.0000E+00  0.1344E+01
      6.473  0.0000E+00  0.1344E+01
