       N       E                     dE             d eps       ncg     rms          rms(c)
DAV:   1     0.359483604236E+04    0.35948E+04   -0.20983E+05  4092   0.112E+03
DAV:   2     0.520876158216E+02   -0.35427E+04   -0.32960E+04  4800   0.270E+02
DAV:   3    -0.252995186049E+03   -0.30508E+03   -0.28393E+03  4608   0.752E+01
DAV:   4    -0.263937932879E+03   -0.10943E+02   -0.10746E+02  4500   0.148E+01
DAV:   5    -0.264240724804E+03   -0.30279E+00   -0.30208E+00  4680   0.243E+00    0.648E+01
RMM:   6    -0.248018148630E+03    0.16223E+02   -0.16124E+02  4034   0.190E+01    0.545E+01
RMM:   7    -0.243371277103E+03    0.46469E+01   -0.46185E+01  4032   0.103E+01    0.431E+01
RMM:   8    -0.293518841051E+03   -0.50148E+02   -0.63548E+01  4032   0.114E+01    0.610E+01
RMM:   9    -0.282183721353E+03    0.11335E+02   -0.62760E+01  4032   0.109E+01    0.654E+01
RMM:  10    -0.257372369373E+03    0.24811E+02   -0.29529E+01  4032   0.809E+00    0.376E+01
RMM:  11    -0.238252206196E+03    0.19120E+02   -0.13487E+01  4036   0.586E+00    0.161E+01
RMM:  12    -0.236015793471E+03    0.22364E+01   -0.12418E+01  4037   0.507E+00    0.169E+01
RMM:  13    -0.233441356026E+03    0.25744E+01   -0.31315E+00  4037   0.268E+00    0.927E+00
RMM:  14    -0.233000263385E+03    0.44109E+00   -0.81127E-01  4037   0.132E+00    0.646E+00
RMM:  15    -0.232992785361E+03    0.74780E-02   -0.37456E-01  4037   0.948E-01    0.561E+00
RMM:  16    -0.232842148390E+03    0.15064E+00   -0.15551E-01  4038   0.592E-01    0.416E+00
RMM:  17    -0.232789002744E+03    0.53146E-01   -0.95391E-02  4038   0.465E-01    0.333E+00
RMM:  18    -0.232694906744E+03    0.94096E-01   -0.58041E-02  4038   0.349E-01    0.212E+00
RMM:  19    -0.232655329241E+03    0.39578E-01   -0.27290E-02  4039   0.234E-01    0.133E+00
RMM:  20    -0.232644629324E+03    0.10700E-01   -0.46564E-03  4038   0.909E-02    0.101E+00
RMM:  21    -0.232640248608E+03    0.43807E-02   -0.32683E-03  4038   0.782E-02    0.909E-01
RMM:  22    -0.232632608442E+03    0.76402E-02   -0.55366E-03  4035   0.997E-02    0.566E-01
RMM:  23    -0.232629727498E+03    0.28809E-02   -0.49619E-03  4038   0.952E-02    0.287E-01
RMM:  24    -0.232629200991E+03    0.52651E-03   -0.16944E-03  4039   0.553E-02    0.132E-01
RMM:  25    -0.232629198307E+03    0.26840E-05   -0.29706E-04  4038   0.235E-02    0.765E-02
RMM:  26    -0.232629596153E+03   -0.39785E-03   -0.14797E-04  4038   0.167E-02    0.557E-02
RMM:  27    -0.232629878745E+03   -0.28259E-03   -0.74529E-05  4033   0.119E-02    0.486E-02
RMM:  28    -0.232630141295E+03   -0.26255E-03   -0.35225E-05  4032   0.910E-03    0.229E-02
RMM:  29    -0.232630374098E+03   -0.23280E-03   -0.12750E-05  3969   0.499E-03    0.216E-02
RMM:  30    -0.232630817167E+03   -0.44307E-03   -0.18778E-05  3995   0.554E-03    0.159E-02
RMM:  31    -0.232631362973E+03   -0.54581E-03   -0.33669E-05  4021   0.690E-03    0.131E-02
RMM:  32    -0.232631601230E+03   -0.23826E-03   -0.16446E-05  3491   0.464E-03    0.115E-02
RMM:  33    -0.232631713242E+03   -0.11201E-03   -0.66638E-06  2995   0.297E-03    0.848E-03
RMM:  34    -0.232631778033E+03   -0.64791E-04   -0.31631E-06  2741   0.204E-03    0.430E-03
RMM:  35    -0.232631810377E+03   -0.32344E-04   -0.10042E-06  2408   0.126E-03    0.326E-03
RMM:  36    -0.232631836726E+03   -0.26349E-04   -0.59967E-07  2357   0.999E-04    0.229E-03
RMM:  37    -0.232631858949E+03   -0.22223E-04   -0.41542E-07  2307   0.808E-04    0.232E-03
RMM:  38    -0.232631873919E+03   -0.14970E-04   -0.33221E-07  1928   0.710E-04    0.170E-03
RMM:  39    -0.232631883392E+03   -0.94737E-05   -0.29109E-07  2138   0.689E-04    0.129E-03
RMM:  40    -0.232631887908E+03   -0.45155E-05   -0.17694E-07  1496   0.521E-04    0.728E-04
RMM:  41    -0.232631890355E+03   -0.24472E-05   -0.87605E-08  1401   0.438E-04    0.415E-04
RMM:  42    -0.232631892363E+03   -0.20085E-05   -0.57065E-08  1271   0.383E-04    0.300E-04
RMM:  43    -0.232631893781E+03   -0.14178E-05   -0.23382E-08   837   0.307E-04    0.231E-04
RMM:  44    -0.232631895395E+03   -0.16137E-05   -0.29555E-08   809   0.332E-04    0.200E-04
RMM:  45    -0.232631896343E+03   -0.94828E-06   -0.13385E-08   688   0.342E-04
   1 F= -.23263190E+03 E0= -.23253791E+03  d E =-.232632E+03
       N       E                     dE             d eps       ncg     rms          rms(c)
DAV:   1    -0.232631962539E+03   -0.67144E-04   -0.48370E-02  4164   0.394E-01    0.558E-02
RMM:   2    -0.232632112692E+03   -0.15015E-03   -0.14056E-03  4040   0.604E-02    0.709E-02
RMM:   3    -0.232632087774E+03    0.24918E-04   -0.83392E-05  4043   0.145E-02    0.469E-02
RMM:   4    -0.232632161473E+03   -0.73699E-04   -0.52969E-05  4035   0.103E-02    0.945E-02
RMM:   5    -0.232632080303E+03    0.81170E-04   -0.35127E-05  4032   0.844E-03    0.446E-02
RMM:   6    -0.232632072368E+03    0.79347E-05   -0.13648E-05  4019   0.559E-03    0.248E-02
RMM:   7    -0.232632070601E+03    0.17670E-05   -0.72835E-06  3706   0.418E-03    0.157E-02
RMM:   8    -0.232632068676E+03    0.19248E-05   -0.29938E-06  2593   0.276E-03    0.591E-03
RMM:   9    -0.232632068551E+03    0.12510E-06   -0.59440E-07  2143   0.135E-03
   2 F= -.23263207E+03 E0= -.23253806E+03  d E =-.172208E-03
