<?xml version="1.0" encoding="ISO-8859-1"?>
<modeling>
 <generator>
  <i name="program" type="string">vasp </i>
  <i name="version" type="string">5.4.1  </i>
  <i name="subversion" type="string">24Jun15 (build Mar 14 2019 10:18:33) complex                          parallel </i>
  <i name="platform" type="string">INTEL-19.0.2+OPENMPI-3.1.3 </i>
  <i name="date" type="string">2023 01 23 </i>
  <i name="time" type="string">11:30:41 </i>
 </generator>
 <incar>
  <i type="int" name="ISTART">     0</i>
  <i type="string" name="PREC">normal</i>
  <i type="string" name="ALGO"> Fast</i>
  <i type="int" name="NELM">   500</i>
  <i type="int" name="IBRION">     2</i>
  <i type="int" name="NFREE">     2</i>
  <i name="EDIFF">      0.00000100</i>
  <i name="EDIFFG">     -0.02000000</i>
  <i type="int" name="NSW">   500</i>
  <i type="int" name="ISIF">     0</i>
  <i type="int" name="ISYM">     2</i>
  <i name="ENCUT">    400.00000000</i>
  <i name="POTIM">      0.35000000</i>
  <i type="string" name="LREAL"> Auto</i>
  <i type="logical" name="LPLANE"> T  </i>
  <i type="int" name="ISMEAR">     0</i>
  <i name="SIGMA">      0.10000000</i>
  <i type="int" name="NWRITE">     1</i>
  <i type="logical" name="LWAVE"> F  </i>
  <i type="logical" name="LCHARG"> F  </i>
  <i type="logical" name="LVTOT"> F  </i>
  <i type="logical" name="LORBIT"> F  </i>
  <i type="logical" name="LAECHG"> F  </i>
  <v type="int" name="KPOINT_BSE">    -1     0     0     0</v>
  <i type="int" name="NELM">   500</i>
  <i type="string" name="GGA"> PE          ! optPBE-vdW XC-functional</i>
  <i type="int" name="VOSKOWN">     1</i>
  <i type="logical" name="LDIPOL"> T  </i>
  <i type="logical" name="LMONO"> F  </i>
  <i type="int" name="IDIPOL">     3</i>
  <v name="DIPOL">      0.00000000      0.00000000      0.50000000</v>
 </incar>
 <kpoints>
  <generation param="Monkhorst-Pack">
   <v type="int" name="divisions">       2        2        1 </v>
   <v name="usershift">      0.00000000       0.00000000       0.00000000 </v>
   <v name="genvec1">      0.50000000       0.00000000       0.00000000 </v>
   <v name="genvec2">      0.00000000       0.50000000       0.00000000 </v>
   <v name="genvec3">      0.00000000       0.00000000       1.00000000 </v>
   <v name="shift">      0.50000000       0.50000000       0.00000000 </v>
  </generation>
  <varray name="kpointlist" >
   <v>       0.25000000       0.25000000       0.00000000 </v>
   <v>       0.00000000       0.25000000       0.00000000 </v>
   <v>      -0.25000000       0.00000000       0.00000000 </v>
   <v>      -0.25000000       0.25000000       0.00000000 </v>
   <v>       0.50000000      -0.25000000       0.00000000 </v>
   <v>      -0.25000000       0.50000000       0.00000000 </v>
  </varray>
  <varray name="weights" >
   <v>       0.16666667 </v>
   <v>       0.16666667 </v>
   <v>       0.16666667 </v>
   <v>       0.16666667 </v>
   <v>       0.16666667 </v>
   <v>       0.16666667 </v>
  </varray>
 </kpoints>
 <parameters>
  <separator name="general" >
   <i type="string" name="SYSTEM">unknown system</i>
   <i type="logical" name="LCOMPAT"> F  </i>
  </separator>
  <separator name="electronic" >
   <i type="string" name="PREC">normal</i>
   <i name="ENMAX">    400.00000000</i>
   <i name="ENAUG">    605.39200000</i>
   <i name="EDIFF">      0.00000100</i>
   <i type="int" name="IALGO">    68</i>
   <i type="int" name="IWAVPR">    11</i>
   <i type="int" name="NBANDS">   336</i>
   <i name="NELECT">    552.00000000</i>
   <i type="int" name="TURBO">     0</i>
   <i type="int" name="IRESTART">     0</i>
   <i type="int" name="NREBOOT">     0</i>
   <i type="int" name="NMIN">     0</i>
   <i name="EREF">      0.00000000</i>
   <separator name="electronic smearing" >
    <i type="int" name="ISMEAR">     0</i>
    <i name="SIGMA">      0.10000000</i>
    <i name="KSPACING">      0.50000000</i>
    <i type="logical" name="KGAMMA"> T  </i>
   </separator>
   <separator name="electronic projectors" >
    <i type="logical" name="LREAL"> T  </i>
    <v name="ROPT">     -0.00050000     -0.00050000     -0.00050000</v>
    <i type="int" name="LMAXPAW">  -100</i>
    <i type="int" name="LMAXMIX">     2</i>
    <i type="logical" name="NLSPLINE"> F  </i>
   </separator>
   <separator name="electronic startup" >
    <i type="int" name="ISTART">     0</i>
    <i type="int" name="ICHARG">     2</i>
    <i type="int" name="INIWAV">     1</i>
   </separator>
   <separator name="electronic spin" >
    <i type="int" name="ISPIN">     1</i>
    <i type="logical" name="LNONCOLLINEAR"> F  </i>
    <v name="MAGMOM">      1.00000000      1.00000000      1.00000000      1.00000000      1.00000000      1.00000000      1.00000000      1.00000000      1.00000000      1.00000000      1.00000000      1.00000000      1.00000000      1.00000000      1.00000000      1.00000000      1.00000000      1.00000000      1.00000000      1.00000000
      1.00000000      1.00000000      1.00000000      1.00000000      1.00000000      1.00000000      1.00000000      1.00000000      1.00000000      1.00000000      1.00000000      1.00000000      1.00000000      1.00000000      1.00000000      1.00000000      1.00000000      1.00000000      1.00000000      1.00000000
      1.00000000      1.00000000      1.00000000      1.00000000      1.00000000      1.00000000      1.00000000      1.00000000      1.00000000      1.00000000      1.00000000      1.00000000      1.00000000      1.00000000      1.00000000      1.00000000</v>
    <i name="NUPDOWN">     -1.00000000</i>
    <i type="logical" name="LSORBIT"> F  </i>
    <v name="SAXIS">      0.00000000      0.00000000      1.00000000</v>
    <i type="logical" name="LSPIRAL"> F  </i>
    <v name="QSPIRAL">      0.00000000      0.00000000      0.00000000</v>
    <i type="logical" name="LZEROZ"> F  </i>
   </separator>
   <separator name="electronic exchange-correlation" >
    <i type="logical" name="LASPH"> F  </i>
    <i type="logical" name="LMETAGGA"> F  </i>
   </separator>
   <separator name="electronic convergence" >
    <i type="int" name="NELM">   500</i>
    <i type="int" name="NELMDL">    -5</i>
    <i type="int" name="NELMIN">     2</i>
    <i name="ENINI">    400.00000000</i>
    <separator name="electronic convergence detail" >
     <i type="logical" name="LDIAG"> T  </i>
     <i type="logical" name="LSUBROT"> F  </i>
     <i name="WEIMIN">      0.00100000</i>
     <i name="EBREAK">      0.00000000</i>
     <i name="DEPER">      0.30000000</i>
     <i type="int" name="NRMM">     4</i>
     <i name="TIME">      0.40000000</i>
    </separator>
   </separator>
   <separator name="electronic mixer" >
    <i name="AMIX">      0.40000000</i>
    <i name="BMIX">      1.00000000</i>
    <i name="AMIN">      0.10000000</i>
    <i name="AMIX_MAG">      1.60000000</i>
    <i name="BMIX_MAG">      1.00000000</i>
    <separator name="electronic mixer details" >
     <i type="int" name="IMIX">     4</i>
     <i type="logical" name="MIXFIRST"> F  </i>
     <i type="int" name="MAXMIX">   -45</i>
     <i name="WC">    100.00000000</i>
     <i type="int" name="INIMIX">     1</i>
     <i type="int" name="MIXPRE">     1</i>
     <i type="int" name="MREMOVE">     5</i>
    </separator>
   </separator>
   <separator name="electronic dipolcorrection" >
    <i type="logical" name="LDIPOL"> T  </i>
    <i type="logical" name="LMONO"> F  </i>
    <i type="int" name="IDIPOL">     3</i>
    <i name="EPSILON">      1.00000000</i>
    <v name="DIPOL">      0.00000000      0.00000000      0.50000000</v>
    <i name="EFIELD">      0.00000000</i>
   </separator>
  </separator>
  <separator name="grids" >
   <i type="int" name="NGX">    54</i>
   <i type="int" name="NGY">    54</i>
   <i type="int" name="NGZ">   128</i>
   <i type="int" name="NGXF">   108</i>
   <i type="int" name="NGYF">   108</i>
   <i type="int" name="NGZF">   256</i>
   <i type="logical" name="ADDGRID"> F  </i>
  </separator>
  <separator name="ionic" >
   <i type="int" name="NSW">   500</i>
   <i type="int" name="IBRION">     2</i>
   <i type="int" name="ISIF">     0</i>
   <i name="PSTRESS">      0.00000000</i>
   <i name="EDIFFG">     -0.02000000</i>
   <i type="int" name="NFREE">     2</i>
   <i name="POTIM">      0.35000000</i>
   <i name="SMASS">     -3.00000000</i>
   <i name="SCALEE">      1.00000000</i>
  </separator>
  <separator name="ionic md" >
   <i name="TEBEG">      0.00010000</i>
   <i name="TEEND">      0.00010000</i>
   <i type="int" name="NBLOCK">     1</i>
   <i type="int" name="KBLOCK">   500</i>
   <i type="int" name="NPACO">   256</i>
   <i name="APACO">     16.00000000</i>
  </separator>
  <separator name="symmetry" >
   <i type="int" name="ISYM">     2</i>
   <i name="SYMPREC">      0.00001000</i>
  </separator>
  <separator name="dos" >
   <i type="logical" name="LORBIT"> F  </i>
   <v name="RWIGS">     -1.00000000     -1.00000000     -1.00000000</v>
   <i type="int" name="NEDOS">   301</i>
   <i name="EMIN">     10.00000000</i>
   <i name="EMAX">    -10.00000000</i>
   <i name="EFERMI">      0.00000000</i>
  </separator>
  <separator name="writing" >
   <i type="int" name="NWRITE">     1</i>
   <i type="logical" name="LWAVE"> F  </i>
   <i type="logical" name="LCHARG"> F  </i>
   <i type="logical" name="LPARD"> F  </i>
   <i type="logical" name="LVTOT"> F  </i>
   <i type="logical" name="LVHAR"> F  </i>
   <i type="logical" name="LELF"> F  </i>
   <i type="logical" name="LOPTICS"> F  </i>
   <v name="STM">      0.00000000      0.00000000      0.00000000      0.00000000      0.00000000      0.00000000      0.00000000</v>
  </separator>
  <separator name="performance" >
   <i type="int" name="NPAR">     6</i>
   <i type="int" name="NSIM">     4</i>
   <i type="int" name="NBLK">    -1</i>
   <i type="logical" name="LPLANE"> T  </i>
   <i type="logical" name="LSCALAPACK"> T  </i>
   <i type="logical" name="LSCAAWARE"> F  </i>
   <i type="logical" name="LSCALU"> F  </i>
   <i type="logical" name="LASYNC"> F  </i>
   <i type="logical" name="LORBITALREAL"> F  </i>
  </separator>
  <separator name="miscellaneous" >
   <i type="int" name="IDIOT">     3</i>
   <i type="logical" name="LMUSIC"> F  </i>
   <v name="POMASS">    196.96600000     16.00000000    106.42000000</v>
   <v name="DARWINR">      0.00000000      0.00000000      0.00000000</v>
   <v name="DARWINV">      1.00000000      1.00000000      1.00000000</v>
   <i type="logical" name="LCORR"> T  </i>
  </separator>
  <i type="logical" name="GGA_COMPAT"> T  </i>
  <i type="logical" name="LBERRY"> F  </i>
  <i type="int" name="ICORELEVEL">     0</i>
  <i type="logical" name="LDAU"> F  </i>
  <i type="int" name="I_CONSTRAINED_M">     0</i>
  <separator name="electronic exchange-correlation" >
   <i type="string" name="GGA">PE</i>
   <i type="int" name="VOSKOWN">     1</i>
   <i type="logical" name="LHFCALC"> F  </i>
   <i type="string" name="PRECFOCK"></i>
   <i type="logical" name="LSYMGRAD"> F  </i>
   <i type="logical" name="LHFONE"> F  </i>
   <i type="logical" name="LRHFCALC"> F  </i>
   <i type="logical" name="LTHOMAS"> F  </i>
   <i type="logical" name="LMODELHF"> F  </i>
   <i name="ENCUT4O">     -1.00000000</i>
   <i type="int" name="EXXOEP">     0</i>
   <i type="int" name="FOURORBIT">     0</i>
   <i name="AEXX">      0.00000000</i>
   <i name="HFALPHA">      0.00000000</i>
   <i name="MCALPHA">      0.00000000</i>
   <i name="ALDAX">      1.00000000</i>
   <i name="AGGAX">      1.00000000</i>
   <i name="ALDAC">      1.00000000</i>
   <i name="AGGAC">      1.00000000</i>
   <i type="int" name="NKREDX">     1</i>
   <i type="int" name="NKREDY">     1</i>
   <i type="int" name="NKREDZ">     1</i>
   <i type="logical" name="SHIFTRED"> F  </i>
   <i type="logical" name="ODDONLY"> F  </i>
   <i type="logical" name="EVENONLY"> F  </i>
   <i type="int" name="LMAXFOCK">     0</i>
   <i type="int" name="NMAXFOCKAE">     0</i>
   <i type="logical" name="LFOCKAEDFT"> F  </i>
   <i name="HFSCREEN">      0.00000000</i>
   <i name="HFSCREENC">      0.00000000</i>
   <i type="int" name="NBANDSGWLOW">     0</i>
  </separator>
  <separator name="vdW DFT" >
   <i type="logical" name="LUSE_VDW"> F  </i>
   <i name="Zab_VDW">     -0.84910000</i>
   <i name="PARAM1">      0.12340000</i>
   <i name="PARAM2">      1.00000000</i>
   <i name="PARAM3">      0.00000000</i>
  </separator>
  <separator name="model GW" >
   <i type="int" name="MODEL_GW">     0</i>
   <i name="MODEL_EPS0">     29.42037089</i>
   <i name="MODEL_ALPHA">      1.00000000</i>
  </separator>
  <separator name="linear response parameters" >
   <i type="logical" name="LEPSILON"> F  </i>
   <i type="logical" name="LRPA"> F  </i>
   <i type="logical" name="LNABLA"> F  </i>
   <i type="logical" name="LVEL"> F  </i>
   <i type="int" name="KINTER">     0</i>
   <i name="CSHIFT">      0.10000000</i>
   <i name="OMEGAMAX">     -1.00000000</i>
   <i name="DEG_THRESHOLD">      0.00200000</i>
  </separator>
  <separator name="orbital magnetization" >
   <i type="logical" name="NUCIND"> F  </i>
   <v name="MAGPOS">      0.00000000      0.00000000      0.00000000</v>
   <i type="logical" name="LNICSALL"> T  </i>
   <i type="logical" name="ORBITALMAG"> F  </i>
   <i type="logical" name="LMAGBLOCH"> F  </i>
   <i type="logical" name="LCHIMAG"> F  </i>
   <i type="logical" name="LGAUGE"> T  </i>
   <i type="int" name="MAGATOM">     0</i>
   <v name="MAGDIPOL">      0.00000000      0.00000000      0.00000000</v>
   <v name="AVECCONST">      0.00000000      0.00000000      0.00000000</v>
  </separator>
  <separator name="response functions" >
   <i type="logical" name="LADDER"> F  </i>
   <i type="logical" name="LFXC"> F  </i>
   <i type="logical" name="LHARTREE"> T  </i>
   <i type="int" name="IBSE">     0</i>
   <v type="int" name="KPOINT">    -1     0     0     0</v>
   <i type="logical" name="LTCTE"> F  </i>
   <i type="logical" name="LTETE"> F  </i>
   <i type="logical" name="LTRIPLET"> F  </i>
   <i type="logical" name="LFXCEPS"> F  </i>
   <i type="logical" name="LFXHEG"> F  </i>
   <i type="int" name="NATURALO">     0</i>
   <i type="logical" name="L2ORDER"> F  </i>
   <i type="logical" name="LUSEW"> F  </i>
   <i name="ENCUTGW">     -2.00000000</i>
   <i name="ENCUTGWSOFT">     -2.00000000</i>
   <i name="ENCUTLF">     -1.00000000</i>
   <i type="int" name="LMAXMP2">    -1</i>
   <i name="SCISSOR">      0.00000000</i>
   <i type="int" name="NOMEGA">     0</i>
   <i type="int" name="NOMEGAR">     0</i>
   <i type="int" name="NBANDSGW">    -1</i>
   <i type="int" name="NBANDSO">    -1</i>
   <i type="int" name="NBANDSV">    -1</i>
   <i type="int" name="NELM">   500</i>
   <i type="int" name="NELMHF">     1</i>
   <i type="int" name="DIM">     3</i>
   <i type="int" name="ANTIRES">     0</i>
   <i name="OMEGAMAX">    -30.00000000</i>
   <i name="OMEGAMIN">    -30.00000000</i>
   <i name="OMEGATL">   -200.00000000</i>
   <i type="int" name="OMEGAGRID">     0</i>
   <i name="CSHIFT">     -0.10000000</i>
   <i type="logical" name="SELFENERGY"> F  </i>
   <i type="logical" name="LSPECTRAL"> F  </i>
   <i type="logical" name="LSPECTRALGW"> F  </i>
   <i type="logical" name="LSINGLES"> F  </i>
   <i type="logical" name="LFERMIGW"> F  </i>
   <i type="logical" name="ODDONLYGW"> F  </i>
   <i type="logical" name="EVENONLYGW"> F  </i>
   <i type="int" name="NKREDLFX">     1</i>
   <i type="int" name="NKREDLFY">     1</i>
   <i type="int" name="NKREDLFZ">     1</i>
   <i type="int" name="MAXMEM">  1800</i>
   <i type="int" name="TELESCOPE">     0</i>
   <i type="int" name="TAUPAR">     1</i>
   <i type="int" name="OMEGAPAR">    -1</i>
   <i name="LAMBDA">      1.00000000</i>
  </separator>
  <separator name="External order field" >
   <i name="OFIELD_KAPPA">      0.00000000</i>
   <v name="OFIELD_K">      0.00000000      0.00000000      0.00000000</v>
   <i name="OFIELD_Q6_NEAR">      0.00000000</i>
   <i name="OFIELD_Q6_FAR">      0.00000000</i>
   <i name="OFIELD_A">      0.00000000</i>
  </separator>
 </parameters>
 <atominfo>
  <atoms>      56 </atoms>
  <types>       3 </types>
  <array name="atoms" >
   <dimension dim="1">ion</dimension>
   <field type="string">element</field>
   <field type="int">atomtype</field>
   <set>
    <rc><c>Au</c><c>   1</c></rc>
    <rc><c>Au</c><c>   1</c></rc>
    <rc><c>Au</c><c>   1</c></rc>
    <rc><c>Au</c><c>   1</c></rc>
    <rc><c>Au</c><c>   1</c></rc>
    <rc><c>Au</c><c>   1</c></rc>
    <rc><c>Au</c><c>   1</c></rc>
    <rc><c>Au</c><c>   1</c></rc>
    <rc><c>Au</c><c>   1</c></rc>
    <rc><c>Au</c><c>   1</c></rc>
    <rc><c>Au</c><c>   1</c></rc>
    <rc><c>Au</c><c>   1</c></rc>
    <rc><c>Au</c><c>   1</c></rc>
    <rc><c>Au</c><c>   1</c></rc>
    <rc><c>Au</c><c>   1</c></rc>
    <rc><c>Au</c><c>   1</c></rc>
    <rc><c>Au</c><c>   1</c></rc>
    <rc><c>Au</c><c>   1</c></rc>
    <rc><c>Au</c><c>   1</c></rc>
    <rc><c>Au</c><c>   1</c></rc>
    <rc><c>Au</c><c>   1</c></rc>
    <rc><c>Au</c><c>   1</c></rc>
    <rc><c>Au</c><c>   1</c></rc>
    <rc><c>Au</c><c>   1</c></rc>
    <rc><c>O </c><c>   2</c></rc>
    <rc><c>O </c><c>   2</c></rc>
    <rc><c>O </c><c>   2</c></rc>
    <rc><c>O </c><c>   2</c></rc>
    <rc><c>O </c><c>   2</c></rc>
    <rc><c>O </c><c>   2</c></rc>
    <rc><c>O </c><c>   2</c></rc>
    <rc><c>O </c><c>   2</c></rc>
    <rc><c>Pd</c><c>   3</c></rc>
    <rc><c>Pd</c><c>   3</c></rc>
    <rc><c>Pd</c><c>   3</c></rc>
    <rc><c>Pd</c><c>   3</c></rc>
    <rc><c>Pd</c><c>   3</c></rc>
    <rc><c>Pd</c><c>   3</c></rc>
    <rc><c>Pd</c><c>   3</c></rc>
    <rc><c>Pd</c><c>   3</c></rc>
    <rc><c>Pd</c><c>   3</c></rc>
    <rc><c>Pd</c><c>   3</c></rc>
    <rc><c>Pd</c><c>   3</c></rc>
    <rc><c>Pd</c><c>   3</c></rc>
    <rc><c>Pd</c><c>   3</c></rc>
    <rc><c>Pd</c><c>   3</c></rc>
    <rc><c>Pd</c><c>   3</c></rc>
    <rc><c>Pd</c><c>   3</c></rc>
    <rc><c>Pd</c><c>   3</c></rc>
    <rc><c>Pd</c><c>   3</c></rc>
    <rc><c>Pd</c><c>   3</c></rc>
    <rc><c>Pd</c><c>   3</c></rc>
    <rc><c>Pd</c><c>   3</c></rc>
    <rc><c>Pd</c><c>   3</c></rc>
    <rc><c>Pd</c><c>   3</c></rc>
    <rc><c>Pd</c><c>   3</c></rc>
   </set>
  </array>
  <array name="atomtypes" >
   <dimension dim="1">type</dimension>
   <field type="int">atomspertype</field>
   <field type="string">element</field>
   <field>mass</field>
   <field>valence</field>
   <field type="string">pseudopotential</field>
   <set>
    <rc><c>  24</c><c>Au</c><c>    196.96600000</c><c>     11.00000000</c><c>  PAW_PBE Au 04Oct2007                  </c></rc>
    <rc><c>   8</c><c>O </c><c>     16.00000000</c><c>      6.00000000</c><c>  PAW_PBE O 08Apr2002                   </c></rc>
    <rc><c>  24</c><c>Pd</c><c>    106.42000000</c><c>     10.00000000</c><c>  PAW_PBE Pd 04Jan2005                  </c></rc>
   </set>
  </array>
 </atominfo>
 <structure name="initialpos" >
  <crystal>
   <varray name="basis" >
    <v>      11.00258152       0.00000000       0.00000000 </v>
    <v>       5.50129076       9.52851510       0.00000000 </v>
    <v>       0.00000000       0.00000000      26.19178509 </v>
   </varray>
   <i name="volume">   2745.90128299 </i>
   <varray name="rec_basis" >
    <v>       0.09088776      -0.05247407       0.00000000 </v>
    <v>       0.00000000       0.10494815       0.00000000 </v>
    <v>       0.00000000       0.00000000       0.03817991 </v>
   </varray>
  </crystal>
  <varray name="positions" >
   <v>       0.92052977       0.91261654       0.47303546 </v>
   <v>       0.67459470       0.41075264       0.47839529 </v>
   <v>       0.66382923       0.91627942       0.47593104 </v>
   <v>       0.99688536       0.98570382       0.56659004 </v>
   <v>       0.83333333       0.83333333       0.38179910 </v>
   <v>       0.08333333       0.33333333       0.38179910 </v>
   <v>       0.91962771       0.41723894       0.47382161 </v>
   <v>       0.98188955       0.25343076       0.56192826 </v>
   <v>       0.08333333       0.58333333       0.38179910 </v>
   <v>       0.67109585       0.66550678       0.47554088 </v>
   <v>       0.83862661       0.59233040       0.56626399 </v>
   <v>       0.12980055       0.56602880       0.56300711 </v>
   <v>       0.24839474       0.72664801       0.56489650 </v>
   <v>       0.66856118       0.16459896       0.48184598 </v>
   <v>       0.33333333       0.08333333       0.38179910 </v>
   <v>       0.41390950       0.91850944       0.47566307 </v>
   <v>       0.41754939       0.66818627       0.47728629 </v>
   <v>       0.58333333       0.58333333       0.38179910 </v>
   <v>       0.46501164       0.27208249       0.56699743 </v>
   <v>       0.41347320       0.41928506       0.47380588 </v>
   <v>       0.58333333       0.33333333       0.38179910 </v>
   <v>       0.50030976       0.00906808       0.57502710 </v>
   <v>       0.58333333       0.08333333       0.38179910 </v>
   <v>       0.76287937       0.95859015       0.56605815 </v>
   <v>       0.05595303       0.44741447       0.60014478 </v>
   <v>       0.29485466       0.11184585       0.61043046 </v>
   <v>       0.16118367       0.67112807       0.62811517 </v>
   <v>       0.77392865       0.93518157       0.65243260 </v>
   <v>       0.34250935       0.82805223       0.60170577 </v>
   <v>       0.56239071       0.34660146       0.61634363 </v>
   <v>       0.60557038       0.69909274       0.64684636 </v>
   <v>       0.84208732       0.30116896       0.62618363 </v>
   <v>       0.16762025       0.66707968       0.47072965 </v>
   <v>       0.58333333       0.83333333       0.38179910 </v>
   <v>       0.21792704       0.27851766       0.56411273 </v>
   <v>       0.16628406       0.41893705       0.47433416 </v>
   <v>       0.70164121       0.80680231       0.64370892 </v>
   <v>       0.33333333       0.33333333       0.38179910 </v>
   <v>       0.23648811       0.00605560       0.56298236 </v>
   <v>       0.51518886       0.50074942       0.56571087 </v>
   <v>       0.08333333       0.08333333       0.38179910 </v>
   <v>       0.54009319       0.73783675       0.57215647 </v>
   <v>       0.16332311       0.16734584       0.47444432 </v>
   <v>       0.33333333       0.83333333       0.38179910 </v>
   <v>       0.83333333       0.08333333       0.38179910 </v>
   <v>       0.96991439       0.81179207       0.63876183 </v>
   <v>       0.83333333       0.33333333       0.38179910 </v>
   <v>       0.08333333       0.83333333       0.38179910 </v>
   <v>       0.74754399       0.22853848       0.57921739 </v>
   <v>       0.83333333       0.58333333       0.38179910 </v>
   <v>       0.92134990       0.66527078       0.47737121 </v>
   <v>       0.72183994       0.50102533       0.63345723 </v>
   <v>       0.91878055       0.16231589       0.47118226 </v>
   <v>       0.16642288       0.91570337       0.47397479 </v>
   <v>       0.33333333       0.58333333       0.38179910 </v>
   <v>       0.40992694       0.17076144       0.47882772 </v>
  </varray>
  <varray name="selective"  type="logical" >
   <v type="logical" >  T  T  T </v>
   <v type="logical" >  T  T  T </v>
   <v type="logical" >  T  T  T </v>
   <v type="logical" >  T  T  T </v>
   <v type="logical" >  F  F  F </v>
   <v type="logical" >  F  F  F </v>
   <v type="logical" >  T  T  T </v>
   <v type="logical" >  T  T  T </v>
   <v type="logical" >  F  F  F </v>
   <v type="logical" >  T  T  T </v>
   <v type="logical" >  T  T  T </v>
   <v type="logical" >  T  T  T </v>
   <v type="logical" >  T  T  T </v>
   <v type="logical" >  T  T  T </v>
   <v type="logical" >  F  F  F </v>
   <v type="logical" >  T  T  T </v>
   <v type="logical" >  T  T  T </v>
   <v type="logical" >  F  F  F </v>
   <v type="logical" >  T  T  T </v>
   <v type="logical" >  T  T  T </v>
   <v type="logical" >  F  F  F </v>
   <v type="logical" >  T  T  T </v>
   <v type="logical" >  F  F  F </v>
   <v type="logical" >  T  T  T </v>
   <v type="logical" >  T  T  T </v>
   <v type="logical" >  T  T  T </v>
   <v type="logical" >  T  T  T </v>
   <v type="logical" >  T  T  T </v>
   <v type="logical" >  T  T  T </v>
   <v type="logical" >  T  T  T </v>
   <v type="logical" >  T  T  T </v>
   <v type="logical" >  T  T  T </v>
   <v type="logical" >  T  T  T </v>
   <v type="logical" >  F  F  F </v>
   <v type="logical" >  T  T  T </v>
   <v type="logical" >  T  T  T </v>
   <v type="logical" >  T  T  T </v>
   <v type="logical" >  F  F  F </v>
   <v type="logical" >  T  T  T </v>
   <v type="logical" >  T  T  T </v>
   <v type="logical" >  F  F  F </v>
   <v type="logical" >  T  T  T </v>
   <v type="logical" >  T  T  T </v>
   <v type="logical" >  F  F  F </v>
   <v type="logical" >  F  F  F </v>
   <v type="logical" >  T  T  T </v>
   <v type="logical" >  F  F  F </v>
   <v type="logical" >  F  F  F </v>
   <v type="logical" >  T  T  T </v>
   <v type="logical" >  F  F  F </v>
   <v type="logical" >  T  T  T </v>
   <v type="logical" >  T  T  T </v>
   <v type="logical" >  T  T  T </v>
   <v type="logical" >  T  T  T </v>
   <v type="logical" >  F  F  F </v>
   <v type="logical" >  T  T  T </v>
  </varray>
  <nose>
   <v>      -3.00000000       0.00000000       0.00010000       0.00010000 </v>
  </nose>
 </structure>
 <calculation>
  <scstep>
   <time name="dav">    9.42    9.45</time>
   <time name="total">    9.48    9.52</time>
   <dipole>
    <v name="dipole">      0.00000000       0.00000000       0.00006988 </v>
    <i name="Tr[quadrupol]"> -10913.36959697 </i>
    <i name="Echarged">      0.00000000 </i>
    <i name="Edipol_quadrupol">      0.00000000 </i>
    <i name="Eion">      0.00000000 </i>
   </dipole>
   <energy>
    <i name="alphaZ">    862.57703128 </i>
    <i name="ewald"> 231282.19120191 </i>
    <i name="hartreedc">-276921.73161119 </i>
    <i name="XCdc">   -118.30943772 </i>
    <i name="pawpsdc">  43112.45544455 </i>
    <i name="pawaedc"> -41079.41300390 </i>
    <i name="eentropy">     -0.15445875 </i>
    <i name="bandstr">   1339.32943557 </i>
    <i name="atom">  45117.89144060 </i>
    <i name="e_fr_energy">   3594.83604236 </i>
    <i name="e_wo_entrp">   3594.99050111 </i>
    <i name="e_0_energy">   3594.91327173 </i>
   </energy>
  </scstep>
  <scstep>
   <time name="dav">   10.96   10.99</time>
   <time name="total">   10.96   10.99</time>
   <dipole>
    <v name="dipole">      0.00000000       0.00000000       0.00006988 </v>
    <i name="Tr[quadrupol]"> -10913.36959697 </i>
    <i name="Echarged">      0.00000000 </i>
    <i name="Edipol_quadrupol">      0.00000000 </i>
    <i name="Eion">      0.00000000 </i>
   </dipole>
   <energy>
    <i name="e_fr_energy">     52.08761582 </i>
    <i name="e_wo_entrp">     52.23192908 </i>
    <i name="e_0_energy">     52.15977245 </i>
   </energy>
  </scstep>
  <scstep>
   <time name="dav">   10.64   10.74</time>
   <time name="total">   10.64   10.75</time>
   <dipole>
    <v name="dipole">      0.00000000       0.00000000       0.00006988 </v>
    <i name="Tr[quadrupol]"> -10913.36959697 </i>
    <i name="Echarged">      0.00000000 </i>
    <i name="Edipol_quadrupol">      0.00000000 </i>
    <i name="Eion">      0.00000000 </i>
   </dipole>
   <energy>
    <i name="e_fr_energy">   -252.99518605 </i>
    <i name="e_wo_entrp">   -252.76177821 </i>
    <i name="e_0_energy">   -252.87848213 </i>
   </energy>
  </scstep>
  <scstep>
   <time name="dav">   10.47   10.50</time>
   <time name="total">   10.47   10.51</time>
   <dipole>
    <v name="dipole">      0.00000000       0.00000000       0.00006988 </v>
    <i name="Tr[quadrupol]"> -10913.36959697 </i>
    <i name="Echarged">      0.00000000 </i>
    <i name="Edipol_quadrupol">      0.00000000 </i>
    <i name="Eion">      0.00000000 </i>
   </dipole>
   <energy>
    <i name="e_fr_energy">   -263.93793288 </i>
    <i name="e_wo_entrp">   -263.68285679 </i>
    <i name="e_0_energy">   -263.81039483 </i>
   </energy>
  </scstep>
  <scstep>
   <time name="dav">   10.78   10.81</time>
   <time name="total">   11.04   11.07</time>
   <dipole>
    <v name="dipole">      0.00000000       0.00000000       0.00006988 </v>
    <i name="Tr[quadrupol]"> -10913.36959697 </i>
    <i name="Echarged">      0.00000000 </i>
    <i name="Edipol_quadrupol">      0.00000000 </i>
    <i name="Eion">      0.00000000 </i>
   </dipole>
   <energy>
    <i name="e_fr_energy">   -264.24072480 </i>
    <i name="e_wo_entrp">   -263.98520765 </i>
    <i name="e_0_energy">   -264.11296623 </i>
   </energy>
  </scstep>
  <scstep>
   <time name="diag">    1.64    1.65</time>
   <time name="diis">    4.77    4.78</time>
   <time name="orth">    0.45    0.45</time>
   <time name="total">    7.17    7.19</time>
   <dipole>
    <v name="dipole">      0.00000000       0.00000000       0.41611715 </v>
    <i name="Tr[quadrupol]"> -10908.82734253 </i>
    <i name="Echarged">      0.00000000 </i>
    <i name="Edipol_quadrupol">      0.00000000 </i>
    <i name="Eion">      0.00000000 </i>
   </dipole>
   <energy>
    <i name="e_fr_energy">   -248.01814863 </i>
    <i name="e_wo_entrp">   -247.82776214 </i>
    <i name="e_0_energy">   -247.92295538 </i>
   </energy>
  </scstep>
  <scstep>
   <time name="diag">    1.70    1.71</time>
   <time name="diis">    4.80    4.82</time>
   <time name="orth">    0.45    0.45</time>
   <time name="total">    7.25    7.29</time>
   <dipole>
    <v name="dipole">      0.00000000       0.00000000      -0.58131360 </v>
    <i name="Tr[quadrupol]"> -10913.79406697 </i>
    <i name="Echarged">      0.00000000 </i>
    <i name="Edipol_quadrupol">      0.00000000 </i>
    <i name="Eion">      0.00000000 </i>
   </dipole>
   <energy>
    <i name="e_fr_energy">   -243.37127710 </i>
    <i name="e_wo_entrp">   -243.08783599 </i>
    <i name="e_0_energy">   -243.22955655 </i>
   </energy>
  </scstep>
  <scstep>
   <time name="diag">    1.64    1.71</time>
   <time name="diis">    4.84    4.85</time>
   <time name="orth">    0.45    0.45</time>
   <time name="total">    7.24    7.33</time>
   <dipole>
    <v name="dipole">      0.00000000       0.00000000       2.55430284 </v>
    <i name="Tr[quadrupol]"> -10913.15636992 </i>
    <i name="Echarged">      0.00000000 </i>
    <i name="Edipol_quadrupol">      0.00000000 </i>
    <i name="Eion">      0.00000000 </i>
   </dipole>
   <energy>
    <i name="e_fr_energy">   -293.51884105 </i>
    <i name="e_wo_entrp">   -293.31557405 </i>
    <i name="e_0_energy">   -293.41720755 </i>
   </energy>
  </scstep>
  <scstep>
   <time name="diag">    1.69    1.70</time>
   <time name="diis">    4.75    4.76</time>
   <time name="orth">    0.45    0.45</time>
   <time name="total">    7.20    7.22</time>
   <dipole>
    <v name="dipole">      0.00000000       0.00000000      -1.02922980 </v>
    <i name="Tr[quadrupol]"> -10914.38453810 </i>
    <i name="Echarged">      0.00000000 </i>
    <i name="Edipol_quadrupol">      0.00000000 </i>
    <i name="Eion">      0.00000000 </i>
   </dipole>
   <energy>
    <i name="e_fr_energy">   -282.18372135 </i>
    <i name="e_wo_entrp">   -282.00314353 </i>
    <i name="e_0_energy">   -282.09343244 </i>
   </energy>
  </scstep>
  <scstep>
   <time name="diag">    1.65    1.65</time>
   <time name="diis">    4.76    4.78</time>
   <time name="orth">    0.44    0.45</time>
   <time name="total">    7.16    7.19</time>
   <dipole>
    <v name="dipole">      0.00000000       0.00000000       0.23890312 </v>
    <i name="Tr[quadrupol]"> -10916.11600904 </i>
    <i name="Echarged">      0.00000000 </i>
    <i name="Edipol_quadrupol">      0.00000000 </i>
    <i name="Eion">      0.00000000 </i>
   </dipole>
   <energy>
    <i name="e_fr_energy">   -257.37236937 </i>
    <i name="e_wo_entrp">   -257.24121088 </i>
    <i name="e_0_energy">   -257.30679013 </i>
   </energy>
  </scstep>
  <scstep>
   <time name="diag">    1.70    1.71</time>
   <time name="diis">    4.81    4.83</time>
   <time name="orth">    0.44    0.45</time>
   <time name="total">    7.26    7.29</time>
   <dipole>
    <v name="dipole">      0.00000000       0.00000000      -0.12361006 </v>
    <i name="Tr[quadrupol]"> -10914.11812608 </i>
    <i name="Echarged">      0.00000000 </i>
    <i name="Edipol_quadrupol">      0.00000000 </i>
    <i name="Eion">      0.00000000 </i>
   </dipole>
   <energy>
    <i name="e_fr_energy">   -238.25220620 </i>
    <i name="e_wo_entrp">   -238.04403582 </i>
    <i name="e_0_energy">   -238.14812101 </i>
   </energy>
  </scstep>
  <scstep>
   <time name="diag">    1.67    1.69</time>
   <time name="diis">    4.80    4.81</time>
   <time name="orth">    0.44    0.45</time>
   <time name="total">    7.22    7.26</time>
   <dipole>
    <v name="dipole">      0.00000000       0.00000000       0.29045934 </v>
    <i name="Tr[quadrupol]"> -10914.48357717 </i>
    <i name="Echarged">      0.00000000 </i>
    <i name="Edipol_quadrupol">      0.00000000 </i>
    <i name="Eion">      0.00000000 </i>
   </dipole>
   <energy>
    <i name="e_fr_energy">   -236.01579347 </i>
    <i name="e_wo_entrp">   -235.83224470 </i>
    <i name="e_0_energy">   -235.92401908 </i>
   </energy>
  </scstep>
  <scstep>
   <time name="diag">    1.69    1.69</time>
   <time name="diis">    4.74    4.84</time>
   <time name="orth">    0.44    0.44</time>
   <time name="total">    7.18    7.29</time>
   <dipole>
    <v name="dipole">      0.00000000       0.00000000       0.31831528 </v>
    <i name="Tr[quadrupol]"> -10914.00131391 </i>
    <i name="Echarged">      0.00000000 </i>
    <i name="Edipol_quadrupol">      0.00000000 </i>
    <i name="Eion">      0.00000000 </i>
   </dipole>
   <energy>
    <i name="e_fr_energy">   -233.44135603 </i>
    <i name="e_wo_entrp">   -233.29520716 </i>
    <i name="e_0_energy">   -233.36828159 </i>
   </energy>
  </scstep>
  <scstep>
   <time name="diag">    1.64    1.65</time>
   <time name="diis">    4.81    4.82</time>
   <time name="orth">    0.44    0.44</time>
   <time name="total">    7.21    7.23</time>
   <dipole>
    <v name="dipole">      0.00000000       0.00000000       0.24048216 </v>
    <i name="Tr[quadrupol]"> -10914.20122186 </i>
    <i name="Echarged">      0.00000000 </i>
    <i name="Edipol_quadrupol">      0.00000000 </i>
    <i name="Eion">      0.00000000 </i>
   </dipole>
   <energy>
    <i name="e_fr_energy">   -233.00026338 </i>
    <i name="e_wo_entrp">   -232.83308757 </i>
    <i name="e_0_energy">   -232.91667548 </i>
   </energy>
  </scstep>
  <scstep>
   <time name="diag">    1.69    1.70</time>
   <time name="diis">    4.83    4.85</time>
   <time name="orth">    0.44    0.44</time>
   <time name="total">    7.28    7.30</time>
   <dipole>
    <v name="dipole">      0.00000000       0.00000000       0.25088481 </v>
    <i name="Tr[quadrupol]"> -10914.85595061 </i>
    <i name="Echarged">      0.00000000 </i>
    <i name="Edipol_quadrupol">      0.00000000 </i>
    <i name="Eion">      0.00000000 </i>
   </dipole>
   <energy>
    <i name="e_fr_energy">   -232.99278536 </i>
    <i name="e_wo_entrp">   -232.82840466 </i>
    <i name="e_0_energy">   -232.91059501 </i>
   </energy>
  </scstep>
  <scstep>
   <time name="diag">    1.68    1.69</time>
   <time name="diis">    4.82    4.83</time>
   <time name="orth">    0.44    0.44</time>
   <time name="total">    7.25    7.28</time>
   <dipole>
    <v name="dipole">      0.00000000       0.00000000       0.24697611 </v>
    <i name="Tr[quadrupol]"> -10914.99449690 </i>
    <i name="Echarged">      0.00000000 </i>
    <i name="Edipol_quadrupol">      0.00000000 </i>
    <i name="Eion">      0.00000000 </i>
   </dipole>
   <energy>
    <i name="e_fr_energy">   -232.84214839 </i>
    <i name="e_wo_entrp">   -232.66839238 </i>
    <i name="e_0_energy">   -232.75527039 </i>
   </energy>
  </scstep>
  <scstep>
   <time name="diag">    1.69    1.69</time>
   <time name="diis">    4.80    4.82</time>
   <time name="orth">    0.44    0.44</time>
   <time name="total">    7.24    7.27</time>
   <dipole>
    <v name="dipole">      0.00000000       0.00000000       0.24403095 </v>
    <i name="Tr[quadrupol]"> -10915.46979680 </i>
    <i name="Echarged">      0.00000000 </i>
    <i name="Edipol_quadrupol">      0.00000000 </i>
    <i name="Eion">      0.00000000 </i>
   </dipole>
   <energy>
    <i name="e_fr_energy">   -232.78900274 </i>
    <i name="e_wo_entrp">   -232.61228945 </i>
    <i name="e_0_energy">   -232.70064610 </i>
   </energy>
  </scstep>
  <scstep>
   <time name="diag">    1.64    1.64</time>
   <time name="diis">    4.79    4.80</time>
   <time name="orth">    0.44    0.44</time>
   <time name="total">    7.18    7.20</time>
   <dipole>
    <v name="dipole">      0.00000000       0.00000000       0.25559477 </v>
    <i name="Tr[quadrupol]"> -10915.68294736 </i>
    <i name="Echarged">      0.00000000 </i>
    <i name="Edipol_quadrupol">      0.00000000 </i>
    <i name="Eion">      0.00000000 </i>
   </dipole>
   <energy>
    <i name="e_fr_energy">   -232.69490674 </i>
    <i name="e_wo_entrp">   -232.51161677 </i>
    <i name="e_0_energy">   -232.60326176 </i>
   </energy>
  </scstep>
  <scstep>
   <time name="diag">    1.67    1.73</time>
   <time name="diis">    4.76    4.80</time>
   <time name="orth">    0.44    0.44</time>
   <time name="total">    7.18    7.28</time>
   <dipole>
    <v name="dipole">      0.00000000       0.00000000       0.25138095 </v>
    <i name="Tr[quadrupol]"> -10915.81713505 </i>
    <i name="Echarged">      0.00000000 </i>
    <i name="Edipol_quadrupol">      0.00000000 </i>
    <i name="Eion">      0.00000000 </i>
   </dipole>
   <energy>
    <i name="e_fr_energy">   -232.65532924 </i>
    <i name="e_wo_entrp">   -232.47146720 </i>
    <i name="e_0_energy">   -232.56339822 </i>
   </energy>
  </scstep>
  <scstep>
   <time name="diag">    1.68    1.68</time>
   <time name="diis">    4.74    4.78</time>
   <time name="orth">    0.44    0.45</time>
   <time name="total">    7.17    7.22</time>
   <dipole>
    <v name="dipole">      0.00000000       0.00000000       0.25063611 </v>
    <i name="Tr[quadrupol]"> -10915.90069652 </i>
    <i name="Echarged">      0.00000000 </i>
    <i name="Edipol_quadrupol">      0.00000000 </i>
    <i name="Eion">      0.00000000 </i>
   </dipole>
   <energy>
    <i name="e_fr_energy">   -232.64462932 </i>
    <i name="e_wo_entrp">   -232.45928270 </i>
    <i name="e_0_energy">   -232.55195601 </i>
   </energy>
  </scstep>
  <scstep>
   <time name="diag">    1.69    1.70</time>
   <time name="diis">    4.78    4.80</time>
   <time name="orth">    0.44    0.45</time>
   <time name="total">    7.23    7.26</time>
   <dipole>
    <v name="dipole">      0.00000000       0.00000000       0.24967907 </v>
    <i name="Tr[quadrupol]"> -10916.00318672 </i>
    <i name="Echarged">      0.00000000 </i>
    <i name="Edipol_quadrupol">      0.00000000 </i>
    <i name="Eion">      0.00000000 </i>
   </dipole>
   <energy>
    <i name="e_fr_energy">   -232.64024861 </i>
    <i name="e_wo_entrp">   -232.45463935 </i>
    <i name="e_0_energy">   -232.54744398 </i>
   </energy>
  </scstep>
  <scstep>
   <time name="diag">    1.63    1.64</time>
   <time name="diis">    4.76    4.77</time>
   <time name="orth">    0.44    0.44</time>
   <time name="total">    7.15    7.17</time>
   <dipole>
    <v name="dipole">      0.00000000       0.00000000       0.25472242 </v>
    <i name="Tr[quadrupol]"> -10916.24495222 </i>
    <i name="Echarged">      0.00000000 </i>
    <i name="Edipol_quadrupol">      0.00000000 </i>
    <i name="Eion">      0.00000000 </i>
   </dipole>
   <energy>
    <i name="e_fr_energy">   -232.63260844 </i>
    <i name="e_wo_entrp">   -232.44542066 </i>
    <i name="e_0_energy">   -232.53901455 </i>
   </energy>
  </scstep>
  <scstep>
   <time name="diag">    1.70    1.70</time>
   <time name="diis">    4.78    4.79</time>
   <time name="orth">    0.44    0.44</time>
   <time name="total">    7.22    7.24</time>
   <dipole>
    <v name="dipole">      0.00000000       0.00000000       0.25902143 </v>
    <i name="Tr[quadrupol]"> -10916.44751187 </i>
    <i name="Echarged">      0.00000000 </i>
    <i name="Edipol_quadrupol">      0.00000000 </i>
    <i name="Eion">      0.00000000 </i>
   </dipole>
   <energy>
    <i name="e_fr_energy">   -232.62972750 </i>
    <i name="e_wo_entrp">   -232.44307157 </i>
    <i name="e_0_energy">   -232.53639953 </i>
   </energy>
  </scstep>
  <scstep>
   <time name="diag">    1.68    1.69</time>
   <time name="diis">    4.68    4.79</time>
   <time name="orth">    0.44    0.44</time>
   <time name="total">    7.12    7.24</time>
   <dipole>
    <v name="dipole">      0.00000000       0.00000000       0.26366458 </v>
    <i name="Tr[quadrupol]"> -10916.58945030 </i>
    <i name="Echarged">      0.00000000 </i>
    <i name="Edipol_quadrupol">      0.00000000 </i>
    <i name="Eion">      0.00000000 </i>
   </dipole>
   <energy>
    <i name="e_fr_energy">   -232.62920099 </i>
    <i name="e_wo_entrp">   -232.44143797 </i>
    <i name="e_0_energy">   -232.53531948 </i>
   </energy>
  </scstep>
  <scstep>
   <time name="diag">    1.69    1.69</time>
   <time name="diis">    4.80    4.81</time>
   <time name="orth">    0.44    0.44</time>
   <time name="total">    7.23    7.26</time>
   <dipole>
    <v name="dipole">      0.00000000       0.00000000       0.26341817 </v>
    <i name="Tr[quadrupol]"> -10916.64292759 </i>
    <i name="Echarged">      0.00000000 </i>
    <i name="Edipol_quadrupol">      0.00000000 </i>
    <i name="Eion">      0.00000000 </i>
   </dipole>
   <energy>
    <i name="e_fr_energy">   -232.62919831 </i>
    <i name="e_wo_entrp">   -232.44135269 </i>
    <i name="e_0_energy">   -232.53527550 </i>
   </energy>
  </scstep>
  <scstep>
   <time name="diag">    1.65    1.65</time>
   <time name="diis">    4.79    4.80</time>
   <time name="orth">    0.44    0.44</time>
   <time name="total">    7.19    7.21</time>
   <dipole>
    <v name="dipole">      0.00000000       0.00000000       0.26725753 </v>
    <i name="Tr[quadrupol]"> -10916.79099087 </i>
    <i name="Echarged">      0.00000000 </i>
    <i name="Edipol_quadrupol">      0.00000000 </i>
    <i name="Eion">      0.00000000 </i>
   </dipole>
   <energy>
    <i name="e_fr_energy">   -232.62959615 </i>
    <i name="e_wo_entrp">   -232.44163748 </i>
    <i name="e_0_energy">   -232.53561682 </i>
   </energy>
  </scstep>
  <scstep>
   <time name="diag">    1.69    1.69</time>
   <time name="diis">    4.87    4.89</time>
   <time name="orth">    0.44    0.44</time>
   <time name="total">    7.31    7.34</time>
   <dipole>
    <v name="dipole">      0.00000000       0.00000000       0.26785340 </v>
    <i name="Tr[quadrupol]"> -10916.88329956 </i>
    <i name="Echarged">      0.00000000 </i>
    <i name="Edipol_quadrupol">      0.00000000 </i>
    <i name="Eion">      0.00000000 </i>
   </dipole>
   <energy>
    <i name="e_fr_energy">   -232.62987874 </i>
    <i name="e_wo_entrp">   -232.44187997 </i>
    <i name="e_0_energy">   -232.53587936 </i>
   </energy>
  </scstep>
  <scstep>
   <time name="diag">    1.67    1.68</time>
   <time name="diis">    4.84    4.87</time>
   <time name="orth">    0.44    0.44</time>
   <time name="total">    7.26    7.30</time>
   <dipole>
    <v name="dipole">      0.00000000       0.00000000       0.26864497 </v>
    <i name="Tr[quadrupol]"> -10916.95784502 </i>
    <i name="Echarged">      0.00000000 </i>
    <i name="Edipol_quadrupol">      0.00000000 </i>
    <i name="Eion">      0.00000000 </i>
   </dipole>
   <energy>
    <i name="e_fr_energy">   -232.63014130 </i>
    <i name="e_wo_entrp">   -232.44215889 </i>
    <i name="e_0_energy">   -232.53615009 </i>
   </energy>
  </scstep>
  <scstep>
   <time name="diag">    1.67    1.69</time>
   <time name="diis">    4.71    4.72</time>
   <time name="orth">    0.44    0.44</time>
   <time name="total">    7.13    7.17</time>
   <dipole>
    <v name="dipole">      0.00000000       0.00000000       0.26963379 </v>
    <i name="Tr[quadrupol]"> -10917.01535319 </i>
    <i name="Echarged">      0.00000000 </i>
    <i name="Edipol_quadrupol">      0.00000000 </i>
    <i name="Eion">      0.00000000 </i>
   </dipole>
   <energy>
    <i name="e_fr_energy">   -232.63037410 </i>
    <i name="e_wo_entrp">   -232.44241302 </i>
    <i name="e_0_energy">   -232.53639356 </i>
   </energy>
  </scstep>
  <scstep>
   <time name="diag">    1.63    1.64</time>
   <time name="diis">    4.69    4.79</time>
   <time name="orth">    0.44    0.44</time>
   <time name="total">    7.07    7.18</time>
   <dipole>
    <v name="dipole">      0.00000000       0.00000000       0.27169963 </v>
    <i name="Tr[quadrupol]"> -10917.12296796 </i>
    <i name="Echarged">      0.00000000 </i>
    <i name="Edipol_quadrupol">      0.00000000 </i>
    <i name="Eion">      0.00000000 </i>
   </dipole>
   <energy>
    <i name="e_fr_energy">   -232.63081717 </i>
    <i name="e_wo_entrp">   -232.44284596 </i>
    <i name="e_0_energy">   -232.53683156 </i>
   </energy>
  </scstep>
  <scstep>
   <time name="diag">    1.69    1.70</time>
   <time name="diis">    4.87    4.88</time>
   <time name="orth">    0.44    0.44</time>
   <time name="total">    7.31    7.34</time>
   <dipole>
    <v name="dipole">      0.00000000       0.00000000       0.27448673 </v>
    <i name="Tr[quadrupol]"> -10917.26046051 </i>
    <i name="Echarged">      0.00000000 </i>
    <i name="Edipol_quadrupol">      0.00000000 </i>
    <i name="Eion">      0.00000000 </i>
   </dipole>
   <energy>
    <i name="e_fr_energy">   -232.63136297 </i>
    <i name="e_wo_entrp">   -232.44344097 </i>
    <i name="e_0_energy">   -232.53740197 </i>
   </energy>
  </scstep>
  <scstep>
   <time name="diag">    1.67    1.68</time>
   <time name="diis">    4.18    4.19</time>
   <time name="orth">    0.44    0.44</time>
   <time name="total">    6.61    6.63</time>
   <dipole>
    <v name="dipole">      0.00000000       0.00000000       0.27601850 </v>
    <i name="Tr[quadrupol]"> -10917.33510108 </i>
    <i name="Echarged">      0.00000000 </i>
    <i name="Edipol_quadrupol">      0.00000000 </i>
    <i name="Eion">      0.00000000 </i>
   </dipole>
   <energy>
    <i name="e_fr_energy">   -232.63160123 </i>
    <i name="e_wo_entrp">   -232.44367168 </i>
    <i name="e_0_energy">   -232.53763645 </i>
   </energy>
  </scstep>
  <scstep>
   <time name="diag">    1.69    1.69</time>
   <time name="diis">    3.63    3.65</time>
   <time name="orth">    0.44    0.44</time>
   <time name="total">    6.06    6.09</time>
   <dipole>
    <v name="dipole">      0.00000000       0.00000000       0.27698161 </v>
    <i name="Tr[quadrupol]"> -10917.37842589 </i>
    <i name="Echarged">      0.00000000 </i>
    <i name="Edipol_quadrupol">      0.00000000 </i>
    <i name="Eion">      0.00000000 </i>
   </dipole>
   <energy>
    <i name="e_fr_energy">   -232.63171324 </i>
    <i name="e_wo_entrp">   -232.44377229 </i>
    <i name="e_0_energy">   -232.53774277 </i>
   </energy>
  </scstep>
  <scstep>
   <time name="diag">    1.64    1.65</time>
   <time name="diis">    3.33    3.34</time>
   <time name="orth">    0.44    0.44</time>
   <time name="total">    5.72    5.75</time>
   <dipole>
    <v name="dipole">      0.00000000       0.00000000       0.27787618 </v>
    <i name="Tr[quadrupol]"> -10917.40909736 </i>
    <i name="Echarged">      0.00000000 </i>
    <i name="Edipol_quadrupol">      0.00000000 </i>
    <i name="Eion">      0.00000000 </i>
   </dipole>
   <energy>
    <i name="e_fr_energy">   -232.63177803 </i>
    <i name="e_wo_entrp">   -232.44382055 </i>
    <i name="e_0_energy">   -232.53779929 </i>
   </energy>
  </scstep>
  <scstep>
   <time name="diag">    1.69    1.70</time>
   <time name="diis">    3.00    3.01</time>
   <time name="orth">    0.44    0.44</time>
   <time name="total">    5.45    5.47</time>
   <dipole>
    <v name="dipole">      0.00000000       0.00000000       0.27849704 </v>
    <i name="Tr[quadrupol]"> -10917.42528056 </i>
    <i name="Echarged">      0.00000000 </i>
    <i name="Edipol_quadrupol">      0.00000000 </i>
    <i name="Eion">      0.00000000 </i>
   </dipole>
   <energy>
    <i name="e_fr_energy">   -232.63181038 </i>
    <i name="e_wo_entrp">   -232.44384715 </i>
    <i name="e_0_energy">   -232.53782876 </i>
   </energy>
  </scstep>
  <scstep>
   <time name="diag">    1.67    1.68</time>
   <time name="diis">    2.92    2.93</time>
   <time name="orth">    0.44    0.44</time>
   <time name="total">    5.35    5.37</time>
   <dipole>
    <v name="dipole">      0.00000000       0.00000000       0.27912233 </v>
    <i name="Tr[quadrupol]"> -10917.43845695 </i>
    <i name="Echarged">      0.00000000 </i>
    <i name="Edipol_quadrupol">      0.00000000 </i>
    <i name="Eion">      0.00000000 </i>
   </dipole>
   <energy>
    <i name="e_fr_energy">   -232.63183673 </i>
    <i name="e_wo_entrp">   -232.44386849 </i>
    <i name="e_0_energy">   -232.53785261 </i>
   </energy>
  </scstep>
  <scstep>
   <time name="diag">    1.66    1.72</time>
   <time name="diis">    2.88    2.92</time>
   <time name="orth">    0.44    0.44</time>
   <time name="total">    5.30    5.40</time>
   <dipole>
    <v name="dipole">      0.00000000       0.00000000       0.27980387 </v>
    <i name="Tr[quadrupol]"> -10917.45077715 </i>
    <i name="Echarged">      0.00000000 </i>
    <i name="Edipol_quadrupol">      0.00000000 </i>
    <i name="Eion">      0.00000000 </i>
   </dipole>
   <energy>
    <i name="e_fr_energy">   -232.63185895 </i>
    <i name="e_wo_entrp">   -232.44389370 </i>
    <i name="e_0_energy">   -232.53787633 </i>
   </energy>
  </scstep>
  <scstep>
   <time name="diag">    1.63    1.64</time>
   <time name="diis">    2.70    2.71</time>
   <time name="orth">    0.44    0.44</time>
   <time name="total">    5.08    5.11</time>
   <dipole>
    <v name="dipole">      0.00000000       0.00000000       0.28045441 </v>
    <i name="Tr[quadrupol]"> -10917.46139267 </i>
    <i name="Echarged">      0.00000000 </i>
    <i name="Edipol_quadrupol">      0.00000000 </i>
    <i name="Eion">      0.00000000 </i>
   </dipole>
   <energy>
    <i name="e_fr_energy">   -232.63187392 </i>
    <i name="e_wo_entrp">   -232.44390802 </i>
    <i name="e_0_energy">   -232.53789097 </i>
   </energy>
  </scstep>
  <scstep>
   <time name="diag">    1.70    1.71</time>
   <time name="diis">    2.78    2.79</time>
   <time name="orth">    0.44    0.44</time>
   <time name="total">    5.25    5.31</time>
   <dipole>
    <v name="dipole">      0.00000000       0.00000000       0.28104150 </v>
    <i name="Tr[quadrupol]"> -10917.47044338 </i>
    <i name="Echarged">      0.00000000 </i>
    <i name="Edipol_quadrupol">      0.00000000 </i>
    <i name="Eion">      0.00000000 </i>
   </dipole>
   <energy>
    <i name="e_fr_energy">   -232.63188339 </i>
    <i name="e_wo_entrp">   -232.44391396 </i>
    <i name="e_0_energy">   -232.53789867 </i>
   </energy>
  </scstep>
  <scstep>
   <time name="diag">    1.68    1.68</time>
   <time name="diis">    2.42    2.43</time>
   <time name="orth">    0.44    0.44</time>
   <time name="total">    4.85    4.87</time>
   <dipole>
    <v name="dipole">      0.00000000       0.00000000       0.28148967 </v>
    <i name="Tr[quadrupol]"> -10917.47724754 </i>
    <i name="Echarged">      0.00000000 </i>
    <i name="Edipol_quadrupol">      0.00000000 </i>
    <i name="Eion">      0.00000000 </i>
   </dipole>
   <energy>
    <i name="e_fr_energy">   -232.63188791 </i>
    <i name="e_wo_entrp">   -232.44391662 </i>
    <i name="e_0_energy">   -232.53790226 </i>
   </energy>
  </scstep>
  <scstep>
   <time name="diag">    1.69    1.69</time>
   <time name="diis">    2.36    2.36</time>
   <time name="orth">    0.44    0.44</time>
   <time name="total">    4.80    4.81</time>
   <dipole>
    <v name="dipole">      0.00000000       0.00000000       0.28175783 </v>
    <i name="Tr[quadrupol]"> -10917.48118753 </i>
    <i name="Echarged">      0.00000000 </i>
    <i name="Edipol_quadrupol">      0.00000000 </i>
    <i name="Eion">      0.00000000 </i>
   </dipole>
   <energy>
    <i name="e_fr_energy">   -232.63189036 </i>
    <i name="e_wo_entrp">   -232.44391842 </i>
    <i name="e_0_energy">   -232.53790439 </i>
   </energy>
  </scstep>
  <scstep>
   <time name="diag">    1.63    1.64</time>
   <time name="diis">    2.32    2.33</time>
   <time name="orth">    0.44    0.44</time>
   <time name="total">    4.71    4.73</time>
   <dipole>
    <v name="dipole">      0.00000000       0.00000000       0.28197545 </v>
    <i name="Tr[quadrupol]"> -10917.48439363 </i>
    <i name="Echarged">      0.00000000 </i>
    <i name="Edipol_quadrupol">      0.00000000 </i>
    <i name="Eion">      0.00000000 </i>
   </dipole>
   <energy>
    <i name="e_fr_energy">   -232.63189236 </i>
    <i name="e_wo_entrp">   -232.44392081 </i>
    <i name="e_0_energy">   -232.53790659 </i>
   </energy>
  </scstep>
  <scstep>
   <time name="diag">    1.69    1.70</time>
   <time name="diis">    2.05    2.06</time>
   <time name="orth">    0.44    0.44</time>
   <time name="total">    4.50    4.51</time>
   <dipole>
    <v name="dipole">      0.00000000       0.00000000       0.28209311 </v>
    <i name="Tr[quadrupol]"> -10917.48625035 </i>
    <i name="Echarged">      0.00000000 </i>
    <i name="Edipol_quadrupol">      0.00000000 </i>
    <i name="Eion">      0.00000000 </i>
   </dipole>
   <energy>
    <i name="e_fr_energy">   -232.63189378 </i>
    <i name="e_wo_entrp">   -232.44392227 </i>
    <i name="e_0_energy">   -232.53790803 </i>
   </energy>
  </scstep>
  <scstep>
   <time name="diag">    1.67    1.68</time>
   <time name="diis">    2.04    2.05</time>
   <time name="orth">    0.44    0.44</time>
   <time name="total">    4.47    4.49</time>
   <dipole>
    <v name="dipole">      0.00000000       0.00000000       0.28220571 </v>
    <i name="Tr[quadrupol]"> -10917.48833777 </i>
    <i name="Echarged">      0.00000000 </i>
    <i name="Edipol_quadrupol">      0.00000000 </i>
    <i name="Eion">      0.00000000 </i>
   </dipole>
   <energy>
    <i name="e_fr_energy">   -232.63189540 </i>
    <i name="e_wo_entrp">   -232.44392387 </i>
    <i name="e_0_energy">   -232.53790963 </i>
   </energy>
  </scstep>
  <scstep>
   <time name="diag">    1.68    1.69</time>
   <time name="diis">    1.92    2.01</time>
   <time name="orth">    0.44    0.44</time>
   <time name="total">    4.09    4.21</time>
   <dipole>
    <v name="dipole">      0.00000000       0.00000000       0.28227257 </v>
    <i name="Tr[quadrupol]"> -10917.48982534 </i>
    <i name="Echarged">      0.00000000 </i>
    <i name="Edipol_quadrupol">      0.00000000 </i>
    <i name="Eion">      0.00000000 </i>
   </dipole>
   <energy>
    <i name="alphaZ">    864.79532701 </i>
    <i name="ewald"> 231282.19120191 </i>
    <i name="hartreedc">-276636.07105285 </i>
    <i name="XCdc">   -129.62636719 </i>
    <i name="pawpsdc">  51777.88580405 </i>
    <i name="pawaedc"> -49865.58119212 </i>
    <i name="eentropy">     -0.18797172 </i>
    <i name="bandstr">  -2643.92908604 </i>
    <i name="atom">  45117.89144060 </i>
    <i name="e_fr_energy">   -232.63189634 </i>
    <i name="e_wo_entrp">   -232.44392463 </i>
    <i name="e_0_energy">   -232.53791048 </i>
   </energy>
  </scstep>
  <structure>
   <crystal>
    <varray name="basis" >
     <v>      11.00258152       0.00000000       0.00000000 </v>
     <v>       5.50129076       9.52851510       0.00000000 </v>
     <v>       0.00000000       0.00000000      26.19178509 </v>
    </varray>
    <i name="volume">   2745.90128299 </i>
    <varray name="rec_basis" >
     <v>       0.09088776      -0.05247407       0.00000000 </v>
     <v>       0.00000000       0.10494815       0.00000000 </v>
     <v>       0.00000000       0.00000000       0.03817991 </v>
    </varray>
   </crystal>
   <varray name="positions" >
    <v>       0.92052977       0.91261654       0.47303546 </v>
    <v>       0.67459470       0.41075264       0.47839529 </v>
    <v>       0.66382923       0.91627942       0.47593104 </v>
    <v>       0.99688536       0.98570382       0.56659004 </v>
    <v>       0.83333333       0.83333333       0.38179910 </v>
    <v>       0.08333333       0.33333333       0.38179910 </v>
    <v>       0.91962771       0.41723894       0.47382161 </v>
    <v>       0.98188955       0.25343076       0.56192826 </v>
    <v>       0.08333333       0.58333333       0.38179910 </v>
    <v>       0.67109585       0.66550678       0.47554088 </v>
    <v>       0.83862661       0.59233040       0.56626399 </v>
    <v>       0.12980055       0.56602880       0.56300711 </v>
    <v>       0.24839474       0.72664801       0.56489650 </v>
    <v>       0.66856118       0.16459896       0.48184598 </v>
    <v>       0.33333333       0.08333333       0.38179910 </v>
    <v>       0.41390950       0.91850944       0.47566307 </v>
    <v>       0.41754939       0.66818627       0.47728629 </v>
    <v>       0.58333333       0.58333333       0.38179910 </v>
    <v>       0.46501164       0.27208249       0.56699743 </v>
    <v>       0.41347320       0.41928506       0.47380588 </v>
    <v>       0.58333333       0.33333333       0.38179910 </v>
    <v>       0.50030976       0.00906808       0.57502710 </v>
    <v>       0.58333333       0.08333333       0.38179910 </v>
    <v>       0.76287937       0.95859015       0.56605815 </v>
    <v>       0.05595303       0.44741447       0.60014478 </v>
    <v>       0.29485466       0.11184585       0.61043046 </v>
    <v>       0.16118367       0.67112807       0.62811517 </v>
    <v>       0.77392865       0.93518157       0.65243260 </v>
    <v>       0.34250935       0.82805223       0.60170577 </v>
    <v>       0.56239071       0.34660146       0.61634363 </v>
    <v>       0.60557038       0.69909274       0.64684636 </v>
    <v>       0.84208732       0.30116896       0.62618363 </v>
    <v>       0.16762025       0.66707968       0.47072965 </v>
    <v>       0.58333333       0.83333333       0.38179910 </v>
    <v>       0.21792704       0.27851766       0.56411273 </v>
    <v>       0.16628406       0.41893705       0.47433416 </v>
    <v>       0.70164121       0.80680231       0.64370892 </v>
    <v>       0.33333333       0.33333333       0.38179910 </v>
    <v>       0.23648811       0.00605560       0.56298236 </v>
    <v>       0.51518886       0.50074942       0.56571087 </v>
    <v>       0.08333333       0.08333333       0.38179910 </v>
    <v>       0.54009319       0.73783675       0.57215647 </v>
    <v>       0.16332311       0.16734584       0.47444432 </v>
    <v>       0.33333333       0.83333333       0.38179910 </v>
    <v>       0.83333333       0.08333333       0.38179910 </v>
    <v>       0.96991439       0.81179207       0.63876183 </v>
    <v>       0.83333333       0.33333333       0.38179910 </v>
    <v>       0.08333333       0.83333333       0.38179910 </v>
    <v>       0.74754399       0.22853848       0.57921739 </v>
    <v>       0.83333333       0.58333333       0.38179910 </v>
    <v>       0.92134990       0.66527078       0.47737121 </v>
    <v>       0.72183994       0.50102533       0.63345723 </v>
    <v>       0.91878055       0.16231589       0.47118226 </v>
    <v>       0.16642288       0.91570337       0.47397479 </v>
    <v>       0.33333333       0.58333333       0.38179910 </v>
    <v>       0.40992694       0.17076144       0.47882772 </v>
   </varray>
  </structure>
  <varray name="forces" >
   <v>       0.00915667      -0.00451094      -0.01365878 </v>
   <v>      -0.00471194      -0.00482842      -0.00107784 </v>
   <v>      -0.01135609      -0.00722663       0.00542353 </v>
   <v>      -0.01237835      -0.00726732      -0.00170399 </v>
   <v>      -0.10518190      -0.12118697      -0.30855620 </v>
   <v>      -0.10773177      -0.07823538      -0.31429998 </v>
   <v>       0.00317124       0.00380846       0.00649810 </v>
   <v>      -0.00184860      -0.00307799      -0.00013600 </v>
   <v>       0.14751679       0.01086380      -0.20698044 </v>
   <v>       0.00262306       0.00734472      -0.00015268 </v>
   <v>      -0.00355299       0.00507168       0.00802842 </v>
   <v>      -0.00410339      -0.01107108      -0.00373496 </v>
   <v>       0.00280379      -0.00380959      -0.00196197 </v>
   <v>       0.00286936       0.00398177       0.00578606 </v>
   <v>      -0.05623436      -0.05894951      -0.02929804 </v>
   <v>       0.00265080      -0.00382812       0.00241776 </v>
   <v>       0.00337896      -0.00086684      -0.00776559 </v>
   <v>       0.06621282       0.19598424      -0.26754375 </v>
   <v>      -0.00302725      -0.00034684      -0.00613441 </v>
   <v>       0.00409969      -0.00621017      -0.00214676 </v>
   <v>       0.07436964      -0.14916693      -0.28648729 </v>
   <v>      -0.00396138       0.00245461       0.00072008 </v>
   <v>      -0.02317458       0.13038040      -0.12622859 </v>
   <v>       0.00221568      -0.01189841       0.01422069 </v>
   <v>       0.01501317      -0.00327719       0.00329602 </v>
   <v>       0.00264939       0.00606925      -0.00100129 </v>
   <v>       0.00991345      -0.00980998      -0.00090895 </v>
   <v>       0.00428119      -0.02872657      -0.00213658 </v>
   <v>      -0.01458503       0.00360264       0.01759106 </v>
   <v>      -0.01854498      -0.01128436       0.00384158 </v>
   <v>       0.00360258      -0.00114421       0.02056387 </v>
   <v>      -0.01299208       0.01694173       0.01293264 </v>
   <v>       0.00530824       0.00057561       0.00036613 </v>
   <v>      -0.03919152      -0.07810394       0.20825570 </v>
   <v>      -0.01339067       0.00875631      -0.00371306 </v>
   <v>      -0.00197824       0.00216601      -0.00428408 </v>
   <v>       0.00229256      -0.00261403      -0.00332108 </v>
   <v>       0.04287003       0.02394847       0.23375268 </v>
   <v>      -0.00371168      -0.00469805      -0.01104836 </v>
   <v>       0.00844254       0.00107002       0.00497049 </v>
   <v>      -0.17463270      -0.14819458       0.27793837 </v>
   <v>      -0.00479540       0.00279980      -0.00974360 </v>
   <v>      -0.00345996       0.00435563       0.00219555 </v>
   <v>      -0.16497920      -0.10181219       0.23997622 </v>
   <v>       0.23984692       0.11883005       0.14615794 </v>
   <v>      -0.01394915       0.01723212       0.00439535 </v>
   <v>      -0.01323635      -0.11489150       0.14708428 </v>
   <v>       0.27879957       0.12986946       0.01916725 </v>
   <v>      -0.00685974      -0.00212848      -0.00478592 </v>
   <v>      -0.12346398       0.07668205       0.19534058 </v>
   <v>       0.00332064       0.00103835      -0.00186848 </v>
   <v>       0.00580637      -0.02262797      -0.01148699 </v>
   <v>      -0.00081150      -0.00433575      -0.00114300 </v>
   <v>      -0.00057972      -0.00558752      -0.00401463 </v>
   <v>       0.00990926       0.23880309       0.05411616 </v>
   <v>      -0.00469994      -0.00091285       0.00228678 </v>
  </varray>
  <energy>
   <i name="e_fr_energy">   -232.63189634 </i>
   <i name="e_wo_entrp">   -232.53791048 </i>
   <i name="e_0_energy">     -0.18797172 </i>
  </energy>
  <time name="totalsc">  315.46  317.34</time>
 </calculation>
 <calculation>
  <scstep>
   <time name="dav">    9.58    9.62</time>
   <time name="total">    9.89    9.94</time>
   <dipole>
    <v name="dipole">      0.00000000       0.00000000       0.28229764 </v>
    <i name="Tr[quadrupol]"> -10917.60899852 </i>
    <i name="Echarged">      0.00000000 </i>
    <i name="Edipol_quadrupol">      0.00000000 </i>
    <i name="Eion">      0.00000000 </i>
   </dipole>
   <energy>
    <i name="alphaZ">    864.79554647 </i>
    <i name="ewald"> 231281.04234586 </i>
    <i name="hartreedc">-276634.94241872 </i>
    <i name="XCdc">   -129.62677080 </i>
    <i name="pawpsdc">  51777.88475958 </i>
    <i name="pawaedc"> -49865.58014469 </i>
    <i name="eentropy">     -0.18804485 </i>
    <i name="bandstr">  -2643.90867599 </i>
    <i name="atom">  45117.89144060 </i>
    <i name="e_fr_energy">   -232.63196254 </i>
    <i name="e_wo_entrp">   -232.44391769 </i>
    <i name="e_0_energy">   -232.53794011 </i>
   </energy>
  </scstep>
  <scstep>
   <time name="diag">    1.63    1.64</time>
   <time name="diis">    4.71    4.73</time>
   <time name="orth">    0.44    0.44</time>
   <time name="total">    7.09    7.12</time>
   <dipole>
    <v name="dipole">      0.00000000       0.00000000       0.28261993 </v>
    <i name="Tr[quadrupol]"> -10917.61074772 </i>
    <i name="Echarged">      0.00000000 </i>
    <i name="Edipol_quadrupol">      0.00000000 </i>
    <i name="Eion">      0.00000000 </i>
   </dipole>
   <energy>
    <i name="e_fr_energy">   -232.63211269 </i>
    <i name="e_wo_entrp">   -232.44416356 </i>
    <i name="e_0_energy">   -232.53813813 </i>
   </energy>
  </scstep>
  <scstep>
   <time name="diag">    1.68    1.69</time>
   <time name="diis">    4.77    4.82</time>
   <time name="orth">    0.44    0.45</time>
   <time name="total">    7.20    7.26</time>
   <dipole>
    <v name="dipole">      0.00000000       0.00000000       0.28155371 </v>
    <i name="Tr[quadrupol]"> -10917.60862413 </i>
    <i name="Echarged">      0.00000000 </i>
    <i name="Edipol_quadrupol">      0.00000000 </i>
    <i name="Eion">      0.00000000 </i>
   </dipole>
   <energy>
    <i name="e_fr_energy">   -232.63208777 </i>
    <i name="e_wo_entrp">   -232.44393497 </i>
    <i name="e_0_energy">   -232.53801137 </i>
   </energy>
  </scstep>
  <scstep>
   <time name="diag">    1.67    1.68</time>
   <time name="diis">    4.79    4.80</time>
   <time name="orth">    0.44    0.44</time>
   <time name="total">    7.21    7.24</time>
   <dipole>
    <v name="dipole">      0.00000000       0.00000000       0.28499526 </v>
    <i name="Tr[quadrupol]"> -10917.60954314 </i>
    <i name="Echarged">      0.00000000 </i>
    <i name="Edipol_quadrupol">      0.00000000 </i>
    <i name="Eion">      0.00000000 </i>
   </dipole>
   <energy>
    <i name="e_fr_energy">   -232.63216147 </i>
    <i name="e_wo_entrp">   -232.44446690 </i>
    <i name="e_0_energy">   -232.53831419 </i>
   </energy>
  </scstep>
  <scstep>
   <time name="diag">    1.68    1.68</time>
   <time name="diis">    4.72    4.83</time>
   <time name="orth">    0.44    0.44</time>
   <time name="total">    7.14    7.27</time>
   <dipole>
    <v name="dipole">      0.00000000       0.00000000       0.28182086 </v>
    <i name="Tr[quadrupol]"> -10917.60958103 </i>
    <i name="Echarged">      0.00000000 </i>
    <i name="Edipol_quadrupol">      0.00000000 </i>
    <i name="Eion">      0.00000000 </i>
   </dipole>
   <energy>
    <i name="e_fr_energy">   -232.63208030 </i>
    <i name="e_wo_entrp">   -232.44400452 </i>
    <i name="e_0_energy">   -232.53804241 </i>
   </energy>
  </scstep>
  <scstep>
   <time name="diag">    1.63    1.63</time>
   <time name="diis">    4.72    4.75</time>
   <time name="orth">    0.44    0.44</time>
   <time name="total">    7.09    7.13</time>
   <dipole>
    <v name="dipole">      0.00000000       0.00000000       0.28248835 </v>
    <i name="Tr[quadrupol]"> -10917.60964349 </i>
    <i name="Echarged">      0.00000000 </i>
    <i name="Edipol_quadrupol">      0.00000000 </i>
    <i name="Eion">      0.00000000 </i>
   </dipole>
   <energy>
    <i name="e_fr_energy">   -232.63207237 </i>
    <i name="e_wo_entrp">   -232.44404833 </i>
    <i name="e_0_energy">   -232.53806035 </i>
   </energy>
  </scstep>
  <scstep>
   <time name="diag">    1.68    1.69</time>
   <time name="diis">    4.45    4.46</time>
   <time name="orth">    0.44    0.44</time>
   <time name="total">    6.88    6.90</time>
   <dipole>
    <v name="dipole">      0.00000000       0.00000000       0.28247923 </v>
    <i name="Tr[quadrupol]"> -10917.60933559 </i>
    <i name="Echarged">      0.00000000 </i>
    <i name="Edipol_quadrupol">      0.00000000 </i>
    <i name="Eion">      0.00000000 </i>
   </dipole>
   <energy>
    <i name="e_fr_energy">   -232.63207060 </i>
    <i name="e_wo_entrp">   -232.44406308 </i>
    <i name="e_0_energy">   -232.53806684 </i>
   </energy>
  </scstep>
  <scstep>
   <time name="diag">    1.67    1.68</time>
   <time name="diis">    3.15    3.16</time>
   <time name="orth">    0.44    0.44</time>
   <time name="total">    5.56    5.58</time>
   <dipole>
    <v name="dipole">      0.00000000       0.00000000       0.28246258 </v>
    <i name="Tr[quadrupol]"> -10917.60918418 </i>
    <i name="Echarged">      0.00000000 </i>
    <i name="Edipol_quadrupol">      0.00000000 </i>
    <i name="Eion">      0.00000000 </i>
   </dipole>
   <energy>
    <i name="e_fr_energy">   -232.63206868 </i>
    <i name="e_wo_entrp">   -232.44404100 </i>
    <i name="e_0_energy">   -232.53805484 </i>
   </energy>
  </scstep>
  <scstep>
   <time name="diag">    1.67    1.68</time>
   <time name="diis">    2.70    2.72</time>
   <time name="orth">    0.44    0.44</time>
   <time name="total">    4.87    4.89</time>
   <dipole>
    <v name="dipole">      0.00000000       0.00000000       0.28247511 </v>
    <i name="Tr[quadrupol]"> -10917.60941582 </i>
    <i name="Echarged">      0.00000000 </i>
    <i name="Edipol_quadrupol">      0.00000000 </i>
    <i name="Eion">      0.00000000 </i>
   </dipole>
   <energy>
    <i name="alphaZ">    864.79693986 </i>
    <i name="ewald"> 231281.04234586 </i>
    <i name="hartreedc">-276634.90823443 </i>
    <i name="XCdc">   -129.62791073 </i>
    <i name="pawpsdc">  51777.62602354 </i>
    <i name="pawaedc"> -49865.32262421 </i>
    <i name="eentropy">     -0.18802463 </i>
    <i name="bandstr">  -2643.94202441 </i>
    <i name="atom">  45117.89144060 </i>
    <i name="e_fr_energy">   -232.63206855 </i>
    <i name="e_wo_entrp">   -232.44404392 </i>
    <i name="e_0_energy">   -232.53805623 </i>
   </energy>
  </scstep>
  <structure>
   <crystal>
    <varray name="basis" >
     <v>      11.00258152       0.00000000       0.00000000 </v>
     <v>       5.50129076       9.52851510       0.00000000 </v>
     <v>       0.00000000       0.00000000      26.19178509 </v>
    </varray>
    <i name="volume">   2745.90128299 </i>
    <varray name="rec_basis" >
     <v>       0.09088776      -0.05247407       0.00000000 </v>
     <v>       0.00000000       0.10494815       0.00000000 </v>
     <v>       0.00000000       0.00000000       0.03817991 </v>
    </varray>
   </crystal>
   <varray name="positions" >
    <v>       0.92056587       0.91260056       0.47301785 </v>
    <v>       0.67458879       0.41073553       0.47839390 </v>
    <v>       0.66380718       0.91625381       0.47593804 </v>
    <v>       0.99686025       0.98567806       0.56658785 </v>
    <v>       0.83333333       0.83333333       0.38179910 </v>
    <v>       0.08333333       0.33333333       0.38179910 </v>
    <v>       0.91963070       0.41725244       0.47382999 </v>
    <v>       0.98188933       0.25341985       0.56192808 </v>
    <v>       0.08333333       0.58333333       0.38179910 </v>
    <v>       0.67109088       0.66553281       0.47554068 </v>
    <v>       0.83860672       0.59234838       0.56627435 </v>
    <v>       0.12980757       0.56598956       0.56300230 </v>
    <v>       0.24841010       0.72663451       0.56489397 </v>
    <v>       0.66856293       0.16461308       0.48185344 </v>
    <v>       0.33333333       0.08333333       0.38179910 </v>
    <v>       0.41392442       0.91849587       0.47566619 </v>
    <v>       0.41756130       0.66818320       0.47727628 </v>
    <v>       0.58333333       0.58333333       0.38179910 </v>
    <v>       0.46500296       0.27208126       0.56698952 </v>
    <v>       0.41349679       0.41926305       0.47380311 </v>
    <v>       0.58333333       0.33333333       0.38179910 </v>
    <v>       0.50029325       0.00907678       0.57502802 </v>
    <v>       0.58333333       0.08333333       0.38179910 </v>
    <v>       0.76290726       0.95854798       0.56607649 </v>
    <v>       0.05600491       0.44740286       0.60014903 </v>
    <v>       0.29485204       0.11186736       0.61042917 </v>
    <v>       0.16123149       0.67109330       0.62811400 </v>
    <v>       0.77399270       0.93507976       0.65242984 </v>
    <v>       0.34245820       0.82806500       0.60172845 </v>
    <v>       0.56235378       0.34656147       0.61634859 </v>
    <v>       0.60558347       0.69908868       0.64687287 </v>
    <v>       0.84201743       0.30122900       0.62620031 </v>
    <v>       0.16763552       0.66708172       0.47073012 </v>
    <v>       0.58333333       0.83333333       0.38179910 </v>
    <v>       0.21787042       0.27854869       0.56410794 </v>
    <v>       0.16627415       0.41894473       0.47432863 </v>
    <v>       0.70165288       0.80679305       0.64370464 </v>
    <v>       0.33333333       0.33333333       0.38179910 </v>
    <v>       0.23648504       0.00603895       0.56296812 </v>
    <v>       0.51521287       0.50075321       0.56571728 </v>
    <v>       0.08333333       0.08333333       0.38179910 </v>
    <v>       0.54007351       0.73784667       0.57214391 </v>
    <v>       0.16330478       0.16736127       0.47444715 </v>
    <v>       0.33333333       0.83333333       0.38179910 </v>
    <v>       0.83333333       0.08333333       0.38179910 </v>
    <v>       0.96984104       0.81185314       0.63876749 </v>
    <v>       0.83333333       0.33333333       0.38179910 </v>
    <v>       0.08333333       0.83333333       0.38179910 </v>
    <v>       0.74752671       0.22853094       0.57921122 </v>
    <v>       0.83333333       0.58333333       0.38179910 </v>
    <v>       0.92135826       0.66527446       0.47736880 </v>
    <v>       0.72189785       0.50094513       0.63344242 </v>
    <v>       0.91878574       0.16230053       0.47118079 </v>
    <v>       0.16643100       0.91568356       0.47396962 </v>
    <v>       0.33333333       0.58333333       0.38179910 </v>
    <v>       0.40991413       0.17075820       0.47883067 </v>
   </varray>
  </structure>
  <varray name="forces" >
   <v>       0.00313812      -0.00317245      -0.01082443 </v>
   <v>      -0.00122959      -0.00233103      -0.00105408 </v>
   <v>      -0.00324318      -0.00150127       0.00721920 </v>
   <v>      -0.00729666      -0.00680588      -0.00226613 </v>
   <v>      -0.10591435      -0.12105202      -0.30854630 </v>
   <v>      -0.10814387      -0.07827028      -0.31418896 </v>
   <v>      -0.00025114       0.00480596       0.00582735 </v>
   <v>      -0.00497247      -0.00331349       0.00119104 </v>
   <v>       0.14764783       0.01097288      -0.20713934 </v>
   <v>       0.00196496       0.00086744      -0.00028296 </v>
   <v>      -0.00217590       0.00545105       0.00603841 </v>
   <v>       0.00132517      -0.00472720      -0.00236061 </v>
   <v>       0.00084840      -0.00382916       0.00014119 </v>
   <v>       0.00106213      -0.00243350       0.00574184 </v>
   <v>      -0.05634991      -0.05905054      -0.02878262 </v>
   <v>      -0.00055224      -0.00179897       0.00184904 </v>
   <v>       0.00301998      -0.00227760      -0.00670035 </v>
   <v>       0.06649204       0.19585286      -0.26764824 </v>
   <v>      -0.00539825      -0.00018044      -0.00613595 </v>
   <v>       0.00216191      -0.00427354      -0.00215182 </v>
   <v>       0.07440614      -0.14944275      -0.28702321 </v>
   <v>      -0.00334677       0.00200817       0.00064839 </v>
   <v>      -0.02307956       0.13020482      -0.12543505 </v>
   <v>      -0.00199439      -0.01023645       0.00410256 </v>
   <v>       0.01113815      -0.00249268       0.00596769 </v>
   <v>      -0.00051546       0.00527554      -0.00448729 </v>
   <v>      -0.00244194       0.00213313      -0.00270942 </v>
   <v>      -0.00714297      -0.01019152       0.00668736 </v>
   <v>      -0.00988195       0.00333913       0.01201911 </v>
   <v>      -0.01645125      -0.00919526       0.00079435 </v>
   <v>       0.00477590      -0.01213462       0.00902430 </v>
   <v>      -0.01007155      -0.00168867       0.00629538 </v>
   <v>       0.00518364      -0.00203239       0.00111249 </v>
   <v>      -0.03923350      -0.07802166       0.20781992 </v>
   <v>      -0.00973102       0.00426081      -0.00277266 </v>
   <v>      -0.00063365       0.00191900      -0.00521692 </v>
   <v>      -0.00476064      -0.00848214      -0.00179856 </v>
   <v>       0.04273345       0.02389717       0.23361484 </v>
   <v>      -0.00244096      -0.00527455      -0.00649992 </v>
   <v>       0.00719415      -0.00155814       0.00515313 </v>
   <v>      -0.17453541      -0.14815442       0.27788095 </v>
   <v>      -0.00673739       0.00487742       0.00095135 </v>
   <v>      -0.00308885       0.00213635       0.00127415 </v>
   <v>      -0.16486053      -0.10161333       0.23963221 </v>
   <v>       0.23939095       0.11911807       0.14569502 </v>
   <v>       0.01680812      -0.01036169      -0.00064731 </v>
   <v>      -0.01302710      -0.11475712       0.14763819 </v>
   <v>       0.27913309       0.12955680       0.01781149 </v>
   <v>      -0.00524522      -0.00089629      -0.00160707 </v>
   <v>      -0.12360787       0.07653569       0.19556916 </v>
   <v>       0.00280880       0.00144939      -0.00086826 </v>
   <v>       0.00045096       0.00700277      -0.00312297 </v>
   <v>       0.00024419      -0.00353511       0.00028028 </v>
   <v>       0.00114031      -0.00440414      -0.00367427 </v>
   <v>       0.00980256       0.23866151       0.05391766 </v>
   <v>      -0.00451541      -0.00083564       0.00204662 </v>
  </varray>
  <energy>
   <i name="e_fr_energy">   -232.63206855 </i>
   <i name="e_wo_entrp">   -232.53805623 </i>
   <i name="e_0_energy">     -0.18802463 </i>
  </energy>
  <time name="totalsc">   65.11   65.54</time>
  <eigenvalues>
   <array>
    <dimension dim="1">band</dimension>
    <dimension dim="2">kpoint</dimension>
    <dimension dim="3">spin</dimension>
    <field>eigene</field>
    <field>occ</field>
    <set>
     <set comment="spin 1">
      <set comment="kpoint 1">
       <r>  -20.1605    1.0000 </r>
       <r>  -19.8242    1.0000 </r>
       <r>  -19.7697    1.0000 </r>
       <r>  -19.7208    1.0000 </r>
       <r>  -19.6261    1.0000 </r>
       <r>  -19.5672    1.0000 </r>
       <r>  -19.3503    1.0000 </r>
       <r>  -19.1490    1.0000 </r>
       <r>   -9.0907    1.0000 </r>
       <r>   -8.3660    1.0000 </r>
       <r>   -8.0620    1.0000 </r>
       <r>   -7.9711    1.0000 </r>
       <r>   -7.8341    1.0000 </r>
       <r>   -7.7094    1.0000 </r>
       <r>   -7.6448    1.0000 </r>
       <r>   -7.6288    1.0000 </r>
       <r>   -7.6095    1.0000 </r>
       <r>   -7.4960    1.0000 </r>
       <r>   -7.4572    1.0000 </r>
       <r>   -7.4059    1.0000 </r>
       <r>   -7.3607    1.0000 </r>
       <r>   -7.3068    1.0000 </r>
       <r>   -7.2339    1.0000 </r>
       <r>   -7.2202    1.0000 </r>
       <r>   -7.1756    1.0000 </r>
       <r>   -7.1301    1.0000 </r>
       <r>   -7.0948    1.0000 </r>
       <r>   -7.0499    1.0000 </r>
       <r>   -7.0240    1.0000 </r>
       <r>   -6.9825    1.0000 </r>
       <r>   -6.9469    1.0000 </r>
       <r>   -6.9136    1.0000 </r>
       <r>   -6.8955    1.0000 </r>
       <r>   -6.8685    1.0000 </r>
       <r>   -6.8452    1.0000 </r>
       <r>   -6.7762    1.0000 </r>
       <r>   -6.7661    1.0000 </r>
       <r>   -6.7159    1.0000 </r>
       <r>   -6.7063    1.0000 </r>
       <r>   -6.6970    1.0000 </r>
       <r>   -6.6255    1.0000 </r>
       <r>   -6.6199    1.0000 </r>
       <r>   -6.5967    1.0000 </r>
       <r>   -6.5754    1.0000 </r>
       <r>   -6.5605    1.0000 </r>
       <r>   -6.5406    1.0000 </r>
       <r>   -6.5144    1.0000 </r>
       <r>   -6.4786    1.0000 </r>
       <r>   -6.4379    1.0000 </r>
[...]
       <r>   -19.1044    10.8431    15.4715 </r>
       <r>   -19.0114     5.1277    15.9484 </r>
       <r>   -18.9184     0.5430    15.9989 </r>
       <r>   -18.8254     0.0119    16.0000 </r>
       <r>   -18.7324     0.0001    16.0000 </r>
       <r>   -18.6394     0.0000    16.0000 </r>
       <r>   -18.5464     0.0000    16.0000 </r>
       <r>   -18.4534     0.0000    16.0000 </r>
       <r>   -18.3604     0.0000    16.0000 </r>
       <r>   -18.2673     0.0000    16.0000 </r>
       <r>   -18.1743     0.0000    16.0000 </r>
       <r>   -18.0813     0.0000    16.0000 </r>
       <r>   -17.9883     0.0000    16.0000 </r>
       <r>   -17.8953     0.0000    16.0000 </r>
       <r>   -17.8023     0.0000    16.0000 </r>
       <r>   -17.7093     0.0000    16.0000 </r>
       <r>   -17.6163     0.0000    16.0000 </r>
       <r>   -17.5233     0.0000    16.0000 </r>
       <r>   -17.4303     0.0000    16.0000 </r>
       <r>   -17.3373     0.0000    16.0000 </r>
       <r>   -17.2442     0.0000    16.0000 </r>
       <r>   -17.1512     0.0000    16.0000 </r>
       <r>   -17.0582     0.0000    16.0000 </r>
       <r>   -16.9652     0.0000    16.0000 </r>
       <r>   -16.8722     0.0000    16.0000 </r>
       <r>   -16.7792     0.0000    16.0000 </r>
       <r>   -16.6862     0.0000    16.0000 </r>
       <r>   -16.5932     0.0000    16.0000 </r>
       <r>   -16.5002     0.0000    16.0000 </r>
       <r>   -16.4072     0.0000    16.0000 </r>
       <r>   -16.3142     0.0000    16.0000 </r>
       <r>   -16.2211     0.0000    16.0000 </r>
       <r>   -16.1281     0.0000    16.0000 </r>
       <r>   -16.0351     0.0000    16.0000 </r>
       <r>   -15.9421     0.0000    16.0000 </r>
       <r>   -15.8491     0.0000    16.0000 </r>
       <r>   -15.7561     0.0000    16.0000 </r>
       <r>   -15.6631     0.0000    16.0000 </r>
       <r>   -15.5701     0.0000    16.0000 </r>
       <r>   -15.4771     0.0000    16.0000 </r>
       <r>   -15.3841     0.0000    16.0000 </r>
       <r>   -15.2911     0.0000    16.0000 </r>
       <r>   -15.1981     0.0000    16.0000 </r>
       <r>   -15.1050     0.0000    16.0000 </r>
       <r>   -15.0120     0.0000    16.0000 </r>
       <r>   -14.9190     0.0000    16.0000 </r>
       <r>   -14.8260     0.0000    16.0000 </r>
       <r>   -14.7330     0.0000    16.0000 </r>
       <r>   -14.6400     0.0000    16.0000 </r>
       <r>   -14.5470     0.0000    16.0000 </r>
       <r>   -14.4540     0.0000    16.0000 </r>
       <r>   -14.3610     0.0000    16.0000 </r>
       <r>   -14.2680     0.0000    16.0000 </r>
       <r>   -14.1750     0.0000    16.0000 </r>
       <r>   -14.0819     0.0000    16.0000 </r>
       <r>   -13.9889     0.0000    16.0000 </r>
       <r>   -13.8959     0.0000    16.0000 </r>
       <r>   -13.8029     0.0000    16.0000 </r>
       <r>   -13.7099     0.0000    16.0000 </r>
       <r>   -13.6169     0.0000    16.0000 </r>
       <r>   -13.5239     0.0000    16.0000 </r>
       <r>   -13.4309     0.0000    16.0000 </r>
       <r>   -13.3379     0.0000    16.0000 </r>
       <r>   -13.2449     0.0000    16.0000 </r>
       <r>   -13.1519     0.0000    16.0000 </r>
       <r>   -13.0588     0.0000    16.0000 </r>
       <r>   -12.9658     0.0000    16.0000 </r>
       <r>   -12.8728     0.0000    16.0000 </r>
       <r>   -12.7798     0.0000    16.0000 </r>
       <r>   -12.6868     0.0000    16.0000 </r>
       <r>   -12.5938     0.0000    16.0000 </r>
       <r>   -12.5008     0.0000    16.0000 </r>
       <r>   -12.4078     0.0000    16.0000 </r>
       <r>   -12.3148     0.0000    16.0000 </r>
       <r>   -12.2218     0.0000    16.0000 </r>
       <r>   -12.1288     0.0000    16.0000 </r>
       <r>   -12.0358     0.0000    16.0000 </r>
       <r>   -11.9427     0.0000    16.0000 </r>
       <r>   -11.8497     0.0000    16.0000 </r>
       <r>   -11.7567     0.0000    16.0000 </r>
       <r>   -11.6637     0.0000    16.0000 </r>
       <r>   -11.5707     0.0000    16.0000 </r>
       <r>   -11.4777     0.0000    16.0000 </r>
       <r>   -11.3847     0.0000    16.0000 </r>
       <r>   -11.2917     0.0000    16.0000 </r>
       <r>   -11.1987     0.0000    16.0000 </r>
       <r>   -11.1057     0.0000    16.0000 </r>
       <r>   -11.0127     0.0000    16.0000 </r>
       <r>   -10.9196     0.0000    16.0000 </r>
       <r>   -10.8266     0.0000    16.0000 </r>
       <r>   -10.7336     0.0000    16.0000 </r>
       <r>   -10.6406     0.0000    16.0000 </r>
       <r>   -10.5476     0.0000    16.0000 </r>
       <r>   -10.4546     0.0000    16.0000 </r>
       <r>   -10.3616     0.0000    16.0000 </r>
       <r>   -10.2686     0.0000    16.0000 </r>
       <r>   -10.1756     0.0000    16.0000 </r>
       <r>   -10.0826     0.0000    16.0000 </r>
       <r>    -9.9896     0.0000    16.0000 </r>
       <r>    -9.8965     0.0000    16.0000 </r>
       <r>    -9.8035     0.0000    16.0000 </r>
       <r>    -9.7105     0.0000    16.0000 </r>
       <r>    -9.6175     0.0000    16.0000 </r>
       <r>    -9.5245     0.0000    16.0000 </r>
       <r>    -9.4315     0.0000    16.0000 </r>
       <r>    -9.3385     0.0056    16.0005 </r>
       <r>    -9.2455     0.2434    16.0232 </r>
       <r>    -9.1525     2.3405    16.2408 </r>
       <r>    -9.0595     5.6469    16.7661 </r>
       <r>    -8.9665     5.5184    17.2793 </r>
       <r>    -8.8734     4.6119    17.7083 </r>
       <r>    -8.7804     2.6942    17.9589 </r>
       <r>    -8.6874     1.7765    18.1241 </r>
       <r>    -8.5944     1.9452    18.3050 </r>
       <r>    -8.5014     2.6766    18.5540 </r>
       <r>    -8.4084     5.3121    19.0480 </r>
       <r>    -8.3154     5.6730    19.5757 </r>
       <r>    -8.2224     5.8400    20.1188 </r>
       <r>    -8.1294     7.9985    20.8628 </r>
       <r>    -8.0364    11.0869    21.8940 </r>
       <r>    -7.9434    16.9763    23.4729 </r>
       <r>    -7.8504    18.2409    25.1695 </r>
       <r>    -7.7573    15.4365    26.6052 </r>
       <r>    -7.6643    24.2086    28.8568 </r>
       <r>    -7.5713    35.1215    32.1234 </r>
       <r>    -7.4783    35.9159    35.4639 </r>
       <r>    -7.3853    39.1147    39.1019 </r>
       <r>    -7.2923    40.8639    42.9026 </r>
       <r>    -7.1993    44.9774    47.0859 </r>
       <r>    -7.1063    49.7540    51.7135 </r>
       <r>    -7.0133    56.2933    56.9493 </r>
       <r>    -6.9203    65.5594    63.0469 </r>
       <r>    -6.8273    66.5448    69.2361 </r>
       <r>    -6.7342    64.8584    75.2685 </r>
       <r>    -6.6412    71.9153    81.9573 </r>
       <r>    -6.5482    81.3047    89.5194 </r>
       <r>    -6.4552    82.7568    97.2165 </r>
       <r>    -6.3622    81.1881   104.7677 </r>
       <r>    -6.2692    81.1293   112.3134 </r>
       <r>    -6.1762    79.8057   119.7361 </r>
       <r>    -6.0832    79.9782   127.1748 </r>
       <r>    -5.9902    81.0290   134.7112 </r>
       <r>    -5.8972    81.5341   142.2946 </r>
       <r>    -5.8042    81.7492   149.8980 </r>
       <r>    -5.7111    78.0696   157.1591 </r>
       <r>    -5.6181    76.8168   164.3038 </r>
       <r>    -5.5251    82.9293   172.0169 </r>
       <r>    -5.4321    85.9918   180.0149 </r>
       <r>    -5.3391    83.2596   187.7588 </r>
       <r>    -5.2461    84.7762   195.6438 </r>
       <r>    -5.1531    87.7423   203.8046 </r>
       <r>    -5.0601    87.3482   211.9287 </r>
       <r>    -4.9671    87.3326   220.0515 </r>
       <r>    -4.8741    84.4744   227.9083 </r>
       <r>    -4.7811    80.7446   235.4183 </r>
       <r>    -4.6880    86.1295   243.4291 </r>
       <r>    -4.5950    91.8950   251.9761 </r>
       <r>    -4.5020    88.3019   260.1890 </r>
       <r>    -4.4090    85.4787   268.1393 </r>
       <r>    -4.3160    88.7999   276.3985 </r>
       <r>    -4.2230    92.8555   285.0349 </r>
       <r>    -4.1300    92.8788   293.6734 </r>
       <r>    -4.0370    93.1639   302.3385 </r>
       <r>    -3.9440    93.2374   311.0104 </r>
       <r>    -3.8510    95.0715   319.8529 </r>
       <r>    -3.7580    95.9928   328.7811 </r>
       <r>    -3.6650    94.5613   337.5761 </r>
       <r>    -3.5719    90.3883   345.9830 </r>
       <r>    -3.4789    91.5320   354.4963 </r>
       <r>    -3.3859    93.2151   363.1662 </r>
       <r>    -3.2929    93.4340   371.8563 </r>
       <r>    -3.1999    93.0239   380.5084 </r>
       <r>    -3.1069    94.2337   389.2730 </r>
       <r>    -3.0139    99.0032   398.4811 </r>
       <r>    -2.9209   100.3673   407.8162 </r>
       <r>    -2.8279   100.5550   417.1687 </r>
       <r>    -2.7349    99.8826   426.4587 </r>
       <r>    -2.6419   101.2052   435.8717 </r>
       <r>    -2.5488    99.0468   445.0839 </r>
       <r>    -2.4558    96.1024   454.0223 </r>
       <r>    -2.3628    97.2459   463.0670 </r>
       <r>    -2.2698   101.6193   472.5185 </r>
       <r>    -2.1768   100.8667   481.9000 </r>
       <r>    -2.0838    91.9614   490.4532 </r>
       <r>    -1.9908    89.5674   498.7838 </r>
       <r>    -1.8978    91.6463   507.3077 </r>
       <r>    -1.8048    89.6037   515.6416 </r>
       <r>    -1.7118    84.3407   523.4861 </r>
       <r>    -1.6188    81.5286   531.0690 </r>
       <r>    -1.5257    72.3600   537.7991 </r>
       <r>    -1.4327    59.6650   543.3485 </r>
       <r>    -1.3397    48.8721   547.8940 </r>
       <r>    -1.2467    40.9143   551.6994 </r>
       <r>    -1.1537    35.1030   554.9643 </r>
       <r>    -1.0607    29.5544   557.7131 </r>
       <r>    -0.9677    27.7244   560.2917 </r>
       <r>    -0.8747    31.7825   563.2478 </r>
       <r>    -0.7817    30.1303   566.0502 </r>
       <r>    -0.6887    28.1261   568.6661 </r>
       <r>    -0.5957    28.0851   571.2783 </r>
       <r>    -0.5026    23.9589   573.5067 </r>
       <r>    -0.4096    22.9953   575.6455 </r>
       <r>    -0.3166    23.5618   577.8369 </r>
       <r>    -0.2236    20.7275   579.7647 </r>
       <r>    -0.1306    15.1331   581.1723 </r>
       <r>    -0.0376    10.4990   582.1488 </r>
       <r>     0.0554     8.0483   582.8973 </r>
       <r>     0.1484     8.3639   583.6753 </r>
       <r>     0.2414    11.6083   584.7549 </r>
       <r>     0.3344    11.1789   585.7947 </r>
       <r>     0.4274    13.4874   587.0491 </r>
       <r>     0.5204    17.3451   588.6624 </r>
       <r>     0.6135    20.8658   590.6031 </r>
       <r>     0.7065    19.6417   592.4299 </r>
       <r>     0.7995    17.3226   594.0411 </r>
       <r>     0.8925    17.5443   595.6729 </r>
       <r>     0.9855    17.0289   597.2567 </r>
       <r>     1.0785    12.6436   598.4327 </r>
       <r>     1.1715    13.3975   599.6787 </r>
       <r>     1.2645    13.2532   600.9114 </r>
       <r>     1.3575    10.7343   601.9098 </r>
       <r>     1.4505    10.2248   602.8608 </r>
       <r>     1.5435    13.3920   604.1064 </r>
       <r>     1.6366    16.8453   605.6731 </r>
       <r>     1.7296    16.8412   607.2395 </r>
       <r>     1.8226    15.1818   608.6516 </r>
       <r>     1.9156    17.1071   610.2427 </r>
       <r>     2.0086    20.0751   612.1098 </r>
       <r>     2.1016    18.3420   613.8158 </r>
       <r>     2.1946    15.4111   615.2492 </r>
       <r>     2.2876    14.2872   616.5780 </r>
       <r>     2.3806    14.0386   617.8837 </r>
       <r>     2.4736    14.2396   619.2081 </r>
       <r>     2.5666    13.6333   620.4761 </r>
       <r>     2.6597    13.1115   621.6956 </r>
       <r>     2.7527    13.5146   622.9526 </r>
       <r>     2.8457    12.3045   624.0970 </r>
       <r>     2.9387    13.7990   625.3805 </r>
       <r>     3.0317    14.0714   626.6892 </r>
       <r>     3.1247    12.7345   627.8736 </r>
       <r>     3.2177    13.5026   629.1295 </r>
       <r>     3.3107    15.2304   630.5461 </r>
       <r>     3.4037    17.0414   632.1311 </r>
       <r>     3.4967    22.1077   634.1873 </r>
       <r>     3.5897    22.1637   636.2487 </r>
       <r>     3.6828    20.4720   638.1528 </r>
       <r>     3.7758    17.4416   639.7750 </r>
       <r>     3.8688    15.3034   641.1983 </r>
       <r>     3.9618    15.9611   642.6829 </r>
       <r>     4.0548    18.7614   644.4278 </r>
       <r>     4.1478    20.3607   646.3216 </r>
       <r>     4.2408    19.9003   648.1725 </r>
       <r>     4.3338    20.8331   650.1101 </r>
       <r>     4.4268    20.5937   652.0255 </r>
       <r>     4.5198    21.0619   653.9845 </r>
       <r>     4.6128    23.3249   656.1539 </r>
       <r>     4.7058    26.0702   658.5787 </r>
       <r>     4.7989    29.2062   661.2951 </r>
       <r>     4.8919    26.1939   663.7314 </r>
       <r>     4.9849    23.9868   665.9624 </r>
       <r>     5.0779    26.1498   668.3945 </r>
       <r>     5.1709    24.4000   670.6639 </r>
       <r>     5.2639    12.0234   671.7822 </r>
       <r>     5.3569     2.2189   671.9886 </r>
       <r>     5.4499     0.1210   671.9999 </r>
       <r>     5.5429     0.0016   672.0000 </r>
       <r>     5.6359     0.0000   672.0000 </r>
       <r>     5.7289     0.0000   672.0000 </r>
       <r>     5.8220     0.0000   672.0000 </r>
       <r>     5.9150     0.0000   672.0000 </r>
       <r>     6.0080     0.0000   672.0000 </r>
       <r>     6.1010     0.0000   672.0000 </r>
       <r>     6.1940     0.0000   672.0000 </r>
       <r>     6.2870     0.0000   672.0000 </r>
       <r>     6.3800     0.0000   672.0000 </r>
       <r>     6.4730     0.0000   672.0000 </r>
      </set>
     </set>
    </array>
   </total>
  </dos>
 </calculation>
 <structure name="finalpos" >
  <crystal>
   <varray name="basis" >
    <v>      11.00258152       0.00000000       0.00000000 </v>
    <v>       5.50129076       9.52851510       0.00000000 </v>
    <v>       0.00000000       0.00000000      26.19178509 </v>
   </varray>
   <i name="volume">   2745.90128299 </i>
   <varray name="rec_basis" >
    <v>       0.09088776      -0.05247407       0.00000000 </v>
    <v>       0.00000000       0.10494815       0.00000000 </v>
    <v>       0.00000000       0.00000000       0.03817991 </v>
   </varray>
  </crystal>
  <varray name="positions" >
   <v>       0.92056587       0.91260056       0.47301785 </v>
   <v>       0.67458879       0.41073553       0.47839390 </v>
   <v>       0.66380718       0.91625381       0.47593804 </v>
   <v>       0.99686025       0.98567806       0.56658785 </v>
   <v>       0.83333333       0.83333333       0.38179910 </v>
   <v>       0.08333333       0.33333333       0.38179910 </v>
   <v>       0.91963070       0.41725244       0.47382999 </v>
   <v>       0.98188933       0.25341985       0.56192808 </v>
   <v>       0.08333333       0.58333333       0.38179910 </v>
   <v>       0.67109088       0.66553281       0.47554068 </v>
   <v>       0.83860672       0.59234838       0.56627435 </v>
   <v>       0.12980757       0.56598956       0.56300230 </v>
   <v>       0.24841010       0.72663451       0.56489397 </v>
   <v>       0.66856293       0.16461308       0.48185344 </v>
   <v>       0.33333333       0.08333333       0.38179910 </v>
   <v>       0.41392442       0.91849587       0.47566619 </v>
   <v>       0.41756130       0.66818320       0.47727628 </v>
   <v>       0.58333333       0.58333333       0.38179910 </v>
   <v>       0.46500296       0.27208126       0.56698952 </v>
   <v>       0.41349679       0.41926305       0.47380311 </v>
   <v>       0.58333333       0.33333333       0.38179910 </v>
   <v>       0.50029325       0.00907678       0.57502802 </v>
   <v>       0.58333333       0.08333333       0.38179910 </v>
   <v>       0.76290726       0.95854798       0.56607649 </v>
   <v>       0.05600491       0.44740286       0.60014903 </v>
   <v>       0.29485204       0.11186736       0.61042917 </v>
   <v>       0.16123149       0.67109330       0.62811400 </v>
   <v>       0.77399270       0.93507976       0.65242984 </v>
   <v>       0.34245820       0.82806500       0.60172845 </v>
   <v>       0.56235378       0.34656147       0.61634859 </v>
   <v>       0.60558347       0.69908868       0.64687287 </v>
   <v>       0.84201743       0.30122900       0.62620031 </v>
   <v>       0.16763552       0.66708172       0.47073012 </v>
   <v>       0.58333333       0.83333333       0.38179910 </v>
   <v>       0.21787042       0.27854869       0.56410794 </v>
   <v>       0.16627415       0.41894473       0.47432863 </v>
   <v>       0.70165288       0.80679305       0.64370464 </v>
   <v>       0.33333333       0.33333333       0.38179910 </v>
   <v>       0.23648504       0.00603895       0.56296812 </v>
   <v>       0.51521287       0.50075321       0.56571728 </v>
   <v>       0.08333333       0.08333333       0.38179910 </v>
   <v>       0.54007351       0.73784667       0.57214391 </v>
   <v>       0.16330478       0.16736127       0.47444715 </v>
   <v>       0.33333333       0.83333333       0.38179910 </v>
   <v>       0.83333333       0.08333333       0.38179910 </v>
   <v>       0.96984104       0.81185314       0.63876749 </v>
   <v>       0.83333333       0.33333333       0.38179910 </v>
   <v>       0.08333333       0.83333333       0.38179910 </v>
   <v>       0.74752671       0.22853094       0.57921122 </v>
   <v>       0.83333333       0.58333333       0.38179910 </v>
   <v>       0.92135826       0.66527446       0.47736880 </v>
   <v>       0.72189785       0.50094513       0.63344242 </v>
   <v>       0.91878574       0.16230053       0.47118079 </v>
   <v>       0.16643100       0.91568356       0.47396962 </v>
   <v>       0.33333333       0.58333333       0.38179910 </v>
   <v>       0.40991413       0.17075820       0.47883067 </v>
  </varray>
  <varray name="selective"  type="logical" >
   <v type="logical" >  T  T  T </v>
   <v type="logical" >  T  T  T </v>
   <v type="logical" >  T  T  T </v>
   <v type="logical" >  T  T  T </v>
   <v type="logical" >  F  F  F </v>
   <v type="logical" >  F  F  F </v>
   <v type="logical" >  T  T  T </v>
   <v type="logical" >  T  T  T </v>
   <v type="logical" >  F  F  F </v>
   <v type="logical" >  T  T  T </v>
   <v type="logical" >  T  T  T </v>
   <v type="logical" >  T  T  T </v>
   <v type="logical" >  T  T  T </v>
   <v type="logical" >  T  T  T </v>
   <v type="logical" >  F  F  F </v>
   <v type="logical" >  T  T  T </v>
   <v type="logical" >  T  T  T </v>
   <v type="logical" >  F  F  F </v>
   <v type="logical" >  T  T  T </v>
   <v type="logical" >  T  T  T </v>
   <v type="logical" >  F  F  F </v>
   <v type="logical" >  T  T  T </v>
   <v type="logical" >  F  F  F </v>
   <v type="logical" >  T  T  T </v>
   <v type="logical" >  T  T  T </v>
   <v type="logical" >  T  T  T </v>
   <v type="logical" >  T  T  T </v>
   <v type="logical" >  T  T  T </v>
   <v type="logical" >  T  T  T </v>
   <v type="logical" >  T  T  T </v>
   <v type="logical" >  T  T  T </v>
   <v type="logical" >  T  T  T </v>
   <v type="logical" >  T  T  T </v>
   <v type="logical" >  F  F  F </v>
   <v type="logical" >  T  T  T </v>
   <v type="logical" >  T  T  T </v>
   <v type="logical" >  T  T  T </v>
   <v type="logical" >  F  F  F </v>
   <v type="logical" >  T  T  T </v>
   <v type="logical" >  T  T  T </v>
   <v type="logical" >  F  F  F </v>
   <v type="logical" >  T  T  T </v>
   <v type="logical" >  T  T  T </v>
   <v type="logical" >  F  F  F </v>
   <v type="logical" >  F  F  F </v>
   <v type="logical" >  T  T  T </v>
   <v type="logical" >  F  F  F </v>
   <v type="logical" >  F  F  F </v>
   <v type="logical" >  T  T  T </v>
   <v type="logical" >  F  F  F </v>
   <v type="logical" >  T  T  T </v>
   <v type="logical" >  T  T  T </v>
   <v type="logical" >  T  T  T </v>
   <v type="logical" >  T  T  T </v>
   <v type="logical" >  F  F  F </v>
   <v type="logical" >  T  T  T </v>
  </varray>
  <nose>
   <v>      -3.00000000       0.00000000       0.00010000       0.00010000 </v>
  </nose>
 </structure>
</modeling>
