<?xml version="1.0" encoding="ISO-8859-1"?>
<modeling>
 <generator>
  <i name="program" type="string">vasp </i>
  <i name="version" type="string">5.4.1  </i>
  <i name="subversion" type="string">24Jun15 (build Mar 14 2019 10:18:33) complex                          parallel </i>
  <i name="platform" type="string">INTEL-19.0.2+OPENMPI-3.1.3 </i>
  <i name="date" type="string">2023 01 22 </i>
  <i name="time" type="string">16:55:28 </i>
 </generator>
 <incar>
  <i type="int" name="ISTART">     0</i>
  <i type="string" name="PREC">normal</i>
  <i type="string" name="ALGO"> Fast</i>
  <i type="int" name="NELM">   500</i>
  <i type="int" name="IBRION">     2</i>
  <i type="int" name="NFREE">     2</i>
  <i name="EDIFF">      0.00000100</i>
  <i name="EDIFFG">     -0.02000000</i>
  <i type="int" name="NSW">   500</i>
  <i type="int" name="ISIF">     0</i>
  <i type="int" name="ISYM">     2</i>
  <i name="ENCUT">    400.00000000</i>
  <i name="POTIM">      0.35000000</i>
  <i type="string" name="LREAL"> Auto</i>
  <i type="logical" name="LPLANE"> T  </i>
  <i type="int" name="ISMEAR">     0</i>
  <i name="SIGMA">      0.10000000</i>
  <i type="int" name="NWRITE">     1</i>
  <i type="logical" name="LWAVE"> F  </i>
  <i type="logical" name="LCHARG"> F  </i>
  <i type="logical" name="LVTOT"> F  </i>
  <i type="logical" name="LORBIT"> F  </i>
  <i type="logical" name="LAECHG"> F  </i>
  <v type="int" name="KPOINT_BSE">    -1     0     0     0</v>
  <i type="int" name="NELM">   500</i>
  <i type="string" name="GGA"> PE          ! optPBE-vdW XC-functional</i>
  <i type="int" name="VOSKOWN">     1</i>
  <i type="logical" name="LDIPOL"> T  </i>
  <i type="logical" name="LMONO"> F  </i>
  <i type="int" name="IDIPOL">     3</i>
  <v name="DIPOL">      0.00000000      0.00000000      0.50000000</v>
 </incar>
 <kpoints>
  <generation param="Monkhorst-Pack">
   <v type="int" name="divisions">       2        2        1 </v>
   <v name="usershift">      0.00000000       0.00000000       0.00000000 </v>
   <v name="genvec1">      0.50000000       0.00000000       0.00000000 </v>
   <v name="genvec2">      0.00000000       0.50000000       0.00000000 </v>
   <v name="genvec3">      0.00000000       0.00000000       1.00000000 </v>
   <v name="shift">      0.50000000       0.50000000       0.00000000 </v>
  </generation>
  <varray name="kpointlist" >
   <v>       0.25000000       0.25000000       0.00000000 </v>
   <v>       0.00000000       0.25000000       0.00000000 </v>
   <v>      -0.25000000       0.00000000       0.00000000 </v>
   <v>      -0.25000000       0.25000000       0.00000000 </v>
   <v>       0.50000000      -0.25000000       0.00000000 </v>
   <v>      -0.25000000       0.50000000       0.00000000 </v>
  </varray>
  <varray name="weights" >
   <v>       0.16666667 </v>
   <v>       0.16666667 </v>
   <v>       0.16666667 </v>
   <v>       0.16666667 </v>
   <v>       0.16666667 </v>
   <v>       0.16666667 </v>
  </varray>
 </kpoints>
 <parameters>
  <separator name="general" >
   <i type="string" name="SYSTEM">unknown system</i>
   <i type="logical" name="LCOMPAT"> F  </i>
  </separator>
  <separator name="electronic" >
   <i type="string" name="PREC">normal</i>
   <i name="ENMAX">    400.00000000</i>
   <i name="ENAUG">    605.39200000</i>
   <i name="EDIFF">      0.00000100</i>
   <i type="int" name="IALGO">    68</i>
   <i type="int" name="IWAVPR">    11</i>
   <i type="int" name="NBANDS">   336</i>
   <i name="NELECT">    552.00000000</i>
   <i type="int" name="TURBO">     0</i>
   <i type="int" name="IRESTART">     0</i>
   <i type="int" name="NREBOOT">     0</i>
   <i type="int" name="NMIN">     0</i>
   <i name="EREF">      0.00000000</i>
   <separator name="electronic smearing" >
    <i type="int" name="ISMEAR">     0</i>
    <i name="SIGMA">      0.10000000</i>
    <i name="KSPACING">      0.50000000</i>
    <i type="logical" name="KGAMMA"> T  </i>
   </separator>
   <separator name="electronic projectors" >
    <i type="logical" name="LREAL"> T  </i>
    <v name="ROPT">     -0.00050000     -0.00050000     -0.00050000</v>
    <i type="int" name="LMAXPAW">  -100</i>
    <i type="int" name="LMAXMIX">     2</i>
    <i type="logical" name="NLSPLINE"> F  </i>
   </separator>
   <separator name="electronic startup" >
    <i type="int" name="ISTART">     0</i>
    <i type="int" name="ICHARG">     2</i>
    <i type="int" name="INIWAV">     1</i>
   </separator>
   <separator name="electronic spin" >
    <i type="int" name="ISPIN">     1</i>
    <i type="logical" name="LNONCOLLINEAR"> F  </i>
    <v name="MAGMOM">      1.00000000      1.00000000      1.00000000      1.00000000      1.00000000      1.00000000      1.00000000      1.00000000      1.00000000      1.00000000      1.00000000      1.00000000      1.00000000      1.00000000      1.00000000      1.00000000      1.00000000      1.00000000      1.00000000      1.00000000
      1.00000000      1.00000000      1.00000000      1.00000000      1.00000000      1.00000000      1.00000000      1.00000000      1.00000000      1.00000000      1.00000000      1.00000000      1.00000000      1.00000000      1.00000000      1.00000000      1.00000000      1.00000000      1.00000000      1.00000000
      1.00000000      1.00000000      1.00000000      1.00000000      1.00000000      1.00000000      1.00000000      1.00000000      1.00000000      1.00000000      1.00000000      1.00000000      1.00000000      1.00000000      1.00000000      1.00000000</v>
    <i name="NUPDOWN">     -1.00000000</i>
    <i type="logical" name="LSORBIT"> F  </i>
    <v name="SAXIS">      0.00000000      0.00000000      1.00000000</v>
    <i type="logical" name="LSPIRAL"> F  </i>
    <v name="QSPIRAL">      0.00000000      0.00000000      0.00000000</v>
    <i type="logical" name="LZEROZ"> F  </i>
   </separator>
   <separator name="electronic exchange-correlation" >
    <i type="logical" name="LASPH"> F  </i>
    <i type="logical" name="LMETAGGA"> F  </i>
   </separator>
   <separator name="electronic convergence" >
    <i type="int" name="NELM">   500</i>
    <i type="int" name="NELMDL">    -5</i>
    <i type="int" name="NELMIN">     2</i>
    <i name="ENINI">    400.00000000</i>
    <separator name="electronic convergence detail" >
     <i type="logical" name="LDIAG"> T  </i>
     <i type="logical" name="LSUBROT"> F  </i>
     <i name="WEIMIN">      0.00100000</i>
     <i name="EBREAK">      0.00000000</i>
     <i name="DEPER">      0.30000000</i>
     <i type="int" name="NRMM">     4</i>
     <i name="TIME">      0.40000000</i>
    </separator>
   </separator>
   <separator name="electronic mixer" >
    <i name="AMIX">      0.40000000</i>
    <i name="BMIX">      1.00000000</i>
    <i name="AMIN">      0.10000000</i>
    <i name="AMIX_MAG">      1.60000000</i>
    <i name="BMIX_MAG">      1.00000000</i>
    <separator name="electronic mixer details" >
     <i type="int" name="IMIX">     4</i>
     <i type="logical" name="MIXFIRST"> F  </i>
     <i type="int" name="MAXMIX">   -45</i>
     <i name="WC">    100.00000000</i>
     <i type="int" name="INIMIX">     1</i>
     <i type="int" name="MIXPRE">     1</i>
     <i type="int" name="MREMOVE">     5</i>
    </separator>
   </separator>
   <separator name="electronic dipolcorrection" >
    <i type="logical" name="LDIPOL"> T  </i>
    <i type="logical" name="LMONO"> F  </i>
    <i type="int" name="IDIPOL">     3</i>
    <i name="EPSILON">      1.00000000</i>
    <v name="DIPOL">      0.00000000      0.00000000      0.50000000</v>
    <i name="EFIELD">      0.00000000</i>
   </separator>
  </separator>
  <separator name="grids" >
   <i type="int" name="NGX">    54</i>
   <i type="int" name="NGY">    54</i>
   <i type="int" name="NGZ">   128</i>
   <i type="int" name="NGXF">   108</i>
   <i type="int" name="NGYF">   108</i>
   <i type="int" name="NGZF">   256</i>
   <i type="logical" name="ADDGRID"> F  </i>
  </separator>
  <separator name="ionic" >
   <i type="int" name="NSW">   500</i>
   <i type="int" name="IBRION">     2</i>
   <i type="int" name="ISIF">     0</i>
   <i name="PSTRESS">      0.00000000</i>
   <i name="EDIFFG">     -0.02000000</i>
   <i type="int" name="NFREE">     2</i>
   <i name="POTIM">      0.35000000</i>
   <i name="SMASS">     -3.00000000</i>
   <i name="SCALEE">      1.00000000</i>
  </separator>
  <separator name="ionic md" >
   <i name="TEBEG">      0.00010000</i>
   <i name="TEEND">      0.00010000</i>
   <i type="int" name="NBLOCK">     1</i>
   <i type="int" name="KBLOCK">   500</i>
   <i type="int" name="NPACO">   256</i>
   <i name="APACO">     16.00000000</i>
  </separator>
  <separator name="symmetry" >
   <i type="int" name="ISYM">     2</i>
   <i name="SYMPREC">      0.00001000</i>
  </separator>
  <separator name="dos" >
   <i type="logical" name="LORBIT"> F  </i>
   <v name="RWIGS">     -1.00000000     -1.00000000     -1.00000000</v>
   <i type="int" name="NEDOS">   301</i>
   <i name="EMIN">     10.00000000</i>
   <i name="EMAX">    -10.00000000</i>
   <i name="EFERMI">      0.00000000</i>
  </separator>
  <separator name="writing" >
   <i type="int" name="NWRITE">     1</i>
   <i type="logical" name="LWAVE"> F  </i>
   <i type="logical" name="LCHARG"> F  </i>
   <i type="logical" name="LPARD"> F  </i>
   <i type="logical" name="LVTOT"> F  </i>
   <i type="logical" name="LVHAR"> F  </i>
   <i type="logical" name="LELF"> F  </i>
   <i type="logical" name="LOPTICS"> F  </i>
   <v name="STM">      0.00000000      0.00000000      0.00000000      0.00000000      0.00000000      0.00000000      0.00000000</v>
  </separator>
  <separator name="performance" >
   <i type="int" name="NPAR">     6</i>
   <i type="int" name="NSIM">     4</i>
   <i type="int" name="NBLK">    -1</i>
   <i type="logical" name="LPLANE"> T  </i>
   <i type="logical" name="LSCALAPACK"> T  </i>
   <i type="logical" name="LSCAAWARE"> F  </i>
   <i type="logical" name="LSCALU"> F  </i>
   <i type="logical" name="LASYNC"> F  </i>
   <i type="logical" name="LORBITALREAL"> F  </i>
  </separator>
  <separator name="miscellaneous" >
   <i type="int" name="IDIOT">     3</i>
   <i type="logical" name="LMUSIC"> F  </i>
   <v name="POMASS">    196.96600000     16.00000000    106.42000000</v>
   <v name="DARWINR">      0.00000000      0.00000000      0.00000000</v>
   <v name="DARWINV">      1.00000000      1.00000000      1.00000000</v>
   <i type="logical" name="LCORR"> T  </i>
  </separator>
  <i type="logical" name="GGA_COMPAT"> T  </i>
  <i type="logical" name="LBERRY"> F  </i>
  <i type="int" name="ICORELEVEL">     0</i>
  <i type="logical" name="LDAU"> F  </i>
  <i type="int" name="I_CONSTRAINED_M">     0</i>
  <separator name="electronic exchange-correlation" >
   <i type="string" name="GGA">PE</i>
   <i type="int" name="VOSKOWN">     1</i>
   <i type="logical" name="LHFCALC"> F  </i>
   <i type="string" name="PRECFOCK"></i>
   <i type="logical" name="LSYMGRAD"> F  </i>
   <i type="logical" name="LHFONE"> F  </i>
   <i type="logical" name="LRHFCALC"> F  </i>
   <i type="logical" name="LTHOMAS"> F  </i>
   <i type="logical" name="LMODELHF"> F  </i>
   <i name="ENCUT4O">     -1.00000000</i>
   <i type="int" name="EXXOEP">     0</i>
   <i type="int" name="FOURORBIT">     0</i>
   <i name="AEXX">      0.00000000</i>
   <i name="HFALPHA">      0.00000000</i>
   <i name="MCALPHA">      0.00000000</i>
   <i name="ALDAX">      1.00000000</i>
   <i name="AGGAX">      1.00000000</i>
   <i name="ALDAC">      1.00000000</i>
   <i name="AGGAC">      1.00000000</i>
   <i type="int" name="NKREDX">     1</i>
   <i type="int" name="NKREDY">     1</i>
   <i type="int" name="NKREDZ">     1</i>
   <i type="logical" name="SHIFTRED"> F  </i>
   <i type="logical" name="ODDONLY"> F  </i>
   <i type="logical" name="EVENONLY"> F  </i>
   <i type="int" name="LMAXFOCK">     0</i>
   <i type="int" name="NMAXFOCKAE">     0</i>
   <i type="logical" name="LFOCKAEDFT"> F  </i>
   <i name="HFSCREEN">      0.00000000</i>
   <i name="HFSCREENC">      0.00000000</i>
   <i type="int" name="NBANDSGWLOW">     0</i>
  </separator>
  <separator name="vdW DFT" >
   <i type="logical" name="LUSE_VDW"> F  </i>
   <i name="Zab_VDW">     -0.84910000</i>
   <i name="PARAM1">      0.12340000</i>
   <i name="PARAM2">      1.00000000</i>
   <i name="PARAM3">      0.00000000</i>
  </separator>
  <separator name="model GW" >
   <i type="int" name="MODEL_GW">     0</i>
   <i name="MODEL_EPS0">     29.42037089</i>
   <i name="MODEL_ALPHA">      1.00000000</i>
  </separator>
  <separator name="linear response parameters" >
   <i type="logical" name="LEPSILON"> F  </i>
   <i type="logical" name="LRPA"> F  </i>
   <i type="logical" name="LNABLA"> F  </i>
   <i type="logical" name="LVEL"> F  </i>
   <i type="int" name="KINTER">     0</i>
   <i name="CSHIFT">      0.10000000</i>
   <i name="OMEGAMAX">     -1.00000000</i>
   <i name="DEG_THRESHOLD">      0.00200000</i>
  </separator>
  <separator name="orbital magnetization" >
   <i type="logical" name="NUCIND"> F  </i>
   <v name="MAGPOS">      0.00000000      0.00000000      0.00000000</v>
   <i type="logical" name="LNICSALL"> T  </i>
   <i type="logical" name="ORBITALMAG"> F  </i>
   <i type="logical" name="LMAGBLOCH"> F  </i>
   <i type="logical" name="LCHIMAG"> F  </i>
   <i type="logical" name="LGAUGE"> T  </i>
   <i type="int" name="MAGATOM">     0</i>
   <v name="MAGDIPOL">      0.00000000      0.00000000      0.00000000</v>
   <v name="AVECCONST">      0.00000000      0.00000000      0.00000000</v>
  </separator>
  <separator name="response functions" >
   <i type="logical" name="LADDER"> F  </i>
   <i type="logical" name="LFXC"> F  </i>
   <i type="logical" name="LHARTREE"> T  </i>
   <i type="int" name="IBSE">     0</i>
   <v type="int" name="KPOINT">    -1     0     0     0</v>
   <i type="logical" name="LTCTE"> F  </i>
   <i type="logical" name="LTETE"> F  </i>
   <i type="logical" name="LTRIPLET"> F  </i>
   <i type="logical" name="LFXCEPS"> F  </i>
   <i type="logical" name="LFXHEG"> F  </i>
   <i type="int" name="NATURALO">     0</i>
   <i type="logical" name="L2ORDER"> F  </i>
   <i type="logical" name="LUSEW"> F  </i>
   <i name="ENCUTGW">     -2.00000000</i>
   <i name="ENCUTGWSOFT">     -2.00000000</i>
   <i name="ENCUTLF">     -1.00000000</i>
   <i type="int" name="LMAXMP2">    -1</i>
   <i name="SCISSOR">      0.00000000</i>
   <i type="int" name="NOMEGA">     0</i>
   <i type="int" name="NOMEGAR">     0</i>
   <i type="int" name="NBANDSGW">    -1</i>
   <i type="int" name="NBANDSO">    -1</i>
   <i type="int" name="NBANDSV">    -1</i>
   <i type="int" name="NELM">   500</i>
   <i type="int" name="NELMHF">     1</i>
   <i type="int" name="DIM">     3</i>
   <i type="int" name="ANTIRES">     0</i>
   <i name="OMEGAMAX">    -30.00000000</i>
   <i name="OMEGAMIN">    -30.00000000</i>
   <i name="OMEGATL">   -200.00000000</i>
   <i type="int" name="OMEGAGRID">     0</i>
   <i name="CSHIFT">     -0.10000000</i>
   <i type="logical" name="SELFENERGY"> F  </i>
   <i type="logical" name="LSPECTRAL"> F  </i>
   <i type="logical" name="LSPECTRALGW"> F  </i>
   <i type="logical" name="LSINGLES"> F  </i>
   <i type="logical" name="LFERMIGW"> F  </i>
   <i type="logical" name="ODDONLYGW"> F  </i>
   <i type="logical" name="EVENONLYGW"> F  </i>
   <i type="int" name="NKREDLFX">     1</i>
   <i type="int" name="NKREDLFY">     1</i>
   <i type="int" name="NKREDLFZ">     1</i>
   <i type="int" name="MAXMEM">  1800</i>
   <i type="int" name="TELESCOPE">     0</i>
   <i type="int" name="TAUPAR">     1</i>
   <i type="int" name="OMEGAPAR">    -1</i>
   <i name="LAMBDA">      1.00000000</i>
  </separator>
  <separator name="External order field" >
   <i name="OFIELD_KAPPA">      0.00000000</i>
   <v name="OFIELD_K">      0.00000000      0.00000000      0.00000000</v>
   <i name="OFIELD_Q6_NEAR">      0.00000000</i>
   <i name="OFIELD_Q6_FAR">      0.00000000</i>
   <i name="OFIELD_A">      0.00000000</i>
  </separator>
 </parameters>
 <atominfo>
  <atoms>      56 </atoms>
  <types>       3 </types>
  <array name="atoms" >
   <dimension dim="1">ion</dimension>
   <field type="string">element</field>
   <field type="int">atomtype</field>
   <set>
    <rc><c>Au</c><c>   1</c></rc>
    <rc><c>Au</c><c>   1</c></rc>
    <rc><c>Au</c><c>   1</c></rc>
    <rc><c>Au</c><c>   1</c></rc>
    <rc><c>Au</c><c>   1</c></rc>
    <rc><c>Au</c><c>   1</c></rc>
    <rc><c>Au</c><c>   1</c></rc>
    <rc><c>Au</c><c>   1</c></rc>
    <rc><c>Au</c><c>   1</c></rc>
    <rc><c>Au</c><c>   1</c></rc>
    <rc><c>Au</c><c>   1</c></rc>
    <rc><c>Au</c><c>   1</c></rc>
    <rc><c>Au</c><c>   1</c></rc>
    <rc><c>Au</c><c>   1</c></rc>
    <rc><c>Au</c><c>   1</c></rc>
    <rc><c>Au</c><c>   1</c></rc>
    <rc><c>Au</c><c>   1</c></rc>
    <rc><c>Au</c><c>   1</c></rc>
    <rc><c>Au</c><c>   1</c></rc>
    <rc><c>Au</c><c>   1</c></rc>
    <rc><c>Au</c><c>   1</c></rc>
    <rc><c>Au</c><c>   1</c></rc>
    <rc><c>Au</c><c>   1</c></rc>
    <rc><c>Au</c><c>   1</c></rc>
    <rc><c>O </c><c>   2</c></rc>
    <rc><c>O </c><c>   2</c></rc>
    <rc><c>O </c><c>   2</c></rc>
    <rc><c>O </c><c>   2</c></rc>
    <rc><c>O </c><c>   2</c></rc>
    <rc><c>O </c><c>   2</c></rc>
    <rc><c>O </c><c>   2</c></rc>
    <rc><c>O </c><c>   2</c></rc>
    <rc><c>Pd</c><c>   3</c></rc>
    <rc><c>Pd</c><c>   3</c></rc>
    <rc><c>Pd</c><c>   3</c></rc>
    <rc><c>Pd</c><c>   3</c></rc>
    <rc><c>Pd</c><c>   3</c></rc>
    <rc><c>Pd</c><c>   3</c></rc>
    <rc><c>Pd</c><c>   3</c></rc>
    <rc><c>Pd</c><c>   3</c></rc>
    <rc><c>Pd</c><c>   3</c></rc>
    <rc><c>Pd</c><c>   3</c></rc>
    <rc><c>Pd</c><c>   3</c></rc>
    <rc><c>Pd</c><c>   3</c></rc>
    <rc><c>Pd</c><c>   3</c></rc>
    <rc><c>Pd</c><c>   3</c></rc>
    <rc><c>Pd</c><c>   3</c></rc>
    <rc><c>Pd</c><c>   3</c></rc>
    <rc><c>Pd</c><c>   3</c></rc>
    <rc><c>Pd</c><c>   3</c></rc>
    <rc><c>Pd</c><c>   3</c></rc>
    <rc><c>Pd</c><c>   3</c></rc>
    <rc><c>Pd</c><c>   3</c></rc>
    <rc><c>Pd</c><c>   3</c></rc>
    <rc><c>Pd</c><c>   3</c></rc>
    <rc><c>Pd</c><c>   3</c></rc>
   </set>
  </array>
  <array name="atomtypes" >
   <dimension dim="1">type</dimension>
   <field type="int">atomspertype</field>
   <field type="string">element</field>
   <field>mass</field>
   <field>valence</field>
   <field type="string">pseudopotential</field>
   <set>
    <rc><c>  24</c><c>Au</c><c>    196.96600000</c><c>     11.00000000</c><c>  PAW_PBE Au 04Oct2007                  </c></rc>
    <rc><c>   8</c><c>O </c><c>     16.00000000</c><c>      6.00000000</c><c>  PAW_PBE O 08Apr2002                   </c></rc>
    <rc><c>  24</c><c>Pd</c><c>    106.42000000</c><c>     10.00000000</c><c>  PAW_PBE Pd 04Jan2005                  </c></rc>
   </set>
  </array>
 </atominfo>
 <structure name="initialpos" >
  <crystal>
   <varray name="basis" >
    <v>      11.00258152       0.00000000       0.00000000 </v>
    <v>       5.50129076       9.52851510       0.00000000 </v>
    <v>       0.00000000       0.00000000      26.19178509 </v>
   </varray>
   <i name="volume">   2745.90128299 </i>
   <varray name="rec_basis" >
    <v>       0.09088776      -0.05247407       0.00000000 </v>
    <v>       0.00000000       0.10494815       0.00000000 </v>
    <v>       0.00000000       0.00000000       0.03817991 </v>
   </varray>
  </crystal>
  <varray name="positions" >
   <v>       0.50000000       0.25000000       0.55329505 </v>
   <v>       0.66666667       0.41666667       0.46754708 </v>
   <v>       0.41666667       0.66666667       0.46754708 </v>
   <v>       0.00000000       0.00000000       0.55329505 </v>
   <v>       0.08333333       0.33333333       0.38179910 </v>
   <v>       0.91666667       0.41666667       0.46754708 </v>
   <v>       0.50000000       0.50000000       0.55329505 </v>
   <v>       0.41666667       0.91666667       0.46754708 </v>
   <v>       0.75000000       0.75000000       0.55329505 </v>
   <v>       0.83333333       0.58333333       0.38179910 </v>
   <v>       0.50000000       0.75000000       0.55329505 </v>
   <v>       0.83333333       0.08333333       0.38179910 </v>
   <v>       0.75000000       0.25000000       0.55329505 </v>
   <v>       0.00000000       0.75000000       0.55329505 </v>
   <v>       0.33333333       0.83333333       0.38179910 </v>
   <v>       0.33333333       0.08333333       0.38179910 </v>
   <v>       0.16666667       0.16666667       0.46754708 </v>
   <v>       0.58333333       0.58333333       0.38179910 </v>
   <v>       0.33333333       0.33333333       0.38179910 </v>
   <v>       0.16666667       0.41666667       0.46754708 </v>
   <v>       0.25000000       0.25000000       0.55329505 </v>
   <v>       0.66666667       0.16666667       0.46754708 </v>
   <v>       0.33333333       0.58333333       0.38179910 </v>
   <v>       0.16666667       0.66666667       0.46754708 </v>
   <v>       0.83333333       0.33333333       0.61820090 </v>
   <v>       0.83333333       0.08333333       0.61820090 </v>
   <v>       0.83333333       0.58333333       0.61820090 </v>
   <v>       0.08333333       0.83333333       0.61820090 </v>
   <v>       0.33333333       0.83333333       0.61820090 </v>
   <v>       0.58333333       0.83333333       0.61820090 </v>
   <v>       0.58333333       0.08333333       0.61820090 </v>
   <v>       0.33333333       0.58333333       0.61820090 </v>
   <v>       0.50000000       0.00000000       0.55329505 </v>
   <v>       0.41666667       0.16666667       0.46754708 </v>
   <v>       0.58333333       0.08333333       0.38179910 </v>
   <v>       0.25000000       0.75000000       0.55329505 </v>
   <v>       0.16666667       0.91666667       0.46754708 </v>
   <v>       0.25000000       0.00000000       0.55329505 </v>
   <v>       0.91666667       0.91666667       0.46754708 </v>
   <v>       0.08333333       0.83333333       0.38179910 </v>
   <v>       0.00000000       0.50000000       0.55329505 </v>
   <v>       0.91666667       0.66666667       0.46754708 </v>
   <v>       0.08333333       0.58333333       0.38179910 </v>
   <v>       0.00000000       0.25000000       0.55329505 </v>
   <v>       0.91666667       0.16666667       0.46754708 </v>
   <v>       0.41666667       0.41666667       0.46754708 </v>
   <v>       0.08333333       0.08333333       0.38179910 </v>
   <v>       0.75000000       0.00000000       0.55329505 </v>
   <v>       0.66666667       0.91666667       0.46754708 </v>
   <v>       0.83333333       0.83333333       0.38179910 </v>
   <v>       0.58333333       0.83333333       0.38179910 </v>
   <v>       0.75000000       0.50000000       0.55329505 </v>
   <v>       0.66666667       0.66666667       0.46754708 </v>
   <v>       0.83333333       0.33333333       0.38179910 </v>
   <v>       0.58333333       0.33333333       0.38179910 </v>
   <v>       0.25000000       0.50000000       0.55329505 </v>
  </varray>
  <varray name="selective"  type="logical" >
   <v type="logical" >  T  T  T </v>
   <v type="logical" >  T  T  T </v>
   <v type="logical" >  T  T  T </v>
   <v type="logical" >  T  T  T </v>
   <v type="logical" >  F  F  F </v>
   <v type="logical" >  T  T  T </v>
   <v type="logical" >  T  T  T </v>
   <v type="logical" >  T  T  T </v>
   <v type="logical" >  T  T  T </v>
   <v type="logical" >  F  F  F </v>
   <v type="logical" >  T  T  T </v>
   <v type="logical" >  F  F  F </v>
   <v type="logical" >  T  T  T </v>
   <v type="logical" >  T  T  T </v>
   <v type="logical" >  F  F  F </v>
   <v type="logical" >  F  F  F </v>
   <v type="logical" >  T  T  T </v>
   <v type="logical" >  F  F  F </v>
   <v type="logical" >  F  F  F </v>
   <v type="logical" >  T  T  T </v>
   <v type="logical" >  T  T  T </v>
   <v type="logical" >  T  T  T </v>
   <v type="logical" >  F  F  F </v>
   <v type="logical" >  T  T  T </v>
   <v type="logical" >  T  T  T </v>
   <v type="logical" >  T  T  T </v>
   <v type="logical" >  T  T  T </v>
   <v type="logical" >  T  T  T </v>
   <v type="logical" >  T  T  T </v>
   <v type="logical" >  T  T  T </v>
   <v type="logical" >  T  T  T </v>
   <v type="logical" >  T  T  T </v>
   <v type="logical" >  T  T  T </v>
   <v type="logical" >  T  T  T </v>
   <v type="logical" >  F  F  F </v>
   <v type="logical" >  T  T  T </v>
   <v type="logical" >  T  T  T </v>
   <v type="logical" >  T  T  T </v>
   <v type="logical" >  T  T  T </v>
   <v type="logical" >  F  F  F </v>
   <v type="logical" >  T  T  T </v>
   <v type="logical" >  T  T  T </v>
   <v type="logical" >  F  F  F </v>
   <v type="logical" >  T  T  T </v>
   <v type="logical" >  T  T  T </v>
   <v type="logical" >  T  T  T </v>
   <v type="logical" >  F  F  F </v>
   <v type="logical" >  T  T  T </v>
   <v type="logical" >  T  T  T </v>
   <v type="logical" >  F  F  F </v>
   <v type="logical" >  F  F  F </v>
   <v type="logical" >  T  T  T </v>
   <v type="logical" >  T  T  T </v>
   <v type="logical" >  F  F  F </v>
   <v type="logical" >  F  F  F </v>
   <v type="logical" >  T  T  T </v>
  </varray>
  <nose>
   <v>      -3.00000000       0.00000000       0.00010000       0.00010000 </v>
  </nose>
 </structure>
 <calculation>
  <scstep>
   <time name="dav">    8.55    8.57</time>
   <time name="total">    8.61    8.64</time>
   <dipole>
    <v name="dipole">      0.00000000       0.00000000       0.00012066 </v>
    <i name="Tr[quadrupol]"> -11204.51124553 </i>
    <i name="Echarged">      0.00000000 </i>
    <i name="Edipol_quadrupol">      0.00000000 </i>
    <i name="Eion">      0.00000000 </i>
   </dipole>
   <energy>
    <i name="alphaZ">    862.57870608 </i>
    <i name="ewald"> 255375.84128760 </i>
    <i name="hartreedc">-300950.10819383 </i>
    <i name="XCdc">   -109.79181330 </i>
    <i name="pawpsdc">  43112.45544455 </i>
    <i name="pawaedc"> -41079.41300390 </i>
    <i name="eentropy">     -0.13467331 </i>
    <i name="bandstr">   1329.56705038 </i>
    <i name="atom">  45117.89144060 </i>
    <i name="e_fr_energy">   3658.88624486 </i>
    <i name="e_wo_entrp">   3659.02091818 </i>
    <i name="e_0_energy">   3658.95358152 </i>
   </energy>
  </scstep>
  <scstep>
   <time name="dav">   10.07   10.10</time>
   <time name="total">   10.07   10.10</time>
   <dipole>
    <v name="dipole">      0.00000000       0.00000000       0.00012066 </v>
    <i name="Tr[quadrupol]"> -11204.51124553 </i>
    <i name="Echarged">      0.00000000 </i>
    <i name="Edipol_quadrupol">      0.00000000 </i>
    <i name="Eion">      0.00000000 </i>
   </dipole>
   <energy>
    <i name="e_fr_energy">     55.09376638 </i>
    <i name="e_wo_entrp">     55.26281674 </i>
    <i name="e_0_energy">     55.17829156 </i>
   </energy>
  </scstep>
  <scstep>
   <time name="dav">    9.77    9.86</time>
   <time name="total">    9.77    9.86</time>
   <dipole>
    <v name="dipole">      0.00000000       0.00000000       0.00012066 </v>
    <i name="Tr[quadrupol]"> -11204.51124553 </i>
    <i name="Echarged">      0.00000000 </i>
    <i name="Edipol_quadrupol">      0.00000000 </i>
    <i name="Eion">      0.00000000 </i>
   </dipole>
   <energy>
    <i name="e_fr_energy">   -250.66535154 </i>
    <i name="e_wo_entrp">   -250.22157884 </i>
    <i name="e_0_energy">   -250.44346519 </i>
   </energy>
  </scstep>
  <scstep>
   <time name="dav">    9.58    9.63</time>
   <time name="total">    9.58    9.63</time>
   <dipole>
    <v name="dipole">      0.00000000       0.00000000       0.00012066 </v>
    <i name="Tr[quadrupol]"> -11204.51124553 </i>
    <i name="Echarged">      0.00000000 </i>
    <i name="Edipol_quadrupol">      0.00000000 </i>
    <i name="Eion">      0.00000000 </i>
   </dipole>
   <energy>
    <i name="e_fr_energy">   -262.25295312 </i>
    <i name="e_wo_entrp">   -261.79132216 </i>
    <i name="e_0_energy">   -262.02213764 </i>
   </energy>
  </scstep>
  <scstep>
   <time name="dav">    9.96    9.99</time>
   <time name="total">   10.22   10.25</time>
   <dipole>
    <v name="dipole">      0.00000000       0.00000000       0.00012066 </v>
    <i name="Tr[quadrupol]"> -11204.51124553 </i>
    <i name="Echarged">      0.00000000 </i>
    <i name="Edipol_quadrupol">      0.00000000 </i>
    <i name="Eion">      0.00000000 </i>
   </dipole>
   <energy>
    <i name="e_fr_energy">   -262.61065051 </i>
    <i name="e_wo_entrp">   -262.14742149 </i>
    <i name="e_0_energy">   -262.37903600 </i>
   </energy>
  </scstep>
  <scstep>
   <time name="diag">    1.57    1.58</time>
   <time name="diis">    4.16    4.17</time>
   <time name="orth">    0.43    0.44</time>
   <time name="total">    6.48    6.50</time>
   <dipole>
    <v name="dipole">      0.00000000       0.00000000       4.07438979 </v>
    <i name="Tr[quadrupol]"> -11198.69911646 </i>
    <i name="Echarged">      0.00000000 </i>
    <i name="Edipol_quadrupol">      0.00000000 </i>
    <i name="Eion">      0.00000000 </i>
   </dipole>
   <energy>
    <i name="e_fr_energy">   -374.91504935 </i>
    <i name="e_wo_entrp">   -374.80443608 </i>
    <i name="e_0_energy">   -374.85974272 </i>
   </energy>
  </scstep>
  <scstep>
   <time name="diag">    1.56    1.56</time>
   <time name="diis">    4.04    4.05</time>
   <time name="orth">    0.43    0.44</time>
   <time name="total">    6.34    6.36</time>
   <dipole>
    <v name="dipole">      0.00000000       0.00000000      -0.97155671 </v>
    <i name="Tr[quadrupol]"> -11200.33938534 </i>
    <i name="Echarged">      0.00000000 </i>
    <i name="Edipol_quadrupol">      0.00000000 </i>
    <i name="Eion">      0.00000000 </i>
   </dipole>
   <energy>
    <i name="e_fr_energy">   -265.30773990 </i>
    <i name="e_wo_entrp">   -265.05759834 </i>
    <i name="e_0_energy">   -265.18266912 </i>
   </energy>
  </scstep>
  <scstep>
   <time name="diag">    1.56    1.57</time>
   <time name="diis">    3.96    4.05</time>
   <time name="orth">    0.43    0.44</time>
   <time name="total">    6.27    6.37</time>
   <dipole>
    <v name="dipole">      0.00000000       0.00000000       1.34963525 </v>
    <i name="Tr[quadrupol]"> -11203.61455818 </i>
    <i name="Echarged">      0.00000000 </i>
    <i name="Edipol_quadrupol">      0.00000000 </i>
    <i name="Eion">      0.00000000 </i>
   </dipole>
   <energy>
    <i name="e_fr_energy">   -240.33547570 </i>
    <i name="e_wo_entrp">   -240.07369263 </i>
    <i name="e_0_energy">   -240.20458416 </i>
   </energy>
  </scstep>
  <scstep>
   <time name="diag">    1.55    1.55</time>
   <time name="diis">    4.10    4.11</time>
   <time name="orth">    0.43    0.44</time>
   <time name="total">    6.39    6.41</time>
   <dipole>
    <v name="dipole">      0.00000000       0.00000000       0.91253462 </v>
    <i name="Tr[quadrupol]"> -11197.69869085 </i>
    <i name="Echarged">      0.00000000 </i>
    <i name="Edipol_quadrupol">      0.00000000 </i>
    <i name="Eion">      0.00000000 </i>
   </dipole>
   <energy>
    <i name="e_fr_energy">   -261.48520564 </i>
    <i name="e_wo_entrp">   -261.31290518 </i>
    <i name="e_0_energy">   -261.39905541 </i>
   </energy>
  </scstep>
  <scstep>
   <time name="diag">    1.56    1.57</time>
   <time name="diis">    4.08    4.09</time>
   <time name="orth">    0.43    0.43</time>
   <time name="total">    6.38    6.41</time>
   <dipole>
    <v name="dipole">      0.00000000       0.00000000       1.66744016 </v>
    <i name="Tr[quadrupol]"> -11200.49821870 </i>
    <i name="Echarged">      0.00000000 </i>
    <i name="Edipol_quadrupol">      0.00000000 </i>
    <i name="Eion">      0.00000000 </i>
   </dipole>
   <energy>
    <i name="e_fr_energy">   -246.85691633 </i>
    <i name="e_wo_entrp">   -246.70964486 </i>
    <i name="e_0_energy">   -246.78328060 </i>
   </energy>
  </scstep>
  <scstep>
   <time name="diag">    1.55    1.55</time>
   <time name="diis">    4.01    4.02</time>
   <time name="orth">    0.43    0.43</time>
   <time name="total">    6.29    6.31</time>
   <dipole>
    <v name="dipole">      0.00000000       0.00000000       1.54328773 </v>
    <i name="Tr[quadrupol]"> -11201.32002600 </i>
    <i name="Echarged">      0.00000000 </i>
    <i name="Edipol_quadrupol">      0.00000000 </i>
    <i name="Eion">      0.00000000 </i>
   </dipole>
   <energy>
    <i name="e_fr_energy">   -236.27747667 </i>
    <i name="e_wo_entrp">   -236.14970089 </i>
    <i name="e_0_energy">   -236.21358878 </i>
   </energy>
  </scstep>
  <scstep>
   <time name="diag">    1.55    1.56</time>
   <time name="diis">    4.10    4.11</time>
   <time name="orth">    0.43    0.43</time>
   <time name="total">    6.39    6.42</time>
   <dipole>
    <v name="dipole">      0.00000000       0.00000000       1.13207426 </v>
    <i name="Tr[quadrupol]"> -11201.39232220 </i>
    <i name="Echarged">      0.00000000 </i>
    <i name="Edipol_quadrupol">      0.00000000 </i>
    <i name="Eion">      0.00000000 </i>
   </dipole>
   <energy>
    <i name="e_fr_energy">   -224.21372496 </i>
    <i name="e_wo_entrp">   -223.93570625 </i>
    <i name="e_0_energy">   -224.07471561 </i>
   </energy>
  </scstep>
  <scstep>
   <time name="diag">    1.52    1.55</time>
   <time name="diis">    4.18    4.20</time>
   <time name="orth">    0.43    0.43</time>
   <time name="total">    6.43    6.48</time>
   <dipole>
    <v name="dipole">      0.00000000       0.00000000       1.18733690 </v>
    <i name="Tr[quadrupol]"> -11201.63850778 </i>
    <i name="Echarged">      0.00000000 </i>
    <i name="Edipol_quadrupol">      0.00000000 </i>
    <i name="Eion">      0.00000000 </i>
   </dipole>
   <energy>
    <i name="e_fr_energy">   -222.29447200 </i>
    <i name="e_wo_entrp">   -222.00808553 </i>
    <i name="e_0_energy">   -222.15127877 </i>
   </energy>
  </scstep>
  <scstep>
   <time name="diag">    1.55    1.55</time>
   <time name="diis">    4.12    4.13</time>
   <time name="orth">    0.42    0.45</time>
   <time name="total">    6.39    6.47</time>
   <dipole>
    <v name="dipole">      0.00000000       0.00000000       1.21994394 </v>
    <i name="Tr[quadrupol]"> -11201.62484627 </i>
    <i name="Echarged">      0.00000000 </i>
    <i name="Edipol_quadrupol">      0.00000000 </i>
    <i name="Eion">      0.00000000 </i>
   </dipole>
   <energy>
    <i name="e_fr_energy">   -221.63804627 </i>
    <i name="e_wo_entrp">   -221.34379235 </i>
    <i name="e_0_energy">   -221.49091931 </i>
   </energy>
  </scstep>
  <scstep>
   <time name="diag">    1.54    1.55</time>
   <time name="diis">    4.11    4.12</time>
   <time name="orth">    0.43    0.43</time>
   <time name="total">    6.39    6.42</time>
   <dipole>
    <v name="dipole">      0.00000000       0.00000000       1.24317756 </v>
    <i name="Tr[quadrupol]"> -11201.55012454 </i>
    <i name="Echarged">      0.00000000 </i>
    <i name="Edipol_quadrupol">      0.00000000 </i>
    <i name="Eion">      0.00000000 </i>
   </dipole>
   <energy>
    <i name="e_fr_energy">   -221.29845653 </i>
    <i name="e_wo_entrp">   -221.00236702 </i>
    <i name="e_0_energy">   -221.15041178 </i>
   </energy>
  </scstep>
  <scstep>
   <time name="diag">    1.55    1.55</time>
   <time name="diis">    4.02    4.03</time>
   <time name="orth">    0.43    0.43</time>
   <time name="total">    6.31    6.33</time>
   <dipole>
    <v name="dipole">      0.00000000       0.00000000       1.24097868 </v>
    <i name="Tr[quadrupol]"> -11201.45578611 </i>
    <i name="Echarged">      0.00000000 </i>
    <i name="Edipol_quadrupol">      0.00000000 </i>
    <i name="Eion">      0.00000000 </i>
   </dipole>
   <energy>
    <i name="e_fr_energy">   -221.18792227 </i>
    <i name="e_wo_entrp">   -220.89997943 </i>
    <i name="e_0_energy">   -221.04395085 </i>
   </energy>
  </scstep>
  <scstep>
   <time name="diag">    1.54    1.55</time>
   <time name="diis">    4.10    4.11</time>
   <time name="orth">    0.43    0.43</time>
   <time name="total">    6.38    6.40</time>
   <dipole>
    <v name="dipole">      0.00000000       0.00000000       1.24318521 </v>
    <i name="Tr[quadrupol]"> -11201.46046545 </i>
    <i name="Echarged">      0.00000000 </i>
    <i name="Edipol_quadrupol">      0.00000000 </i>
    <i name="Eion">      0.00000000 </i>
   </dipole>
   <energy>
    <i name="e_fr_energy">   -221.28258672 </i>
    <i name="e_wo_entrp">   -220.97067862 </i>
    <i name="e_0_energy">   -221.12663267 </i>
   </energy>
  </scstep>
  <scstep>
   <time name="diag">    1.55    1.55</time>
   <time name="diis">    4.11    4.12</time>
   <time name="orth">    0.43    0.43</time>
   <time name="total">    6.40    6.42</time>
   <dipole>
    <v name="dipole">      0.00000000       0.00000000       1.24711877 </v>
    <i name="Tr[quadrupol]"> -11201.54790679 </i>
    <i name="Echarged">      0.00000000 </i>
    <i name="Edipol_quadrupol">      0.00000000 </i>
    <i name="Eion">      0.00000000 </i>
   </dipole>
   <energy>
    <i name="e_fr_energy">   -220.99684417 </i>
    <i name="e_wo_entrp">   -220.68499390 </i>
    <i name="e_0_energy">   -220.84091904 </i>
   </energy>
  </scstep>
  <scstep>
   <time name="diag">    1.54    1.55</time>
   <time name="diis">    4.04    4.05</time>
   <time name="orth">    0.43    0.43</time>
   <time name="total">    6.32    6.34</time>
   <dipole>
    <v name="dipole">      0.00000000       0.00000000       1.26453068 </v>
    <i name="Tr[quadrupol]"> -11201.64651871 </i>
    <i name="Echarged">      0.00000000 </i>
    <i name="Edipol_quadrupol">      0.00000000 </i>
    <i name="Eion">      0.00000000 </i>
   </dipole>
   <energy>
    <i name="e_fr_energy">   -221.00285534 </i>
    <i name="e_wo_entrp">   -220.63311907 </i>
    <i name="e_0_energy">   -220.81798720 </i>
   </energy>
  </scstep>
  <scstep>
   <time name="diag">    1.55    1.56</time>
   <time name="diis">    4.09    4.10</time>
   <time name="orth">    0.43    0.43</time>
   <time name="total">    6.38    6.40</time>
   <dipole>
    <v name="dipole">      0.00000000       0.00000000       1.26776475 </v>
    <i name="Tr[quadrupol]"> -11201.74593568 </i>
    <i name="Echarged">      0.00000000 </i>
    <i name="Edipol_quadrupol">      0.00000000 </i>
    <i name="Eion">      0.00000000 </i>
   </dipole>
   <energy>
    <i name="e_fr_energy">   -220.95024598 </i>
    <i name="e_wo_entrp">   -220.59095142 </i>
    <i name="e_0_energy">   -220.77059870 </i>
   </energy>
  </scstep>
  <scstep>
   <time name="diag">    1.53    1.58</time>
   <time name="diis">    4.01    4.04</time>
   <time name="orth">    0.43    0.43</time>
   <time name="total">    6.27    6.36</time>
   <dipole>
    <v name="dipole">      0.00000000       0.00000000       1.26619851 </v>
    <i name="Tr[quadrupol]"> -11201.76973555 </i>
    <i name="Echarged">      0.00000000 </i>
    <i name="Edipol_quadrupol">      0.00000000 </i>
    <i name="Eion">      0.00000000 </i>
   </dipole>
   <energy>
    <i name="e_fr_energy">   -220.89274160 </i>
    <i name="e_wo_entrp">   -220.53190695 </i>
    <i name="e_0_energy">   -220.71232427 </i>
   </energy>
  </scstep>
  <scstep>
   <time name="diag">    1.54    1.55</time>
   <time name="diis">    4.02    4.07</time>
   <time name="orth">    0.43    0.43</time>
   <time name="total">    6.31    6.36</time>
   <dipole>
    <v name="dipole">      0.00000000       0.00000000       1.27728396 </v>
    <i name="Tr[quadrupol]"> -11201.84735464 </i>
    <i name="Echarged">      0.00000000 </i>
    <i name="Edipol_quadrupol">      0.00000000 </i>
    <i name="Eion">      0.00000000 </i>
   </dipole>
   <energy>
    <i name="e_fr_energy">   -220.86973203 </i>
    <i name="e_wo_entrp">   -220.52187551 </i>
    <i name="e_0_energy">   -220.69580377 </i>
   </energy>
  </scstep>
  <scstep>
   <time name="diag">    1.55    1.56</time>
   <time name="diis">    4.10    4.11</time>
   <time name="orth">    0.43    0.43</time>
   <time name="total">    6.39    6.41</time>
   <dipole>
    <v name="dipole">      0.00000000       0.00000000       1.28359012 </v>
    <i name="Tr[quadrupol]"> -11201.91547531 </i>
    <i name="Echarged">      0.00000000 </i>
    <i name="Edipol_quadrupol">      0.00000000 </i>
    <i name="Eion">      0.00000000 </i>
   </dipole>
   <energy>
    <i name="e_fr_energy">   -220.86357497 </i>
    <i name="e_wo_entrp">   -220.51869029 </i>
    <i name="e_0_energy">   -220.69113263 </i>
   </energy>
  </scstep>
  <scstep>
   <time name="diag">    1.54    1.55</time>
   <time name="diis">    4.11    4.12</time>
   <time name="orth">    0.43    0.44</time>
   <time name="total">    6.40    6.42</time>
   <dipole>
    <v name="dipole">      0.00000000       0.00000000       1.28685272 </v>
    <i name="Tr[quadrupol]"> -11201.98688535 </i>
    <i name="Echarged">      0.00000000 </i>
    <i name="Edipol_quadrupol">      0.00000000 </i>
    <i name="Eion">      0.00000000 </i>
   </dipole>
   <energy>
    <i name="e_fr_energy">   -220.85557859 </i>
    <i name="e_wo_entrp">   -220.50639097 </i>
    <i name="e_0_energy">   -220.68098478 </i>
   </energy>
  </scstep>
  <scstep>
   <time name="diag">    1.54    1.55</time>
   <time name="diis">    4.02    4.03</time>
   <time name="orth">    0.43    0.43</time>
   <time name="total">    6.30    6.32</time>
   <dipole>
    <v name="dipole">      0.00000000       0.00000000       1.28886541 </v>
    <i name="Tr[quadrupol]"> -11202.03431284 </i>
    <i name="Echarged">      0.00000000 </i>
    <i name="Edipol_quadrupol">      0.00000000 </i>
    <i name="Eion">      0.00000000 </i>
   </dipole>
   <energy>
    <i name="e_fr_energy">   -220.85350847 </i>
    <i name="e_wo_entrp">   -220.50344578 </i>
    <i name="e_0_energy">   -220.67847713 </i>
   </energy>
  </scstep>
  <scstep>
   <time name="diag">    1.55    1.55</time>
   <time name="diis">    4.12    4.13</time>
   <time name="orth">    0.43    0.43</time>
   <time name="total">    6.41    6.42</time>
   <dipole>
    <v name="dipole">      0.00000000       0.00000000       1.29000212 </v>
    <i name="Tr[quadrupol]"> -11202.08165349 </i>
    <i name="Echarged">      0.00000000 </i>
    <i name="Edipol_quadrupol">      0.00000000 </i>
    <i name="Eion">      0.00000000 </i>
   </dipole>
   <energy>
    <i name="e_fr_energy">   -220.85300231 </i>
    <i name="e_wo_entrp">   -220.49985334 </i>
    <i name="e_0_energy">   -220.67642782 </i>
   </energy>
  </scstep>
  <scstep>
   <time name="diag">    1.54    1.55</time>
   <time name="diis">    4.00    4.09</time>
   <time name="orth">    0.43    0.43</time>
   <time name="total">    6.28    6.38</time>
   <dipole>
    <v name="dipole">      0.00000000       0.00000000       1.29280591 </v>
    <i name="Tr[quadrupol]"> -11202.14404623 </i>
    <i name="Echarged">      0.00000000 </i>
    <i name="Edipol_quadrupol">      0.00000000 </i>
    <i name="Eion">      0.00000000 </i>
   </dipole>
   <energy>
    <i name="e_fr_energy">   -220.85357256 </i>
    <i name="e_wo_entrp">   -220.50237458 </i>
    <i name="e_0_energy">   -220.67797357 </i>
   </energy>
  </scstep>
  <scstep>
   <time name="diag">    1.55    1.55</time>
   <time name="diis">    4.13    4.14</time>
   <time name="orth">    0.43    0.43</time>
   <time name="total">    6.42    6.44</time>
   <dipole>
    <v name="dipole">      0.00000000       0.00000000       1.29865123 </v>
    <i name="Tr[quadrupol]"> -11202.18823783 </i>
    <i name="Echarged">      0.00000000 </i>
    <i name="Edipol_quadrupol">      0.00000000 </i>
    <i name="Eion">      0.00000000 </i>
   </dipole>
   <energy>
    <i name="e_fr_energy">   -220.85386604 </i>
    <i name="e_wo_entrp">   -220.50417712 </i>
    <i name="e_0_energy">   -220.67902158 </i>
   </energy>
  </scstep>
  <scstep>
   <time name="diag">    1.54    1.55</time>
   <time name="diis">    4.13    4.14</time>
   <time name="orth">    0.43    0.43</time>
   <time name="total">    6.41    6.43</time>
   <dipole>
    <v name="dipole">      0.00000000       0.00000000       1.30576913 </v>
    <i name="Tr[quadrupol]"> -11202.22389656 </i>
    <i name="Echarged">      0.00000000 </i>
    <i name="Edipol_quadrupol">      0.00000000 </i>
    <i name="Eion">      0.00000000 </i>
   </dipole>
   <energy>
    <i name="e_fr_energy">   -220.85422586 </i>
    <i name="e_wo_entrp">   -220.50459208 </i>
    <i name="e_0_energy">   -220.67940897 </i>
   </energy>
  </scstep>
  <scstep>
   <time name="diag">    1.54    1.55</time>
   <time name="diis">    4.15    4.16</time>
   <time name="orth">    0.43    0.43</time>
   <time name="total">    6.44    6.45</time>
   <dipole>
    <v name="dipole">      0.00000000       0.00000000       1.31066191 </v>
    <i name="Tr[quadrupol]"> -11202.26354498 </i>
    <i name="Echarged">      0.00000000 </i>
    <i name="Edipol_quadrupol">      0.00000000 </i>
    <i name="Eion">      0.00000000 </i>
   </dipole>
   <energy>
    <i name="e_fr_energy">   -220.85462955 </i>
    <i name="e_wo_entrp">   -220.50465658 </i>
    <i name="e_0_energy">   -220.67964307 </i>
   </energy>
  </scstep>
  <scstep>
   <time name="diag">    1.54    1.55</time>
   <time name="diis">    4.19    4.22</time>
   <time name="orth">    0.43    0.43</time>
   <time name="total">    6.47    6.51</time>
   <dipole>
    <v name="dipole">      0.00000000       0.00000000       1.31613443 </v>
    <i name="Tr[quadrupol]"> -11202.30343432 </i>
    <i name="Echarged">      0.00000000 </i>
    <i name="Edipol_quadrupol">      0.00000000 </i>
    <i name="Eion">      0.00000000 </i>
   </dipole>
   <energy>
    <i name="e_fr_energy">   -220.85501491 </i>
    <i name="e_wo_entrp">   -220.50420597 </i>
    <i name="e_0_energy">   -220.67961044 </i>
   </energy>
  </scstep>
  <scstep>
   <time name="diag">    1.55    1.56</time>
   <time name="diis">    4.24    4.25</time>
   <time name="orth">    0.43    0.43</time>
   <time name="total">    6.54    6.56</time>
   <dipole>
    <v name="dipole">      0.00000000       0.00000000       1.32140082 </v>
    <i name="Tr[quadrupol]"> -11202.33699931 </i>
    <i name="Echarged">      0.00000000 </i>
    <i name="Edipol_quadrupol">      0.00000000 </i>
    <i name="Eion">      0.00000000 </i>
   </dipole>
   <energy>
    <i name="e_fr_energy">   -220.85536109 </i>
    <i name="e_wo_entrp">   -220.50473569 </i>
    <i name="e_0_energy">   -220.68004839 </i>
   </energy>
  </scstep>
  <scstep>
   <time name="diag">    1.54    1.55</time>
   <time name="diis">    3.92    4.01</time>
   <time name="orth">    0.43    0.43</time>
   <time name="total">    6.20    6.30</time>
   <dipole>
    <v name="dipole">      0.00000000       0.00000000       1.32731246 </v>
    <i name="Tr[quadrupol]"> -11202.37128314 </i>
    <i name="Echarged">      0.00000000 </i>
    <i name="Edipol_quadrupol">      0.00000000 </i>
    <i name="Eion">      0.00000000 </i>
   </dipole>
   <energy>
    <i name="e_fr_energy">   -220.85569991 </i>
    <i name="e_wo_entrp">   -220.50522113 </i>
    <i name="e_0_energy">   -220.68046052 </i>
   </energy>
  </scstep>
  <scstep>
   <time name="diag">    1.55    1.55</time>
   <time name="diis">    3.86    3.87</time>
   <time name="orth">    0.43    0.43</time>
   <time name="total">    6.15    6.17</time>
   <dipole>
    <v name="dipole">      0.00000000       0.00000000       1.33223157 </v>
    <i name="Tr[quadrupol]"> -11202.39803985 </i>
    <i name="Echarged">      0.00000000 </i>
    <i name="Edipol_quadrupol">      0.00000000 </i>
    <i name="Eion">      0.00000000 </i>
   </dipole>
   <energy>
    <i name="e_fr_energy">   -220.85595005 </i>
    <i name="e_wo_entrp">   -220.50534947 </i>
    <i name="e_0_energy">   -220.68064976 </i>
   </energy>
  </scstep>
  <scstep>
   <time name="diag">    1.55    1.56</time>
   <time name="diis">    4.01    4.02</time>
   <time name="orth">    0.43    0.43</time>
   <time name="total">    6.31    6.33</time>
   <dipole>
    <v name="dipole">      0.00000000       0.00000000       1.34045006 </v>
    <i name="Tr[quadrupol]"> -11202.44154492 </i>
    <i name="Echarged">      0.00000000 </i>
    <i name="Edipol_quadrupol">      0.00000000 </i>
    <i name="Eion">      0.00000000 </i>
   </dipole>
   <energy>
    <i name="e_fr_energy">   -220.85633671 </i>
    <i name="e_wo_entrp">   -220.50569174 </i>
    <i name="e_0_energy">   -220.68101423 </i>
   </energy>
  </scstep>
  <scstep>
   <time name="diag">    1.55    1.55</time>
   <time name="diis">    3.73    3.74</time>
   <time name="orth">    0.43    0.43</time>
   <time name="total">    6.02    6.04</time>
   <dipole>
    <v name="dipole">      0.00000000       0.00000000       1.34611827 </v>
    <i name="Tr[quadrupol]"> -11202.46938268 </i>
    <i name="Echarged">      0.00000000 </i>
    <i name="Edipol_quadrupol">      0.00000000 </i>
    <i name="Eion">      0.00000000 </i>
   </dipole>
   <energy>
    <i name="e_fr_energy">   -220.85653181 </i>
    <i name="e_wo_entrp">   -220.50587791 </i>
    <i name="e_0_energy">   -220.68120486 </i>
   </energy>
  </scstep>
  <scstep>
   <time name="diag">    1.54    1.54</time>
   <time name="diis">    3.53    3.54</time>
   <time name="orth">    0.43    0.43</time>
   <time name="total">    5.81    5.83</time>
   <dipole>
    <v name="dipole">      0.00000000       0.00000000       1.35144273 </v>
    <i name="Tr[quadrupol]"> -11202.49465887 </i>
    <i name="Echarged">      0.00000000 </i>
    <i name="Edipol_quadrupol">      0.00000000 </i>
    <i name="Eion">      0.00000000 </i>
   </dipole>
   <energy>
    <i name="e_fr_energy">   -220.85665044 </i>
    <i name="e_wo_entrp">   -220.50607521 </i>
    <i name="e_0_energy">   -220.68136282 </i>
   </energy>
  </scstep>
  <scstep>
   <time name="diag">    1.54    1.54</time>
   <time name="diis">    2.94    2.95</time>
   <time name="orth">    0.43    0.43</time>
   <time name="total">    5.22    5.24</time>
   <dipole>
    <v name="dipole">      0.00000000       0.00000000       1.35403910 </v>
    <i name="Tr[quadrupol]"> -11202.50472901 </i>
    <i name="Echarged">      0.00000000 </i>
    <i name="Edipol_quadrupol">      0.00000000 </i>
    <i name="Eion">      0.00000000 </i>
   </dipole>
   <energy>
    <i name="e_fr_energy">   -220.85669043 </i>
    <i name="e_wo_entrp">   -220.50606325 </i>
    <i name="e_0_energy">   -220.68137684 </i>
   </energy>
  </scstep>
  <scstep>
   <time name="diag">    1.55    1.55</time>
   <time name="diis">    2.62    2.63</time>
   <time name="orth">    0.43    0.43</time>
   <time name="total">    4.91    4.92</time>
   <dipole>
    <v name="dipole">      0.00000000       0.00000000       1.35696395 </v>
    <i name="Tr[quadrupol]"> -11202.51504425 </i>
    <i name="Echarged">      0.00000000 </i>
    <i name="Edipol_quadrupol">      0.00000000 </i>
    <i name="Eion">      0.00000000 </i>
   </dipole>
   <energy>
    <i name="e_fr_energy">   -220.85673379 </i>
    <i name="e_wo_entrp">   -220.50606475 </i>
    <i name="e_0_energy">   -220.68139927 </i>
   </energy>
  </scstep>
  <scstep>
   <time name="diag">    1.55    1.56</time>
   <time name="diis">    2.43    2.53</time>
   <time name="orth">    0.43    0.43</time>
   <time name="total">    4.73    4.84</time>
   <dipole>
    <v name="dipole">      0.00000000       0.00000000       1.35893732 </v>
    <i name="Tr[quadrupol]"> -11202.52115840 </i>
    <i name="Echarged">      0.00000000 </i>
    <i name="Edipol_quadrupol">      0.00000000 </i>
    <i name="Eion">      0.00000000 </i>
   </dipole>
   <energy>
    <i name="e_fr_energy">   -220.85676193 </i>
    <i name="e_wo_entrp">   -220.50609292 </i>
    <i name="e_0_energy">   -220.68142742 </i>
   </energy>
  </scstep>
  <scstep>
   <time name="diag">    1.54    1.55</time>
   <time name="diis">    2.49    2.49</time>
   <time name="orth">    0.43    0.43</time>
   <time name="total">    4.77    4.79</time>
   <dipole>
    <v name="dipole">      0.00000000       0.00000000       1.36140530 </v>
    <i name="Tr[quadrupol]"> -11202.52762908 </i>
    <i name="Echarged">      0.00000000 </i>
    <i name="Edipol_quadrupol">      0.00000000 </i>
    <i name="Eion">      0.00000000 </i>
   </dipole>
   <energy>
    <i name="e_fr_energy">   -220.85679671 </i>
    <i name="e_wo_entrp">   -220.50611588 </i>
    <i name="e_0_energy">   -220.68145630 </i>
   </energy>
  </scstep>
  <scstep>
   <time name="diag">    1.54    1.55</time>
   <time name="diis">    2.45    2.48</time>
   <time name="orth">    0.43    0.43</time>
   <time name="total">    4.73    4.79</time>
   <dipole>
    <v name="dipole">      0.00000000       0.00000000       1.36342970 </v>
    <i name="Tr[quadrupol]"> -11202.53232487 </i>
    <i name="Echarged">      0.00000000 </i>
    <i name="Edipol_quadrupol">      0.00000000 </i>
    <i name="Eion">      0.00000000 </i>
   </dipole>
   <energy>
    <i name="e_fr_energy">   -220.85682463 </i>
    <i name="e_wo_entrp">   -220.50614455 </i>
    <i name="e_0_energy">   -220.68148459 </i>
   </energy>
  </scstep>
  <scstep>
   <time name="diag">    1.54    1.55</time>
   <time name="diis">    2.49    2.50</time>
   <time name="orth">    0.43    0.43</time>
   <time name="total">    4.78    4.79</time>
   <dipole>
    <v name="dipole">      0.00000000       0.00000000       1.36589925 </v>
    <i name="Tr[quadrupol]"> -11202.53757744 </i>
    <i name="Echarged">      0.00000000 </i>
    <i name="Edipol_quadrupol">      0.00000000 </i>
    <i name="Eion">      0.00000000 </i>
   </dipole>
   <energy>
    <i name="e_fr_energy">   -220.85685322 </i>
    <i name="e_wo_entrp">   -220.50615490 </i>
    <i name="e_0_energy">   -220.68150406 </i>
   </energy>
  </scstep>
  <scstep>
   <time name="diag">    1.55    1.55</time>
   <time name="diis">    2.44    2.44</time>
   <time name="orth">    0.43    0.43</time>
   <time name="total">    4.73    4.75</time>
   <dipole>
    <v name="dipole">      0.00000000       0.00000000       1.36777518 </v>
    <i name="Tr[quadrupol]"> -11202.54134883 </i>
    <i name="Echarged">      0.00000000 </i>
    <i name="Edipol_quadrupol">      0.00000000 </i>
    <i name="Eion">      0.00000000 </i>
   </dipole>
   <energy>
    <i name="e_fr_energy">   -220.85686950 </i>
    <i name="e_wo_entrp">   -220.50615502 </i>
    <i name="e_0_energy">   -220.68151226 </i>
   </energy>
  </scstep>
  <scstep>
   <time name="diag">    1.54    1.54</time>
   <time name="diis">    2.12    2.12</time>
   <time name="orth">    0.43    0.44</time>
   <time name="total">    4.40    4.43</time>
   <dipole>
    <v name="dipole">      0.00000000       0.00000000       1.36879740 </v>
    <i name="Tr[quadrupol]"> -11202.54320281 </i>
    <i name="Echarged">      0.00000000 </i>
    <i name="Edipol_quadrupol">      0.00000000 </i>
    <i name="Eion">      0.00000000 </i>
   </dipole>
   <energy>
    <i name="e_fr_energy">   -220.85687590 </i>
    <i name="e_wo_entrp">   -220.50615341 </i>
    <i name="e_0_energy">   -220.68151465 </i>
   </energy>
  </scstep>
  <scstep>
   <time name="diag">    1.55    1.55</time>
   <time name="diis">    2.21    2.21</time>
   <time name="orth">    0.43    0.43</time>
   <time name="total">    4.50    4.52</time>
   <dipole>
    <v name="dipole">      0.00000000       0.00000000       1.36937385 </v>
    <i name="Tr[quadrupol]"> -11202.54398935 </i>
    <i name="Echarged">      0.00000000 </i>
    <i name="Edipol_quadrupol">      0.00000000 </i>
    <i name="Eion">      0.00000000 </i>
   </dipole>
   <energy>
    <i name="e_fr_energy">   -220.85687932 </i>
    <i name="e_wo_entrp">   -220.50615125 </i>
    <i name="e_0_energy">   -220.68151529 </i>
   </energy>
  </scstep>
  <scstep>
   <time name="diag">    1.55    1.55</time>
   <time name="diis">    1.83    1.83</time>
   <time name="orth">    0.43    0.43</time>
   <time name="total">    4.12    4.13</time>
   <dipole>
    <v name="dipole">      0.00000000       0.00000000       1.36963875 </v>
    <i name="Tr[quadrupol]"> -11202.54426439 </i>
    <i name="Echarged">      0.00000000 </i>
    <i name="Edipol_quadrupol">      0.00000000 </i>
    <i name="Eion">      0.00000000 </i>
   </dipole>
   <energy>
    <i name="e_fr_energy">   -220.85688103 </i>
    <i name="e_wo_entrp">   -220.50615551 </i>
    <i name="e_0_energy">   -220.68151827 </i>
   </energy>
  </scstep>
  <scstep>
   <time name="diag">    1.55    1.55</time>
   <time name="diis">    1.78    1.78</time>
   <time name="orth">    0.43    0.43</time>
   <time name="total">    4.07    4.09</time>
   <dipole>
    <v name="dipole">      0.00000000       0.00000000       1.36979897 </v>
    <i name="Tr[quadrupol]"> -11202.54437044 </i>
    <i name="Echarged">      0.00000000 </i>
    <i name="Edipol_quadrupol">      0.00000000 </i>
    <i name="Eion">      0.00000000 </i>
   </dipole>
   <energy>
    <i name="e_fr_energy">   -220.85688206 </i>
    <i name="e_wo_entrp">   -220.50615706 </i>
    <i name="e_0_energy">   -220.68151956 </i>
   </energy>
  </scstep>
  <scstep>
   <time name="diag">    1.54    1.55</time>
   <time name="diis">    1.66    1.74</time>
   <time name="orth">    0.43    0.43</time>
   <time name="total">    3.68    3.77</time>
   <dipole>
    <v name="dipole">      0.00000000       0.00000000       1.36986990 </v>
    <i name="Tr[quadrupol]"> -11202.54438530 </i>
    <i name="Echarged">      0.00000000 </i>
    <i name="Edipol_quadrupol">      0.00000000 </i>
    <i name="Eion">      0.00000000 </i>
   </dipole>
   <energy>
    <i name="alphaZ">    887.77297343 </i>
    <i name="ewald"> 255375.84128760 </i>
    <i name="hartreedc">-300375.97203269 </i>
    <i name="XCdc">   -124.25425909 </i>
    <i name="pawpsdc">  52826.25343239 </i>
    <i name="pawaedc"> -50924.89750002 </i>
    <i name="eentropy">     -0.35072557 </i>
    <i name="bandstr">  -3003.14149926 </i>
    <i name="atom">  45117.89144060 </i>
    <i name="e_fr_energy">   -220.85688262 </i>
    <i name="e_wo_entrp">   -220.50615705 </i>
    <i name="e_0_energy">   -220.68151984 </i>
   </energy>
  </scstep>
  <structure>
   <crystal>
    <varray name="basis" >
     <v>      11.00258152       0.00000000       0.00000000 </v>
     <v>       5.50129076       9.52851510       0.00000000 </v>
     <v>       0.00000000       0.00000000      26.19178509 </v>
    </varray>
    <i name="volume">   2745.90128299 </i>
    <varray name="rec_basis" >
     <v>       0.09088776      -0.05247407       0.00000000 </v>
     <v>       0.00000000       0.10494815       0.00000000 </v>
     <v>       0.00000000       0.00000000       0.03817991 </v>
    </varray>
   </crystal>
   <varray name="positions" >
    <v>       0.50000000       0.25000000       0.55329505 </v>
    <v>       0.66666667       0.41666667       0.46754708 </v>
    <v>       0.41666667       0.66666667       0.46754708 </v>
    <v>       0.00000000       0.00000000       0.55329505 </v>
    <v>       0.08333333       0.33333333       0.38179910 </v>
    <v>       0.91666667       0.41666667       0.46754708 </v>
    <v>       0.50000000       0.50000000       0.55329505 </v>
    <v>       0.41666667       0.91666667       0.46754708 </v>
    <v>       0.75000000       0.75000000       0.55329505 </v>
    <v>       0.83333333       0.58333333       0.38179910 </v>
    <v>       0.50000000       0.75000000       0.55329505 </v>
    <v>       0.83333333       0.08333333       0.38179910 </v>
    <v>       0.75000000       0.25000000       0.55329505 </v>
    <v>       0.00000000       0.75000000       0.55329505 </v>
    <v>       0.33333333       0.83333333       0.38179910 </v>
    <v>       0.33333333       0.08333333       0.38179910 </v>
    <v>       0.16666667       0.16666667       0.46754708 </v>
    <v>       0.58333333       0.58333333       0.38179910 </v>
    <v>       0.33333333       0.33333333       0.38179910 </v>
    <v>       0.16666667       0.41666667       0.46754708 </v>
    <v>       0.25000000       0.25000000       0.55329505 </v>
    <v>       0.66666667       0.16666667       0.46754708 </v>
    <v>       0.33333333       0.58333333       0.38179910 </v>
    <v>       0.16666667       0.66666667       0.46754708 </v>
    <v>       0.83333333       0.33333333       0.61820090 </v>
    <v>       0.83333333       0.08333333       0.61820090 </v>
    <v>       0.83333333       0.58333333       0.61820090 </v>
    <v>       0.08333333       0.83333333       0.61820090 </v>
    <v>       0.33333333       0.83333333       0.61820090 </v>
    <v>       0.58333333       0.83333333       0.61820090 </v>
    <v>       0.58333333       0.08333333       0.61820090 </v>
    <v>       0.33333333       0.58333333       0.61820090 </v>
    <v>       0.50000000       0.00000000       0.55329505 </v>
    <v>       0.41666667       0.16666667       0.46754708 </v>
    <v>       0.58333333       0.08333333       0.38179910 </v>
    <v>       0.25000000       0.75000000       0.55329505 </v>
    <v>       0.16666667       0.91666667       0.46754708 </v>
    <v>       0.25000000       0.00000000       0.55329505 </v>
    <v>       0.91666667       0.91666667       0.46754708 </v>
    <v>       0.08333333       0.83333333       0.38179910 </v>
    <v>       0.00000000       0.50000000       0.55329505 </v>
    <v>       0.91666667       0.66666667       0.46754708 </v>
    <v>       0.08333333       0.58333333       0.38179910 </v>
    <v>       0.00000000       0.25000000       0.55329505 </v>
    <v>       0.91666667       0.16666667       0.46754708 </v>
    <v>       0.41666667       0.41666667       0.46754708 </v>
    <v>       0.08333333       0.08333333       0.38179910 </v>
    <v>       0.75000000       0.00000000       0.55329505 </v>
    <v>       0.66666667       0.91666667       0.46754708 </v>
    <v>       0.83333333       0.83333333       0.38179910 </v>
    <v>       0.58333333       0.83333333       0.38179910 </v>
    <v>       0.75000000       0.50000000       0.55329505 </v>
    <v>       0.66666667       0.66666667       0.46754708 </v>
    <v>       0.83333333       0.33333333       0.38179910 </v>
    <v>       0.58333333       0.33333333       0.38179910 </v>
    <v>       0.25000000       0.50000000       0.55329505 </v>
   </varray>
  </structure>
  <varray name="forces" >
   <v>      -0.42964888       0.04403444       1.79496499 </v>
   <v>       0.14182962      -0.18330473       0.21065803 </v>
   <v>      -0.14270736       0.24658578       0.51671484 </v>
   <v>       0.57318439       0.14362570       1.84010386 </v>
   <v>      -0.23872455      -0.01135465      -1.78450727 </v>
   <v>      -0.27799504       0.09974712       0.35249872 </v>
   <v>      -0.26354245      -0.05742373       2.09811365 </v>
   <v>       0.61108902       0.20224993       0.27539679 </v>
   <v>       0.44769088       0.08925760       1.86202819 </v>
   <v>       0.14591762       0.46694374      -1.27863860 </v>
   <v>      -0.16207804      -0.10862292       2.32676876 </v>
   <v>       0.16325802      -0.07183304      -1.19766555 </v>
   <v>       0.22300457       0.19339138       2.41262065 </v>
   <v>      -0.24023582      -0.27618714       1.70223276 </v>
   <v>      -0.27388103       0.34203798      -1.60442294 </v>
   <v>       0.21767611      -0.12338434      -1.58016914 </v>
   <v>      -0.60276525      -0.55329252       0.68134661 </v>
   <v>       0.23131830      -0.14908886      -1.55341440 </v>
   <v>       0.38047067      -0.09539975      -1.33975071 </v>
   <v>       0.28450606       0.54626824       0.65683633 </v>
   <v>      -0.08758256      -0.01038652       1.31602367 </v>
   <v>      -0.19299559      -0.34349831      -0.27210428 </v>
   <v>      -0.21368081      -0.17270794      -1.53754679 </v>
   <v>      -0.17394517       0.32091043      -0.05094871 </v>
   <v>       0.46957650       0.13806811      -2.68549072 </v>
   <v>      -0.25038828      -0.33795796      -2.06883973 </v>
   <v>       0.28397102      -0.52161894      -2.79412078 </v>
   <v>      -0.11284187      -0.12885434      -2.15088027 </v>
   <v>       0.02137542       0.73066889      -2.62789755 </v>
   <v>      -0.08463122       0.48780582      -2.15411227 </v>
   <v>      -0.06221788      -0.14226611      -2.66989581 </v>
   <v>      -0.38327438      -0.45580116      -2.80774260 </v>
   <v>       0.15864877       0.04758503       2.64111195 </v>
   <v>       0.30883119      -0.37226156       0.17983741 </v>
   <v>       0.01590400      -0.21115026      -0.57009522 </v>
   <v>       0.06096421       0.02091589       3.42845666 </v>
   <v>      -0.44312546       0.19395731       0.26723229 </v>
   <v>      -0.06317491      -0.23256066       1.85561596 </v>
   <v>      -0.18892439       0.06125604      -0.18453767 </v>
   <v>      -0.17368225       0.12027026      -0.64411087 </v>
   <v>      -0.27616641       0.05535584       1.89045168 </v>
   <v>      -0.04771120       0.56033753       0.26710946 </v>
   <v>      -0.08873084       0.39340464      -0.78030364 </v>
   <v>      -0.11943544       0.25367053       1.86356794 </v>
   <v>       0.16882887      -0.41309359      -0.10558403 </v>
   <v>      -0.16931509      -0.34687152       0.10592162 </v>
   <v>      -0.25601482      -0.12245430      -0.63930511 </v>
   <v>      -0.26900089       0.01807764       2.37539973 </v>
   <v>       0.19568898      -0.10704856       0.08785220 </v>
   <v>      -0.05478609      -0.05293141      -0.42715980 </v>
   <v>       0.42499139       0.10471785      -0.68370480 </v>
   <v>       0.43981288      -0.27049116       2.73443744 </v>
   <v>       0.24351434       0.16770859       0.23234036 </v>
   <v>      -0.08695819      -0.20043864      -0.83020406 </v>
   <v>      -0.00815416      -0.09046967      -0.82798245 </v>
   <v>       0.22626351       0.11390200       1.87549321 </v>
  </varray>
  <energy>
   <i name="e_fr_energy">   -220.85688262 </i>
   <i name="e_wo_entrp">   -220.68151984 </i>
   <i name="e_0_energy">     -0.35072557 </i>
  </energy>
  <time name="totalsc">  308.49  310.27</time>
 </calculation>
 <calculation>
  <scstep>
   <time name="dav">    8.72    8.74</time>
   <time name="total">    9.03    9.05</time>
   <dipole>
    <v name="dipole">      0.00000000       0.00000000       1.36991314 </v>
    <i name="Tr[quadrupol]"> -11191.00040841 </i>
    <i name="Echarged">      0.00000000 </i>
    <i name="Edipol_quadrupol">      0.00000000 </i>
    <i name="Eion">      0.00000000 </i>
   </dipole>
   <energy>
    <i name="alphaZ">    886.94957380 </i>
    <i name="ewald"> 254476.42364122 </i>
    <i name="hartreedc">-299467.42932392 </i>
    <i name="XCdc">   -124.04397013 </i>
    <i name="pawpsdc">  52826.25229067 </i>
    <i name="pawaedc"> -50924.89632561 </i>
    <i name="eentropy">     -0.27873586 </i>
    <i name="bandstr">  -3013.91096630 </i>
    <i name="atom">  45117.89144060 </i>
    <i name="e_fr_energy">   -223.04237553 </i>
    <i name="e_wo_entrp">   -222.76363967 </i>
    <i name="e_0_energy">   -222.90300760 </i>
   </energy>
  </scstep>
  <scstep>
   <time name="diag">    1.56    1.56</time>
   <time name="diis">    4.11    4.12</time>
   <time name="orth">    0.42    0.46</time>
   <time name="total">    6.39    6.44</time>
   <dipole>
    <v name="dipole">      0.00000000       0.00000000       0.84756714 </v>
    <i name="Tr[quadrupol]"> -11190.59524699 </i>
    <i name="Echarged">      0.00000000 </i>
    <i name="Edipol_quadrupol">      0.00000000 </i>
    <i name="Eion">      0.00000000 </i>
   </dipole>
   <energy>
    <i name="e_fr_energy">   -230.22192702 </i>
    <i name="e_wo_entrp">   -229.85654624 </i>
    <i name="e_0_energy">   -230.03923663 </i>
   </energy>
  </scstep>
  <scstep>
   <time name="diag">    1.54    1.59</time>
   <time name="diis">    4.13    4.14</time>
   <time name="orth">    0.43    0.43</time>
   <time name="total">    6.40    6.48</time>
   <dipole>
    <v name="dipole">      0.00000000       0.00000000       1.30790330 </v>
    <i name="Tr[quadrupol]"> -11190.90539720 </i>
    <i name="Echarged">      0.00000000 </i>
    <i name="Edipol_quadrupol">      0.00000000 </i>
    <i name="Eion">      0.00000000 </i>
   </dipole>
   <energy>
    <i name="e_fr_energy">   -225.41307901 </i>
    <i name="e_wo_entrp">   -225.12653714 </i>
    <i name="e_0_energy">   -225.26980807 </i>
   </energy>
  </scstep>
  <scstep>
   <time name="diag">    1.55    1.55</time>
   <time name="diis">    4.10    4.11</time>
   <time name="orth">    0.43    0.43</time>
   <time name="total">    6.38    6.40</time>
   <dipole>
    <v name="dipole">      0.00000000       0.00000000       1.05914100 </v>
    <i name="Tr[quadrupol]"> -11191.06350133 </i>
    <i name="Echarged">      0.00000000 </i>
    <i name="Edipol_quadrupol">      0.00000000 </i>
    <i name="Eion">      0.00000000 </i>
   </dipole>
   <energy>
    <i name="e_fr_energy">   -225.92280324 </i>
    <i name="e_wo_entrp">   -225.52661495 </i>
    <i name="e_0_energy">   -225.72470909 </i>
   </energy>
  </scstep>
  <scstep>
   <time name="diag">    1.55    1.55</time>
   <time name="diis">    4.12    4.13</time>
   <time name="orth">    0.43    0.43</time>
   <time name="total">    6.41    6.43</time>
   <dipole>
    <v name="dipole">      0.00000000       0.00000000       1.04049081 </v>
    <i name="Tr[quadrupol]"> -11191.30940384 </i>
    <i name="Echarged">      0.00000000 </i>
    <i name="Edipol_quadrupol">      0.00000000 </i>
    <i name="Eion">      0.00000000 </i>
   </dipole>
   <energy>
    <i name="e_fr_energy">   -225.77718438 </i>
    <i name="e_wo_entrp">   -225.39669833 </i>
    <i name="e_0_energy">   -225.58694136 </i>
   </energy>
  </scstep>
  <scstep>
   <time name="diag">    1.52    1.60</time>
   <time name="diis">    4.06    4.07</time>
   <time name="orth">    0.43    0.43</time>
   <time name="total">    6.32    6.40</time>
   <dipole>
    <v name="dipole">      0.00000000       0.00000000       1.05187681 </v>
    <i name="Tr[quadrupol]"> -11191.40621675 </i>
    <i name="Echarged">      0.00000000 </i>
    <i name="Edipol_quadrupol">      0.00000000 </i>
    <i name="Eion">      0.00000000 </i>
   </dipole>
   <energy>
    <i name="e_fr_energy">   -225.38117669 </i>
    <i name="e_wo_entrp">   -225.01450372 </i>
    <i name="e_0_energy">   -225.19784021 </i>
   </energy>
  </scstep>
  <scstep>
   <time name="diag">    1.55    1.55</time>
   <time name="diis">    4.08    4.09</time>
   <time name="orth">    0.43    0.43</time>
   <time name="total">    6.37    6.39</time>
   <dipole>
    <v name="dipole">      0.00000000       0.00000000       1.10956200 </v>
    <i name="Tr[quadrupol]"> -11191.53879444 </i>
    <i name="Echarged">      0.00000000 </i>
    <i name="Edipol_quadrupol">      0.00000000 </i>
    <i name="Eion">      0.00000000 </i>
   </dipole>
   <energy>
    <i name="e_fr_energy">   -225.10534030 </i>
    <i name="e_wo_entrp">   -224.72965307 </i>
    <i name="e_0_energy">   -224.91749668 </i>
   </energy>
  </scstep>
  <scstep>
   <time name="diag">    1.55    1.56</time>
   <time name="diis">    4.08    4.09</time>
   <time name="orth">    0.43    0.43</time>
   <time name="total">    6.37    6.39</time>
   <dipole>
    <v name="dipole">      0.00000000       0.00000000       1.13361557 </v>
    <i name="Tr[quadrupol]"> -11191.63678539 </i>
    <i name="Echarged">      0.00000000 </i>
    <i name="Edipol_quadrupol">      0.00000000 </i>
    <i name="Eion">      0.00000000 </i>
   </dipole>
   <energy>
    <i name="e_fr_energy">   -224.98838147 </i>
    <i name="e_wo_entrp">   -224.66896807 </i>
    <i name="e_0_energy">   -224.82867477 </i>
   </energy>
  </scstep>
  <scstep>
   <time name="diag">    1.55    1.55</time>
   <time name="diis">    4.13    4.14</time>
   <time name="orth">    0.42    0.43</time>
   <time name="total">    6.41    6.43</time>
   <dipole>
    <v name="dipole">      0.00000000       0.00000000       1.13475086 </v>
    <i name="Tr[quadrupol]"> -11191.72586037 </i>
    <i name="Echarged">      0.00000000 </i>
    <i name="Edipol_quadrupol">      0.00000000 </i>
    <i name="Eion">      0.00000000 </i>
   </dipole>
   <energy>
    <i name="e_fr_energy">   -224.87466970 </i>
    <i name="e_wo_entrp">   -224.54393341 </i>
    <i name="e_0_energy">   -224.70930155 </i>
   </energy>
  </scstep>
  <scstep>
   <time name="diag">    1.55    1.55</time>
   <time name="diis">    4.16    4.17</time>
   <time name="orth">    0.43    0.43</time>
   <time name="total">    6.44    6.46</time>
   <dipole>
    <v name="dipole">      0.00000000       0.00000000       1.14017449 </v>
    <i name="Tr[quadrupol]"> -11191.77800890 </i>
    <i name="Echarged">      0.00000000 </i>
    <i name="Edipol_quadrupol">      0.00000000 </i>
    <i name="Eion">      0.00000000 </i>
   </dipole>
   <energy>
    <i name="e_fr_energy">   -224.86789654 </i>
    <i name="e_wo_entrp">   -224.54070965 </i>
    <i name="e_0_energy">   -224.70430310 </i>
   </energy>
  </scstep>
  <scstep>
   <time name="diag">    1.55    1.55</time>
   <time name="diis">    4.15    4.16</time>
   <time name="orth">    0.43    0.43</time>
   <time name="total">    6.43    6.45</time>
   <dipole>
    <v name="dipole">      0.00000000       0.00000000       1.15031254 </v>
    <i name="Tr[quadrupol]"> -11191.81438059 </i>
    <i name="Echarged">      0.00000000 </i>
    <i name="Edipol_quadrupol">      0.00000000 </i>
    <i name="Eion">      0.00000000 </i>
   </dipole>
   <energy>
    <i name="e_fr_energy">   -224.86240910 </i>
    <i name="e_wo_entrp">   -224.53654055 </i>
    <i name="e_0_energy">   -224.69947483 </i>
   </energy>
  </scstep>
  <scstep>
   <time name="diag">    1.55    1.55</time>
   <time name="diis">    3.98    4.06</time>
   <time name="orth">    0.43    0.43</time>
   <time name="total">    6.26    6.36</time>
   <dipole>
    <v name="dipole">      0.00000000       0.00000000       1.15267709 </v>
    <i name="Tr[quadrupol]"> -11191.81590854 </i>
    <i name="Echarged">      0.00000000 </i>
    <i name="Edipol_quadrupol">      0.00000000 </i>
    <i name="Eion">      0.00000000 </i>
   </dipole>
   <energy>
    <i name="e_fr_energy">   -224.85861635 </i>
    <i name="e_wo_entrp">   -224.53445950 </i>
    <i name="e_0_energy">   -224.69653793 </i>
   </energy>
  </scstep>
  <scstep>
   <time name="diag">    1.55    1.55</time>
   <time name="diis">    4.07    4.10</time>
   <time name="orth">    0.42    0.43</time>
   <time name="total">    6.35    6.39</time>
   <dipole>
    <v name="dipole">      0.00000000       0.00000000       1.14926531 </v>
    <i name="Tr[quadrupol]"> -11191.81155799 </i>
    <i name="Echarged">      0.00000000 </i>
    <i name="Edipol_quadrupol">      0.00000000 </i>
    <i name="Eion">      0.00000000 </i>
   </dipole>
   <energy>
    <i name="e_fr_energy">   -224.85819170 </i>
    <i name="e_wo_entrp">   -224.53376470 </i>
    <i name="e_0_energy">   -224.69597820 </i>
   </energy>
  </scstep>
  <scstep>
   <time name="diag">    1.55    1.55</time>
   <time name="diis">    4.11    4.12</time>
   <time name="orth">    0.43    0.43</time>
   <time name="total">    6.39    6.41</time>
   <dipole>
    <v name="dipole">      0.00000000       0.00000000       1.14961346 </v>
    <i name="Tr[quadrupol]"> -11191.83484588 </i>
    <i name="Echarged">      0.00000000 </i>
    <i name="Edipol_quadrupol">      0.00000000 </i>
    <i name="Eion">      0.00000000 </i>
   </dipole>
   <energy>
    <i name="e_fr_energy">   -224.85690666 </i>
    <i name="e_wo_entrp">   -224.53269925 </i>
    <i name="e_0_energy">   -224.69480296 </i>
   </energy>
  </scstep>
  <scstep>
   <time name="diag">    1.55    1.55</time>
   <time name="diis">    4.13    4.14</time>
   <time name="orth">    0.42    0.43</time>
   <time name="total">    6.41    6.43</time>
   <dipole>
    <v name="dipole">      0.00000000       0.00000000       1.15134116 </v>
    <i name="Tr[quadrupol]"> -11191.84426258 </i>
    <i name="Echarged">      0.00000000 </i>
    <i name="Edipol_quadrupol">      0.00000000 </i>
    <i name="Eion">      0.00000000 </i>
   </dipole>
   <energy>
    <i name="e_fr_energy">   -224.85617325 </i>
    <i name="e_wo_entrp">   -224.53214027 </i>
    <i name="e_0_energy">   -224.69415676 </i>
   </energy>
  </scstep>
  <scstep>
   <time name="diag">    1.55    1.55</time>
   <time name="diis">    4.12    4.14</time>
   <time name="orth">    0.43    0.43</time>
   <time name="total">    6.41    6.43</time>
   <dipole>
    <v name="dipole">      0.00000000       0.00000000       1.15096739 </v>
    <i name="Tr[quadrupol]"> -11191.85362358 </i>
    <i name="Echarged">      0.00000000 </i>
    <i name="Edipol_quadrupol">      0.00000000 </i>
    <i name="Eion">      0.00000000 </i>
   </dipole>
   <energy>
    <i name="e_fr_energy">   -224.85599468 </i>
    <i name="e_wo_entrp">   -224.53310820 </i>
    <i name="e_0_energy">   -224.69455144 </i>
   </energy>
  </scstep>
  <scstep>
   <time name="diag">    1.55    1.55</time>
   <time name="diis">    4.11    4.12</time>
   <time name="orth">    0.42    0.43</time>
   <time name="total">    6.39    6.41</time>
   <dipole>
    <v name="dipole">      0.00000000       0.00000000       1.15075640 </v>
    <i name="Tr[quadrupol]"> -11191.86647168 </i>
    <i name="Echarged">      0.00000000 </i>
    <i name="Edipol_quadrupol">      0.00000000 </i>
    <i name="Eion">      0.00000000 </i>
   </dipole>
   <energy>
    <i name="e_fr_energy">   -224.85597500 </i>
    <i name="e_wo_entrp">   -224.53303131 </i>
    <i name="e_0_energy">   -224.69450315 </i>
   </energy>
  </scstep>
  <scstep>
   <time name="diag">    1.54    1.54</time>
   <time name="diis">    3.96    4.05</time>
   <time name="orth">    0.42    0.42</time>
   <time name="total">    6.23    6.34</time>
   <dipole>
    <v name="dipole">      0.00000000       0.00000000       1.14919719 </v>
    <i name="Tr[quadrupol]"> -11191.87849049 </i>
    <i name="Echarged">      0.00000000 </i>
    <i name="Edipol_quadrupol">      0.00000000 </i>
    <i name="Eion">      0.00000000 </i>
   </dipole>
   <energy>
    <i name="e_fr_energy">   -224.85609426 </i>
    <i name="e_wo_entrp">   -224.53319230 </i>
    <i name="e_0_energy">   -224.69464328 </i>
   </energy>
  </scstep>
  <scstep>
   <time name="diag">    1.55    1.55</time>
   <time name="diis">    4.08    4.09</time>
   <time name="orth">    0.42    0.43</time>
   <time name="total">    6.37    6.39</time>
   <dipole>
    <v name="dipole">      0.00000000       0.00000000       1.14838074 </v>
    <i name="Tr[quadrupol]"> -11191.89000783 </i>
    <i name="Echarged">      0.00000000 </i>
    <i name="Edipol_quadrupol">      0.00000000 </i>
    <i name="Eion">      0.00000000 </i>
   </dipole>
   <energy>
    <i name="e_fr_energy">   -224.85616600 </i>
    <i name="e_wo_entrp">   -224.53370170 </i>
    <i name="e_0_energy">   -224.69493385 </i>
   </energy>
  </scstep>
  <scstep>
   <time name="diag">    1.55    1.56</time>
   <time name="diis">    3.92    3.93</time>
   <time name="orth">    0.42    0.43</time>
   <time name="total">    6.21    6.23</time>
   <dipole>
    <v name="dipole">      0.00000000       0.00000000       1.14789329 </v>
    <i name="Tr[quadrupol]"> -11191.89982075 </i>
    <i name="Echarged">      0.00000000 </i>
    <i name="Edipol_quadrupol">      0.00000000 </i>
    <i name="Eion">      0.00000000 </i>
   </dipole>
   <energy>
    <i name="e_fr_energy">   -224.85624191 </i>
    <i name="e_wo_entrp">   -224.53384584 </i>
    <i name="e_0_energy">   -224.69504388 </i>
   </energy>
  </scstep>
  <scstep>
   <time name="diag">    1.55    1.56</time>
   <time name="diis">    3.40    3.41</time>
   <time name="orth">    0.42    0.43</time>
   <time name="total">    5.68    5.71</time>
   <dipole>
    <v name="dipole">      0.00000000       0.00000000       1.14741981 </v>
    <i name="Tr[quadrupol]"> -11191.90469991 </i>
    <i name="Echarged">      0.00000000 </i>
    <i name="Edipol_quadrupol">      0.00000000 </i>
    <i name="Eion">      0.00000000 </i>
   </dipole>
[...]
       <r>   -19.0773     2.6663    14.0872 </r>
       <r>   -18.9845     6.7881    14.7172 </r>
       <r>   -18.8917    10.1383    15.6580 </r>
       <r>   -18.7989     3.4305    15.9763 </r>
       <r>   -18.7061     0.2512    15.9996 </r>
       <r>   -18.6133     0.0038    16.0000 </r>
       <r>   -18.5205     0.0000    16.0000 </r>
       <r>   -18.4277     0.0000    16.0000 </r>
       <r>   -18.3349     0.0000    16.0000 </r>
       <r>   -18.2421     0.0000    16.0000 </r>
       <r>   -18.1493     0.0000    16.0000 </r>
       <r>   -18.0566     0.0000    16.0000 </r>
       <r>   -17.9638     0.0000    16.0000 </r>
       <r>   -17.8710     0.0000    16.0000 </r>
       <r>   -17.7782     0.0000    16.0000 </r>
       <r>   -17.6854     0.0000    16.0000 </r>
       <r>   -17.5926     0.0000    16.0000 </r>
       <r>   -17.4998     0.0000    16.0000 </r>
       <r>   -17.4070     0.0000    16.0000 </r>
       <r>   -17.3142     0.0000    16.0000 </r>
       <r>   -17.2214     0.0000    16.0000 </r>
       <r>   -17.1286     0.0000    16.0000 </r>
       <r>   -17.0358     0.0000    16.0000 </r>
       <r>   -16.9430     0.0000    16.0000 </r>
       <r>   -16.8502     0.0000    16.0000 </r>
       <r>   -16.7574     0.0000    16.0000 </r>
       <r>   -16.6646     0.0000    16.0000 </r>
       <r>   -16.5718     0.0000    16.0000 </r>
       <r>   -16.4790     0.0000    16.0000 </r>
       <r>   -16.3862     0.0000    16.0000 </r>
       <r>   -16.2934     0.0000    16.0000 </r>
       <r>   -16.2006     0.0000    16.0000 </r>
       <r>   -16.1078     0.0000    16.0000 </r>
       <r>   -16.0150     0.0000    16.0000 </r>
       <r>   -15.9222     0.0000    16.0000 </r>
       <r>   -15.8294     0.0000    16.0000 </r>
       <r>   -15.7366     0.0000    16.0000 </r>
       <r>   -15.6438     0.0000    16.0000 </r>
       <r>   -15.5510     0.0000    16.0000 </r>
       <r>   -15.4582     0.0000    16.0000 </r>
       <r>   -15.3654     0.0000    16.0000 </r>
       <r>   -15.2726     0.0000    16.0000 </r>
       <r>   -15.1798     0.0000    16.0000 </r>
       <r>   -15.0870     0.0000    16.0000 </r>
       <r>   -14.9942     0.0000    16.0000 </r>
       <r>   -14.9014     0.0000    16.0000 </r>
       <r>   -14.8086     0.0000    16.0000 </r>
       <r>   -14.7158     0.0000    16.0000 </r>
       <r>   -14.6230     0.0000    16.0000 </r>
       <r>   -14.5302     0.0000    16.0000 </r>
       <r>   -14.4374     0.0000    16.0000 </r>
       <r>   -14.3446     0.0000    16.0000 </r>
       <r>   -14.2518     0.0000    16.0000 </r>
       <r>   -14.1590     0.0000    16.0000 </r>
       <r>   -14.0662     0.0000    16.0000 </r>
       <r>   -13.9734     0.0000    16.0000 </r>
       <r>   -13.8806     0.0000    16.0000 </r>
       <r>   -13.7878     0.0000    16.0000 </r>
       <r>   -13.6950     0.0000    16.0000 </r>
       <r>   -13.6022     0.0000    16.0000 </r>
       <r>   -13.5094     0.0000    16.0000 </r>
       <r>   -13.4166     0.0000    16.0000 </r>
       <r>   -13.3238     0.0000    16.0000 </r>
       <r>   -13.2310     0.0000    16.0000 </r>
       <r>   -13.1382     0.0000    16.0000 </r>
       <r>   -13.0454     0.0000    16.0000 </r>
       <r>   -12.9526     0.0000    16.0000 </r>
       <r>   -12.8598     0.0000    16.0000 </r>
       <r>   -12.7670     0.0000    16.0000 </r>
       <r>   -12.6742     0.0000    16.0000 </r>
       <r>   -12.5814     0.0000    16.0000 </r>
       <r>   -12.4886     0.0000    16.0000 </r>
       <r>   -12.3958     0.0000    16.0000 </r>
       <r>   -12.3030     0.0000    16.0000 </r>
       <r>   -12.2102     0.0000    16.0000 </r>
       <r>   -12.1174     0.0000    16.0000 </r>
       <r>   -12.0246     0.0000    16.0000 </r>
       <r>   -11.9318     0.0000    16.0000 </r>
       <r>   -11.8390     0.0000    16.0000 </r>
       <r>   -11.7462     0.0000    16.0000 </r>
       <r>   -11.6534     0.0000    16.0000 </r>
       <r>   -11.5606     0.0000    16.0000 </r>
       <r>   -11.4678     0.0000    16.0000 </r>
       <r>   -11.3750     0.0000    16.0000 </r>
       <r>   -11.2822     0.0000    16.0000 </r>
       <r>   -11.1895     0.0000    16.0000 </r>
       <r>   -11.0967     0.0000    16.0000 </r>
       <r>   -11.0039     0.0000    16.0000 </r>
       <r>   -10.9111     0.0000    16.0000 </r>
       <r>   -10.8183     0.0000    16.0000 </r>
       <r>   -10.7255     0.0000    16.0000 </r>
       <r>   -10.6327     0.0000    16.0000 </r>
       <r>   -10.5399     0.0000    16.0000 </r>
       <r>   -10.4471     0.0000    16.0000 </r>
       <r>   -10.3543     0.0000    16.0000 </r>
       <r>   -10.2615     0.0000    16.0000 </r>
       <r>   -10.1687     0.0000    16.0000 </r>
       <r>   -10.0759     0.0000    16.0000 </r>
       <r>    -9.9831     0.0000    16.0000 </r>
       <r>    -9.8903     0.0000    16.0000 </r>
       <r>    -9.7975     0.0000    16.0000 </r>
       <r>    -9.7047     0.0000    16.0000 </r>
       <r>    -9.6119     0.0000    16.0000 </r>
       <r>    -9.5191     0.0000    16.0000 </r>
       <r>    -9.4263     0.0000    16.0000 </r>
       <r>    -9.3335     0.0000    16.0000 </r>
       <r>    -9.2407     0.0000    16.0000 </r>
       <r>    -9.1479     0.0039    16.0004 </r>
       <r>    -9.0551     0.2004    16.0190 </r>
       <r>    -8.9623     2.2005    16.2232 </r>
       <r>    -8.8695     6.1017    16.7894 </r>
       <r>    -8.7767     6.9425    17.4336 </r>
       <r>    -8.6839     4.8150    17.8805 </r>
       <r>    -8.5911     1.9477    18.0612 </r>
       <r>    -8.4983     5.7714    18.5968 </r>
       <r>    -8.4055    10.4167    19.5635 </r>
       <r>    -8.3127     6.0941    20.1290 </r>
       <r>    -8.2199     8.4601    20.9141 </r>
       <r>    -8.1271    17.2806    22.5177 </r>
       <r>    -8.0343    19.1371    24.2936 </r>
       <r>    -7.9415    19.2588    26.0808 </r>
       <r>    -7.8487    22.0166    28.1239 </r>
       <r>    -7.7559    24.2462    30.3739 </r>
       <r>    -7.6631    25.6483    32.7540 </r>
       <r>    -7.5703    26.9966    35.2593 </r>
       <r>    -7.4775    31.7367    38.2044 </r>
       <r>    -7.3847    37.1497    41.6518 </r>
       <r>    -7.2919    41.3470    45.4888 </r>
       <r>    -7.1991    41.5259    49.3423 </r>
       <r>    -7.1063    42.6750    53.3025 </r>
       <r>    -7.0135    55.5461    58.4571 </r>
       <r>    -6.9207    69.3583    64.8935 </r>
       <r>    -6.8279    70.3888    71.4255 </r>
       <r>    -6.7351    72.6000    78.1627 </r>
       <r>    -6.6423    79.9563    85.5825 </r>
       <r>    -6.5495    83.1027    93.2943 </r>
       <r>    -6.4567    81.6222   100.8687 </r>
       <r>    -6.3639    81.2278   108.4066 </r>
       <r>    -6.2711    79.4613   115.7805 </r>
       <r>    -6.1783    78.2449   123.0415 </r>
       <r>    -6.0855    78.0188   130.2815 </r>
       <r>    -5.9927    79.6438   137.6724 </r>
       <r>    -5.8999    84.4314   145.5075 </r>
       <r>    -5.8071    87.3570   153.6141 </r>
       <r>    -5.7143    89.1649   161.8885 </r>
       <r>    -5.6215    90.3904   170.2766 </r>
       <r>    -5.5287    89.9469   178.6236 </r>
       <r>    -5.4359    88.3122   186.8188 </r>
       <r>    -5.3431    85.0591   194.7122 </r>
       <r>    -5.2503    85.1326   202.6124 </r>
       <r>    -5.1575    85.9996   210.5930 </r>
       <r>    -5.0647    86.2658   218.5984 </r>
       <r>    -4.9719    89.2998   226.8853 </r>
       <r>    -4.8791    91.6502   235.3903 </r>
       <r>    -4.7863    92.3907   243.9640 </r>
       <r>    -4.6935    93.0558   252.5995 </r>
       <r>    -4.6007    92.2322   261.1585 </r>
       <r>    -4.5079    90.6028   269.5663 </r>
       <r>    -4.4151    89.4760   277.8696 </r>
       <r>    -4.3223    88.3506   286.0684 </r>
       <r>    -4.2296    89.8131   294.4029 </r>
       <r>    -4.1368    91.4506   302.8894 </r>
       <r>    -4.0440    89.0513   311.1533 </r>
       <r>    -3.9512    90.0812   319.5127 </r>
       <r>    -3.8584    94.8377   328.3135 </r>
       <r>    -3.7656   100.7375   337.6618 </r>
       <r>    -3.6728    99.5890   346.9035 </r>
       <r>    -3.5800    95.7085   355.7852 </r>
       <r>    -3.4872    96.8781   364.7753 </r>
       <r>    -3.3944    97.0585   373.7822 </r>
       <r>    -3.3016    94.7362   382.5736 </r>
       <r>    -3.2088    95.0646   391.3955 </r>
       <r>    -3.1160    98.6476   400.5498 </r>
       <r>    -3.0232   100.6075   409.8861 </r>
       <r>    -2.9304    97.1695   418.9033 </r>
       <r>    -2.8376    91.3923   427.3843 </r>
       <r>    -2.7448    92.2367   435.9438 </r>
       <r>    -2.6520    95.1948   444.7777 </r>
       <r>    -2.5592    95.4682   453.6371 </r>
       <r>    -2.4664    94.3361   462.3913 </r>
       <r>    -2.3736    92.5508   470.9799 </r>
       <r>    -2.2808    95.9171   479.8809 </r>
       <r>    -2.1880    99.8785   489.1495 </r>
       <r>    -2.0952    99.2097   498.3560 </r>
       <r>    -2.0024    89.8393   506.6930 </r>
       <r>    -1.9096    86.7918   514.7471 </r>
       <r>    -1.8168    86.9413   522.8152 </r>
       <r>    -1.7240    83.1858   530.5347 </r>
       <r>    -1.6312    75.1809   537.5114 </r>
       <r>    -1.5384    63.6357   543.4167 </r>
       <r>    -1.4456    51.6277   548.2077 </r>
       <r>    -1.3528    40.5808   551.9735 </r>
       <r>    -1.2600    33.4495   555.0776 </r>
       <r>    -1.1672    34.0329   558.2358 </r>
       <r>    -1.0744    32.7086   561.2711 </r>
       <r>    -0.9816    28.6618   563.9309 </r>
       <r>    -0.8888    27.4547   566.4786 </r>
       <r>    -0.7960    24.7111   568.7718 </r>
       <r>    -0.7032    25.5926   571.1467 </r>
       <r>    -0.6104    27.2729   573.6776 </r>
       <r>    -0.5176    25.3913   576.0339 </r>
       <r>    -0.4248    23.8997   578.2518 </r>
       <r>    -0.3320    22.3827   580.3289 </r>
       <r>    -0.2392    19.0152   582.0934 </r>
       <r>    -0.1464    13.9744   583.3903 </r>
       <r>    -0.0536     9.2665   584.2502 </r>
       <r>     0.0392     8.5809   585.0465 </r>
       <r>     0.1320     9.6519   585.9422 </r>
       <r>     0.2248     9.0031   586.7776 </r>
       <r>     0.3176    11.5434   587.8488 </r>
       <r>     0.4104    15.3762   589.2757 </r>
       <r>     0.5032    17.6795   590.9164 </r>
       <r>     0.5960    20.3509   592.8049 </r>
       <r>     0.6888    19.6309   594.6266 </r>
       <r>     0.7816    18.3603   596.3304 </r>
       <r>     0.8744    18.0590   598.0063 </r>
       <r>     0.9672    17.7716   599.6555 </r>
       <r>     1.0600    14.9962   601.0471 </r>
       <r>     1.1528    10.8453   602.0535 </r>
       <r>     1.2456     9.8561   602.9682 </r>
       <r>     1.3384     9.5469   603.8541 </r>
       <r>     1.4312    11.2205   604.8954 </r>
       <r>     1.5240    12.4042   606.0465 </r>
       <r>     1.6168    12.9481   607.2480 </r>
       <r>     1.7096    17.5763   608.8791 </r>
       <r>     1.8024    19.1719   610.6582 </r>
       <r>     1.8952    16.3336   612.1739 </r>
       <r>     1.9880    17.9632   613.8409 </r>
       <r>     2.0808    18.4097   615.5493 </r>
       <r>     2.1736    15.2576   616.9652 </r>
       <r>     2.2664    16.2999   618.4778 </r>
       <r>     2.3592    15.3208   619.8995 </r>
       <r>     2.4520    12.6111   621.0698 </r>
       <r>     2.5448    10.8520   622.0769 </r>
       <r>     2.6375    12.4188   623.2293 </r>
       <r>     2.7303    13.4391   624.4764 </r>
       <r>     2.8231    11.4186   625.5361 </r>
       <r>     2.9159    12.7148   626.7160 </r>
       <r>     3.0087    15.3143   628.1371 </r>
       <r>     3.1015    15.7251   629.5964 </r>
       <r>     3.1943    16.9432   631.1687 </r>
       <r>     3.2871    17.4220   632.7854 </r>
       <r>     3.3799    18.6471   634.5159 </r>
       <r>     3.4727    19.1180   636.2900 </r>
       <r>     3.5655    17.8404   637.9456 </r>
       <r>     3.6583    18.4348   639.6563 </r>
       <r>     3.7511    18.6138   641.3836 </r>
       <r>     3.8439    18.4367   643.0945 </r>
       <r>     3.9367    17.6741   644.7347 </r>
       <r>     4.0295    15.5299   646.1758 </r>
       <r>     4.1223    15.5022   647.6144 </r>
       <r>     4.2151    16.2298   649.1205 </r>
       <r>     4.3079    17.2332   650.7197 </r>
       <r>     4.4007    18.6873   652.4539 </r>
       <r>     4.4935    19.9358   654.3039 </r>
       <r>     4.5863    24.2629   656.5555 </r>
       <r>     4.6791    27.1822   659.0779 </r>
       <r>     4.7719    28.2165   661.6964 </r>
       <r>     4.8647    28.0182   664.2964 </r>
       <r>     4.9575    27.1810   666.8188 </r>
       <r>     5.0503    26.0246   669.2338 </r>
       <r>     5.1431    19.7180   671.0636 </r>
       <r>     5.2359     8.4989   671.8523 </r>
       <r>     5.3287     1.5074   671.9922 </r>
       <r>     5.4215     0.0829   671.9999 </r>
       <r>     5.5143     0.0012   672.0000 </r>
       <r>     5.6071     0.0000   672.0000 </r>
       <r>     5.6999     0.0000   672.0000 </r>
       <r>     5.7927     0.0000   672.0000 </r>
       <r>     5.8855     0.0000   672.0000 </r>
       <r>     5.9783     0.0000   672.0000 </r>
       <r>     6.0711     0.0000   672.0000 </r>
       <r>     6.1639     0.0000   672.0000 </r>
       <r>     6.2567     0.0000   672.0000 </r>
       <r>     6.3495     0.0000   672.0000 </r>
       <r>     6.4423     0.0000   672.0000 </r>
      </set>
     </set>
    </array>
   </total>
  </dos>
 </calculation>
 <structure name="finalpos" >
  <crystal>
   <varray name="basis" >
    <v>      11.00258152       0.00000000       0.00000000 </v>
    <v>       5.50129076       9.52851510       0.00000000 </v>
    <v>       0.00000000       0.00000000      26.19178509 </v>
   </varray>
   <i name="volume">   2745.90128299 </i>
   <varray name="rec_basis" >
    <v>       0.09088776      -0.05247407       0.00000000 </v>
    <v>       0.00000000       0.10494815       0.00000000 </v>
    <v>       0.00000000       0.00000000       0.03817991 </v>
   </varray>
  </crystal>
  <varray name="positions" >
   <v>       0.50117534       0.27393369       0.56291448 </v>
   <v>       0.66328938       0.41995782       0.51263314 </v>
   <v>       0.39817714       0.67908937       0.52108668 </v>
   <v>       0.00338449       0.00265576       0.55365215 </v>
   <v>       0.08333333       0.33333333       0.38179910 </v>
   <v>       0.90283580       0.42218752       0.47608582 </v>
   <v>       0.48986823       0.49235512       0.62370814 </v>
   <v>       0.41723866       0.90989224       0.47798437 </v>
   <v>       0.73789301       0.74120584       0.55868109 </v>
   <v>       0.83333333       0.58333333       0.38179910 </v>
   <v>       0.48748774       0.73220430       0.62070541 </v>
   <v>       0.83333333       0.08333333       0.38179910 </v>
   <v>       0.72935122       0.26221508       0.61120796 </v>
   <v>      -0.00247833       0.74643116       0.56095013 </v>
   <v>       0.33333333       0.83333333       0.38179910 </v>
   <v>       0.33333333       0.08333333       0.38179910 </v>
   <v>       0.16338491       0.16605662       0.47783733 </v>
   <v>       0.58333333       0.58333333       0.38179910 </v>
   <v>       0.33333333       0.33333333       0.38179910 </v>
   <v>       0.16731885       0.42245893       0.47653180 </v>
   <v>       0.25215129       0.25421188       0.56862295 </v>
   <v>       0.66334941       0.17307046       0.47147857 </v>
   <v>       0.33333333       0.58333333       0.38179910 </v>
   <v>       0.16871855       0.67274883       0.47194073 </v>
   <v>       0.89221127       0.30280800       0.62829083 </v>
   <v>       0.85103484       0.04842460       0.61087576 </v>
   <v>       0.86097082       0.57857913       0.61830955 </v>
   <v>       0.03271674       0.79250998       0.63205040 </v>
   <v>       0.19805848       0.94546280       0.63491616 </v>
   <v>       0.57556295       0.85340692       0.61868059 </v>
   <v>       0.57944735       0.08632475       0.60544787 </v>
   <v>       0.28047603       0.55934350       0.63534819 </v>
   <v>       0.48318176       0.00435549       0.56521676 </v>
   <v>       0.41645459       0.16888882       0.47679970 </v>
   <v>       0.58333333       0.08333333       0.38179910 </v>
   <v>       0.22345747       0.76024681       0.63171685 </v>
   <v>       0.16669393       0.91730733       0.47169328 </v>
   <v>       0.25985771      -0.03142783       0.56783980 </v>
   <v>       0.91176262       0.91782743       0.46972930 </v>
   <v>       0.08333333       0.83333333       0.38179910 </v>
   <v>       0.00127806       0.49278260       0.56439835 </v>
   <v>       0.91031117       0.66984896       0.47398255 </v>
   <v>       0.08333333       0.58333333       0.38179910 </v>
   <v>       0.00753891       0.24647451       0.56541518 </v>
   <v>       0.90721168       0.17666239       0.47055573 </v>
   <v>       0.42468932       0.43092761       0.47474588 </v>
   <v>       0.08333333       0.08333333       0.38179910 </v>
   <v>       0.75149058      -0.00782401       0.56050026 </v>
   <v>       0.66124896       0.91658706       0.47260057 </v>
   <v>       0.83333333       0.83333333       0.38179910 </v>
   <v>       0.58333333       0.83333333       0.38179910 </v>
   <v>       0.73476544       0.49919035       0.61596003 </v>
   <v>       0.65146645       0.66078557       0.47264316 </v>
   <v>       0.83333333       0.33333333       0.38179910 </v>
   <v>       0.58333333       0.33333333       0.38179910 </v>
   <v>       0.24854889       0.51440494       0.56362605 </v>
  </varray>
  <varray name="selective"  type="logical" >
   <v type="logical" >  T  T  T </v>
   <v type="logical" >  T  T  T </v>
   <v type="logical" >  T  T  T </v>
   <v type="logical" >  T  T  T </v>
   <v type="logical" >  F  F  F </v>
   <v type="logical" >  T  T  T </v>
   <v type="logical" >  T  T  T </v>
   <v type="logical" >  T  T  T </v>
   <v type="logical" >  T  T  T </v>
   <v type="logical" >  F  F  F </v>
   <v type="logical" >  T  T  T </v>
   <v type="logical" >  F  F  F </v>
   <v type="logical" >  T  T  T </v>
   <v type="logical" >  T  T  T </v>
   <v type="logical" >  F  F  F </v>
   <v type="logical" >  F  F  F </v>
   <v type="logical" >  T  T  T </v>
   <v type="logical" >  F  F  F </v>
   <v type="logical" >  F  F  F </v>
   <v type="logical" >  T  T  T </v>
   <v type="logical" >  T  T  T </v>
   <v type="logical" >  T  T  T </v>
   <v type="logical" >  F  F  F </v>
   <v type="logical" >  T  T  T </v>
   <v type="logical" >  T  T  T </v>
   <v type="logical" >  T  T  T </v>
   <v type="logical" >  T  T  T </v>
   <v type="logical" >  T  T  T </v>
   <v type="logical" >  T  T  T </v>
   <v type="logical" >  T  T  T </v>
   <v type="logical" >  T  T  T </v>
   <v type="logical" >  T  T  T </v>
   <v type="logical" >  T  T  T </v>
   <v type="logical" >  T  T  T </v>
   <v type="logical" >  F  F  F </v>
   <v type="logical" >  T  T  T </v>
   <v type="logical" >  T  T  T </v>
   <v type="logical" >  T  T  T </v>
   <v type="logical" >  T  T  T </v>
   <v type="logical" >  F  F  F </v>
   <v type="logical" >  T  T  T </v>
   <v type="logical" >  T  T  T </v>
   <v type="logical" >  F  F  F </v>
   <v type="logical" >  T  T  T </v>
   <v type="logical" >  T  T  T </v>
   <v type="logical" >  T  T  T </v>
   <v type="logical" >  F  F  F </v>
   <v type="logical" >  T  T  T </v>
   <v type="logical" >  T  T  T </v>
   <v type="logical" >  F  F  F </v>
   <v type="logical" >  F  F  F </v>
   <v type="logical" >  T  T  T </v>
   <v type="logical" >  T  T  T </v>
   <v type="logical" >  F  F  F </v>
   <v type="logical" >  F  F  F </v>
   <v type="logical" >  T  T  T </v>
  </varray>
  <nose>
   <v>      -3.00000000       0.00000000       0.00010000       0.00010000 </v>
  </nose>
 </structure>
</modeling>
