unknown system                          
           1
    11.002582    0.000000    0.000000
     5.501291    9.528515    0.000000
     0.000000    0.000000   26.191785
   Au   O    Pd
  24   8  24
Direct configuration=     1
   0.50000000  0.25000000  0.55329505
   0.66666667  0.41666667  0.46754708
   0.41666667  0.66666667  0.46754708
   0.00000000  0.00000000  0.55329505
   0.08333333  0.33333333  0.38179910
   0.91666667  0.41666667  0.46754708
   0.50000000  0.50000000  0.55329505
   0.41666667  0.91666667  0.46754708
   0.75000000  0.75000000  0.55329505
   0.83333333  0.58333333  0.38179910
   0.50000000  0.75000000  0.55329505
   0.83333333  0.08333333  0.38179910
   0.75000000  0.25000000  0.55329505
   0.00000000  0.75000000  0.55329505
   0.33333333  0.83333333  0.38179910
   0.33333333  0.08333333  0.38179910
   0.16666667  0.16666667  0.46754708
   0.58333333  0.58333333  0.38179910
   0.33333333  0.33333333  0.38179910
   0.16666667  0.41666667  0.46754708
   0.25000000  0.25000000  0.55329505
   0.66666667  0.16666667  0.46754708
   0.33333333  0.58333333  0.38179910
   0.16666667  0.66666667  0.46754708
   0.83333333  0.33333333  0.61820090
   0.83333333  0.08333333  0.61820090
   0.83333333  0.58333333  0.61820090
   0.08333333  0.83333333  0.61820090
   0.33333333  0.83333333  0.61820090
   0.58333333  0.83333333  0.61820090
   0.58333333  0.08333333  0.61820090
   0.33333333  0.58333333  0.61820090
   0.50000000  0.00000000  0.55329505
   0.41666667  0.16666667  0.46754708
   0.58333333  0.08333333  0.38179910
   0.25000000  0.75000000  0.55329505
   0.16666667  0.91666667  0.46754708
   0.25000000  0.00000000  0.55329505
   0.91666667  0.91666667  0.46754708
   0.08333333  0.83333333  0.38179910
   0.00000000  0.50000000  0.55329505
   0.91666667  0.66666667  0.46754708
   0.08333333  0.58333333  0.38179910
   0.00000000  0.25000000  0.55329505
   0.91666667  0.16666667  0.46754708
   0.41666667  0.41666667  0.46754708
   0.08333333  0.08333333  0.38179910
   0.75000000  0.00000000  0.55329505
   0.66666667  0.91666667  0.46754708
   0.83333333  0.83333333  0.38179910
   0.58333333  0.83333333  0.38179910
   0.75000000  0.50000000  0.55329505
   0.66666667  0.66666667  0.46754708
   0.83333333  0.33333333  0.38179910
   0.58333333  0.33333333  0.38179910
   0.25000000  0.50000000  0.55329505
Direct configuration=     2
   0.49860326  0.25015606  0.55560935
   0.66742680  0.41601702  0.46781868
   0.41579170  0.66754059  0.46821329
   0.00150475  0.00050902  0.55566755
   0.08333333  0.33333333  0.38179910
   0.91563667  0.41702018  0.46800156
   0.49929288  0.49979649  0.55600021
   0.41818387  0.91738346  0.46790215
   0.75121591  0.75031634  0.55569582
   0.83333333  0.58333333  0.38179910
   0.49969502  0.74961503  0.55629503
   0.83333333  0.08333333  0.38179910
   0.75034176  0.25068540  0.55640572
  -0.00024793  0.74902117  0.55548979
   0.33333333  0.83333333  0.38179910
   0.33333333  0.08333333  0.38179910
   0.16579708  0.16470575  0.46842556
   0.58333333  0.58333333  0.38179910
   0.33333333  0.33333333  0.38179910
   0.16657188  0.41860269  0.46839396
   0.24974959  0.24996319  0.55499184
   0.66668301  0.16544928  0.46719624
   0.33333333  0.58333333  0.38179910
   0.16556412  0.66780400  0.46748139
   0.83452993  0.33382266  0.61473841
   0.83316370  0.08213558  0.61553348
   0.83512925  0.58148467  0.61459835
   0.08321533  0.83287666  0.61542770
   0.33210416  0.83592289  0.61481267
   0.58220917  0.83506216  0.61542354
   0.58339447  0.08282913  0.61475852
   0.33296466  0.58171794  0.61458079
   0.50040261  0.00016865  0.55670032
   0.41827422  0.16534734  0.46777895
   0.58333333  0.08333333  0.38179910
   0.25015005  0.75007413  0.55771546
   0.16496290  0.91735407  0.46789163
   0.25021821 -0.00082421  0.55568755
   0.91597826  0.91688376  0.46730915
   0.08333333  0.83333333  0.38179910
  -0.00094572  0.50019619  0.55573247
   0.91552729  0.66865255  0.46789147
   0.08333333  0.58333333  0.38179910
  -0.00081609  0.25089903  0.55569781
   0.91791687  0.16520263  0.46741094
   0.41676166  0.41543732  0.46768364
   0.08333333  0.08333333  0.38179910
   0.74914233  0.00006407  0.55635773
   0.66745698  0.91628728  0.46766035
   0.83333333  0.83333333  0.38179910
   0.58333333  0.83333333  0.38179910
   0.75182922  0.49904136  0.55682064
   0.66711689  0.66726104  0.46784664
   0.83333333  0.33333333  0.38179910
   0.58333333  0.33333333  0.38179910
   0.25049262  0.50040368  0.55571318
Direct configuration=     3
   0.49630983  0.25041231  0.55940941
   0.66867494  0.41495031  0.46826466
   0.41435501  0.66897556  0.46930721
   0.00397552  0.00134483  0.55956317
   0.08333333  0.33333333  0.38179910
   0.91394543  0.41760064  0.46874783
   0.49813178  0.49946232  0.56044206
   0.42067509  0.91856042  0.46848519
   0.75321243  0.75083576  0.55963786
   0.83333333  0.58333333  0.38179910
   0.49919426  0.74898292  0.56122095
   0.83333333  0.08333333  0.38179910
   0.75090293  0.25181081  0.56151339
  -0.00065504  0.74741394  0.55909353
   0.33333333  0.83333333  0.38179910
   0.33333333  0.08333333  0.38179910
   0.16436922  0.16148595  0.46986801
   0.58333333  0.58333333  0.38179910
   0.33333333  0.33333333  0.38179910
   0.16641625  0.42178161  0.46978452
   0.24933842  0.24990275  0.55777795
   0.66670983  0.16345034  0.46662018
   0.33333333  0.58333333  0.38179910
   0.16375374  0.66967149  0.46737352
   0.83649472  0.33462612  0.60905306
   0.83288517  0.08016889  0.61115361
   0.83807812  0.57844919  0.60868302
   0.08302156  0.83212681  0.61087415
   0.33008588  0.84017490  0.60924924
   0.58036329  0.83790087  0.61086314
   0.58349486  0.08200123  0.60910618
   0.33235930  0.57906547  0.60863662
   0.50106370  0.00044556  0.56229172
   0.42091379  0.16318102  0.46815967
   0.58333333  0.08333333  0.38179910
   0.25039643  0.75019584  0.56497373
   0.16216532  0.91848277  0.46845738
   0.25057650 -0.00217757  0.55961601
   0.91484790  0.91724023  0.46691847
   0.08333333  0.83333333  0.38179910
  -0.00249858  0.50051832  0.55973468
   0.91365644  0.67191335  0.46845696
   0.08333333  0.58333333  0.38179910
  -0.00215611  0.25237523  0.55964310
   0.91996968  0.16279869  0.46718742
   0.41691765  0.41341876  0.46790789
   0.08333333  0.08333333  0.38179910
   0.74773405  0.00016927  0.56138660
   0.66875467  0.91566432  0.46784634
   0.83333333  0.83333333  0.38179910
   0.58333333  0.83333333  0.38179910
   0.75483279  0.49746727  0.56260963
   0.66785615  0.66823699  0.46833852
   0.83333333  0.33333333  0.38179910
   0.58333333  0.33333333  0.38179910
   0.25130151  0.50106651  0.55968372
Direct configuration=     4
   0.49663328  0.25037617  0.55887349
   0.66849892  0.41510074  0.46820177
   0.41455763  0.66877318  0.46915294
   0.00362707  0.00122696  0.55901378
   0.08333333  0.33333333  0.38179910
   0.91418394  0.41751878  0.46864258
   0.49829553  0.49950944  0.55981563
   0.42032376  0.91839443  0.46840296
   0.75293086  0.75076250  0.55908191
   0.83333333  0.58333333  0.38179910
   0.49926488  0.74907206  0.56052625
   0.83333333  0.08333333  0.38179910
   0.75082379  0.25165209  0.56079306
  -0.00059762  0.74764061  0.55858530
   0.33333333  0.83333333  0.38179910
   0.33333333  0.08333333  0.38179910
   0.16457059  0.16194004  0.46966458
   0.58333333  0.58333333  0.38179910
   0.33333333  0.33333333  0.38179910
   0.16643819  0.42133329  0.46958841
   0.24939641  0.24991127  0.55738503
   0.66670605  0.16373225  0.46670142
   0.33333333  0.58333333  0.38179910
   0.16400906  0.66940812  0.46738874
   0.83621762  0.33451281  0.60985486
   0.83292445  0.08044625  0.61177130
   0.83766224  0.57887728  0.60951726
   0.08304889  0.83223257  0.61151634
   0.33037052  0.83957524  0.61003385
   0.58062362  0.83750053  0.61150629
   0.58348070  0.08211799  0.60990333
   0.33244468  0.57943955  0.60947492
   0.50097047  0.00040651  0.56150317
   0.42054153  0.16348654  0.46810598
   0.58333333  0.08333333  0.38179910
   0.25036169  0.75017868  0.56395010
   0.16255986  0.91832359  0.46837759
   0.25052597 -0.00198670  0.55906199
   0.91500732  0.91718996  0.46697357
   0.08333333  0.83333333  0.38179910
  -0.00227959  0.50047289  0.55917025
   0.91392028  0.67145348  0.46837721
   0.08333333  0.58333333  0.38179910
  -0.00196713  0.25216704  0.55908670
   0.91968017  0.16313772  0.46721894
   0.41689565  0.41370344  0.46787626
   0.08333333  0.08333333  0.38179910
   0.74793266  0.00015443  0.56067738
   0.66857166  0.91575218  0.46782011
   0.83333333  0.83333333  0.38179910
   0.58333333  0.83333333  0.38179910
   0.75440920  0.49768927  0.56179321
   0.66775190  0.66809936  0.46826915
   0.83333333  0.33333333  0.38179910
   0.58333333  0.33333333  0.38179910
   0.25118743  0.50097303  0.55912376
Direct configuration=     5
   0.49336117  0.25595661  0.55929831
   0.66795360  0.41455709  0.47014744
   0.41440403  0.66940341  0.47128172
   0.00511436  0.00407611  0.55939920
   0.08333333  0.33333333  0.38179910
   0.91459186  0.41775279  0.47007122
   0.50587826  0.49521605  0.56015084
   0.42147788  0.91771625  0.47020185
   0.75485399  0.75363531  0.55923651
   0.83333333  0.58333333  0.38179910
   0.50453440  0.74210875  0.56068901
   0.83333333  0.08333333  0.38179910
   0.74451938  0.25430102  0.56127033
  -0.00226222  0.74574414  0.55938266
   0.33333333  0.83333333  0.38179910
   0.33333333  0.08333333  0.38179910
   0.16461435  0.16211739  0.47145078
   0.58333333  0.58333333  0.38179910
   0.33333333  0.33333333  0.38179910
   0.16555638  0.42145816  0.47140444
   0.24799214  0.25011919  0.55868094
   0.66711464  0.16366665  0.46838594
   0.33333333  0.58333333  0.38179910
   0.16340994  0.67086892  0.46879799
   0.83941898  0.33474592  0.60899794
   0.83245569  0.07798116  0.61043218
   0.84128154  0.57610370  0.60823966
   0.08289960  0.83014641  0.61069189
   0.32596600  0.84489455  0.60910745
   0.57964166  0.84017351  0.61062263
   0.58371381  0.08021434  0.60875378
   0.33080307  0.57689580  0.60907198
   0.49729616  0.00217126  0.56330210
   0.42018505  0.16344193  0.46944049
   0.58333333  0.08333333  0.38179910
   0.24977533  0.75108992  0.56624915
   0.16234824  0.91734807  0.46970864
   0.24882956  0.00229814  0.56009055
   0.91463065  0.91736625  0.46818090
   0.08333333  0.83333333  0.38179910
   0.00250155  0.49834368  0.56031272
   0.91364166  0.67213689  0.46968814
   0.08333333  0.58333333  0.38179910
   0.00328332  0.24964381  0.56025171
   0.91870441  0.16289622  0.46847154
   0.41759649  0.41325784  0.46924915
   0.08333333  0.08333333  0.38179910
   0.75053798 -0.00212429  0.56239786
   0.66918961  0.91544109  0.46903585
   0.83333333  0.83333333  0.38179910
   0.58333333  0.83333333  0.38179910
   0.74889649  0.50034342  0.56320432
   0.66711455  0.66863876  0.46995814
   0.83333333  0.33333333  0.38179910
   0.58333333  0.33333333  0.38179910
   0.24813422  0.49940458  0.55989829
Direct configuration=     6
   0.49150291  0.25912579  0.55953957
   0.66764391  0.41424835  0.47125240
   0.41431680  0.66976132  0.47249068
   0.00595901  0.00569418  0.55961808
   0.08333333  0.33333333  0.38179910
   0.91482352  0.41788569  0.47088256
   0.51018457  0.49277779  0.56034121
   0.42213332  0.91733111  0.47122346
   0.75594615  0.75526681  0.55932430
   0.83333333  0.58333333  0.38179910
   0.50752702  0.73815420  0.56078144
   0.83333333  0.08333333  0.38179910
   0.74093904  0.25580538  0.56154138
  -0.00320756  0.74466712  0.55983550
   0.33333333  0.83333333  0.38179910
   0.33333333  0.08333333  0.38179910
   0.16463920  0.16221811  0.47246518
   0.58333333  0.58333333  0.38179910
   0.33333333  0.33333333  0.38179910
   0.16505559  0.42152907  0.47243578
   0.24719464  0.25023727  0.55941690
   0.66734669  0.16362939  0.46934259
   0.33333333  0.58333333  0.38179910
   0.16306970  0.67169853  0.46959831
   0.84123706  0.33487831  0.60851128
   0.83218948  0.07658121  0.60967168
   0.84333698  0.57452855  0.60751410
   0.08281482  0.82896166  0.61022367
   0.32346462  0.84791544  0.60858134
   0.57908400  0.84169152  0.61012078
   0.58384620  0.07913324  0.60810094
   0.32987079  0.57545118  0.60884314
   0.49520949  0.00317348  0.56432373
   0.41998261  0.16341659  0.47019837
   0.58333333  0.08333333  0.38179910
   0.24944233  0.75160743  0.56755480
   0.16222806  0.91679406  0.47046455
   0.24786614  0.00473154  0.56067468
   0.91441673  0.91746637  0.46886657
   0.08333333  0.83333333  0.38179910
   0.00521680  0.49713447  0.56096154
   0.91348342  0.67252501  0.47043263
   0.08333333  0.58333333  0.38179910
   0.00626510  0.24821084  0.56091333
   0.91815027  0.16275906  0.46918291
   0.41799451  0.41300479  0.47002882
   0.08333333  0.08333333  0.38179910
   0.75201756 -0.00341839  0.56337493
   0.66954055  0.91526443  0.46972628
   0.83333333  0.83333333  0.38179910
   0.58333333  0.83333333  0.38179910
   0.74576576  0.50185075  0.56400570
   0.66675259  0.66894509  0.47091733
   0.83333333  0.33333333  0.38179910
   0.58333333  0.33333333  0.38179910
   0.24640028  0.49851384  0.56033815
Direct configuration=     7
   0.48891797  0.26040085  0.55988247
   0.66799876  0.41462360  0.47172889
   0.41383320  0.66988189  0.47385764
   0.00506662  0.00838241  0.55943645
   0.08333333  0.33333333  0.38179910
   0.91443993  0.41821073  0.47211614
   0.50654562  0.49538166  0.56132612
   0.42185131  0.91725952  0.47268524
   0.75552202  0.75620629  0.55923664
   0.83333333  0.58333333  0.38179910
   0.50769540  0.73743200  0.56122742
   0.83333333  0.08333333  0.38179910
   0.74171892  0.25326965  0.56204669
  -0.00202377  0.74435262  0.56037922
   0.33333333  0.83333333  0.38179910
   0.33333333  0.08333333  0.38179910
   0.16499939  0.16231217  0.47296302
   0.58333333  0.58333333  0.38179910
   0.33333333  0.33333333  0.38179910
   0.16490070  0.42127387  0.47305688
   0.24839000  0.24989278  0.56092459
   0.66732895  0.16314713  0.47059618
   0.33333333  0.58333333  0.38179910
   0.16356116  0.67147874  0.47073123
   0.84530671  0.33325100  0.60867544
   0.83334133  0.07598793  0.61003311
   0.84581694  0.57301756  0.60772441
   0.08036448  0.82760796  0.61109444
   0.32167749  0.85243632  0.60925487
   0.57985005  0.84127664  0.61069497
   0.58336428  0.08015107  0.60894767
   0.33023194  0.57221429  0.60920528
   0.48950933  0.00617006  0.56396003
   0.41907370  0.16375145  0.47134492
   0.58333333  0.08333333  0.38179910
   0.25220397  0.74813576  0.56771368
   0.16302106  0.91654384  0.47153298
   0.24849856  0.00716167  0.56104199
   0.91424764  0.91772960  0.47000086
   0.08333333  0.83333333  0.38179910
   0.00810387  0.49418004  0.56149758
   0.91396716  0.67175290  0.47114899
   0.08333333  0.58333333  0.38179910
   0.00684582  0.24878431  0.56188256
   0.91745287  0.16350509  0.47025090
   0.41701851  0.41402378  0.47086131
   0.08333333  0.08333333  0.38179910
   0.75325565 -0.00647926  0.56319373
   0.66921856  0.91611143  0.47073140
   0.83333333  0.83333333  0.38179910
   0.58333333  0.83333333  0.38179910
   0.74607028  0.50277451  0.56452193
   0.66716237  0.66808363  0.47182944
   0.83333333  0.33333333  0.38179910
   0.58333333  0.33333333  0.38179910
   0.24460198  0.49873859  0.56072977
Direct configuration=     8
   0.48802896  0.26083937  0.56000040
   0.66812079  0.41475266  0.47189277
   0.41366688  0.66992335  0.47432776
   0.00475972  0.00930694  0.55937398
   0.08333333  0.33333333  0.38179910
   0.91430801  0.41832251  0.47254040
   0.50529411  0.49627718  0.56166485
   0.42175432  0.91723490  0.47318797
   0.75537615  0.75652940  0.55920649
   0.83333333  0.58333333  0.38179910
   0.50775330  0.73718362  0.56138081
   0.83333333  0.08333333  0.38179910
   0.74198713  0.25239756  0.56222047
  -0.00161664  0.74424446  0.56056622
   0.33333333  0.83333333  0.38179910
   0.33333333  0.08333333  0.38179910
   0.16512327  0.16234452  0.47313424
   0.58333333  0.58333333  0.38179910
   0.33333333  0.33333333  0.38179910
   0.16484743  0.42118610  0.47327049
   0.24880111  0.24977430  0.56144312
   0.66732285  0.16298127  0.47102731
   0.33333333  0.58333333  0.38179910
   0.16373018  0.67140315  0.47112086
   0.84670633  0.33269134  0.60873189
   0.83373747  0.07578389  0.61015741
   0.84666985  0.57249790  0.60779674
   0.07952176  0.82714240  0.61139392
   0.32106287  0.85399113  0.60948651
   0.58011350  0.84113396  0.61089245
   0.58319854  0.08050112  0.60923888
   0.33035614  0.57110106  0.60932983
   0.48754894  0.00720064  0.56383494
   0.41876111  0.16386661  0.47173924
   0.58333333  0.08333333  0.38179910
   0.25315375  0.74694179  0.56776832
   0.16329379  0.91645779  0.47190043
   0.24871606  0.00799744  0.56116832
   0.91418948  0.91782013  0.47039096
   0.08333333  0.83333333  0.38179910
   0.00909679  0.49316396  0.56168193
   0.91413353  0.67148736  0.47139535
   0.08333333  0.58333333  0.38179910
   0.00704554  0.24898153  0.56221590
   0.91721302  0.16376166  0.47061821
   0.41668284  0.41437422  0.47114762
   0.08333333  0.08333333  0.38179910
   0.75368146 -0.00753195  0.56313142
   0.66910782  0.91640273  0.47107708
   0.83333333  0.83333333  0.38179910
   0.58333333  0.83333333  0.38179910
   0.74617501  0.50309221  0.56469947
   0.66730329  0.66778736  0.47214313
   0.83333333  0.33333333  0.38179910
   0.58333333  0.33333333  0.38179910
   0.24398351  0.49881588  0.56086446
Direct configuration=     9
   0.48823000  0.25972817  0.56090583
   0.66775571  0.41521392  0.47226195
   0.41352081  0.66969616  0.47476016
   0.00597593  0.00826130  0.55955810
   0.08333333  0.33333333  0.38179910
   0.91419664  0.41827362  0.47335344
   0.50466914  0.49565235  0.56265487
   0.42150910  0.91699118  0.47389117
   0.75428865  0.75545723  0.55955464
   0.83333333  0.58333333  0.38179910
   0.50629000  0.74000618  0.56288895
   0.83333333  0.08333333  0.38179910
   0.74135370  0.25308971  0.56286854
  -0.00054755  0.74416973  0.56113010
   0.33333333  0.83333333  0.38179910
   0.33333333  0.08333333  0.38179910
   0.16493895  0.16299446  0.47310773
   0.58333333  0.58333333  0.38179910
   0.33333333  0.33333333  0.38179910
   0.16508056  0.42049013  0.47325510
   0.24904090  0.25060541  0.56318949
   0.66661649  0.16318718  0.47168095
   0.33333333  0.58333333  0.38179910
   0.16408087  0.67097403  0.47163304
   0.84922158  0.33150829  0.60933103
   0.83467980  0.07465101  0.61085285
   0.84881694  0.57191696  0.60843032
   0.07896180  0.82562687  0.61192373
   0.31929135  0.85723331  0.61007876
   0.58048727  0.84145427  0.61090148
   0.58201952  0.08125126  0.60933445
   0.33034891  0.56782155  0.61075726
   0.48779216  0.00730203  0.56469796
   0.41768922  0.16444886  0.47237020
   0.58333333  0.08333333  0.38179910
   0.25234445  0.74798541  0.56868389
   0.16399654  0.91684608  0.47276174
   0.24848639  0.00827941  0.56169821
   0.91464285  0.91769175  0.47113300
   0.08333333  0.83333333  0.38179910
   0.00944401  0.49171399  0.56233151
   0.91476161  0.67072825  0.47185136
   0.08333333  0.58333333  0.38179910
   0.00774324  0.25002906  0.56295215
   0.91700493  0.16483823  0.47108468
   0.41585524  0.41529508  0.47150212
   0.08333333  0.08333333  0.38179910
   0.75283483 -0.00769130  0.56347055
   0.66823848  0.91716175  0.47162259
   0.83333333  0.83333333  0.38179910
   0.58333333  0.83333333  0.38179910
   0.74792567  0.50148361  0.56524439
   0.66776646  0.66721457  0.47242616
   0.83333333  0.33333333  0.38179910
   0.58333333  0.33333333  0.38179910
   0.24254342  0.49968906  0.56128011
Direct configuration=    10
   0.48838642  0.25886359  0.56161032
   0.66747166  0.41557281  0.47254919
   0.41340716  0.66951939  0.47509659
   0.00692222  0.00744774  0.55970135
   0.08333333  0.33333333  0.38179910
   0.91410999  0.41823558  0.47398604
   0.50418287  0.49516621  0.56342517
   0.42131831  0.91680155  0.47443830
   0.75344252  0.75462303  0.55982552
   0.83333333  0.58333333  0.38179910
   0.50515146  0.74220230  0.56406237
   0.83333333  0.08333333  0.38179910
   0.74086085  0.25362824  0.56337277
   0.00028427  0.74411158  0.56156883
   0.33333333  0.83333333  0.38179910
   0.33333333  0.08333333  0.38179910
   0.16479555  0.16350015  0.47308711
   0.58333333  0.58333333  0.38179910
   0.33333333  0.33333333  0.38179910
   0.16526195  0.41994862  0.47324312
   0.24922747  0.25125207  0.56454827
   0.66606690  0.16334740  0.47218952
   0.33333333  0.58333333  0.38179910
   0.16435374  0.67064014  0.47203154
   0.85117859  0.33058781  0.60979720
   0.83541300  0.07376956  0.61139394
   0.85048750  0.57146495  0.60892328
   0.07852613  0.82444769  0.61233595
   0.31791300  0.85975591  0.61053957
   0.58077809  0.84170350  0.61090850
   0.58110217  0.08183491  0.60940881
   0.33034329  0.56526990  0.61186789
   0.48798140  0.00738091  0.56536944
   0.41685522  0.16490189  0.47286112
   0.58333333  0.08333333  0.38179910
   0.25171476  0.74879741  0.56939626
   0.16454332  0.91714819  0.47343190
   0.24830770  0.00849880  0.56211051
   0.91499559  0.91759186  0.47171034
   0.08333333  0.83333333  0.38179910
   0.00971416  0.49058582  0.56283692
   0.91525030  0.67013763  0.47220617
   0.08333333  0.58333333  0.38179910
   0.00828609  0.25084410  0.56352500
   0.91684303  0.16567586  0.47144762
   0.41521132  0.41601157  0.47177794
   0.08333333  0.08333333  0.38179910
   0.75217611 -0.00781529  0.56373442
   0.66756209  0.91775231  0.47204702
   0.83333333  0.83333333  0.38179910
   0.58333333  0.83333333  0.38179910
   0.74928779  0.50023203  0.56566838
   0.66812683  0.66676890  0.47264638
   0.83333333  0.33333333  0.38179910
   0.58333333  0.33333333  0.38179910
   0.24142295  0.50036844  0.56160351
Direct configuration=    11
   0.48852388  0.25907612  0.56235030
   0.66664010  0.41589713  0.47290764
   0.41384055  0.66935548  0.47555873
   0.00668419  0.00707108  0.56021216
   0.08333333  0.33333333  0.38179910
   0.91409858  0.41820492  0.47437451
   0.50391584  0.49535747  0.56446443
   0.42133503  0.91648954  0.47475486
   0.75475536  0.75271384  0.55993601
   0.83333333  0.58333333  0.38179910
   0.50381772  0.74185310  0.56526914
   0.83333333  0.08333333  0.38179910
   0.74109497  0.25373076  0.56428758
  -0.00132786  0.74379417  0.56174840
   0.33333333  0.83333333  0.38179910
   0.33333333  0.08333333  0.38179910
   0.16469830  0.16417538  0.47322531
   0.58333333  0.58333333  0.38179910
   0.33333333  0.33333333  0.38179910
   0.16548111  0.41925634  0.47327829
   0.24927207  0.25170219  0.56621801
   0.66540298  0.16394166  0.47247957
   0.33333333  0.58333333  0.38179910
   0.16440145  0.67060550  0.47218164
   0.85252184  0.32967314  0.61083858
   0.83605454  0.07261654  0.61170024
   0.85181380  0.57112217  0.60988683
   0.07877415  0.82334975  0.61327744
   0.31624679  0.86154246  0.61173164
   0.58155205  0.84218576  0.61169382
   0.58068559  0.08209309  0.60993506
   0.32993958  0.56303178  0.61321877
   0.48854186  0.00747955  0.56607974
   0.41581562  0.16547431  0.47331569
   0.58333333  0.08333333  0.38179910
   0.25199883  0.74886895  0.57084065
   0.16504743  0.91752200  0.47390890
   0.24703577  0.01041391  0.56223630
   0.91533203  0.91760092  0.47214140
   0.08333333  0.83333333  0.38179910
   0.00952620  0.49074640  0.56332499
   0.91553553  0.66991894  0.47267701
   0.08333333  0.58333333  0.38179910
   0.01002482  0.25015864  0.56398722
   0.91673696  0.16633670  0.47169111
   0.41494822  0.41629315  0.47210380
   0.08333333  0.08333333  0.38179910
   0.75215000 -0.00739177  0.56441688
   0.66694643  0.91788369  0.47234042
   0.83333333  0.83333333  0.38179910
   0.58333333  0.83333333  0.38179910
   0.74919504  0.49986016  0.56636755
   0.66794042  0.66679094  0.47285384
   0.83333333  0.33333333  0.38179910
   0.58333333  0.33333333  0.38179910
   0.24139686  0.50072247  0.56204182
Direct configuration=    12
   0.48882195  0.25953696  0.56395484
   0.66483697  0.41660038  0.47368489
   0.41478028  0.66900008  0.47656081
   0.00616807  0.00625434  0.56131976
   0.08333333  0.33333333  0.38179910
   0.91407384  0.41813844  0.47521687
   0.50333682  0.49577218  0.56671791
   0.42137129  0.91581301  0.47544126
   0.75760206  0.74857407  0.56017558
   0.83333333  0.58333333  0.38179910
   0.50092572  0.74109591  0.56788582
   0.83333333  0.08333333  0.38179910
   0.74160260  0.25395305  0.56627118
  -0.00482351  0.74310592  0.56213775
   0.33333333  0.83333333  0.38179910
   0.33333333  0.08333333  0.38179910
   0.16448745  0.16563949  0.47352497
   0.58333333  0.58333333  0.38179910
   0.33333333  0.33333333  0.38179910
   0.16595633  0.41775524  0.47335454
   0.24936880  0.25267822  0.56983859
   0.66396339  0.16523022  0.47310850
   0.33333333  0.58333333  0.38179910
   0.16450490  0.67053037  0.47250710
   0.85543450  0.32768983  0.61309664
   0.83744563  0.07011640  0.61236440
   0.85468969  0.57037892  0.61197613
   0.07931196  0.82096902  0.61531891
   0.31263387  0.86541633  0.61431646
   0.58323026  0.84323146  0.61339667
   0.57978231  0.08265290  0.61107617
   0.32906421  0.55817877  0.61614797
   0.48975712  0.00769343  0.56761993
   0.41356142  0.16671551  0.47430136
   0.58333333  0.08333333  0.38179910
   0.25261479  0.74902408  0.57397260
   0.16614052  0.91833256  0.47494321
   0.24427780  0.01456653  0.56250907
   0.91606154  0.91762055  0.47307606
   0.08333333  0.83333333  0.38179910
   0.00911862  0.49109458  0.56438330
   0.91615401  0.66944476  0.47369797
   0.08333333  0.58333333  0.38179910
   0.01379498  0.24867232  0.56498949
   0.91650696  0.16776964  0.47221906
   0.41437773  0.41690373  0.47281037
   0.08333333  0.08333333  0.38179910
   0.75209338 -0.00647344  0.56589668
   0.66561147  0.91816857  0.47297659
   0.83333333  0.83333333  0.38179910
   0.58333333  0.83333333  0.38179910
   0.74899393  0.49905382  0.56788360
   0.66753622  0.66683873  0.47330368
   0.83333333  0.33333333  0.38179910
   0.58333333  0.33333333  0.38179910
   0.24134028  0.50149013  0.56299224
Direct configuration=    13
   0.48873473  0.25940211  0.56348532
   0.66536461  0.41639460  0.47345745
   0.41450529  0.66910408  0.47626758
   0.00631910  0.00649333  0.56099565
   0.08333333  0.33333333  0.38179910
   0.91408108  0.41815790  0.47497037
   0.50350625  0.49565083  0.56605849
   0.42136068  0.91601098  0.47524041
   0.75676905  0.74978546  0.56010548
   0.83333333  0.58333333  0.38179910
   0.50177199  0.74131748  0.56712012
   0.83333333  0.08333333  0.38179910
   0.74145405  0.25388800  0.56569073
  -0.00380060  0.74330732  0.56202382
   0.33333333  0.83333333  0.38179910
   0.33333333  0.08333333  0.38179910
   0.16454915  0.16521106  0.47343728
   0.58333333  0.58333333  0.38179910
   0.33333333  0.33333333  0.38179910
   0.16581727  0.41819450  0.47333222
   0.24934049  0.25239261  0.56877912
   0.66438465  0.16485315  0.47292446
   0.33333333  0.58333333  0.38179910
   0.16447463  0.67055235  0.47241187
   0.85458219  0.32827020  0.61243588
   0.83703856  0.07084800  0.61217005
   0.85384813  0.57059641  0.61136475
   0.07915458  0.82166568  0.61472153
   0.31369110  0.86428275  0.61356008
   0.58273917  0.84292546  0.61289837
   0.58004663  0.08248909  0.61074225
   0.32932036  0.55959887  0.61529081
   0.48940151  0.00763084  0.56716923
   0.41422105  0.16635231  0.47401293
   0.58333333  0.08333333  0.38179910
   0.25243454  0.74897869  0.57305612
   0.16582066  0.91809537  0.47464055
   0.24508485  0.01335138  0.56242925
   0.91584807  0.91761481  0.47280256
   0.08333333  0.83333333  0.38179910
   0.00923789  0.49099269  0.56407361
   0.91597303  0.66958352  0.47339921
   0.08333333  0.58333333  0.38179910
   0.01269174  0.24910725  0.56469620
   0.91657426  0.16735033  0.47206457
   0.41454467  0.41672506  0.47260361
   0.08333333  0.08333333  0.38179910
   0.75210995 -0.00674217  0.56546365
   0.66600211  0.91808520  0.47279043
   0.83333333  0.83333333  0.38179910
   0.58333333  0.83333333  0.38179910
   0.74905278  0.49928977  0.56743997
   0.66765450  0.66682474  0.47317204
   0.83333333  0.33333333  0.38179910
   0.58333333  0.33333333  0.38179910
   0.24135684  0.50126550  0.56271412
Direct configuration=    14
   0.48848011  0.26131689  0.56399704
   0.66470845  0.41636762  0.47401689
   0.41479726  0.66918795  0.47698634
   0.00581408  0.00589904  0.56172799
   0.08333333  0.33333333  0.38179910
   0.91342496  0.41858001  0.47514966
   0.50315307  0.49624070  0.56749816
   0.42153315  0.91587662  0.47557226
   0.75548490  0.74923607  0.56045147
   0.83333333  0.58333333  0.38179910
   0.50158935  0.74033051  0.56886339
   0.83333333  0.08333333  0.38179910
   0.74249056  0.25410881  0.56701327
  -0.00389938  0.74399322  0.56269692
   0.33333333  0.83333333  0.38179910
   0.33333333  0.08333333  0.38179910
   0.16470838  0.16563674  0.47380398
   0.58333333  0.58333333  0.38179910
   0.33333333  0.33333333  0.38179910
   0.16582508  0.41823839  0.47386781
   0.25009849  0.25296670  0.57078700
   0.66412734  0.16524172  0.47305026
   0.33333333  0.58333333  0.38179910
   0.16444375  0.67110452  0.47246160
   0.85620874  0.32734991  0.61337230
   0.83774857  0.06980479  0.61275268
   0.85403659  0.56997806  0.61265765
   0.07899548  0.81998703  0.61560394
   0.31109595  0.86722955  0.61478713
   0.58433792  0.84242798  0.61387747
   0.58090423  0.08245486  0.61222895
   0.32852460  0.55830241  0.61669363
   0.48972698  0.00664554  0.56758979
   0.41371404  0.16656120  0.47459511
   0.58333333  0.08333333  0.38179910
   0.25288992  0.74755154  0.57563968
   0.16590753  0.91815732  0.47490384
   0.24570336  0.01268732  0.56297668
   0.91553117  0.91834781  0.47289972
   0.08333333  0.83333333  0.38179910
   0.00958791  0.49136808  0.56442018
   0.91590451  0.66959811  0.47344235
   0.08333333  0.58333333  0.38179910
   0.01161348  0.24884321  0.56552953
   0.91624487  0.16735302  0.47225812