  56  56   0   0
  0.4903395E+02  0.1100258E-08  0.1100258E-08  0.2619179E-08  0.3500000E-15
  1.000000000000000E-004
  CAR 
 unknown system                          
      6.37398982    -21.66654267  301     -1.26216761      1.00000000
    -21.667  0.0000E+00  0.0000E+00
    -21.573  0.0000E+00  0.0000E+00
    -21.480  0.0000E+00  0.0000E+00
    -21.386  0.0000E+00  0.0000E+00
    -21.293  0.0000E+00  0.0000E+00
    -21.199  0.0000E+00  0.0000E+00
    -21.106  0.0000E+00  0.0000E+00
    -21.012  0.0000E+00  0.0000E+00
    -20.919  0.1865E-14  0.1743E-15
    -20.825  0.1797E-10  0.1679E-11
    -20.732  0.3141E-07  0.2938E-08
    -20.638  0.1017E-04  0.9534E-06
    -20.545  0.6307E-03  0.5990E-04
    -20.451  0.8006E-02  0.8082E-03
    -20.358  0.2503E-01  0.3147E-02
    -20.265  0.3756E-01  0.6658E-02
    -20.171  0.6085E-01  0.1234E-01
    -20.078  0.8272E-01  0.2008E-01
    -19.984  0.6000E-01  0.2569E-01
    -19.891  0.2305E-01  0.2784E-01
    -19.797  0.1467E-01  0.2921E-01
    -19.704  0.2093E-01  0.3117E-01
    -19.610  0.8215E-02  0.3193E-01
    -19.517  0.6911E-03  0.3200E-01
    -19.423  0.1170E-04  0.3200E-01
    -19.330  0.3793E-07  0.3200E-01
    -19.236  0.2277E-10  0.3200E-01
    -19.143  0.2482E-14  0.3200E-01
    -19.049  0.0000E+00  0.3200E-01
    -18.956  0.0000E+00  0.3200E-01
    -18.862  0.0000E+00  0.3200E-01
    -18.769  0.0000E+00  0.3200E-01
    -18.676  0.0000E+00  0.3200E-01
    -18.582  0.0000E+00  0.3200E-01
    -18.489  0.0000E+00  0.3200E-01
    -18.395  0.0000E+00  0.3200E-01
    -18.302  0.0000E+00  0.3200E-01
    -18.208  0.0000E+00  0.3200E-01
    -18.115  0.0000E+00  0.3200E-01
    -18.021  0.0000E+00  0.3200E-01
    -17.928  0.0000E+00  0.3200E-01
    -17.834  0.0000E+00  0.3200E-01
    -17.741  0.0000E+00  0.3200E-01
    -17.647  0.0000E+00  0.3200E-01
    -17.554  0.0000E+00  0.3200E-01
    -17.460  0.0000E+00  0.3200E-01
    -17.367  0.0000E+00  0.3200E-01
    -17.274  0.0000E+00  0.3200E-01
    -17.180  0.0000E+00  0.3200E-01
    -17.087  0.0000E+00  0.3200E-01
    -16.993  0.0000E+00  0.3200E-01
    -16.900  0.0000E+00  0.3200E-01
    -16.806  0.0000E+00  0.3200E-01
    -16.713  0.0000E+00  0.3200E-01
    -16.619  0.0000E+00  0.3200E-01
    -16.526  0.0000E+00  0.3200E-01
    -16.432  0.0000E+00  0.3200E-01
    -16.339  0.0000E+00  0.3200E-01
    -16.245  0.0000E+00  0.3200E-01
    -16.152  0.0000E+00  0.3200E-01
    -16.058  0.0000E+00  0.3200E-01
    -15.965  0.0000E+00  0.3200E-01
    -15.871  0.0000E+00  0.3200E-01
    -15.778  0.0000E+00  0.3200E-01
    -15.685  0.0000E+00  0.3200E-01
    -15.591  0.0000E+00  0.3200E-01
    -15.498  0.0000E+00  0.3200E-01
    -15.404  0.0000E+00  0.3200E-01
    -15.311  0.0000E+00  0.3200E-01
    -15.217  0.0000E+00  0.3200E-01
    -15.124  0.0000E+00  0.3200E-01
    -15.030  0.0000E+00  0.3200E-01
    -14.937  0.0000E+00  0.3200E-01
    -14.843  0.0000E+00  0.3200E-01
    -14.750  0.0000E+00  0.3200E-01
    -14.656  0.0000E+00  0.3200E-01
    -14.563  0.0000E+00  0.3200E-01
    -14.469  0.0000E+00  0.3200E-01
    -14.376  0.0000E+00  0.3200E-01
    -14.283  0.0000E+00  0.3200E-01
    -14.189  0.0000E+00  0.3200E-01
    -14.096  0.0000E+00  0.3200E-01
    -14.002  0.0000E+00  0.3200E-01
    -13.909  0.0000E+00  0.3200E-01
    -13.815  0.0000E+00  0.3200E-01
    -13.722  0.0000E+00  0.3200E-01
    -13.628  0.0000E+00  0.3200E-01
    -13.535  0.0000E+00  0.3200E-01
    -13.441  0.0000E+00  0.3200E-01
    -13.348  0.0000E+00  0.3200E-01
    -13.254  0.0000E+00  0.3200E-01
    -13.161  0.0000E+00  0.3200E-01
    -13.067  0.0000E+00  0.3200E-01
    -12.974  0.0000E+00  0.3200E-01
    -12.881  0.0000E+00  0.3200E-01
    -12.787  0.0000E+00  0.3200E-01
    -12.694  0.0000E+00  0.3200E-01
    -12.600  0.0000E+00  0.3200E-01
    -12.507  0.0000E+00  0.3200E-01
    -12.413  0.0000E+00  0.3200E-01
    -12.320  0.0000E+00  0.3200E-01
    -12.226  0.0000E+00  0.3200E-01
    -12.133  0.0000E+00  0.3200E-01
    -12.039  0.0000E+00  0.3200E-01
    -11.946  0.0000E+00  0.3200E-01
    -11.852  0.0000E+00  0.3200E-01
    -11.759  0.0000E+00  0.3200E-01
    -11.665  0.0000E+00  0.3200E-01
    -11.572  0.0000E+00  0.3200E-01
    -11.478  0.0000E+00  0.3200E-01
    -11.385  0.0000E+00  0.3200E-01
    -11.292  0.0000E+00  0.3200E-01
    -11.198  0.0000E+00  0.3200E-01
    -11.105  0.0000E+00  0.3200E-01
    -11.011  0.0000E+00  0.3200E-01
    -10.918  0.0000E+00  0.3200E-01
    -10.824  0.0000E+00  0.3200E-01
    -10.731  0.0000E+00  0.3200E-01
    -10.637  0.0000E+00  0.3200E-01
    -10.544  0.0000E+00  0.3200E-01
    -10.450  0.0000E+00  0.3200E-01
    -10.357  0.0000E+00  0.3200E-01
    -10.263  0.0000E+00  0.3200E-01
    -10.170  0.0000E+00  0.3200E-01
    -10.076  0.0000E+00  0.3200E-01
     -9.983  0.1225E-14  0.3200E-01
     -9.890  0.1125E-10  0.3200E-01
     -9.796  0.1876E-07  0.3200E-01
     -9.703  0.5799E-05  0.3200E-01
     -9.609  0.3433E-03  0.3203E-01
     -9.516  0.4092E-02  0.3242E-01
     -9.422  0.1044E-01  0.3339E-01
     -9.329  0.6912E-02  0.3404E-01
     -9.235  0.7723E-02  0.3476E-01
     -9.142  0.9957E-02  0.3569E-01
     -9.048  0.3119E-02  0.3598E-01
     -8.955  0.5592E-03  0.3603E-01
     -8.861  0.4035E-02  0.3641E-01
     -8.768  0.1028E-01  0.3737E-01
     -8.674  0.6843E-02  0.3801E-01
     -8.581  0.9861E-02  0.3893E-01
     -8.487  0.2082E-01  0.4088E-01
     -8.394  0.1256E-01  0.4205E-01
     -8.301  0.1033E-01  0.4302E-01
     -8.207  0.1600E-01  0.4451E-01
     -8.114  0.2464E-01  0.4682E-01
     -8.020  0.3165E-01  0.4977E-01
     -7.927  0.4323E-01  0.5381E-01
     -7.833  0.6783E-01  0.6015E-01
     -7.740  0.9108E-01  0.6867E-01
     -7.646  0.1032E+00  0.7831E-01
     -7.553  0.1035E+00  0.8798E-01
     -7.459  0.1027E+00  0.9758E-01
     -7.366  0.1069E+00  0.1076E+00
     -7.272  0.9864E-01  0.1168E+00
     -7.179  0.9870E-01  0.1260E+00
     -7.085  0.1358E+00  0.1387E+00
     -6.992  0.1611E+00  0.1538E+00
     -6.899  0.1631E+00  0.1690E+00
     -6.805  0.1567E+00  0.1836E+00
     -6.712  0.1645E+00  0.1990E+00
     -6.618  0.1787E+00  0.2157E+00
     -6.525  0.1800E+00  0.2326E+00
     -6.431  0.1757E+00  0.2490E+00
     -6.338  0.1623E+00  0.2641E+00
     -6.244  0.1406E+00  0.2773E+00
     -6.151  0.1308E+00  0.2895E+00
     -6.057  0.1386E+00  0.3025E+00
     -5.964  0.1606E+00  0.3175E+00
     -5.870  0.1731E+00  0.3337E+00
     -5.777  0.1683E+00  0.3494E+00
     -5.683  0.1568E+00  0.3641E+00
     -5.590  0.1600E+00  0.3790E+00
     -5.497  0.1840E+00  0.3962E+00
     -5.403  0.1873E+00  0.4137E+00
     -5.310  0.1732E+00  0.4299E+00
     -5.216  0.1731E+00  0.4461E+00
     -5.123  0.1783E+00  0.4627E+00
     -5.029  0.1694E+00  0.4786E+00
     -4.936  0.1632E+00  0.4938E+00
     -4.842  0.1739E+00  0.5101E+00
     -4.749  0.1862E+00  0.5275E+00
     -4.655  0.1862E+00  0.5449E+00
     -4.562  0.1822E+00  0.5619E+00
     -4.468  0.1951E+00  0.5801E+00
     -4.375  0.2010E+00  0.5989E+00
     -4.281  0.2096E+00  0.6185E+00
     -4.188  0.2205E+00  0.6391E+00
     -4.094  0.2189E+00  0.6596E+00
     -4.001  0.2127E+00  0.6795E+00
     -3.908  0.2063E+00  0.6988E+00
     -3.814  0.1952E+00  0.7170E+00
     -3.721  0.1825E+00  0.7341E+00
     -3.627  0.1832E+00  0.7512E+00
     -3.534  0.1901E+00  0.7689E+00
     -3.440  0.1927E+00  0.7870E+00
     -3.347  0.1828E+00  0.8040E+00
     -3.253  0.1757E+00  0.8205E+00
     -3.160  0.1698E+00  0.8363E+00
     -3.066  0.1617E+00  0.8515E+00
     -2.973  0.1643E+00  0.8668E+00
     -2.879  0.1701E+00  0.8827E+00
     -2.786  0.1735E+00  0.8989E+00
     -2.692  0.1796E+00  0.9157E+00
     -2.599  0.1797E+00  0.9325E+00
     -2.506  0.1829E+00  0.9496E+00
     -2.412  0.1869E+00  0.9671E+00
     -2.319  0.1805E+00  0.9840E+00
     -2.225  0.1743E+00  0.1000E+01
     -2.132  0.1592E+00  0.1015E+01
     -2.038  0.1483E+00  0.1029E+01
     -1.945  0.1429E+00  0.1042E+01
     -1.851  0.1323E+00  0.1055E+01
     -1.758  0.1128E+00  0.1065E+01
     -1.664  0.9171E-01  0.1074E+01
     -1.571  0.8681E-01  0.1082E+01
     -1.477  0.8202E-01  0.1090E+01
     -1.384  0.6661E-01  0.1096E+01
     -1.290  0.6575E-01  0.1102E+01
     -1.197  0.7416E-01  0.1109E+01
     -1.103  0.7663E-01  0.1116E+01
     -1.010  0.7862E-01  0.1123E+01
     -0.917  0.7970E-01  0.1131E+01
     -0.823  0.7792E-01  0.1138E+01
     -0.730  0.7394E-01  0.1145E+01
     -0.636  0.6344E-01  0.1151E+01
     -0.543  0.5244E-01  0.1156E+01
     -0.449  0.4405E-01  0.1160E+01
     -0.356  0.3138E-01  0.1163E+01
     -0.262  0.1423E-01  0.1164E+01
     -0.169  0.1098E-01  0.1165E+01
     -0.075  0.1540E-01  0.1167E+01
      0.018  0.2729E-01  0.1169E+01
      0.112  0.3825E-01  0.1173E+01
      0.205  0.4278E-01  0.1177E+01
      0.299  0.4832E-01  0.1181E+01
      0.392  0.4510E-01  0.1186E+01
      0.485  0.3804E-01  0.1189E+01
      0.579  0.3237E-01  0.1192E+01
      0.672  0.2621E-01  0.1195E+01
      0.766  0.1378E-01  0.1196E+01
      0.859  0.8692E-02  0.1197E+01
      0.953  0.1433E-01  0.1198E+01
      1.046  0.1979E-01  0.1200E+01
      1.140  0.2514E-01  0.1202E+01
      1.233  0.2833E-01  0.1205E+01
      1.327  0.3004E-01  0.1208E+01
      1.420  0.3372E-01  0.1211E+01
      1.514  0.3325E-01  0.1214E+01
      1.607  0.3928E-01  0.1218E+01
      1.701  0.4697E-01  0.1222E+01
      1.794  0.3909E-01  0.1226E+01
      1.888  0.3265E-01  0.1229E+01
      1.981  0.3437E-01  0.1232E+01
      2.074  0.2582E-01  0.1234E+01
      2.168  0.1567E-01  0.1236E+01
      2.261  0.1243E-01  0.1237E+01
      2.355  0.1086E-01  0.1238E+01
      2.448  0.9069E-02  0.1239E+01
      2.542  0.1767E-01  0.1241E+01
      2.635  0.3022E-01  0.1243E+01
      2.729  0.3208E-01  0.1246E+01
      2.822  0.2617E-01  0.1249E+01
      2.916  0.2949E-01  0.1252E+01
      3.009  0.3350E-01  0.1255E+01
      3.103  0.2458E-01  0.1257E+01
      3.196  0.2341E-01  0.1259E+01
      3.290  0.2938E-01  0.1262E+01
      3.383  0.2952E-01  0.1265E+01
      3.476  0.2669E-01  0.1267E+01
      3.570  0.3218E-01  0.1270E+01
      3.663  0.3984E-01  0.1274E+01
      3.757  0.4025E-01  0.1278E+01
      3.850  0.4431E-01  0.1282E+01
      3.944  0.4918E-01  0.1286E+01
      4.037  0.4777E-01  0.1291E+01
      4.131  0.3904E-01  0.1294E+01
      4.224  0.3290E-01  0.1298E+01
      4.318  0.3737E-01  0.1301E+01
      4.411  0.4208E-01  0.1305E+01
      4.505  0.4752E-01  0.1309E+01
      4.598  0.5119E-01  0.1314E+01
      4.692  0.5722E-01  0.1320E+01
      4.785  0.5911E-01  0.1325E+01
      4.878  0.6227E-01  0.1331E+01
      4.972  0.6451E-01  0.1337E+01
      5.065  0.4612E-01  0.1341E+01
      5.159  0.2363E-01  0.1343E+01
      5.252  0.5402E-02  0.1344E+01
      5.346  0.3321E-03  0.1344E+01
      5.439  0.4479E-05  0.1344E+01
      5.533  0.1208E-07  0.1344E+01
      5.626  0.6205E-11  0.1344E+01
      5.720  0.5892E-15  0.1344E+01
      5.813  0.0000E+00  0.1344E+01
      5.907  0.0000E+00  0.1344E+01
      6.000  0.0000E+00  0.1344E+01
      6.094  0.0000E+00  0.1344E+01
      6.187  0.0000E+00  0.1344E+01
      6.281  0.0000E+00  0.1344E+01
      6.374  0.0000E+00  0.1344E+01
