unknown system                          
           1
    11.002582    0.000000    0.000000
     5.501291    9.528515    0.000000
     0.000000    0.000000   26.191785
   Au   O    Pd
  24   8  24
Direct configuration=     1
   0.08333333  0.08333333  0.38179910
   0.33333333  0.83333333  0.38179910
   0.08333333  0.83333333  0.38179910
   0.91666667  0.16666667  0.46754708
   0.83333333  0.83333333  0.38179910
   0.83333333  0.58333333  0.38179910
   0.08333333  0.33333333  0.38179910
   0.91666667  0.41666667  0.46754708
   0.83333333  0.33333333  0.38179910
   0.08333333  0.58333333  0.38179910
   0.66666667  0.16666667  0.46754708
   0.91666667  0.91666667  0.46754708
   0.83333333  0.08333333  0.38179910
   0.58333333  0.83333333  0.38179910
   0.33333333  0.08333333  0.38179910
   0.25000000  0.00000000  0.55329505
   0.41666667  0.66666667  0.46754708
   0.33333333  0.33333333  0.38179910
   0.16666667  0.41666667  0.46754708
   0.58333333  0.58333333  0.38179910
   0.41666667  0.41666667  0.46754708
   0.33333333  0.58333333  0.38179910
   0.58333333  0.33333333  0.38179910
   0.41666667  0.91666667  0.46754708
   0.33333333  0.33333333  0.61820090
   0.08333333  0.83333333  0.61820090
   0.33333333  0.08333333  0.61820090
   0.83333333  0.83333333  0.61820090
   0.83333333  0.33333333  0.61820090
   0.58333333  0.58333333  0.61820090
   0.83333333  0.08333333  0.61820090
   0.58333333  0.08333333  0.61820090
   0.25000000  0.50000000  0.55329505
   0.16666667  0.66666667  0.46754708
   0.16666667  0.16666667  0.46754708
   0.50000000  0.00000000  0.55329505
   0.41666667  0.16666667  0.46754708
   0.58333333  0.08333333  0.38179910
   0.75000000  0.75000000  0.55329505
   0.25000000  0.75000000  0.55329505
   0.50000000  0.50000000  0.55329505
   0.50000000  0.75000000  0.55329505
   0.00000000  0.75000000  0.55329505
   0.00000000  0.50000000  0.55329505
   0.75000000  0.00000000  0.55329505
   0.91666667  0.66666667  0.46754708
   0.66666667  0.41666667  0.46754708
   0.75000000  0.25000000  0.55329505
   0.00000000  0.25000000  0.55329505
   0.66666667  0.66666667  0.46754708
   0.75000000  0.50000000  0.55329505
   0.00000000  0.00000000  0.55329505
   0.66666667  0.91666667  0.46754708
   0.16666667  0.91666667  0.46754708
   0.50000000  0.25000000  0.55329505
   0.25000000  0.25000000  0.55329505
Direct configuration=     2
   0.08333333  0.08333333  0.38179910
   0.33333333  0.83333333  0.38179910
   0.08333333  0.83333333  0.38179910
   0.91779142  0.16634025  0.46871539
   0.83333333  0.83333333  0.38179910
   0.83333333  0.58333333  0.38179910
   0.08333333  0.33333333  0.38179910
   0.91556150  0.41785269  0.46885264
   0.83333333  0.33333333  0.38179910
   0.08333333  0.58333333  0.38179910
   0.66531957  0.16630787  0.46881829
   0.91718596  0.91502753  0.46856061
   0.83333333  0.08333333  0.38179910
   0.58333333  0.83333333  0.38179910
   0.33333333  0.08333333  0.38179910
   0.24914195  0.00035061  0.55562506
   0.41620292  0.66681957  0.46893177
   0.33333333  0.33333333  0.38179910
   0.16652787  0.41646446  0.46888899
   0.58333333  0.58333333  0.38179910
   0.41702749  0.41641568  0.46906574
   0.33333333  0.58333333  0.38179910
   0.58333333  0.33333333  0.38179910
   0.41789327  0.91698464  0.46873076
   0.33259996  0.33528753  0.61373147
   0.08565386  0.83200839  0.61395179
   0.33337569  0.08231273  0.61442417
   0.83296941  0.83149853  0.61395985
   0.83442963  0.33282188  0.61383482
   0.58196237  0.58445623  0.61372532
   0.83312878  0.08419657  0.61426769
   0.58301926  0.08351334  0.61430272
   0.25018895  0.49927023  0.55552175
   0.16583499  0.66701076  0.46875279
   0.16673938  0.16704077  0.46855015
   0.50041835  0.00050333  0.55679415
   0.41707480  0.16594601  0.46764528
   0.58333333  0.08333333  0.38179910
   0.75089144  0.75011584  0.55515115
   0.24803048  0.75029539  0.55546383
   0.50100244  0.50105856  0.55571115
   0.50183474  0.74762223  0.55562938
   0.00006755  0.74982998  0.55663502
  -0.00028776  0.50039068  0.55415486
   0.74963049 -0.00010267  0.55768561
   0.91632158  0.66735064  0.46853139
   0.66689276  0.41694173  0.46837288
   0.75057655  0.25020675  0.55695174
  -0.00122045  0.25116646  0.55552408
   0.66777390  0.66656376  0.46881714
   0.74918570  0.50006301  0.55673248
   0.00015021 -0.00068344  0.55691742
   0.66628148  0.91677442  0.46842353
   0.16628569  0.91698258  0.46860809
   0.49934529  0.24971909  0.55709509
   0.25030547  0.25057316  0.55678358
Direct configuration=     3
   0.08333333  0.08333333  0.38179910
   0.33333333  0.83333333  0.38179910
   0.08333333  0.83333333  0.38179910
   0.91981692  0.16575243  0.47081936
   0.83333333  0.83333333  0.38179910
   0.83333333  0.58333333  0.38179910
   0.08333333  0.33333333  0.38179910
   0.91357125  0.41998854  0.47120376
   0.83333333  0.33333333  0.38179910
   0.08333333  0.58333333  0.38179910
   0.66289365  0.16566173  0.47110754
   0.91812114  0.91207568  0.47038583
   0.83333333  0.08333333  0.38179910
   0.58333333  0.83333333  0.38179910
   0.33333333  0.08333333  0.38179910
   0.24759672  0.00098200  0.55982105
   0.41536779  0.66709492  0.47142540
   0.33333333  0.33333333  0.38179910
   0.16627793  0.41610031  0.47130557
   0.58333333  0.58333333  0.38179910
   0.41767727  0.41596370  0.47180063
   0.33333333  0.58333333  0.38179910
   0.58333333  0.33333333  0.38179910
   0.42010221  0.91755727  0.47086239
   0.33127927  0.33880674  0.60568270
   0.08983277  0.82962236  0.60629977
   0.33345197  0.08047478  0.60762284
   0.83231403  0.82819432  0.60632236
   0.83640389  0.33190082  0.60597217
   0.57949348  0.58647840  0.60566548
   0.83276040  0.08575112  0.60718458
   0.58245366  0.08383750  0.60728269
   0.25052922  0.49795602  0.55953171
   0.16433727  0.66763041  0.47092409
   0.16687033  0.16771447  0.47035652
   0.50117173  0.00140976  0.56309550
   0.41780979  0.16464823  0.46782214
   0.58333333  0.08333333  0.38179910
   0.75249678  0.75032446  0.55849371
   0.24448368  0.75082734  0.55936947
   0.50280768  0.50296487  0.56006217
   0.50513883  0.74334024  0.55983316
   0.00018919  0.74952381  0.56264979
  -0.00080599  0.50109423  0.55570326
   0.74896505 -0.00028758  0.56559234
   0.91570012  0.66858237  0.47030398
   0.66729993  0.41743707  0.46986004
   0.75161483  0.25057908  0.56353688
  -0.00341830  0.25326708  0.55953822
   0.66976786  0.66637844  0.47110432
   0.74771927  0.50017647  0.56292277
   0.00042072 -0.00191421  0.56344076
   0.66558781  0.91696847  0.47000189
   0.16559960  0.91755149  0.47051880
   0.49816624  0.24921322  0.56393839
   0.25085557  0.25160534  0.56306590
Direct configuration=     4
   0.08333333  0.08333333  0.38179910
   0.33333333  0.83333333  0.38179910
   0.08333333  0.83333333  0.38179910
   0.91940279  0.16587261  0.47038919
   0.83333333  0.83333333  0.38179910
   0.83333333  0.58333333  0.38179910
   0.08333333  0.33333333  0.38179910
   0.91397817  0.41955185  0.47072306
   0.83333333  0.33333333  0.38179910
   0.08333333  0.58333333  0.38179910
   0.66338965  0.16579384  0.47063949
   0.91792994  0.91267921  0.47001265
   0.83333333  0.08333333  0.38179910
   0.58333333  0.83333333  0.38179910
   0.33333333  0.08333333  0.38179910
   0.24791265  0.00085291  0.55896315
   0.41553854  0.66703862  0.47091556
   0.33333333  0.33333333  0.38179910
   0.16632903  0.41617477  0.47081149
   0.58333333  0.58333333  0.38179910
   0.41754442  0.41605611  0.47124146
   0.33333333  0.58333333  0.38179910
   0.58333333  0.33333333  0.38179910
   0.41965058  0.91744019  0.47042657
   0.33154929  0.33808721  0.60732833
   0.08897836  0.83011020  0.60786428
   0.33343638  0.08085057  0.60901341
   0.83244803  0.82886989  0.60788390
   0.83600024  0.33208913  0.60757975
   0.57999827  0.58606495  0.60731337
   0.83283572  0.08543328  0.60863277
   0.58256930  0.08377122  0.60871798
   0.25045965  0.49822472  0.55871184
   0.16464349  0.66750372  0.47048015
   0.16684356  0.16757673  0.46998720
   0.50101770  0.00122443  0.56180714
   0.41765951  0.16491357  0.46778598
   0.58333333  0.08333333  0.38179910
   0.75216855  0.75028181  0.55781030
   0.24520885  0.75071858  0.55857093
   0.50243858  0.50257511  0.55917258
   0.50446329  0.74421572  0.55897367
   0.00016432  0.74958641  0.56142003
  -0.00070003  0.50095038  0.55538668
   0.74910111 -0.00024977  0.56397576
   0.91582718  0.66833053  0.46994156
   0.66721668  0.41733579  0.46955598
   0.75140255  0.25050295  0.56219050
  -0.00296893  0.25283760  0.55871750
   0.66936018  0.66641633  0.47063669
   0.74801909  0.50015327  0.56165712
   0.00036541 -0.00166257  0.56210702
   0.66572964  0.91692879  0.46967918
   0.16573987  0.91743517  0.47012814
   0.49840731  0.24931665  0.56253923
   0.25074310  0.25139430  0.56178144
Direct configuration=     5
   0.08333333  0.08333333  0.38179910
   0.33333333  0.83333333  0.38179910
   0.08333333  0.83333333  0.38179910
   0.91952932  0.16583589  0.47052062
   0.83333333  0.83333333  0.38179910
   0.83333333  0.58333333  0.38179910
   0.08333333  0.33333333  0.38179910
   0.91385384  0.41968527  0.47086993
   0.83333333  0.33333333  0.38179910
   0.08333333  0.58333333  0.38179910
   0.66323810  0.16575347  0.47078250
   0.91798836  0.91249481  0.47012667
   0.83333333  0.08333333  0.38179910
   0.58333333  0.83333333  0.38179910
   0.33333333  0.08333333  0.38179910
   0.24781613  0.00089235  0.55922526
   0.41548637  0.66705582  0.47107133
   0.33333333  0.33333333  0.38179910
   0.16631342  0.41615202  0.47096245
   0.58333333  0.58333333  0.38179910
   0.41758501  0.41602788  0.47141231
   0.33333333  0.58333333  0.38179910
   0.58333333  0.33333333  0.38179910
   0.41978857  0.91747596  0.47055972
   0.33146679  0.33830705  0.60682554
   0.08923941  0.82996115  0.60738627
   0.33344114  0.08073575  0.60858855
   0.83240709  0.82866348  0.60740680
   0.83612357  0.33203160  0.60708858
   0.57984404  0.58619127  0.60680989
   0.83281271  0.08553039  0.60819031
   0.58253397  0.08379147  0.60827946
   0.25048090  0.49814263  0.55896234
   0.16454993  0.66754243  0.47061579
   0.16685174  0.16761882  0.47010004
   0.50106476  0.00128106  0.56220077
   0.41770543  0.16483250  0.46779703
   0.58333333  0.08333333  0.38179910
   0.75226883  0.75029484  0.55801910
   0.24498729  0.75075181  0.55881491
   0.50255135  0.50269419  0.55944438
   0.50466969  0.74394823  0.55923627
   0.00017192  0.74956729  0.56179575
  -0.00073240  0.50099433  0.55548340
   0.74905954 -0.00026132  0.56446967
   0.91578836  0.66840747  0.47005229
   0.66724212  0.41736673  0.46964888
   0.75146741  0.25052621  0.56260186
  -0.00310623  0.25296882  0.55896826
   0.66948474  0.66640475  0.47077956
   0.74792749  0.50016036  0.56204382
   0.00038231 -0.00173945  0.56251452
   0.66568631  0.91694091  0.46977778
   0.16569702  0.91747071  0.47024750
   0.49833365  0.24928505  0.56296672
   0.25077746  0.25145878  0.56217388
Direct configuration=     6
   0.08333333  0.08333333  0.38179910
   0.33333333  0.83333333  0.38179910
   0.08333333  0.83333333  0.38179910
   0.91887750  0.16533006  0.47238635
   0.83333333  0.83333333  0.38179910
   0.83333333  0.58333333  0.38179910
   0.08333333  0.33333333  0.38179910
   0.91328367  0.41987608  0.47228684
   0.83333333  0.33333333  0.38179910
   0.08333333  0.58333333  0.38179910
   0.66420399  0.16494644  0.47304709
   0.91701256  0.91343622  0.47208790
   0.83333333  0.08333333  0.38179910
   0.58333333  0.83333333  0.38179910
   0.33333333  0.08333333  0.38179910
   0.24479446 -0.00242412  0.55949097
   0.41477328  0.66778492  0.47270380
   0.33333333  0.33333333  0.38179910
   0.16685465  0.41565110  0.47230943
   0.58333333  0.58333333  0.38179910
   0.41775189  0.41593214  0.47345066
   0.33333333  0.58333333  0.38179910
   0.58333333  0.33333333  0.38179910
   0.42020798  0.91695934  0.47277090
   0.32933664  0.34184280  0.60625242
   0.09264674  0.82767202  0.60646400
   0.33295098  0.08115074  0.60822591
   0.83315495  0.82313057  0.60623463
   0.83800959  0.33276989  0.60621701
   0.57858054  0.58738515  0.60652857
   0.83415499  0.08639843  0.60731474
   0.58140609  0.08409980  0.60768363
   0.24853206  0.50282912  0.55960094
   0.16461967  0.66659094  0.47213958
   0.16720841  0.16768327  0.47180748
   0.50398959 -0.00588168  0.56304292
   0.41737517  0.16499729  0.46909005
   0.58333333  0.08333333  0.38179910
   0.75085854  0.74783470  0.55853831
   0.24873173  0.74856063  0.55933924
   0.49896379  0.49995622  0.56014455
   0.50213884  0.75021611  0.55961980
   0.00263761  0.74368254  0.56292946
  -0.00144306  0.50147080  0.55691063
   0.74796476  0.00092169  0.56524843
   0.91584376  0.66866862  0.47119811
   0.66746546  0.41672592  0.47110271
   0.74584610  0.25245077  0.56345220
   0.00241144  0.25148112  0.55958893
   0.66937028  0.66710736  0.47245207
   0.75099136  0.50241120  0.56317758
   0.00256568  0.00149742  0.56385662
   0.66593751  0.91725423  0.47116790
   0.16611468  0.91791077  0.47191240
   0.50192042  0.25324635  0.56383282
   0.24438099  0.25364093  0.56325770
Direct configuration=     7
   0.08333333  0.08333333  0.38179910
   0.33333333  0.83333333  0.38179910
   0.08333333  0.83333333  0.38179910
   0.91842354  0.16497777  0.47368574
   0.83333333  0.83333333  0.38179910
   0.83333333  0.58333333  0.38179910
   0.08333333  0.33333333  0.38179910
   0.91288657  0.42000896  0.47327364
   0.83333333  0.33333333  0.38179910
   0.08333333  0.58333333  0.38179910
   0.66487668  0.16438438  0.47462426
   0.91633297  0.91409185  0.47345379
   0.83333333  0.08333333  0.38179910
   0.58333333  0.83333333  0.38179910
   0.33333333  0.08333333  0.38179910
   0.24269003 -0.00473386  0.55967603
   0.41427665  0.66829270  0.47384072
   0.33333333  0.33333333  0.38179910
   0.16723160  0.41530225  0.47324753
   0.58333333  0.58333333  0.38179910
   0.41786812  0.41586547  0.47487026
   0.33333333  0.58333333  0.38179910
   0.58333333  0.33333333  0.38179910
   0.42050007  0.91659954  0.47431087
   0.32785311  0.34430526  0.60585327
   0.09501975  0.82607777  0.60582168
   0.33260962  0.08143976  0.60797335
   0.83367580  0.81927720  0.60541827
   0.83932310  0.33328407  0.60561001
   0.57770059  0.58821661  0.60633265
   0.83508981  0.08700297  0.60670496
   0.58062059  0.08431453  0.60726867
   0.24717480  0.50609301  0.56004569
   0.16466825  0.66592829  0.47320081
   0.16745682  0.16772816  0.47299662
   0.50602658 -0.01087013  0.56362942
   0.41714516  0.16511206  0.46999057
   0.58333333  0.08333333  0.38179910
   0.74987635  0.74612134  0.55889990
   0.25133952  0.74703460  0.55970441
   0.49646526  0.49804938  0.56063218
   0.50037625  0.75458134  0.55988691
   0.00435484  0.73958414  0.56371902
  -0.00193799  0.50180263  0.55790461
   0.74720231  0.00174558  0.56579079
   0.91588234  0.66885049  0.47199611
   0.66762100  0.41627962  0.47211523
   0.74193117  0.25379112  0.56404441
   0.00625419  0.25044503  0.56002120
   0.66929056  0.66759669  0.47361688
   0.75312517  0.50397879  0.56396718
   0.00408628  0.00375173  0.56479132
   0.66611245  0.91747243  0.47213604
   0.16640556  0.91821724  0.47307192
   0.50441840  0.25600519  0.56443601
   0.23992620  0.25516067  0.56401252
Direct configuration=     8
   0.08333333  0.08333333  0.38179910
   0.33333333  0.83333333  0.38179910
   0.08333333  0.83333333  0.38179910
   0.91799738  0.16520833  0.47487452
   0.83333333  0.83333333  0.38179910
   0.83333333  0.58333333  0.38179910
   0.08333333  0.33333333  0.38179910
   0.91303101  0.41960535  0.47387434
   0.83333333  0.33333333  0.38179910
   0.08333333  0.58333333  0.38179910
   0.66506381  0.16449030  0.47549733
   0.91681124  0.91411439  0.47509787
   0.83333333  0.08333333  0.38179910
   0.58333333  0.83333333  0.38179910
   0.33333333  0.08333333  0.38179910
   0.24392680 -0.00542052  0.56096865
   0.41493077  0.66789424  0.47443330
   0.33333333  0.33333333  0.38179910
   0.16714747  0.41521643  0.47397162
   0.58333333  0.58333333  0.38179910
   0.41796867  0.41528680  0.47528591
   0.33333333  0.58333333  0.38179910
   0.58333333  0.33333333  0.38179910
   0.42037163  0.91724899  0.47488648
   0.32680501  0.34589702  0.60615244
   0.09633221  0.82451004  0.60659687
   0.33163444  0.08098240  0.60801061
   0.83365602  0.81661096  0.60605893
   0.84131468  0.33294890  0.60580160
   0.57612889  0.58918162  0.60610459
   0.83632816  0.08704303  0.60808797
   0.57702336  0.08588293  0.60809330
   0.24499070  0.50848172  0.56069056
   0.16425550  0.66617239  0.47375958
   0.16775881  0.16754352  0.47368799
   0.50623740 -0.01172167  0.56439017
   0.41721001  0.16518994  0.47132409
   0.58333333  0.08333333  0.38179910
   0.74865413  0.74380070  0.55881249
   0.25578253  0.74449898  0.55990058
   0.49646393  0.49960979  0.56193129
   0.49916595  0.75449653  0.56090081
   0.00654428  0.73718279  0.56393811
  -0.00183921  0.50167690  0.55945514
   0.75051626 -0.00271111  0.56536743
   0.91606345  0.66854743  0.47257429
   0.66725382  0.41645764  0.47322523
   0.74072521  0.25868621  0.56445984
   0.00709768  0.24986302  0.56072120
   0.66871657  0.66757674  0.47436859
   0.75171160  0.50704006  0.56461896
   0.00457743  0.00510710  0.56509551
   0.66639104  0.91757152  0.47292666
   0.16576468  0.91802974  0.47345964
   0.50201905  0.25704826  0.56550441
   0.23935402  0.25623421  0.56489702
Direct configuration=     9
   0.08333333  0.08333333  0.38179910
   0.33333333  0.83333333  0.38179910
   0.08333333  0.83333333  0.38179910
   0.91785618  0.16528473  0.47526840
   0.83333333  0.83333333  0.38179910
   0.83333333  0.58333333  0.38179910
   0.08333333  0.33333333  0.38179910
   0.91307887  0.41947162  0.47407337
   0.83333333  0.33333333  0.38179910
   0.08333333  0.58333333  0.38179910
   0.66512581  0.16452540  0.47578661
   0.91696970  0.91412186  0.47564261
   0.83333333  0.08333333  0.38179910
   0.58333333  0.83333333  0.38179910
   0.33333333  0.08333333  0.38179910
   0.24433658 -0.00564803  0.56139694
   0.41514750  0.66776222  0.47462964
   0.33333333  0.33333333  0.38179910
   0.16711960  0.41518800  0.47421153
   0.58333333  0.58333333  0.38179910
   0.41800199  0.41509506  0.47542362
   0.33333333  0.58333333  0.38179910
   0.58333333  0.33333333  0.38179910
   0.42032907  0.91746418  0.47507720
   0.32645774  0.34642442  0.60625156
   0.09676707  0.82399060  0.60685371
   0.33131133  0.08083086  0.60802295
   0.83364946  0.81572754  0.60627120
   0.84197456  0.33283784  0.60586508
   0.57560814  0.58950136  0.60602902
   0.83673847  0.08705630  0.60854621
   0.57583148  0.08640259  0.60836653
   0.24426703  0.50927318  0.56090423
   0.16411875  0.66625327  0.47394472
   0.16785887  0.16748234  0.47391707
   0.50630725 -0.01200382  0.56464223
   0.41723150  0.16521574  0.47176593
   0.58333333  0.08333333  0.38179910
   0.74824916  0.74303180  0.55878353
   0.25725465  0.74365884  0.55996558
   0.49646349  0.50012681  0.56236173
   0.49876494  0.75446842  0.56123675
   0.00726972  0.73638714  0.56401070
  -0.00180648  0.50163524  0.55996888
   0.75161428 -0.00418776  0.56522716
   0.91612345  0.66844702  0.47276586
   0.66713216  0.41651662  0.47359301
   0.74032563  0.26030812  0.56459748
   0.00737716  0.24967018  0.56095314
   0.66852639  0.66757013  0.47461765
   0.75124323  0.50805436  0.56483491
   0.00474016  0.00555617  0.56519629
   0.66648334  0.91760434  0.47318861
   0.16555233  0.91796761  0.47358811
   0.50122406  0.25739386  0.56585841
   0.23916444  0.25658991  0.56519008
Direct configuration=    10
   0.08333333  0.08333333  0.38179910
   0.33333333  0.83333333  0.38179910
   0.08333333  0.83333333  0.38179910
   0.91760137  0.16583663  0.47597115
   0.83333333  0.83333333  0.38179910
   0.83333333  0.58333333  0.38179910
   0.08333333  0.33333333  0.38179910
   0.91341468  0.41921470  0.47460437
   0.83333333  0.33333333  0.38179910
   0.08333333  0.58333333  0.38179910
   0.66501861  0.16494958  0.47650348
   0.91768371  0.91371621  0.47677725
   0.83333333  0.08333333  0.38179910
   0.58333333  0.83333333  0.38179910
   0.33333333  0.08333333  0.38179910
   0.24534404 -0.00627799  0.56260960
   0.41605438  0.66708652  0.47457059
   0.33333333  0.33333333  0.38179910
   0.16660063  0.41536776  0.47479067
   0.58333333  0.58333333  0.38179910
   0.41780948  0.41497418  0.47567973
   0.33333333  0.58333333  0.38179910
   0.58333333  0.33333333  0.38179910
   0.41985012  0.91810418  0.47520776
   0.32471337  0.34834687  0.60749155
   0.09879200  0.82249479  0.60716262
   0.33105760  0.08056885  0.60879236
   0.83417157  0.81250156  0.60674526
   0.84299833  0.33424846  0.60664466
   0.57427485  0.59031507  0.60723251
   0.83655198  0.08759249  0.60899757
   0.57610489  0.08595801  0.60877466
   0.24419785  0.50918542  0.56162958
   0.16411897  0.66668683  0.47403032
   0.16809710  0.16690592  0.47436068
   0.50577837 -0.01072527  0.56555337
   0.41745803  0.16529093  0.47296138
   0.58333333  0.08333333  0.38179910
   0.74865100  0.74318269  0.55921880
   0.25745497  0.74415539  0.56097681
   0.49644971  0.50047905  0.56348951
   0.49722831  0.75497217  0.56208837
   0.00683668  0.73739609  0.56465990
  -0.00188216  0.50098701  0.56160019
   0.75183339 -0.00478273  0.56646458
   0.91622171  0.66783531  0.47313166
   0.66661516  0.41696926  0.47436247
   0.74145511  0.26033644  0.56571425
   0.00742845  0.24954157  0.56169458
   0.66768703  0.66739551  0.47477752
   0.75130036  0.50819606  0.56548070
   0.00451916  0.00477383  0.56611328
   0.66689289  0.91743316  0.47361387
   0.16533877  0.91764971  0.47382229
   0.49986227  0.25681820  0.56661917
   0.23985373  0.25728139  0.56595113
Direct configuration=    11
   0.08333333  0.08333333  0.38179910
   0.33333333  0.83333333  0.38179910
   0.08333333  0.83333333  0.38179910
   0.91726935  0.16655577  0.47688684
   0.83333333  0.83333333  0.38179910
   0.83333333  0.58333333  0.38179910
   0.08333333  0.33333333  0.38179910
   0.91385223  0.41887992  0.47529626
   0.83333333  0.33333333  0.38179910
   0.08333333  0.58333333  0.38179910
   0.66487893  0.16550228  0.47743756
   0.91861406  0.91318764  0.47825569
   0.83333333  0.08333333  0.38179910
   0.58333333  0.83333333  0.38179910
   0.33333333  0.08333333  0.38179910
   0.24665677 -0.00709884  0.56418969
   0.41723606  0.66620609  0.47449365
   0.33333333  0.33333333  0.38179910
   0.16592441  0.41560199  0.47554529
   0.58333333  0.58333333  0.38179910
   0.41755865  0.41481666  0.47601345
   0.33333333  0.58333333  0.38179910
   0.58333333  0.33333333  0.38179910
   0.41922605  0.91893810  0.47537787
   0.32244046  0.35085182  0.60910725
   0.10143047  0.82054575  0.60756513
   0.33072700  0.08022745  0.60979490
   0.83485187  0.80829813  0.60736295
   0.84433231  0.33608648  0.60766046
   0.57253758  0.59137534  0.60880066
   0.83630900  0.08829115  0.60958568
   0.57646114  0.08537873  0.60930646
   0.24410771  0.50907106  0.56257471
   0.16411927  0.66725175  0.47414185
   0.16840751  0.16615485  0.47493871
   0.50508926 -0.00905933  0.56674058
   0.41775319  0.16538890  0.47451905
   0.58333333  0.08333333  0.38179910
   0.74917459  0.74337931  0.55978597
   0.25771599  0.74480239  0.56229443
   0.49643175  0.50093802  0.56495900
   0.49522608  0.75562855  0.56319802
   0.00627242  0.73871075  0.56550580
  -0.00198077  0.50014237  0.56372578
   0.75211887 -0.00555796  0.56807694
   0.91634974  0.66703825  0.47360828
   0.66594152  0.41755906  0.47536507
   0.74292682  0.26037333  0.56716940
   0.00749529  0.24937398  0.56266067
   0.66659336  0.66716799  0.47498583
   0.75137480  0.50838068  0.56632217
   0.00423120  0.00375444  0.56730810
   0.66742653  0.91721010  0.47416798
   0.16506049  0.91723548  0.47412743
   0.49808787  0.25606811  0.56761043
   0.24075187  0.25818240  0.56694276
Direct configuration=    12
   0.08333333  0.08333333  0.38179910
   0.33333333  0.83333333  0.38179910
   0.08333333  0.83333333  0.38179910
   0.91716575  0.16669198  0.47727810
   0.83333333  0.83333333  0.38179910
   0.83333333  0.58333333  0.38179910
   0.08333333  0.33333333  0.38179910
   0.91388984  0.41899919  0.47582040
   0.83333333  0.33333333  0.38179910
   0.08333333  0.58333333  0.38179910
   0.66516881  0.16552655  0.47809855
   0.91840118  0.91326428  0.47881241
   0.83333333  0.08333333  0.38179910
   0.58333333  0.83333333  0.38179910
   0.33333333  0.08333333  0.38179910
   0.24545039 -0.00692453  0.56480832
   0.41716636  0.66613453  0.47466920
   0.33333333  0.33333333  0.38179910
   0.16550821  0.41582091  0.47608212
   0.58333333  0.58333333  0.38179910
   0.41715255  0.41518966  0.47643290
   0.33333333  0.58333333  0.38179910
   0.58333333  0.33333333  0.38179910
   0.41904824  0.91895448  0.47566914
   0.32158095  0.35193267  0.61070296
   0.10195418  0.81999919  0.60857857
   0.33059641  0.08103526  0.61109438
   0.83562962  0.80630243  0.60854498
   0.84475252  0.33736801  0.60890461
   0.57228722  0.59185153  0.61019661
   0.83561752  0.08867692  0.61037551
   0.57796798  0.08479444  0.61031038
   0.24431723  0.50937478  0.56294220
   0.16467748  0.66710523  0.47436894
   0.16850751  0.16571512  0.47540974
   0.50480948 -0.00950290  0.56707096
   0.41777857  0.16551257  0.47521782
   0.58333333  0.08333333  0.38179910
   0.74852171  0.74334853  0.55968629
   0.25821722  0.74467148  0.56259238
   0.49620113  0.50005678  0.56568130
   0.49542232  0.75596242  0.56371663
   0.00623400  0.73869823  0.56585742
  -0.00205187  0.49990893  0.56496103
   0.75128658 -0.00489906  0.56942784
   0.91633083  0.66656074  0.47395624
   0.66587542  0.41756208  0.47593462
   0.74313862  0.26003127  0.56823854
   0.00876217  0.24865595  0.56317753
   0.66621379  0.66727577  0.47521429
   0.75011467  0.50909449  0.56696221
   0.00526928  0.00287807  0.56801222
   0.66768402  0.91705567  0.47444651
   0.16548437  0.91710531  0.47456573
   0.49765560  0.25682762  0.56817270
   0.24084932  0.25815653  0.56762682
Direct configuration=    13
   0.08333333  0.08333333  0.38179910
   0.33333333  0.83333333  0.38179910
   0.08333333  0.83333333  0.38179910
   0.91704603  0.16684939  0.47773025
   0.83333333  0.83333333  0.38179910
   0.83333333  0.58333333  0.38179910
   0.08333333  0.33333333  0.38179910
   0.91393329  0.41913703  0.47642612
   0.83333333  0.33333333  0.38179910
   0.08333333  0.58333333  0.38179910
   0.66550381  0.16555459  0.47886241
   0.91815517  0.91335284  0.47945578
   0.83333333  0.08333333  0.38179910
   0.58333333  0.83333333  0.38179910
   0.33333333  0.08333333  0.38179910
   0.24405625 -0.00672308  0.56552325
   0.41708581  0.66605184  0.47487209
   0.33333333  0.33333333  0.38179910
   0.16502723  0.41607390  0.47670250
   0.58333333  0.58333333  0.38179910
   0.41668325  0.41562071  0.47691764
   0.33333333  0.58333333  0.38179910
   0.58333333  0.33333333  0.38179910
   0.41884275  0.91897341  0.47600574
   0.32058767  0.35318175  0.61254703
   0.10255940  0.81936757  0.60974975
   0.33044550  0.08196880  0.61259611
   0.83652843  0.80399612  0.60991098
   0.84523813  0.33884901  0.61034241
   0.57199789  0.59240183  0.61180983
   0.83481842  0.08912273  0.61128827
   0.57970935  0.08411921  0.61147055
   0.24455936  0.50972578  0.56336690
   0.16532258  0.66693591  0.47463136
   0.16862307  0.16520695  0.47595408
   0.50448616 -0.01001552  0.56745277
   0.41780790  0.16565549  0.47602535
   0.58333333  0.08333333  0.38179910
   0.74776721  0.74331295  0.55957110
   0.25879646  0.74452019  0.56293670
   0.49593461  0.49903839  0.56651603
   0.49564911  0.75634827  0.56431596
   0.00618961  0.73868376  0.56626377
  -0.00213403  0.49963917  0.56638855
   0.75032474 -0.00413760  0.57098899
   0.91630899  0.66600891  0.47435834
   0.66579903  0.41756557  0.47659280
   0.74338338  0.25963597  0.56947408
   0.01022623  0.24782616  0.56377485
   0.66577513  0.66740033  0.47547831
   0.74865841  0.50991939  0.56770187
   0.00646894  0.00186530  0.56882593
   0.66798158  0.91687720  0.47476839
   0.16597423  0.91695487  0.47507225
   0.49715605  0.25770534  0.56882249
   0.24096194  0.25812665  0.56841734
Direct configuration=    14
   0.08333333  0.08333333  0.38179910
   0.33333333  0.83333333  0.38179910
   0.08333333  0.83333333  0.38179910
   0.91721837  0.16650169  0.47803976
   0.83333333  0.83333333  0.38179910
   0.83333333  0.58333333  0.38179910
   0.08333333  0.33333333  0.38179910
   0.91349554  0.41947168  0.47712601
   0.83333333  0.33333333  0.38179910
   0.08333333  0.58333333  0.38179910
   0.66576982  0.16540671  0.47953934
   0.91743036  0.91369867  0.47968184
   0.83333333  0.08333333  0.38179910
   0.58333333  0.83333333  0.38179910
   0.33333333  0.08333333  0.38179910
   0.24392879 -0.00550970  0.56626473
   0.41651168  0.66639431  0.47542700
   0.33333333  0.33333333  0.38179910
   0.16485694  0.41605261  0.47731178
   0.58333333  0.58333333  0.38179910
   0.41653306  0.41585785  0.47741829
   0.33333333  0.58333333  0.38179910
   0.58333333  0.33333333  0.38179910
   0.41905597  0.91853314  0.47653237
   0.32045260  0.35396511  0.61350796
   0.10274916  0.81877519  0.61085560
   0.33018478  0.08290086  0.61356865
   0.83680227  0.80244104  0.61075826
   0.84586491  0.33941473  0.61124238
   0.57178540  0.59275683  0.61261487
   0.83517166  0.08860522  0.61242784
   0.57906236  0.08469074  0.61258834
   0.24502180  0.50893349  0.56399137
   0.16568462  0.66657887  0.47500869
   0.16856554  0.16529190  0.47641299
   0.50421078 -0.00983648  0.56821089
   0.41763308  0.16587282  0.47629528
   0.58333333  0.08333333  0.38179910
   0.74802799  0.74409809  0.55977946
   0.25851366  0.74406862  0.56309464
   0.49635966  0.49879226  0.56743424
   0.49707325  0.75525441  0.56487899
   0.00567211  0.73867153  0.56686022
  -0.00251450  0.49991336  0.56734502
   0.75112557 -0.00519066  0.57231563