  48  48   0   0
  0.5349325E+02  0.1100258E-08  0.1100258E-08  0.2449179E-08  0.3500000E-15
  1.000000000000000E-004
  CAR 
 unknown system                          
      6.35870325     -9.82557367  301     -1.11403025      1.00000000
     -9.826  0.0000E+00  0.0000E+00
     -9.772  0.0000E+00  0.0000E+00
     -9.718  0.0000E+00  0.0000E+00
     -9.664  0.0000E+00  0.0000E+00
     -9.610  0.0000E+00  0.0000E+00
     -9.556  0.0000E+00  0.0000E+00
     -9.502  0.0000E+00  0.0000E+00
     -9.448  0.0000E+00  0.0000E+00
     -9.394  0.1098E-16  0.5921E-18
     -9.340  0.4191E-14  0.2267E-15
     -9.286  0.9269E-12  0.5023E-13
     -9.232  0.1159E-09  0.6304E-11
     -9.178  0.8214E-08  0.4495E-09
     -9.124  0.3304E-06  0.1828E-07
     -9.070  0.7563E-05  0.4263E-06
     -9.016  0.9874E-04  0.5753E-05
     -8.962  0.7371E-03  0.4552E-04
     -8.908  0.3154E-02  0.2157E-03
     -8.855  0.7760E-02  0.6343E-03
     -8.801  0.1107E-01  0.1231E-02
     -8.747  0.9731E-02  0.1756E-02
     -8.693  0.7515E-02  0.2162E-02
     -8.639  0.9020E-02  0.2648E-02
     -8.585  0.1103E-01  0.3243E-02
     -8.531  0.8701E-02  0.3713E-02
     -8.477  0.4054E-02  0.3931E-02
     -8.423  0.1202E-02  0.3996E-02
     -8.369  0.9135E-03  0.4045E-02
     -8.315  0.3008E-02  0.4208E-02
     -8.261  0.7159E-02  0.4594E-02
     -8.207  0.1030E-01  0.5150E-02
     -8.153  0.9156E-02  0.5644E-02
     -8.099  0.5820E-02  0.5958E-02
     -8.045  0.5386E-02  0.6248E-02
     -7.991  0.9412E-02  0.6756E-02
     -7.937  0.1471E-01  0.7549E-02
     -7.883  0.1722E-01  0.8478E-02
     -7.830  0.1507E-01  0.9291E-02
     -7.776  0.1013E-01  0.9838E-02
     -7.722  0.7935E-02  0.1027E-01
     -7.668  0.1131E-01  0.1088E-01
     -7.614  0.1666E-01  0.1177E-01
     -7.560  0.1993E-01  0.1285E-01
     -7.506  0.2127E-01  0.1400E-01
     -7.452  0.2273E-01  0.1522E-01
     -7.398  0.2323E-01  0.1648E-01
     -7.344  0.1987E-01  0.1755E-01
     -7.290  0.1745E-01  0.1849E-01
     -7.236  0.2290E-01  0.1973E-01
     -7.182  0.3348E-01  0.2153E-01
     -7.128  0.4279E-01  0.2384E-01
     -7.074  0.4931E-01  0.2650E-01
     -7.020  0.5441E-01  0.2944E-01
     -6.966  0.5754E-01  0.3254E-01
     -6.912  0.5754E-01  0.3564E-01
     -6.858  0.5735E-01  0.3874E-01
     -6.805  0.6181E-01  0.4207E-01
     -6.751  0.7147E-01  0.4593E-01
     -6.697  0.8206E-01  0.5035E-01
     -6.643  0.9057E-01  0.5524E-01
     -6.589  0.9738E-01  0.6049E-01
     -6.535  0.1022E+00  0.6601E-01
     -6.481  0.1052E+00  0.7168E-01
     -6.427  0.1112E+00  0.7768E-01
     -6.373  0.1215E+00  0.8424E-01
     -6.319  0.1308E+00  0.9129E-01
     -6.265  0.1381E+00  0.9874E-01
     -6.211  0.1489E+00  0.1068E+00
     -6.157  0.1640E+00  0.1156E+00
     -6.103  0.1744E+00  0.1250E+00
     -6.049  0.1735E+00  0.1344E+00
     -5.995  0.1671E+00  0.1434E+00
     -5.941  0.1635E+00  0.1522E+00
     -5.887  0.1627E+00  0.1610E+00
     -5.833  0.1582E+00  0.1695E+00
     -5.780  0.1484E+00  0.1776E+00
     -5.726  0.1374E+00  0.1850E+00
     -5.672  0.1291E+00  0.1919E+00
     -5.618  0.1255E+00  0.1987E+00
     -5.564  0.1242E+00  0.2054E+00
     -5.510  0.1208E+00  0.2119E+00
     -5.456  0.1185E+00  0.2183E+00
     -5.402  0.1239E+00  0.2250E+00
     -5.348  0.1365E+00  0.2324E+00
     -5.294  0.1508E+00  0.2405E+00
     -5.240  0.1639E+00  0.2493E+00
     -5.186  0.1757E+00  0.2588E+00
     -5.132  0.1856E+00  0.2688E+00
     -5.078  0.1903E+00  0.2791E+00
     -5.024  0.1873E+00  0.2892E+00
     -4.970  0.1805E+00  0.2989E+00
     -4.916  0.1757E+00  0.3084E+00
     -4.862  0.1725E+00  0.3177E+00
     -4.808  0.1698E+00  0.3269E+00
     -4.755  0.1711E+00  0.3361E+00
     -4.701  0.1755E+00  0.3456E+00
     -4.647  0.1785E+00  0.3552E+00
     -4.593  0.1776E+00  0.3648E+00
     -4.539  0.1731E+00  0.3741E+00
     -4.485  0.1689E+00  0.3832E+00
     -4.431  0.1679E+00  0.3923E+00
     -4.377  0.1673E+00  0.4013E+00
     -4.323  0.1635E+00  0.4101E+00
     -4.269  0.1579E+00  0.4187E+00
     -4.215  0.1543E+00  0.4270E+00
     -4.161  0.1561E+00  0.4354E+00
     -4.107  0.1628E+00  0.4442E+00
     -4.053  0.1689E+00  0.4533E+00
     -3.999  0.1713E+00  0.4625E+00
     -3.945  0.1731E+00  0.4719E+00
     -3.891  0.1789E+00  0.4815E+00
     -3.837  0.1883E+00  0.4917E+00
     -3.783  0.1958E+00  0.5023E+00
     -3.729  0.1982E+00  0.5129E+00
     -3.676  0.1990E+00  0.5237E+00
     -3.622  0.2017E+00  0.5346E+00
     -3.568  0.2054E+00  0.5456E+00
     -3.514  0.2093E+00  0.5569E+00
     -3.460  0.2124E+00  0.5684E+00
     -3.406  0.2132E+00  0.5799E+00
     -3.352  0.2109E+00  0.5913E+00
     -3.298  0.2059E+00  0.6024E+00
     -3.244  0.1992E+00  0.6131E+00
     -3.190  0.1917E+00  0.6235E+00
     -3.136  0.1855E+00  0.6335E+00
     -3.082  0.1820E+00  0.6433E+00
     -3.028  0.1797E+00  0.6530E+00
     -2.974  0.1755E+00  0.6624E+00
     -2.920  0.1721E+00  0.6717E+00
     -2.866  0.1748E+00  0.6812E+00
     -2.812  0.1814E+00  0.6909E+00
     -2.758  0.1858E+00  0.7010E+00
     -2.704  0.1873E+00  0.7111E+00
     -2.651  0.1880E+00  0.7212E+00
     -2.597  0.1867E+00  0.7313E+00
     -2.543  0.1830E+00  0.7412E+00
     -2.489  0.1806E+00  0.7509E+00
     -2.435  0.1832E+00  0.7608E+00
     -2.381  0.1893E+00  0.7710E+00
     -2.327  0.1938E+00  0.7815E+00
     -2.273  0.1918E+00  0.7918E+00
     -2.219  0.1849E+00  0.8018E+00
     -2.165  0.1791E+00  0.8114E+00
     -2.111  0.1770E+00  0.8210E+00
     -2.057  0.1794E+00  0.8307E+00
     -2.003  0.1885E+00  0.8408E+00
     -1.949  0.2025E+00  0.8518E+00
     -1.895  0.2143E+00  0.8633E+00
     -1.841  0.2178E+00  0.8751E+00
     -1.787  0.2148E+00  0.8867E+00
     -1.733  0.2115E+00  0.8981E+00
     -1.679  0.2067E+00  0.9092E+00
     -1.626  0.1979E+00  0.9199E+00
     -1.572  0.1899E+00  0.9301E+00
     -1.518  0.1858E+00  0.9402E+00
     -1.464  0.1857E+00  0.9502E+00
     -1.410  0.1902E+00  0.9604E+00
     -1.356  0.1942E+00  0.9709E+00
     -1.302  0.1905E+00  0.9812E+00
     -1.248  0.1765E+00  0.9907E+00
     -1.194  0.1528E+00  0.9990E+00
     -1.140  0.1213E+00  0.1006E+01
     -1.086  0.8757E-01  0.1010E+01
     -1.032  0.5916E-01  0.1013E+01
     -0.978  0.4124E-01  0.1016E+01
     -0.924  0.3250E-01  0.1017E+01
     -0.870  0.2759E-01  0.1019E+01
     -0.816  0.2401E-01  0.1020E+01
     -0.762  0.2176E-01  0.1021E+01
     -0.708  0.2075E-01  0.1022E+01
     -0.654  0.2147E-01  0.1024E+01
     -0.601  0.2567E-01  0.1025E+01
     -0.547  0.3433E-01  0.1027E+01
     -0.493  0.4422E-01  0.1029E+01
     -0.439  0.4907E-01  0.1032E+01
     -0.385  0.4475E-01  0.1034E+01
     -0.331  0.3745E-01  0.1036E+01
     -0.277  0.3811E-01  0.1038E+01
     -0.223  0.4325E-01  0.1041E+01
     -0.169  0.4129E-01  0.1043E+01
     -0.115  0.3159E-01  0.1045E+01
     -0.061  0.2176E-01  0.1046E+01
     -0.007  0.1696E-01  0.1047E+01
      0.047  0.1734E-01  0.1048E+01
      0.101  0.2217E-01  0.1049E+01
      0.155  0.2897E-01  0.1050E+01
      0.209  0.3214E-01  0.1052E+01
      0.263  0.3191E-01  0.1054E+01
      0.317  0.3380E-01  0.1056E+01
      0.371  0.3838E-01  0.1058E+01
      0.424  0.4206E-01  0.1060E+01
      0.478  0.4403E-01  0.1062E+01
      0.532  0.4542E-01  0.1065E+01
      0.586  0.4686E-01  0.1067E+01
      0.640  0.4876E-01  0.1070E+01
      0.694  0.4897E-01  0.1073E+01
      0.748  0.4398E-01  0.1075E+01
      0.802  0.3516E-01  0.1077E+01
      0.856  0.2847E-01  0.1078E+01
      0.910  0.2576E-01  0.1080E+01
      0.964  0.2308E-01  0.1081E+01
      1.018  0.1971E-01  0.1082E+01
      1.072  0.1854E-01  0.1083E+01
      1.126  0.1824E-01  0.1084E+01
      1.180  0.1587E-01  0.1085E+01
      1.234  0.1223E-01  0.1086E+01
      1.288  0.1050E-01  0.1086E+01
      1.342  0.1212E-01  0.1087E+01
      1.396  0.1424E-01  0.1088E+01
      1.449  0.1665E-01  0.1089E+01
      1.503  0.2298E-01  0.1090E+01
      1.557  0.3197E-01  0.1092E+01
      1.611  0.3738E-01  0.1094E+01
      1.665  0.3539E-01  0.1095E+01
      1.719  0.3067E-01  0.1097E+01
      1.773  0.3112E-01  0.1099E+01
      1.827  0.3510E-01  0.1101E+01
      1.881  0.3291E-01  0.1102E+01
      1.935  0.2403E-01  0.1104E+01
      1.989  0.1883E-01  0.1105E+01
      2.043  0.2085E-01  0.1106E+01
      2.097  0.2524E-01  0.1107E+01
      2.151  0.3031E-01  0.1109E+01
      2.205  0.3768E-01  0.1111E+01
      2.259  0.4594E-01  0.1113E+01
      2.313  0.5081E-01  0.1116E+01
      2.367  0.4974E-01  0.1119E+01
      2.421  0.4406E-01  0.1121E+01
      2.474  0.3797E-01  0.1123E+01
      2.528  0.3546E-01  0.1125E+01
      2.582  0.3834E-01  0.1127E+01
      2.636  0.4518E-01  0.1130E+01
      2.690  0.4962E-01  0.1132E+01
      2.744  0.4483E-01  0.1135E+01
      2.798  0.3205E-01  0.1137E+01
      2.852  0.1901E-01  0.1138E+01
      2.906  0.1199E-01  0.1138E+01
      2.960  0.1144E-01  0.1139E+01
      3.014  0.1172E-01  0.1139E+01
      3.068  0.9816E-02  0.1140E+01
      3.122  0.1043E-01  0.1141E+01
      3.176  0.1667E-01  0.1141E+01
      3.230  0.2363E-01  0.1143E+01
      3.284  0.2456E-01  0.1144E+01
      3.338  0.2043E-01  0.1145E+01
      3.392  0.1858E-01  0.1146E+01
      3.446  0.2196E-01  0.1147E+01
      3.499  0.2558E-01  0.1149E+01
      3.553  0.2753E-01  0.1150E+01
      3.607  0.3444E-01  0.1152E+01
      3.661  0.4444E-01  0.1154E+01
      3.715  0.4533E-01  0.1157E+01
      3.769  0.3639E-01  0.1159E+01
      3.823  0.2713E-01  0.1160E+01
      3.877  0.2150E-01  0.1161E+01
      3.931  0.2001E-01  0.1163E+01
      3.985  0.2304E-01  0.1164E+01
      4.039  0.2641E-01  0.1165E+01
      4.093  0.2640E-01  0.1167E+01
      4.147  0.2577E-01  0.1168E+01
      4.201  0.2657E-01  0.1169E+01
      4.255  0.2455E-01  0.1171E+01
      4.309  0.1821E-01  0.1172E+01
      4.363  0.1531E-01  0.1173E+01
      4.417  0.2017E-01  0.1174E+01
      4.471  0.2799E-01  0.1175E+01
      4.524  0.3635E-01  0.1177E+01
      4.578  0.4689E-01  0.1180E+01
      4.632  0.5622E-01  0.1183E+01
      4.686  0.5748E-01  0.1186E+01
      4.740  0.5063E-01  0.1189E+01
      4.794  0.4470E-01  0.1191E+01
      4.848  0.4682E-01  0.1193E+01
      4.902  0.5342E-01  0.1196E+01
      4.956  0.5842E-01  0.1200E+01
      5.010  0.6227E-01  0.1203E+01
      5.064  0.6601E-01  0.1206E+01
      5.118  0.6520E-01  0.1210E+01
      5.172  0.5934E-01  0.1213E+01
      5.226  0.5588E-01  0.1216E+01
      5.280  0.5439E-01  0.1219E+01
      5.334  0.4551E-01  0.1222E+01
      5.388  0.2844E-01  0.1223E+01
      5.442  0.1244E-01  0.1224E+01
      5.496  0.3645E-02  0.1224E+01
      5.549  0.6861E-03  0.1224E+01
      5.603  0.7997E-04  0.1224E+01
      5.657  0.5607E-05  0.1224E+01
      5.711  0.2317E-06  0.1224E+01
      5.765  0.5563E-08  0.1224E+01
      5.819  0.7689E-10  0.1224E+01
      5.873  0.6078E-12  0.1224E+01
      5.927  0.2734E-14  0.1224E+01
      5.981  0.6860E-17  0.1224E+01
      6.035  0.0000E+00  0.1224E+01
      6.089  0.0000E+00  0.1224E+01
      6.143  0.0000E+00  0.1224E+01
      6.197  0.0000E+00  0.1224E+01
      6.251  0.0000E+00  0.1224E+01
      6.305  0.0000E+00  0.1224E+01
      6.359  0.0000E+00  0.1224E+01
