       N       E                     dE             d eps       ncg     rms          rms(c)
DAV:   1     0.320134605124E+04    0.32013E+04   -0.18981E+05  3672   0.112E+03
DAV:   2     0.159245662736E+02   -0.31854E+04   -0.29277E+04  4368   0.263E+02
DAV:   3    -0.199869494486E+03   -0.21579E+03   -0.20035E+03  4140   0.652E+01
DAV:   4    -0.205786222473E+03   -0.59167E+01   -0.58415E+01  4236   0.108E+01
DAV:   5    -0.205967201394E+03   -0.18098E+00   -0.18041E+00  4464   0.194E+00    0.625E+01
RMM:   6    -0.203451916598E+03    0.25153E+01   -0.92335E+01  3679   0.152E+01    0.567E+01
RMM:   7    -0.217983593438E+03   -0.14532E+02   -0.63238E+01  3682   0.126E+01    0.515E+01
RMM:   8    -0.220402189273E+03   -0.24186E+01   -0.93996E+01  3678   0.145E+01    0.452E+01
RMM:   9    -0.212957869780E+03    0.74443E+01   -0.59223E+01  3678   0.115E+01    0.370E+01
RMM:  10    -0.198254619629E+03    0.14703E+02   -0.19346E+01  3681   0.748E+00    0.210E+01
RMM:  11    -0.192469611279E+03    0.57850E+01   -0.14051E+01  3681   0.588E+00    0.149E+01
RMM:  12    -0.189670950441E+03    0.27987E+01   -0.58518E+00  3682   0.380E+00    0.965E+00
RMM:  13    -0.188791479441E+03    0.87947E+00   -0.15501E+00  3683   0.193E+00    0.639E+00
RMM:  14    -0.188879252761E+03   -0.87773E-01   -0.75697E-01  3681   0.132E+00    0.707E+00
RMM:  15    -0.189022526496E+03   -0.14327E+00   -0.62038E-01  3681   0.124E+00    0.636E+00
RMM:  16    -0.188737365678E+03    0.28516E+00   -0.31617E-01  3680   0.887E-01    0.454E+00
RMM:  17    -0.188567995396E+03    0.16937E+00   -0.20983E-01  3680   0.698E-01    0.324E+00
RMM:  18    -0.188478025584E+03    0.89970E-01   -0.10542E-01  3681   0.484E-01    0.192E+00
RMM:  19    -0.188442645910E+03    0.35380E-01   -0.45633E-02  3682   0.325E-01    0.109E+00
RMM:  20    -0.188434709916E+03    0.79360E-02   -0.11503E-02  3683   0.160E-01    0.793E-01
RMM:  21    -0.188429308971E+03    0.54009E-02   -0.37918E-03  3683   0.897E-02    0.540E-01
RMM:  22    -0.188427551564E+03    0.17574E-02   -0.32882E-03  3681   0.839E-02    0.427E-01
RMM:  23    -0.188425593454E+03    0.19581E-02   -0.32252E-03  3681   0.822E-02    0.225E-01
RMM:  24    -0.188425549144E+03    0.44310E-04   -0.10168E-03  3684   0.478E-02    0.138E-01
RMM:  25    -0.188425481053E+03    0.68091E-04   -0.44684E-04  3683   0.310E-02    0.672E-02
RMM:  26    -0.188425851164E+03   -0.37011E-03   -0.14379E-04  3681   0.167E-02    0.717E-02
RMM:  27    -0.188426132999E+03   -0.28184E-03   -0.74876E-05  3682   0.127E-02    0.476E-02
RMM:  28    -0.188426550203E+03   -0.41720E-03   -0.47035E-05  3672   0.993E-03    0.318E-02
RMM:  29    -0.188427041889E+03   -0.49169E-03   -0.37767E-05  3672   0.866E-03    0.260E-02
RMM:  30    -0.188427793953E+03   -0.75206E-03   -0.46092E-05  3672   0.917E-03    0.229E-02
RMM:  31    -0.188428312238E+03   -0.51829E-03   -0.32072E-05  3587   0.755E-03    0.206E-02
RMM:  32    -0.188428679509E+03   -0.36727E-03   -0.23981E-05  3347   0.640E-03    0.126E-02
RMM:  33    -0.188428841827E+03   -0.16232E-03   -0.92998E-06  2836   0.387E-03    0.102E-02
RMM:  34    -0.188428932945E+03   -0.91118E-04   -0.41415E-06  2636   0.262E-03    0.443E-03
RMM:  35    -0.188429025024E+03   -0.92079E-04   -0.20642E-06  2315   0.192E-03    0.234E-03
RMM:  36    -0.188429058759E+03   -0.33735E-04   -0.74670E-07  2155   0.115E-03    0.193E-03
RMM:  37    -0.188429091378E+03   -0.32619E-04   -0.57685E-07  2146   0.108E-03    0.159E-03
RMM:  38    -0.188429102526E+03   -0.11148E-04   -0.24436E-07  1607   0.672E-04    0.127E-03
RMM:  39    -0.188429110409E+03   -0.78823E-05   -0.20970E-07  1892   0.673E-04    0.766E-04
RMM:  40    -0.188429113036E+03   -0.26272E-05   -0.82424E-08  1143   0.404E-04    0.483E-04
RMM:  41    -0.188429114056E+03   -0.10205E-05   -0.33140E-08   763   0.359E-04    0.328E-04
RMM:  42    -0.188429115003E+03   -0.94669E-06   -0.38887E-08   857   0.393E-04
   1 F= -.18842912E+03 E0= -.18830513E+03  d E =-.188429E+03
       N       E                     dE             d eps       ncg     rms          rms(c)
DAV:   1    -0.189518839496E+03   -0.10897E+01   -0.37446E+02  3684   0.297E+01    0.373E+00
RMM:   2    -0.189904174359E+03   -0.38533E+00   -0.39578E+00  3679   0.429E+00    0.220E+00
RMM:   3    -0.189991712100E+03   -0.87538E-01   -0.35550E-01  3704   0.104E+00    0.361E+00
RMM:   4    -0.189895482164E+03    0.96230E-01   -0.14660E-01  3687   0.640E-01    0.152E+00
RMM:   5    -0.189976820175E+03   -0.81338E-01   -0.94686E-02  3686   0.454E-01    0.307E+00
RMM:   6    -0.189880439786E+03    0.96380E-01   -0.58595E-02  3682   0.378E-01    0.776E-01
RMM:   7    -0.189874960323E+03    0.54795E-02   -0.14942E-02  3682   0.195E-01    0.405E-01
RMM:   8    -0.189873262236E+03    0.16981E-02   -0.41083E-03  3685   0.998E-02    0.248E-01
RMM:   9    -0.189872790993E+03    0.47124E-03   -0.14911E-03  3686   0.611E-02    0.162E-01
RMM:  10    -0.189872600894E+03    0.19010E-03   -0.53581E-04  3687   0.363E-02    0.942E-02
RMM:  11    -0.189872522661E+03    0.78234E-04   -0.14766E-04  3687   0.194E-02    0.413E-02
RMM:  12    -0.189872522411E+03    0.24944E-06   -0.38417E-05  3681   0.101E-02    0.340E-02
RMM:  13    -0.189872516478E+03    0.59330E-05   -0.21227E-05  3672   0.750E-03    0.215E-02
RMM:  14    -0.189872515053E+03    0.14249E-05   -0.84015E-06  3292   0.468E-03    0.147E-02
RMM:  15    -0.189872513957E+03    0.10961E-05   -0.29329E-06  2520   0.288E-03    0.587E-03
RMM:  16    -0.189872514924E+03   -0.96691E-06   -0.10219E-06  2026   0.179E-03
   2 F= -.18987251E+03 E0= -.18975033E+03  d E =-.144340E+01
       N       E                     dE             d eps       ncg     rms          rms(c)
DAV:   1    -0.188777723012E+03    0.10948E+01   -0.31137E+03  3672   0.875E+01    0.848E+00
RMM:   2    -0.191800035913E+03   -0.30223E+01   -0.30956E+01  3679   0.121E+01    0.513E+00
RMM:   3    -0.192349993907E+03   -0.54996E+00   -0.22309E+00  3707   0.259E+00    0.911E+00
RMM:   4    -0.191680681263E+03    0.66931E+00   -0.72612E-01  3687   0.142E+00    0.402E+00
RMM:   5    -0.191967000911E+03   -0.28632E+00   -0.47267E-01  3686   0.104E+00    0.648E+00
RMM:   6    -0.191708866292E+03    0.25813E+00   -0.48617E-01  3683   0.108E+00    0.371E+00
RMM:   7    -0.191559028263E+03    0.14984E+00   -0.18338E-01  3684   0.680E-01    0.134E+00
RMM:   8    -0.191544360296E+03    0.14668E-01   -0.55001E-02  3683   0.361E-01    0.108E+00
RMM:   9    -0.191530444183E+03    0.13916E-01   -0.19395E-02  3681   0.220E-01    0.363E-01
RMM:  10    -0.191529986464E+03    0.45772E-03   -0.47722E-03  3685   0.106E-01    0.297E-01
RMM:  11    -0.191529429826E+03    0.55664E-03   -0.18396E-03  3684   0.675E-02    0.190E-01
RMM:  12    -0.191529305654E+03    0.12417E-03   -0.73344E-04  3684   0.435E-02    0.131E-01
RMM:  13    -0.191529175132E+03    0.13052E-03   -0.32714E-04  3681   0.293E-02    0.666E-02
RMM:  14    -0.191529167303E+03    0.78288E-05   -0.96469E-05  3678   0.158E-02    0.423E-02
RMM:  15    -0.191529155177E+03    0.12126E-04   -0.33379E-05  3675   0.932E-03    0.176E-02
RMM:  16    -0.191529160599E+03   -0.54212E-05   -0.79432E-06  3287   0.450E-03    0.106E-02
RMM:  17    -0.191529164894E+03   -0.42953E-05   -0.24837E-06  2387   0.263E-03    0.672E-03
RMM:  18    -0.191529171528E+03   -0.66341E-05   -0.79194E-07  2086   0.161E-03    0.393E-03
RMM:  19    -0.191529175917E+03   -0.43891E-05   -0.40172E-07  2046   0.110E-03    0.231E-03
RMM:  20    -0.191529180234E+03   -0.43167E-05   -0.17728E-07  1688   0.688E-04    0.104E-03
RMM:  21    -0.191529184008E+03   -0.37742E-05   -0.90438E-08  1125   0.479E-04    0.959E-04
RMM:  22    -0.191529188594E+03   -0.45864E-05   -0.12338E-07  1416   0.499E-04    0.742E-04
RMM:  23    -0.191529194698E+03   -0.61039E-05   -0.30847E-07  1879   0.643E-04    0.788E-04
RMM:  24    -0.191529197275E+03   -0.25765E-05   -0.14988E-07  1186   0.463E-04    0.478E-04
RMM:  25    -0.191529198747E+03   -0.14719E-05   -0.11509E-07  1186   0.463E-04    0.342E-04
RMM:  26    -0.191529199253E+03   -0.50645E-06   -0.65249E-08   990   0.401E-04
   3 F= -.19152920E+03 E0= -.19141376E+03  d E =-.310008E+01
       N       E                     dE             d eps       ncg     rms          rms(c)
DAV:   1    -0.191658075118E+03   -0.12888E+00   -0.33171E+02  3672   0.282E+01    0.244E+00
RMM:   2    -0.192014086488E+03   -0.35601E+00   -0.37297E+00  3687   0.411E+00    0.161E+00
RMM:   3    -0.192069557706E+03   -0.55471E-01   -0.26878E-01  3703   0.898E-01    0.288E+00
RMM:   4    -0.191999754621E+03    0.69803E-01   -0.69907E-02  3687   0.450E-01    0.112E+00
RMM:   5    -0.192023833972E+03   -0.24079E-01   -0.38665E-02  3686   0.299E-01    0.184E+00
RMM:   6    -0.192004897590E+03    0.18936E-01   -0.45759E-02  3684   0.327E-01    0.121E+00
RMM:   7    -0.191989439017E+03    0.15459E-01   -0.19054E-02  3684   0.220E-01    0.406E-01
RMM:   8    -0.191988127212E+03    0.13118E-02   -0.53952E-03  3682   0.116E-01    0.322E-01
RMM:   9    -0.191986719097E+03    0.14081E-02   -0.22306E-03  3682   0.744E-02    0.103E-01
RMM:  10    -0.191986668541E+03    0.50556E-04   -0.42100E-04  3686   0.319E-02    0.797E-02
RMM:  11    -0.191986609953E+03    0.58588E-04   -0.14406E-04  3685   0.186E-02    0.397E-02
RMM:  12    -0.191986603110E+03    0.68430E-05   -0.52404E-05  3683   0.115E-02    0.276E-02
RMM:  13    -0.191986601124E+03    0.19862E-05   -0.16130E-05  3679   0.655E-03    0.161E-02
RMM:  14    -0.191986599804E+03    0.13199E-05   -0.44631E-06  2759   0.353E-03    0.793E-03
RMM:  15    -0.191986600690E+03   -0.88588E-06   -0.14973E-06  2042   0.215E-03
   4 F= -.19198660E+03 E0= -.19187455E+03  d E =-.457401E+00
       N       E                     dE             d eps       ncg     rms          rms(c)
DAV:   1    -0.191985940036E+03    0.65977E-03   -0.12243E+01  3744   0.540E+00    0.414E-01
RMM:   2    -0.191999277464E+03   -0.13337E-01   -0.13991E-01  3687   0.794E-01    0.315E-01
RMM:   3    -0.192000768752E+03   -0.14913E-02   -0.99327E-03  3704   0.173E-01    0.486E-01
RMM:   4    -0.191998667566E+03    0.21012E-02   -0.21341E-03  3687   0.792E-02    0.215E-01
RMM:   5    -0.191999067659E+03   -0.40009E-03   -0.97072E-04  3688   0.477E-02    0.280E-01
RMM:   6    -0.191998681101E+03    0.38656E-03   -0.16198E-03  3684   0.619E-02    0.206E-01
RMM:   7    -0.191998290637E+03    0.39046E-03   -0.73138E-04  3685   0.432E-02    0.779E-02
RMM:   8    -0.191998249528E+03    0.41109E-04   -0.17690E-04  3683   0.213E-02    0.600E-02
RMM:   9    -0.191998199998E+03    0.49530E-04   -0.75591E-05  3681   0.138E-02    0.215E-02
RMM:  10    -0.191998196741E+03    0.32575E-05   -0.17733E-05  3673   0.649E-03    0.148E-02
RMM:  11    -0.191998194862E+03    0.18787E-05   -0.61723E-06  3442   0.381E-03    0.758E-03
RMM:  12    -0.191998195025E+03   -0.16329E-06   -0.21292E-06  2131   0.247E-03
   5 F= -.19199820E+03 E0= -.19188673E+03  d E =-.468996E+00
       N       E                     dE             d eps       ncg     rms          rms(c)
DAV:   1    -0.192018503696E+03   -0.20309E-01   -0.58888E+01  3672   0.118E+01    0.982E-01
RMM:   2    -0.192081097089E+03   -0.62593E-01   -0.65880E-01  3687   0.174E+00    0.643E-01
RMM:   3    -0.192088156077E+03   -0.70590E-02   -0.42827E-02  3711   0.366E-01    0.989E-01
RMM:   4    -0.192080385522E+03    0.77706E-02   -0.10984E-02  3685   0.176E-01    0.549E-01
RMM:   5    -0.192083004022E+03   -0.26185E-02   -0.70132E-03  3686   0.127E-01    0.735E-01
RMM:   6    -0.192079277978E+03    0.37260E-02   -0.81099E-03  3684   0.140E-01    0.437E-01
RMM:   7    -0.192077569031E+03    0.17089E-02   -0.30589E-03  3684   0.884E-02    0.178E-01
RMM:   8    -0.192077299415E+03    0.26962E-03   -0.69934E-04  3682   0.433E-02    0.117E-01
RMM:   9    -0.192077136316E+03    0.16310E-03   -0.31762E-04  3681   0.281E-02    0.579E-02
RMM:  10    -0.192077097004E+03    0.39312E-04   -0.10712E-04  3684   0.159E-02    0.288E-02
RMM:  11    -0.192077090382E+03    0.66221E-05   -0.24981E-05  3678   0.777E-03    0.170E-02
RMM:  12    -0.192077089817E+03    0.56488E-06   -0.10603E-05  3672   0.506E-03    0.132E-02
RMM:  13    -0.192077089120E+03    0.69747E-06   -0.34083E-06  2552   0.309E-03
   6 F= -.19207709E+03 E0= -.19196676E+03  d E =-.788941E-01
       N       E                     dE             d eps       ncg     rms          rms(c)
DAV:   1    -0.192072466972E+03    0.46228E-02   -0.13526E+01  3696   0.566E+00    0.450E-01
RMM:   2    -0.192086853171E+03   -0.14386E-01   -0.15197E-01  3686   0.835E-01    0.303E-01
RMM:   3    -0.192088300727E+03   -0.14476E-02   -0.98098E-03  3713   0.176E-01    0.458E-01
RMM:   4    -0.192086589889E+03    0.17108E-02   -0.23420E-03  3685   0.820E-02    0.248E-01
RMM:   5    -0.192087241925E+03   -0.65204E-03   -0.14664E-03  3686   0.580E-02    0.343E-01
RMM:   6    -0.192086428753E+03    0.81317E-03   -0.18547E-03  3684   0.668E-02    0.209E-01
RMM:   7    -0.192086055268E+03    0.37349E-03   -0.73381E-04  3683   0.433E-02    0.872E-02
RMM:   8    -0.192085992190E+03    0.63079E-04   -0.16188E-04  3684   0.208E-02    0.562E-02
RMM:   9    -0.192085954202E+03    0.37988E-04   -0.73220E-05  3680   0.135E-02    0.281E-02
RMM:  10    -0.192085944329E+03    0.98723E-05   -0.26708E-05  3679   0.787E-03    0.136E-02
RMM:  11    -0.192085942959E+03    0.13704E-05   -0.58264E-06  3094   0.380E-03    0.842E-03
RMM:  12    -0.192085942865E+03    0.94202E-07   -0.26382E-06  2128   0.276E-03
   7 F= -.19208594E+03 E0= -.19197614E+03  d E =-.877478E-01
       N       E                     dE             d eps       ncg     rms          rms(c)
DAV:   1    -0.192091671593E+03   -0.57286E-02   -0.11050E+01  3672   0.505E+00    0.369E-01
RMM:   2    -0.192102942479E+03   -0.11271E-01   -0.11821E-01  3685   0.738E-01    0.267E-01
RMM:   3    -0.192103675398E+03   -0.73292E-03   -0.66035E-03  3720   0.148E-01    0.340E-01
RMM:   4    -0.192103162319E+03    0.51308E-03   -0.15484E-03  3680   0.643E-02    0.275E-01
RMM:   5    -0.192102880838E+03    0.28148E-03   -0.16299E-03  3683   0.624E-02    0.250E-01
RMM:   6    -0.192102416114E+03    0.46472E-03   -0.14305E-03  3683   0.604E-02    0.136E-01
RMM:   7    -0.192102336175E+03    0.79939E-04   -0.43170E-04  3682   0.330E-02    0.893E-02
RMM:   8    -0.192102259705E+03    0.76470E-04   -0.10767E-04  3685   0.168E-02    0.386E-02
RMM:   9    -0.192102241304E+03    0.18401E-04   -0.55778E-05  3682   0.117E-02    0.302E-02
RMM:  10    -0.192102227991E+03    0.13313E-04   -0.28865E-05  3677   0.819E-03    0.125E-02
RMM:  11    -0.192102227028E+03    0.96302E-06   -0.69852E-06  3508   0.406E-03
   8 F= -.19210223E+03 E0= -.19199278E+03  d E =-.162842E-01
       N       E                     dE             d eps       ncg     rms          rms(c)
DAV:   1    -0.192100134742E+03    0.20932E-02   -0.61333E+00  3708   0.376E+00    0.270E-01
RMM:   2    -0.192106395313E+03   -0.62606E-02   -0.65699E-02  3685   0.550E-01    0.196E-01
RMM:   3    -0.192106776926E+03   -0.38161E-03   -0.36575E-03  3720   0.110E-01    0.249E-01
RMM:   4    -0.192106488749E+03    0.28818E-03   -0.82274E-04  3680   0.471E-02    0.199E-01
RMM:   5    -0.192106381802E+03    0.10695E-03   -0.86107E-04  3683   0.453E-02    0.192E-01
RMM:   6    -0.192106107557E+03    0.27425E-03   -0.81193E-04  3683   0.454E-02    0.105E-01
RMM:   7    -0.192106062164E+03    0.45393E-04   -0.26077E-04  3682   0.257E-02    0.677E-02
RMM:   8    -0.192106019228E+03    0.42936E-04   -0.62326E-05  3687   0.128E-02    0.301E-02
RMM:   9    -0.192106007646E+03    0.11582E-04   -0.31007E-05  3674   0.878E-03    0.223E-02
RMM:  10    -0.192105999886E+03    0.77602E-05   -0.17274E-05  3672   0.632E-03    0.886E-03
RMM:  11    -0.192105999344E+03    0.54160E-06   -0.40467E-06  2740   0.317E-03
   9 F= -.19210600E+03 E0= -.19199680E+03  d E =-.200565E-01
       N       E                     dE             d eps       ncg     rms          rms(c)
DAV:   1    -0.192106445719E+03   -0.44583E-03   -0.97627E+00  3672   0.476E+00    0.289E-01
RMM:   2    -0.192116426721E+03   -0.99810E-02   -0.10298E-01  3685   0.695E-01    0.253E-01
RMM:   3    -0.192116501395E+03   -0.74674E-04   -0.57882E-03  3736   0.139E-01    0.224E-01
RMM:   4    -0.192116566833E+03   -0.65438E-04   -0.11208E-03  3673   0.558E-02    0.261E-01
RMM:   5    -0.192116432146E+03    0.13469E-03   -0.10071E-03  3685   0.477E-02    0.256E-01
RMM:   6    -0.192115852605E+03    0.57954E-03   -0.14372E-03  3681   0.595E-02    0.130E-01
RMM:   7    -0.192115814358E+03    0.38247E-04   -0.54977E-04  3687   0.374E-02    0.875E-02
RMM:   8    -0.192115740545E+03    0.73813E-04   -0.10687E-04  3684   0.169E-02    0.434E-02
RMM:   9    -0.192115718305E+03    0.22240E-04   -0.41588E-05  3684   0.101E-02    0.352E-02
RMM:  10    -0.192115699201E+03    0.19104E-04   -0.39377E-05  3678   0.959E-03    0.180E-02
RMM:  11    -0.192115695898E+03    0.33036E-05   -0.13972E-05  3673   0.566E-03    0.101E-02
RMM:  12    -0.192115695118E+03    0.77946E-06   -0.61011E-06  3533   0.371E-03
  10 F= -.19211570E+03 E0= -.19200666E+03  d E =-.969577E-02
       N       E                     dE             d eps       ncg     rms          rms(c)
DAV:   1    -0.192113075367E+03    0.26205E-02   -0.51243E+00  3684   0.345E+00    0.206E-01
RMM:   2    -0.192118308525E+03   -0.52332E-02   -0.54064E-02  3685   0.504E-01    0.183E-01
RMM:   3    -0.192118332598E+03   -0.24073E-04   -0.30402E-03  3741   0.101E-01    0.159E-01
RMM:   4    -0.192118343412E+03   -0.10814E-04   -0.55824E-04  3675   0.396E-02    0.181E-01
RMM:   5    -0.192118322302E+03    0.21110E-04   -0.50636E-04  3684   0.338E-02    0.189E-01
RMM:   6    -0.192118008209E+03    0.31409E-03   -0.75728E-04  3681   0.432E-02    0.961E-02
RMM:   7    -0.192117987323E+03    0.20885E-04   -0.30161E-04  3687   0.276E-02    0.631E-02
RMM:   8    -0.192117947193E+03    0.40130E-04   -0.56168E-05  3681   0.123E-02    0.303E-02
RMM:   9    -0.192117934893E+03    0.12301E-04   -0.22924E-05  3678   0.744E-03    0.243E-02
RMM:  10    -0.192117925788E+03    0.91043E-05   -0.19663E-05  3675   0.679E-03    0.132E-02
RMM:  11    -0.192117924186E+03    0.16022E-05   -0.67879E-06  3541   0.395E-03    0.785E-03
RMM:  12    -0.192117923655E+03    0.53094E-06   -0.30097E-06  2122   0.280E-03
  11 F= -.19211792E+03 E0= -.19200898E+03  d E =-.119243E-01
       N       E                     dE             d eps       ncg     rms          rms(c)
DAV:   1    -0.192114157557E+03    0.37666E-02   -0.94385E+00  3672   0.471E+00    0.245E-01
RMM:   2    -0.192124146432E+03   -0.99889E-02   -0.10406E-01  3684   0.694E-01    0.252E-01
RMM:   3    -0.192124233497E+03   -0.87065E-04   -0.62028E-03  3743   0.141E-01    0.236E-01
RMM:   4    -0.192123892874E+03    0.34062E-03   -0.78636E-04  3677   0.484E-02    0.188E-01
RMM:   5    -0.192123920405E+03   -0.27531E-04   -0.46609E-04  3689   0.332E-02    0.212E-01
RMM:   6    -0.192123597331E+03    0.32307E-03   -0.94505E-04  3681   0.470E-02    0.168E-01
RMM:   7    -0.192123466564E+03    0.13077E-03   -0.10664E-03  3684   0.507E-02    0.917E-02
RMM:   8    -0.192123430545E+03    0.36019E-04   -0.21217E-04  3684   0.233E-02    0.542E-02
RMM:   9    -0.192123402199E+03    0.28346E-04   -0.39457E-05  3679   0.101E-02    0.412E-02
RMM:  10    -0.192123372692E+03    0.29506E-04   -0.47507E-05  3683   0.104E-02    0.216E-02
RMM:  11    -0.192123366311E+03    0.63811E-05   -0.24167E-05  3672   0.731E-03    0.119E-02
RMM:  12    -0.192123364878E+03    0.14331E-05   -0.17497E-05  3679   0.613E-03    0.349E-03
RMM:  13    -0.192123365117E+03   -0.23834E-06   -0.11056E-06  1972   0.187E-03
  12 F= -.19212337E+03 E0= -.19201432E+03  d E =-.544146E-02
       N       E                     dE             d eps       ncg     rms          rms(c)
DAV:   1    -0.192123176010E+03    0.18887E-03   -0.36095E-01  3744   0.921E-01    0.474E-02
RMM:   2    -0.192123553378E+03   -0.37737E-03   -0.39677E-03  3684   0.136E-01    0.500E-02
RMM:   3    -0.192123552727E+03    0.65032E-06   -0.23669E-04  3743   0.277E-02    0.458E-02
RMM:   4    -0.192123539742E+03    0.12986E-04   -0.28548E-05  3676   0.924E-03    0.366E-02
RMM:   5    -0.192123541844E+03   -0.21026E-05   -0.17149E-05  3677   0.638E-03    0.416E-02
RMM:   6    -0.192123531103E+03    0.10741E-04   -0.37083E-05  3678   0.932E-03    0.333E-02
RMM:   7    -0.192123527218E+03    0.38854E-05   -0.43036E-05  3673   0.102E-02    0.185E-02
RMM:   8    -0.192123525950E+03    0.12675E-05   -0.84896E-06  3395   0.468E-03    0.109E-02
RMM:   9    -0.192123524853E+03    0.10977E-05   -0.14622E-06  2000   0.209E-03    0.832E-03
RMM:  10    -0.192123523678E+03    0.11741E-05   -0.17664E-06  1941   0.225E-03    0.466E-03
RMM:  11    -0.192123523437E+03    0.24136E-06   -0.12052E-06  1929   0.194E-03
  13 F= -.19212352E+03 E0= -.19201446E+03  d E =-.559978E-02
       N       E                     dE             d eps       ncg     rms          rms(c)
DAV:   1    -0.192121441349E+03    0.20823E-02   -0.54346E+00  3672   0.360E+00    0.200E-01
RMM:   2    -0.192127405959E+03   -0.59646E-02   -0.60957E-02  3684   0.530E-01    0.218E-01
RMM:   3    -0.192127585992E+03   -0.18003E-03   -0.39816E-03  3724   0.111E-01    0.234E-01
RMM:   4    -0.192127203737E+03    0.38226E-03   -0.56595E-04  3682   0.399E-02    0.163E-01
RMM:   5    -0.192127015107E+03    0.18863E-03   -0.17461E-04  3686   0.213E-02    0.115E-01
RMM:   6    -0.192127001159E+03    0.13948E-04   -0.54486E-04  3681   0.361E-02    0.127E-01
RMM:   7    -0.192126906196E+03    0.94963E-04   -0.64144E-04  3683   0.391E-02    0.660E-02
RMM:   8    -0.192126893484E+03    0.12712E-04   -0.11898E-04  3683   0.173E-02    0.403E-02
RMM:   9    -0.192126879080E+03    0.14403E-04   -0.19651E-05  3675   0.718E-03    0.279E-02
RMM:  10    -0.192126866369E+03    0.12711E-04   -0.19879E-05  3678   0.682E-03    0.164E-02
RMM:  11    -0.192126862558E+03    0.38111E-05   -0.11243E-05  3672   0.502E-03    0.912E-03
RMM:  12    -0.192126861776E+03    0.78199E-06   -0.90539E-06  3672   0.445E-03
  14 F= -.19212686E+03 E0= -.19201768E+03  d E =-.333834E-02
       N       E                     dE             d eps       ncg     rms          rms(c)
DAV:   1    -0.192126555456E+03    0.30710E-03   -0.63657E-01  3696   0.123E+00    0.681E-02
RMM:   2    -0.192127247168E+03   -0.69171E-03   -0.71179E-03  3682   0.181E-01    0.752E-02
RMM:   3    -0.192127259859E+03   -0.12691E-04   -0.46445E-04  3723   0.380E-02    0.784E-02
RMM:   4    -0.192127217871E+03    0.41988E-04   -0.63673E-05  3682   0.135E-02    0.554E-02
RMM:   5    -0.192127198264E+03    0.19607E-04   -0.19656E-05  3678   0.717E-03    0.399E-02
RMM:   6    -0.192127201281E+03   -0.30171E-05   -0.67156E-05  3683   0.127E-02    0.450E-02
RMM:   7    -0.192127190804E+03    0.10478E-04   -0.77674E-05  3679   0.136E-02    0.227E-02
RMM:   8    -0.192127189686E+03    0.11181E-05   -0.14013E-05  3672   0.596E-03    0.139E-02
RMM:   9    -0.192127188051E+03    0.16350E-05   -0.21411E-06  2238   0.247E-03    0.980E-03
RMM:  10    -0.192127186505E+03    0.15457E-05   -0.21963E-06  1960   0.252E-03    0.610E-03
RMM:  11    -0.192127186050E+03    0.45480E-06   -0.15166E-06  1937   0.219E-03
  15 F= -.19212719E+03 E0= -.19201796E+03  d E =-.366261E-02
       N       E                     dE             d eps       ncg     rms          rms(c)
DAV:   1    -0.192126591069E+03    0.59544E-03   -0.20339E+00  3672   0.220E+00    0.125E-01
RMM:   2    -0.192128939617E+03   -0.23485E-02   -0.23742E-02  3683   0.326E-01    0.156E-01
RMM:   3    -0.192128897714E+03    0.41903E-04   -0.16302E-03  3713   0.697E-02    0.131E-01
RMM:   4    -0.192128802688E+03    0.95026E-04   -0.21159E-04  3683   0.246E-02    0.102E-01
RMM:   5    -0.192128727460E+03    0.75228E-04   -0.66029E-05  3687   0.130E-02    0.701E-02
RMM:   6    -0.192128743617E+03   -0.16157E-04   -0.17147E-04  3682   0.202E-02    0.853E-02
RMM:   7    -0.192128699331E+03    0.44286E-04   -0.28542E-04  3680   0.260E-02    0.352E-02
RMM:   8    -0.192128699265E+03    0.66771E-07   -0.42014E-05  3673   0.102E-02    0.259E-02
RMM:   9    -0.192128692055E+03    0.72098E-05   -0.72167E-06  3155   0.443E-03    0.158E-02
RMM:  10    -0.192128688647E+03    0.34077E-05   -0.48425E-06  2886   0.349E-03    0.109E-02
RMM:  11    -0.192128686551E+03    0.20960E-05   -0.59287E-06  3429   0.379E-03    0.483E-03
RMM:  12    -0.192128686410E+03    0.14083E-06   -0.26781E-06  2017   0.266E-03
  16 F= -.19212869E+03 E0= -.19201940E+03  d E =-.150036E-02
       N       E                     dE             d eps       ncg     rms          rms(c)
DAV:   1    -0.192128639599E+03    0.46952E-04   -0.14658E-01  3732   0.591E-01    0.334E-02
RMM:   2    -0.192128807743E+03   -0.16814E-03   -0.17048E-03  3683   0.876E-02    0.423E-02
RMM:   3    -0.192128802472E+03    0.52701E-05   -0.11640E-04  3716   0.187E-02    0.342E-02
RMM:   4    -0.192128796302E+03    0.61700E-05   -0.14418E-05  3684   0.647E-03    0.269E-02
RMM:   5    -0.192128791852E+03    0.44501E-05   -0.43854E-06  2767   0.343E-03    0.194E-02
RMM:   6    -0.192128794380E+03   -0.25278E-05   -0.13387E-05  3672   0.571E-03    0.238E-02
RMM:   7    -0.192128791800E+03    0.25805E-05   -0.21880E-05  3674   0.719E-03    0.943E-03
RMM:   8    -0.192128791949E+03   -0.14911E-06   -0.27532E-06  2436   0.274E-03
  17 F= -.19212879E+03 E0= -.19201949E+03  d E =-.160590E-02
       N       E                     dE             d eps       ncg     rms          rms(c)
DAV:   1    -0.192128130720E+03    0.66108E-03   -0.18541E+00  3672   0.210E+00    0.118E-01
RMM:   2    -0.192130324717E+03   -0.21940E-02   -0.21725E-02  3682   0.312E-01    0.159E-01
RMM:   3    -0.192130208600E+03    0.11612E-03   -0.15363E-03  3715   0.679E-02    0.109E-01
RMM:   4    -0.192130131930E+03    0.76669E-04   -0.15791E-04  3682   0.221E-02    0.811E-02
RMM:   5    -0.192130126272E+03    0.56586E-05   -0.68043E-05  3686   0.131E-02    0.821E-02
RMM:   6    -0.192130133950E+03   -0.76784E-05   -0.15085E-04  3680   0.186E-02    0.920E-02
RMM:   7    -0.192130079575E+03    0.54375E-04   -0.29016E-04  3679   0.261E-02    0.338E-02
RMM:   8    -0.192130079399E+03    0.17611E-06   -0.38748E-05  3673   0.980E-03    0.246E-02
RMM:   9    -0.192130072944E+03    0.64548E-05   -0.56739E-06  3021   0.397E-03    0.159E-02
RMM:  10    -0.192130069904E+03    0.30402E-05   -0.40498E-06  2708   0.325E-03    0.114E-02
RMM:  11    -0.192130067571E+03    0.23330E-05   -0.78597E-06  3630   0.430E-03    0.418E-03
RMM:  12    -0.192130067595E+03   -0.23945E-07   -0.19772E-06  1974   0.227E-03
  18 F= -.19213007E+03 E0= -.19202065E+03  d E =-.127565E-02
       N       E                     dE             d eps       ncg     rms          rms(c)
DAV:   1    -0.192129233516E+03    0.83406E-03   -0.12475E+00  3672   0.172E+00    0.962E-02
RMM:   2    -0.192130706822E+03   -0.14733E-02   -0.14542E-02  3682   0.256E-01    0.133E-01
RMM:   3    -0.192130615449E+03    0.91373E-04   -0.10224E-03  3717   0.554E-02    0.887E-02
RMM:   4    -0.192130565687E+03    0.49762E-04   -0.10080E-04  3683   0.177E-02    0.667E-02
RMM:   5    -0.192130563575E+03    0.21125E-05   -0.45185E-05  3687   0.107E-02    0.685E-02
RMM:   6    -0.192130572440E+03   -0.88653E-05   -0.10798E-04  3680   0.157E-02    0.781E-02
RMM:   7    -0.192130532891E+03    0.39549E-04   -0.20911E-04  3678   0.221E-02    0.276E-02
RMM:   8    -0.192130533032E+03   -0.14072E-06   -0.25590E-05  3672   0.798E-03    0.205E-02
RMM:   9    -0.192130528509E+03    0.45236E-05   -0.38399E-06  2723   0.328E-03    0.133E-02
RMM:  10    -0.192130526366E+03    0.21429E-05   -0.28414E-06  2274   0.281E-03    0.963E-03
RMM:  11    -0.192130524747E+03    0.16184E-05   -0.58999E-06  3211   0.381E-03    0.351E-03
RMM:  12    -0.192130524804E+03   -0.56716E-07   -0.14697E-06  1946   0.206E-03
  19 F= -.19213052E+03 E0= -.19202101E+03  d E =-.173286E-02
       N       E                     dE             d eps       ncg     rms          rms(c)
DAV:   1    -0.192129062307E+03    0.14624E-02   -0.24973E+00  3672   0.244E+00    0.127E-01
RMM:   2    -0.192131899176E+03   -0.28369E-02   -0.28676E-02  3681   0.361E-01    0.156E-01
RMM:   3    -0.192131805941E+03    0.93236E-04   -0.18960E-03  3724   0.759E-02    0.115E-01
RMM:   4    -0.192131710848E+03    0.95092E-04   -0.18660E-04  3677   0.241E-02    0.876E-02
RMM:   5    -0.192131709554E+03    0.12948E-05   -0.76969E-05  3682   0.139E-02    0.928E-02
RMM:   6    -0.192131710765E+03   -0.12114E-05   -0.21780E-04  3676   0.224E-02    0.103E-01
RMM:   7    -0.192131637388E+03    0.73377E-04   -0.35325E-04  3684   0.288E-02    0.366E-02
RMM:   8    -0.192131640290E+03   -0.29016E-05   -0.46555E-05  3675   0.108E-02    0.281E-02
RMM:   9    -0.192131632100E+03    0.81899E-05   -0.70250E-06  3205   0.439E-03    0.183E-02
RMM:  10    -0.192131628475E+03    0.36252E-05   -0.49841E-06  2910   0.358E-03    0.135E-02
RMM:  11    -0.192131625287E+03    0.31880E-05   -0.13592E-05  3672   0.557E-03    0.403E-03
RMM:  12    -0.192131625444E+03   -0.15718E-06   -0.17706E-06  1995   0.219E-03
  20 F= -.19213163E+03 E0= -.19202193E+03  d E =-.110064E-02
       N       E                     dE             d eps       ncg     rms          rms(c)
DAV:   1    -0.192131540909E+03    0.84378E-04   -0.15538E-01  3732   0.609E-01    0.314E-02
RMM:   2    -0.192131716466E+03   -0.17556E-03   -0.17770E-03  3681   0.900E-02    0.402E-02
RMM:   3    -0.192131707473E+03    0.89934E-05   -0.11727E-04  3725   0.189E-02    0.284E-02
RMM:   4    -0.192131702109E+03    0.53639E-05   -0.10823E-05  3650   0.583E-03    0.218E-02
RMM:   5    -0.192131702731E+03   -0.62243E-06   -0.45946E-06  2788   0.347E-03
  21 F= -.19213170E+03 E0= -.19202197E+03  d E =-.117793E-02
       N       E                     dE             d eps       ncg     rms          rms(c)
DAV:   1    -0.192130359854E+03    0.13423E-02   -0.21412E+00  3672   0.226E+00    0.109E-01
RMM:   2    -0.192132793315E+03   -0.24335E-02   -0.23788E-02  3682   0.332E-01    0.163E-01
RMM:   3    -0.192132679730E+03    0.11359E-03   -0.15906E-03  3731   0.697E-02    0.118E-01
RMM:   4    -0.192132588517E+03    0.91212E-04   -0.15625E-04  3675   0.215E-02    0.928E-02
RMM:   5    -0.192132542753E+03    0.45764E-04   -0.52604E-05  3686   0.119E-02    0.784E-02
RMM:   6    -0.192132542940E+03   -0.18614E-06   -0.19016E-04  3681   0.213E-02    0.890E-02
RMM:   7    -0.192132489113E+03    0.53827E-04   -0.37643E-04  3685   0.297E-02    0.280E-02
RMM:   8    -0.192132497603E+03   -0.84906E-05   -0.38081E-05  3672   0.975E-03    0.277E-02
RMM:   9    -0.192132491431E+03    0.61721E-05   -0.54977E-06  2990   0.394E-03    0.192E-02
RMM:  10    -0.192132487889E+03    0.35426E-05   -0.44867E-06  2809   0.343E-03    0.145E-02
RMM:  11    -0.192132484402E+03    0.34870E-05   -0.14905E-05  3672   0.589E-03    0.434E-03
RMM:  12    -0.192132484505E+03   -0.10352E-06   -0.19989E-06  2030   0.232E-03
  22 F= -.19213248E+03 E0= -.19202256E+03  d E =-.781774E-03
