 vasp.5.4.1 24Jun15 (build Mar 14 2019 10:18:33) complex                        
  
 executed on INTEL-19.0.2+OPENMPI date 2022.06.20  18:30:35
 running on   36 total cores
 distrk:  each k-point on   36 cores,    1 groups
 distr:  one band on NCORES_PER_BAND=   6 cores,    6 groups


--------------------------------------------------------------------------------------------------------


 INCAR:
 POTCAR:    PAW_PBE Au 04Oct2007                  
 POTCAR:    PAW_PBE Pd 04Jan2005                  
 POTCAR:    PAW_PBE Au 04Oct2007                  
  local pseudopotential read in
  partial core-charges read in
  partial kinetic energy density read in
  atomic valenz-charges read in
  non local Contribution for L=           2  read in
    real space projection operators read in
  non local Contribution for L=           2  read in
    real space projection operators read in
  non local Contribution for L=           0  read in
    real space projection operators read in
  non local Contribution for L=           0  read in
    real space projection operators read in
  non local Contribution for L=           1  read in
    real space projection operators read in
  non local Contribution for L=           1  read in
    real space projection operators read in
    PAW grid and wavefunctions read in
 
   number of l-projection  operators is LMAX  =           6
   number of lm-projection operators is LMMAX =          18
 
 POTCAR:    PAW_PBE Pd 04Jan2005                  
  local pseudopotential read in
  partial core-charges read in
  partial kinetic energy density read in
  atomic valenz-charges read in
  non local Contribution for L=           2  read in
    real space projection operators read in
  non local Contribution for L=           2  read in
    real space projection operators read in
  non local Contribution for L=           0  read in
    real space projection operators read in
  non local Contribution for L=           0  read in
    real space projection operators read in
  non local Contribution for L=           1  read in
    real space projection operators read in
  non local Contribution for L=           1  read in
    real space projection operators read in
    PAW grid and wavefunctions read in
 
   number of l-projection  operators is LMAX  =           6
   number of lm-projection operators is LMMAX =          18
 
 Optimization of the real space projectors (new method)

 maximal supplied QI-value         = 15.12
 optimisation between [QCUT,QGAM] = [ 10.13, 20.41] = [ 28.73,116.64] Ry 
 Optimized for a Real-space Cutoff    1.51 Angstroem

   l    n(q)    QCUT    max X(q) W(low)/X(q) W(high)/X(q)  e(spline) 
   2      8    10.129    60.898    0.46E-03    0.46E-03    0.14E-06
   2      8    10.129    58.894    0.47E-03    0.47E-03    0.14E-06
   0      9    10.129   109.617    0.16E-03    0.11E-03    0.54E-07
   0      9    10.129    75.026    0.15E-03    0.11E-03    0.52E-07
   1      9    10.129    16.344    0.96E-04    0.15E-03    0.14E-06
   1      9    10.129    10.160    0.81E-04    0.12E-03    0.11E-06
 Optimization of the real space projectors (new method)

 maximal supplied QI-value         = 14.36
 optimisation between [QCUT,QGAM] = [ 10.20, 20.39] = [ 29.12,116.47] Ry 
 Optimized for a Real-space Cutoff    1.51 Angstroem

   l    n(q)    QCUT    max X(q) W(low)/X(q) W(high)/X(q)  e(spline) 
   2      8    10.197    59.108    0.26E-03    0.14E-03    0.96E-07
   2      8    10.197    58.101    0.27E-03    0.14E-03    0.98E-07
   0      9    10.197   102.235    0.54E-04    0.60E-05    0.72E-07
   0      9    10.197    58.388    0.52E-04    0.60E-05    0.68E-07
   1      9    10.197    22.191    0.18E-03    0.25E-03    0.79E-07
   1      9    10.197    15.590    0.15E-03    0.21E-03    0.69E-07
  PAW_PBE Au 04Oct2007                  :
 energy of atom  1       EATOM= -926.0867
 kinetic energy error for atom=    0.0062 (will be added to EATOM!!)
  PAW_PBE Pd 04Jan2005                  :
 energy of atom  2       EATOM= -809.7530
 kinetic energy error for atom=    0.0091 (will be added to EATOM!!)
 
 
 POSCAR: Au Pd                                   
  positions in cartesian coordinates
  No initial velocities read in
 exchange correlation table for  LEXCH =        8
   RHO(1)=    0.500       N(1)  =     2000
   RHO(2)=  100.500       N(2)  =     4000

 VTST: version 3.2, (02/03/18)

 CHAIN: initializing optimizer
 
 OPT: Using VASP Conjugate-Gradient optimizer
 CHAIN: Read ICHAIN            0
 
 POSCAR: Au Pd                                   
  positions in cartesian coordinates
  No initial velocities read in
 


--------------------------------------------------------------------------------------------------------


 ion  position               nearest neighbor table
   1  0.500  0.500  0.592-   8 2.75  33 2.75  28 2.75   9 2.75  34 2.75  47 2.75  38 2.75  30 2.75
                            35 2.75
   2  0.167  0.917  0.500-  15 2.75  34 2.75  22 2.75  11 2.75  23 2.75   8 2.75  39 2.75  14 2.75
                            25 2.75  26 2.75  37 2.75  43 2.75
   3  0.833  0.083  0.408-  23 2.75  15 2.75   6 2.75  31 2.75  36 2.75  24 2.75  26 2.75  14 2.75
                            32 2.75
   4  0.417  0.167  0.500-  13 2.75   5 2.75   7 2.75  12 2.75  25 2.75  35 2.75  41 2.75  11 2.75
                            32 2.75  42 2.75  24 2.75  47 2.75
   5  0.500  0.000  0.592-   4 2.75  12 2.75   9 2.75   7 2.75  47 2.75  48 2.75  27 2.75  43 2.75
                            25 2.75
   6  0.833  0.333  0.408-  20 2.75  10 2.75   3 2.75  21 2.75  26 2.75  36 2.75  46 2.75  23 2.75
                            33 2.75
   7  0.250  0.250  0.592-  41 2.75   4 2.75  16 2.75  38 2.75   5 2.75  43 2.75  45 2.75  47 2.75
                            11 2.75
   8  0.417  0.667  0.500-  40 2.75   1 2.75  34 2.75  33 2.75   2 2.75  35 2.75  25 2.75  39 2.75
                            29 2.75  37 2.75   9 2.75  21 2.75
   9  0.500  0.750  0.592-  25 2.75  29 2.75   1 2.75   5 2.75  30 2.75  43 2.75  34 2.75  48 2.75
                             8 2.75
  10  0.833  0.583  0.408-  17 2.75   6 2.75  19 2.75  31 2.75  46 2.75  18 2.75  21 2.75  20 2.75
                            29 2.75
  11  0.167  0.167  0.500-  26 2.75  43 2.75  45 2.75   2 2.75  41 2.75  20 2.75  25 2.75  23 2.75
                             4 2.75  46 2.75   7 2.75  13 2.75
  12  0.667  0.917  0.500-  19 2.75  48 2.75   5 2.75   4 2.75  29 2.75  32 2.75  17 2.75  25 2.75
                            14 2.75  24 2.75  27 2.75  31 2.75
  13  0.333  0.083  0.408-   4 2.75  19 2.75  37 2.75  42 2.75  46 2.75  26 2.75  24 2.75  25 2.75
                            11 2.75
  14  0.917  0.917  0.500-  31 2.75  44 2.75  27 2.75  23 2.75  32 2.75  39 2.75  17 2.75  12 2.75
                             2 2.75   3 2.75  15 2.75  22 2.75
  15  0.083  0.833  0.408-   2 2.75   3 2.75  18 2.75  26 2.75  40 2.75  37 2.75  31 2.75  39 2.75
                            14 2.75
  16  0.000  0.500  0.592-  17 2.75  41 2.75   7 2.75  44 2.75  45 2.75  48 2.75  30 2.75  38 2.75
                            20 2.75
  17  0.917  0.667  0.500-  10 2.75  16 2.75  48 2.75  12 2.75  20 2.75  41 2.75  14 2.75  29 2.75
                            39 2.75  31 2.75  44 2.75  18 2.75
  18  0.083  0.583  0.408-  39 2.75  31 2.75  15 2.75  42 2.75  46 2.75  10 2.75  40 2.75  41 2.75
                            17 2.75
  19  0.583  0.833  0.408-  12 2.75  10 2.75  13 2.75  21 2.75  24 2.75  31 2.75  37 2.75  29 2.75
                            25 2.75
  20  0.917  0.417  0.500-   6 2.75  45 2.75  30 2.75  23 2.75  29 2.75  11 2.75  17 2.75  41 2.75
                            33 2.75  10 2.75  16 2.75  46 2.75
  21  0.583  0.583  0.408-  29 2.75  19 2.75   6 2.75  36 2.75  37 2.75  10 2.75  40 2.75  33 2.75
                             8 2.75
  22  0.000  0.000  0.592-  23 2.75   2 2.75  28 2.75  34 2.75  44 2.75  45 2.75  27 2.75  43 2.75
                            14 2.75
  23  0.917  0.167  0.500-   3 2.75  22 2.75  28 2.75  20 2.75   2 2.75  14 2.75  33 2.75  32 2.75
                            11 2.75   6 2.75  26 2.75  45 2.75
  24  0.583  0.083  0.408-  32 2.75  31 2.75  19 2.75  36 2.75  42 2.75  13 2.75   3 2.75  12 2.75
                             4 2.75
  25  0.417  0.917  0.500-  37 2.75   9 2.75  43 2.75  11 2.75  29 2.75   8 2.75   4 2.75  12 2.75
                             2 2.75  13 2.75  19 2.75   5 2.75
  26  0.083  0.083  0.408-  11 2.75   6 2.75  15 2.75  37 2.75  46 2.75  13 2.75   3 2.75   2 2.75
                            23 2.75
  27  0.750  0.000  0.592-  32 2.75  14 2.75  28 2.75  44 2.75  47 2.75  48 2.75  22 2.75   5 2.75
                            12 2.75
  28  0.750  0.250  0.592-  33 2.75  23 2.75   1 2.75  27 2.75  30 2.75  22 2.75  45 2.75  47 2.75
                            32 2.75
  29  0.667  0.667  0.500-  21 2.75  30 2.75   9 2.75  12 2.75  25 2.75  20 2.75  33 2.75  17 2.75
                             8 2.75  19 2.75  10 2.75  48 2.75
  30  0.750  0.500  0.592-  29 2.75  20 2.75  28 2.75   9 2.75  45 2.75  48 2.75  16 2.75   1 2.75
                            33 2.75
  31  0.833  0.833  0.408-  14 2.75  10 2.75   3 2.75  18 2.75  24 2.75  19 2.75  15 2.75  17 2.75
                            12 2.75
  32  0.667  0.167  0.500-  24 2.75  27 2.75  47 2.75  14 2.75  33 2.75  35 2.75  12 2.75  23 2.75
                             4 2.75  36 2.75   3 2.75  28 2.75
  33  0.667  0.417  0.500-  36 2.75  28 2.75   1 2.75   8 2.75  29 2.75  32 2.75  23 2.75  35 2.75
                            20 2.75  21 2.75  30 2.75   6 2.75
  34  0.250  0.750  0.592-   2 2.75   8 2.75   1 2.75  22 2.75  38 2.75  43 2.75   9 2.75  44 2.75
                            39 2.75
  35  0.417  0.417  0.500-  42 2.75  47 2.75  38 2.75   4 2.75  39 2.75   8 2.75  32 2.75  33 2.75
                            41 2.75  40 2.75   1 2.75  36 2.75
  36  0.583  0.333  0.408-  33 2.75  21 2.75  24 2.75   3 2.75  40 2.75   6 2.75  42 2.75  32 2.75
                            35 2.75
  37  0.333  0.833  0.408-  25 2.75  21 2.75  13 2.75  26 2.75  40 2.75  15 2.75  19 2.75   8 2.75
                             2 2.75
  38  0.250  0.500  0.592-  39 2.75  35 2.75   7 2.75  34 2.75  44 2.75  47 2.75  16 2.75   1 2.75
                            41 2.75
  39  0.167  0.667  0.500-  18 2.75  38 2.75  44 2.75  35 2.75  14 2.75  41 2.75   2 2.75  17 2.75
                             8 2.75  15 2.75  34 2.75  40 2.75
  40  0.333  0.583  0.408-   8 2.75  15 2.75  36 2.75  37 2.75  42 2.75  21 2.75  18 2.75  35 2.75
                            39 2.75
  41  0.167  0.417  0.500-  46 2.75   7 2.75  16 2.75   4 2.75  17 2.75  39 2.75  11 2.75  20 2.75
                            35 2.75  18 2.75  42 2.75  38 2.75
  42  0.333  0.333  0.408-  35 2.75  18 2.75  24 2.75  13 2.75  40 2.75  36 2.75  46 2.75   4 2.75
                            41 2.75
  43  0.250  0.000  0.592-  11 2.75  25 2.75   7 2.75   9 2.75  34 2.75  45 2.75  22 2.75   5 2.75
                             2 2.75
  44  0.000  0.750  0.592-  14 2.75  39 2.75  22 2.75  27 2.75  38 2.75  16 2.75  34 2.75  48 2.75
                            17 2.75
  45  0.000  0.250  0.592-  20 2.75  11 2.75  16 2.75  22 2.75  30 2.75  43 2.75   7 2.75  28 2.75
                            23 2.75
  46  0.083  0.333  0.408-  41 2.75  13 2.75  18 2.75  26 2.75  10 2.75   6 2.75  42 2.75  11 2.75
                            20 2.75
  47  0.500  0.250  0.592-  35 2.75  32 2.75  27 2.75   1 2.75   5 2.75  38 2.75  28 2.75   7 2.75
                             4 2.75
  48  0.750  0.750  0.592-  12 2.75  17 2.75  16 2.75   5 2.75  27 2.75  30 2.75   9 2.75  44 2.75
                            29 2.75
 
  LATTYP: Found a hexagonal cell.
 ALAT       =    11.0025815153
 C/A-ratio  =     2.2260035120
  
  Lattice vectors:
  
 A1 = (   5.5012907576,  -9.5285150994,   0.0000000000)
 A2 = ( -11.0025815153,   0.0000000000,   0.0000000000)
 A3 = (   0.0000000000,   0.0000000000, -24.4917850943)


Analysis of symmetry for initial positions (statically):
=====================================================================
 Subroutine PRICEL returns:
 Original cell was already a primitive cell.
 

 Routine SETGRP: Setting up the symmetry group for a 
 hexagonal supercell.


 Subroutine GETGRP returns: Found  1 space group operations
 (whereof  1 operations were pure point group operations)
 out of a pool of 24 trial point group operations.


The static configuration has the point symmetry C_1 .


Analysis of symmetry for dynamics (positions and initial velocities):
=====================================================================
 Subroutine PRICEL returns:
 Original cell was already a primitive cell.
 

 Routine SETGRP: Setting up the symmetry group for a 
 hexagonal supercell.


 Subroutine GETGRP returns: Found  1 space group operations
 (whereof  1 operations were pure point group operations)
 out of a pool of 24 trial point group operations.


The dynamic configuration has the point symmetry C_1 .
 
 
 KPOINTS: Automatic mesh                          

Automatic generation of k-mesh.
Space group operators:
 irot       det(A)        alpha          n_x          n_y          n_z        tau_x        tau_y        tau_z
    1     1.000000     0.000000     1.000000     0.000000     0.000000     0.000000     0.000000     0.000000
 
 Subroutine IBZKPT returns following result:
 ===========================================
 
 Found      6 irreducible k-points:
 
 Following reciprocal coordinates:
            Coordinates               Weight
  0.250000  0.250000  0.000000     16.000000
  0.000000  0.250000  0.000000     16.000000
 -0.250000  0.000000  0.000000     16.000000
 -0.250000  0.250000  0.000000     16.000000
  0.500000 -0.250000  0.000000     16.000000
 -0.250000  0.500000  0.000000     16.000000
 
 Following cartesian coordinates:
            Coordinates               Weight
  0.022722  0.013119  0.000000     16.000000
  0.000000  0.026237  0.000000     16.000000
 -0.022722  0.013119  0.000000     16.000000
 -0.022722  0.039356  0.000000     16.000000
  0.045444 -0.052474  0.000000     16.000000
 -0.022722  0.065593  0.000000     16.000000
 


--------------------------------------------------------------------------------------------------------




 Dimension of arrays:
   k-points           NKPTS =      6   k-points in BZ     NKDIM =      6   number of bands    NBANDS=    306
   number of dos      NEDOS =    301   number of ions     NIONS =     48
   non local maximal  LDIM  =      6   non local SUM 2l+1 LMDIM =     18
   total plane-waves  NPLWV = 349920
   max r-space proj   IRMAX =   2009   max aug-charges    IRDMAX=   8532
   dimension x,y,z NGX =    54 NGY =   54 NGZ =  120
   dimension x,y,z NGXF=   108 NGYF=  108 NGZF=  240
   support grid    NGXF=   108 NGYF=  108 NGZF=  240
   ions per type =              24  24
 NGX,Y,Z   is equivalent  to a cutoff of   8.16,  8.16,  8.15 a.u.
 NGXF,Y,Z  is equivalent  to a cutoff of  16.32, 16.32, 16.29 a.u.


 I would recommend the setting:
   dimension x,y,z NGX =    54 NGY =   54 NGZ =  120
 SYSTEM =  unknown system                          
 POSCAR =  Au Pd                                   

 Startparameter for this run:
   NWRITE =      1    write-flag & timer
   PREC   = normal    normal or accurate (medium, high low for compatibility)
   ISTART =      0    job   : 0-new  1-cont  2-samecut
   ICHARG =      2    charge: 1-file 2-atom 10-const
   ISPIN  =      1    spin polarized calculation?
   LNONCOLLINEAR =      F non collinear calculations
   LSORBIT =      F    spin-orbit coupling
   INIWAV =      1    electr: 0-lowe 1-rand  2-diag
   LASPH  =      F    aspherical Exc in radial PAW
   METAGGA=      F    non-selfconsistent MetaGGA calc.

 Electronic Relaxation 1
   ENCUT  =  400.0 eV  29.40 Ry    5.42 a.u.  17.94 17.94 39.94*2*pi/ulx,y,z
   ENINI  =  400.0     initial cutoff
   ENAUG  =  416.2 eV  augmentation charge cutoff
   NELM   =    500;   NELMIN=  2; NELMDL= -5     # of ELM steps 
   EDIFF  = 0.1E-05   stopping-criterion for ELM
   LREAL  =      T    real-space projection
   NLSPLINE    = F    spline interpolate recip. space projectors
   LCOMPAT=      F    compatible to vasp.4.4
   GGA_COMPAT  = T    GGA compatible to vasp.4.4-vasp.4.6
   LMAXPAW     = -100 max onsite density
   LMAXMIX     =    2 max onsite mixed and CHGCAR
   VOSKOWN=      1    Vosko Wilk Nusair interpolation
   ROPT   =   -0.00050  -0.00050
 Ionic relaxation
   EDIFFG = -.2E-01   stopping-criterion for IOM
   NSW    =    500    number of steps for IOM
   NBLOCK =      1;   KBLOCK =    500    inner block; outer block 
   IBRION =      2    ionic relax: 0-MD 1-quasi-New 2-CG
   NFREE  =      2    steps in history (QN), initial steepest desc. (CG)
   ISIF   =      0    stress and relaxation
   IWAVPR =     11    prediction:  0-non 1-charg 2-wave 3-comb
   ISYM   =      2    0-nonsym 1-usesym 2-fastsym
   LCORR  =      T    Harris-Foulkes like correction to forces

   POTIM  = 0.3500    time-step for ionic-motion
   TEIN   =    0.0    initial temperature
   TEBEG  =    0.0;   TEEND  =   0.0 temperature during run
   SMASS  =  -3.00    Nose mass-parameter (am)
   estimated Nose-frequenzy (Omega)   =  0.10E-29 period in steps =****** mass=  -0.277E-26a.u.
   SCALEE = 1.0000    scale energy and forces
   NPACO  =    256;   APACO  = 16.0  distance and # of slots for P.C.
   PSTRESS=    0.0 pullay stress

  Mass of Ions in am
   POMASS = 196.97106.42
  Ionic Valenz
   ZVAL   =  11.00 10.00
  Atomic Wigner-Seitz radii
   RWIGS  =  -1.00 -1.00
  virtual crystal weights 
   VCA    =   1.00  1.00
   NELECT =     504.0000    total number of electrons
   NUPDOWN=      -1.0000    fix difference up-down

 DOS related values:
   EMIN   =  10.00;   EMAX   =-10.00  energy-range for DOS
   EFERMI =   0.00
   ISMEAR =     0;   SIGMA  =   0.10  broadening in eV -4-tet -1-fermi 0-gaus

 Electronic relaxation 2 (details)
   IALGO  =     68    algorithm
   LDIAG  =      T    sub-space diagonalisation (order eigenvalues)
   LSUBROT=      F    optimize rotation matrix (better conditioning)
   TURBO    =      0    0=normal 1=particle mesh
   IRESTART =      0    0=no restart 2=restart with 2 vectors
   NREBOOT  =      0    no. of reboots
   NMIN     =      0    reboot dimension
   EREF     =   0.00    reference energy to select bands
   IMIX   =      4    mixing-type and parameters
     AMIX     =   0.40;   BMIX     =  1.00
     AMIX_MAG =   1.60;   BMIX_MAG =  1.00
     AMIN     =   0.10
     WC   =   100.;   INIMIX=   1;  MIXPRE=   1;  MAXMIX= -45

 Intra band minimization:
   WEIMIN = 0.0010     energy-eigenvalue tresh-hold
   EBREAK =  0.82E-09  absolut break condition
   DEPER  =   0.30     relativ break condition  

   TIME   =   0.40     timestep for ELM

  volume/ion in A,a.u.               =      53.49       360.99
  Fermi-wavevector in a.u.,A,eV,Ry     =   0.951418  1.797920 12.315955  0.905197
  Thomas-Fermi vector in A             =   2.079887
 
 Write flags
   LWAVE  =      F    write WAVECAR
   LCHARG =      F    write CHGCAR
   LVTOT  =      F    write LOCPOT, total local potential
   LVHAR  =      F    write LOCPOT, Hartree potential only
   LELF   =      F    write electronic localiz. function (ELF)
   LORBIT =      0    0 simple, 1 ext, 2 COOP (PROOUT)


 Dipole corrections
   LMONO  =      F    monopole corrections only (constant potential shift)
   LDIPOL =      T    correct potential (dipole corrections)
   IDIPOL =      3    1-x, 2-y, 3-z, 4-all directions 
   EPSILON=  1.0000000 bulk dielectric constant

 Exchange correlation treatment:
   GGA     =    PE    GGA type
   LEXCH   =     8    internal setting for exchange type
   VOSKOWN=      1    Vosko Wilk Nusair interpolation
   LHFCALC =     F    Hartree Fock is set to
   LHFONE  =     F    Hartree Fock one center treatment
   AEXX    =    0.0000 exact exchange contribution

 Linear response parameters
   LEPSILON=     F    determine dielectric tensor
   LRPA    =     F    only Hartree local field effects (RPA)
   LNABLA  =     F    use nabla operator in PAW spheres
   LVEL    =     F    velocity operator in full k-point grid
   LINTERFAST=   F  fast interpolation
   KINTER  =     0    interpolate to denser k-point grid
   CSHIFT  =0.1000    complex shift for real part using Kramers Kronig
   OMEGAMAX=  -1.0    maximum frequency
   DEG_THRESHOLD= 0.2000000E-02 threshold for treating states as degnerate
   RTIME   =    0.100 relaxation time in fs

 Orbital magnetization related:
   ORBITALMAG=     F  switch on orbital magnetization
   LCHIMAG   =     F  perturbation theory with respect to B field
   DQ        =  0.001000  dq finite difference perturbation B field



--------------------------------------------------------------------------------------------------------


 conjugate gradient relaxation of ions
 charge density and potential will be updated during run
 non-spin polarized calculation
 RMM-DIIS sequential band-by-band and
  variant of blocked Davidson during initial phase
 perform sub-space diagonalisation
    before iterative eigenvector-optimisation
 modified Broyden-mixing scheme, WC =      100.0
 initial mixing is a Kerker type mixing with AMIX =  0.4000 and BMIX =      1.0000
 Hartree-type preconditioning will be used
 using additional bands           54
 real space projection scheme for non local part
 use partial core corrections
 calculate Harris-corrections to forces 
   (improved forces if not selfconsistent)
 use gradient corrections 
 use of overlap-Matrix (Vanderbilt PP)
 Gauss-broadening in eV      SIGMA  =   0.10


--------------------------------------------------------------------------------------------------------


  energy-cutoff  :      400.00
  volume of cell :     2567.68
      direct lattice vectors                 reciprocal lattice vectors
    11.002581515  0.000000000  0.000000000     0.090887761 -0.052474073  0.000000000
     5.501290758  9.528515099  0.000000000     0.000000000  0.104948147  0.000000000
     0.000000000  0.000000000 24.491785094     0.000000000  0.000000000  0.040830017

  length of vectors
    11.002581515 11.002581515 24.491785094     0.104948147  0.104948147  0.040830017


 
 k-points in units of 2pi/SCALE and weight: Automatic mesh                          
   0.02272194  0.01311852  0.00000000       0.167
   0.00000000  0.02623704  0.00000000       0.167
  -0.02272194  0.01311852  0.00000000       0.167
  -0.02272194  0.03935555  0.00000000       0.167
   0.04544388 -0.05247407  0.00000000       0.167
  -0.02272194  0.06559259  0.00000000       0.167
 
 k-points in reciprocal lattice and weights: Automatic mesh                          
   0.25000000  0.25000000  0.00000000       0.167
   0.00000000  0.25000000  0.00000000       0.167
  -0.25000000  0.00000000  0.00000000       0.167
  -0.25000000  0.25000000  0.00000000       0.167
   0.50000000 -0.25000000  0.00000000       0.167
  -0.25000000  0.50000000  0.00000000       0.167
 
 position of ions in fractional coordinates (direct lattice) 
   0.50000000  0.50000000  0.59169983
   0.16666667  0.91666667  0.50000000
   0.83333333  0.08333333  0.40830017
   0.41666667  0.16666667  0.50000000
   0.50000000  0.00000000  0.59169983
   0.83333333  0.33333333  0.40830017
   0.25000000  0.25000000  0.59169983
   0.41666667  0.66666667  0.50000000
   0.50000000  0.75000000  0.59169983
   0.83333333  0.58333333  0.40830017
   0.16666667  0.16666667  0.50000000
   0.66666667  0.91666667  0.50000000
   0.33333333  0.08333333  0.40830017
   0.91666667  0.91666667  0.50000000
   0.08333333  0.83333333  0.40830017
   0.00000000  0.50000000  0.59169983
   0.91666667  0.66666667  0.50000000
   0.08333333  0.58333333  0.40830017
   0.58333333  0.83333333  0.40830017
   0.91666667  0.41666667  0.50000000
   0.58333333  0.58333333  0.40830017
   0.00000000  0.00000000  0.59169983
   0.91666667  0.16666667  0.50000000
   0.58333333  0.08333333  0.40830017
   0.41666667  0.91666667  0.50000000
   0.08333333  0.08333333  0.40830017
   0.75000000  0.00000000  0.59169983
   0.75000000  0.25000000  0.59169983
   0.66666667  0.66666667  0.50000000
   0.75000000  0.50000000  0.59169983
   0.83333333  0.83333333  0.40830017
   0.66666667  0.16666667  0.50000000
   0.66666667  0.41666667  0.50000000
   0.25000000  0.75000000  0.59169983
   0.41666667  0.41666667  0.50000000
   0.58333333  0.33333333  0.40830017
   0.33333333  0.83333333  0.40830017
   0.25000000  0.50000000  0.59169983
   0.16666667  0.66666667  0.50000000
   0.33333333  0.58333333  0.40830017
   0.16666667  0.41666667  0.50000000
   0.33333333  0.33333333  0.40830017
   0.25000000  0.00000000  0.59169983
   0.00000000  0.75000000  0.59169983
   0.00000000  0.25000000  0.59169983
   0.08333333  0.33333333  0.40830017
   0.50000000  0.25000000  0.59169983
   0.75000000  0.75000000  0.59169983
 
 position of ions in cartesian coordinates  (Angst):
   8.25193614  4.76425755 14.49178509
   6.87661345  8.73447217 12.24589255
   9.62725883  0.79404292 10.00000000
   5.50129076  1.58808585 12.24589255
   5.50129076  0.00000000 14.49178509
  11.00258152  3.17617170 10.00000000
   4.12596807  2.38212877 14.49178509
   8.25193614  6.35234340 12.24589255
   9.62725883  7.14638632 14.49178509
  12.37790420  5.55830047 10.00000000
   2.75064538  1.58808585 12.24589255
  12.37790420  8.73447217 12.24589255
   4.12596807  0.79404292 10.00000000
  15.12854958  8.73447217 12.24589255
   5.50129076  7.94042925 10.00000000
   2.75064538  4.76425755 14.49178509
  13.75322689  6.35234340 12.24589255
   4.12596807  5.55830047 10.00000000
  11.00258152  7.94042925 10.00000000
  12.37790420  3.97021462 12.24589255
   9.62725883  5.55830047 10.00000000
   0.00000000  0.00000000 14.49178509
  11.00258152  1.58808585 12.24589255
   6.87661345  0.79404292 10.00000000
   9.62725883  8.73447217 12.24589255
   1.37532269  0.79404292 10.00000000
   8.25193614  0.00000000 14.49178509
   9.62725883  2.38212877 14.49178509
  11.00258152  6.35234340 12.24589255
  11.00258152  4.76425755 14.49178509
  13.75322689  7.94042925 10.00000000
   8.25193614  1.58808585 12.24589255
   9.62725883  3.97021462 12.24589255
   6.87661345  7.14638632 14.49178509
   6.87661345  3.97021462 12.24589255
   8.25193614  3.17617170 10.00000000
   8.25193614  7.94042925 10.00000000
   5.50129076  4.76425755 14.49178509
   5.50129076  6.35234340 12.24589255
   6.87661345  5.55830047 10.00000000
   4.12596807  3.97021462 12.24589255
   5.50129076  3.17617170 10.00000000
   2.75064538  0.00000000 14.49178509
   4.12596807  7.14638632 14.49178509
   1.37532269  2.38212877 14.49178509
   2.75064538  3.17617170 10.00000000
   6.87661345  2.38212877 14.49178509
  12.37790420  7.14638632 14.49178509
 


--------------------------------------------------------------------------------------------------------


 k-point  1 :   0.2500 0.2500 0.0000  plane waves:   46635
 k-point  2 :   0.0000 0.2500 0.0000  plane waves:   46635
 k-point  3 :  -0.2500 0.0000 0.0000  plane waves:   46635
 k-point  4 :  -0.2500 0.2500 0.0000  plane waves:   46644
 k-point  5 :   0.5000-0.2500 0.0000  plane waves:   46644
 k-point  6 :  -0.2500 0.5000 0.0000  plane waves:   46644

 maximum and minimum number of plane-waves per node :      7818     7732

 maximum number of plane-waves:     46644
 maximum index in each direction: 
   IXMAX=   18   IYMAX=   18   IZMAX=   39
   IXMIN=  -18   IYMIN=  -18   IZMIN=  -39

 WARNING: aliasing errors must be expected set NGX to  74 to avoid them
 WARNING: aliasing errors must be expected set NGY to  74 to avoid them
 WARNING: aliasing errors must be expected set NGZ to 158 to avoid them
 aliasing errors are usually negligible using standard VASP settings
 and one can safely disregard these warnings

 real space projection operators:
  total allocation   :      12803.06 KBytes
  max/ min on nodes  :       2145.66       2127.94


 parallel 3D FFT for wavefunctions:
    minimum data exchange during FFTs selected (reduces bandwidth)
 parallel 3D FFT for charge:
    minimum data exchange during FFTs selected (reduces bandwidth)


 total amount of memory used by VASP on root node    84353. kBytes
========================================================================

   base      :      30000. kBytes
   nonlr-proj:       4285. kBytes
   fftplans  :       4447. kBytes
   grid      :       6721. kBytes
   one-center:        124. kBytes
   wavefun   :      38776. kBytes
 
     INWAV:  cpu time    0.0000: real time    0.0000
 Broyden mixing: mesh for mixing (old mesh)
   NGX = 35   NGY = 35   NGZ = 79
  (NGX  =108   NGY  =108   NGZ  =240)
  gives a total of  96775 points

 initial charge density was supplied:
 charge density of overlapping atoms calculated
 number of electron     504.0000000 magnetization 
 keeping initial charge density in first step


--------------------------------------------------------------------------------------------------------


 Maximum index for non-local projection operator          355
 Maximum index for augmentation-charges          437 (set IRDMAX)


--------------------------------------------------------------------------------------------------------


 First call to EWALD:  gamma=   0.129
 Maximum number of real-space cells 4x 4x 2
 Maximum number of reciprocal cells 2x 2x 5

 FEWALD executed in parallel
    FEWALD:  cpu time    0.0028: real time    0.0030


----------------------------------------- Iteration    1(   1)  ---------------------------------------


    POTLOK:  cpu time    0.0545: real time    0.0546
    SETDIJ:  cpu time    0.0066: real time    0.0066
     EDDAV:  cpu time   10.0130: real time   10.0482
       DOS:  cpu time    0.0015: real time    0.0015
    --------------------------------------------
      LOOP:  cpu time   10.0795: real time   10.1169

 eigenvalue-minimisations  :  3672
 total energy-change (2. order) : 0.3201346E+04  (-0.1898088E+05)
 number of electron     504.0000000 magnetization 
 augmentation part      504.0000000 magnetization 

 DIPCOR: dipole corrections for dipol
 direction  3 min pos     1,
 dipolmoment           0.000000      0.000000      0.000002 electrons x Angstroem
 Tr[quadrupol]    -10254.623962

 energy correction for charged system         0.000000 eV
 dipol+quadrupol energy correction           -0.000000 eV
 added-field ion interaction          0.000001 eV  (added to PSCEN)


 Free energy of the ion-electron system (eV)
  ---------------------------------------------------
  alpha Z        PSCENC =       805.86936534
  Ewald energy   TEWEN  =    200398.33439399
  -Hartree energ DENC   =   -242813.36472730
  -exchange      EXHF   =         0.00000000
  -V(xc)+E(xc)   XCENC  =      -327.56210979
  PAW double counting   =     40340.05962942   -38292.62782345
  entropy T*S    EENTRO =        -0.11809927
  eigenvalues    EBANDS =      1430.96954997
  atomic energy  EATOM  =     41659.78587232
  Solvation  Ediel_sol  =         0.00000000
  ---------------------------------------------------
  free energy    TOTEN  =      3201.34605124 eV

  energy without entropy =     3201.46415051  energy(sigma->0) =     3201.40510087


--------------------------------------------------------------------------------------------------------




----------------------------------------- Iteration    1(   2)  ---------------------------------------


     EDDAV:  cpu time   11.1238: real time   11.1594
       DOS:  cpu time    0.0017: real time    0.0017
    --------------------------------------------
      LOOP:  cpu time   11.1265: real time   11.1646

 eigenvalue-minimisations  :  4368
 total energy-change (2. order) :-0.3185421E+04  (-0.2927736E+04)
 number of electron     504.0000000 magnetization 
 augmentation part      504.0000000 magnetization 

 DIPCOR: dipole corrections for dipol
 direction  3 min pos     1,
 dipolmoment           0.000000      0.000000      0.000002 electrons x Angstroem
 Tr[quadrupol]    -10254.623962

 energy correction for charged system         0.000000 eV
 dipol+quadrupol energy correction           -0.000000 eV
 added-field ion interaction          0.000001 eV  (added to PSCEN)


 Free energy of the ion-electron system (eV)
  ---------------------------------------------------
  alpha Z        PSCENC =       805.86936534
  Ewald energy   TEWEN  =    200398.33439399
  -Hartree energ DENC   =   -242813.36472730
  -exchange      EXHF   =         0.00000000
  -V(xc)+E(xc)   XCENC  =      -327.56210979
  PAW double counting   =     40340.05962942   -38292.62782345
  entropy T*S    EENTRO =        -0.13670652
  eigenvalues    EBANDS =     -1754.43332774
  atomic energy  EATOM  =     41659.78587232
  Solvation  Ediel_sol  =         0.00000000
  ---------------------------------------------------
  free energy    TOTEN  =        15.92456627 eV

  energy without entropy =       16.06127279  energy(sigma->0) =       15.99291953


--------------------------------------------------------------------------------------------------------




----------------------------------------- Iteration    1(   3)  ---------------------------------------


     EDDAV:  cpu time   10.8227: real time   10.8291
       DOS:  cpu time    0.0016: real time    0.0016
    --------------------------------------------
      LOOP:  cpu time   10.8266: real time   10.8389

 eigenvalue-minimisations  :  4140
 total energy-change (2. order) :-0.2157941E+03  (-0.2003500E+03)
 number of electron     504.0000000 magnetization 
 augmentation part      504.0000000 magnetization 

 DIPCOR: dipole corrections for dipol
 direction  3 min pos     1,
 dipolmoment           0.000000      0.000000      0.000002 electrons x Angstroem
 Tr[quadrupol]    -10254.623962

 energy correction for charged system         0.000000 eV
 dipol+quadrupol energy correction           -0.000000 eV
 added-field ion interaction          0.000001 eV  (added to PSCEN)


 Free energy of the ion-electron system (eV)
  ---------------------------------------------------
  alpha Z        PSCENC =       805.86936534
  Ewald energy   TEWEN  =    200398.33439399
  -Hartree energ DENC   =   -242813.36472730
  -exchange      EXHF   =         0.00000000
  -V(xc)+E(xc)   XCENC  =      -327.56210979
  PAW double counting   =     40340.05962942   -38292.62782345
  entropy T*S    EENTRO =        -0.20197930
  eigenvalues    EBANDS =     -1970.16211572
  atomic energy  EATOM  =     41659.78587232
  Solvation  Ediel_sol  =         0.00000000
  ---------------------------------------------------
  free energy    TOTEN  =      -199.86949449 eV

  energy without entropy =     -199.66751519  energy(sigma->0) =     -199.76850484


--------------------------------------------------------------------------------------------------------




----------------------------------------- Iteration    1(   4)  ---------------------------------------


     EDDAV:  cpu time   10.9689: real time   11.0368
       DOS:  cpu time    0.0017: real time    0.0017
    --------------------------------------------
      LOOP:  cpu time   10.9721: real time   11.0425

 eigenvalue-minimisations  :  4236
 total energy-change (2. order) :-0.5916728E+01  (-0.5841529E+01)
 number of electron     504.0000000 magnetization 
 augmentation part      504.0000000 magnetization 

 DIPCOR: dipole corrections for dipol
 direction  3 min pos     1,
 dipolmoment           0.000000      0.000000      0.000002 electrons x Angstroem
 Tr[quadrupol]    -10254.623962

 energy correction for charged system         0.000000 eV
 dipol+quadrupol energy correction           -0.000000 eV
 added-field ion interaction          0.000001 eV  (added to PSCEN)


 Free energy of the ion-electron system (eV)
  ---------------------------------------------------
  alpha Z        PSCENC =       805.86936534
  Ewald energy   TEWEN  =    200398.33439399
  -Hartree energ DENC   =   -242813.36472730
  -exchange      EXHF   =         0.00000000
  -V(xc)+E(xc)   XCENC  =      -327.56210979
  PAW double counting   =     40340.05962942   -38292.62782345
  entropy T*S    EENTRO =        -0.21685287
  eigenvalues    EBANDS =     -1976.06397014
  atomic energy  EATOM  =     41659.78587232
  Solvation  Ediel_sol  =         0.00000000
  ---------------------------------------------------
  free energy    TOTEN  =      -205.78622247 eV

  energy without entropy =     -205.56936960  energy(sigma->0) =     -205.67779604


--------------------------------------------------------------------------------------------------------




----------------------------------------- Iteration    1(   5)  ---------------------------------------


     EDDAV:  cpu time   11.4272: real time   11.4345
       DOS:  cpu time    0.0017: real time    0.0017
    CHARGE:  cpu time    0.3042: real time    0.3043
    MIXING:  cpu time    0.0021: real time    0.0023
    --------------------------------------------
      LOOP:  cpu time   11.7375: real time   11.7463

 eigenvalue-minimisations  :  4464
 total energy-change (2. order) :-0.1809789E+00  (-0.1804086E+00)
 number of electron     503.9998406 magnetization 
 augmentation part      191.3274343 magnetization 

 DIPCOR: dipole corrections for dipol
 direction  3 min pos     1,
 dipolmoment           0.000000      0.000000      0.000002 electrons x Angstroem
 Tr[quadrupol]    -10254.623962

 energy correction for charged system         0.000000 eV
 dipol+quadrupol energy correction           -0.000000 eV
 added-field ion interaction          0.000001 eV  (added to PSCEN)


 Broyden mixing:
  rms(total) = 0.62513E+01    rms(broyden)= 0.62512E+01
  rms(prec ) = 0.63720E+01
  weight for this iteration     100.00

 Free energy of the ion-electron system (eV)
  ---------------------------------------------------
  alpha Z        PSCENC =       805.86936534
  Ewald energy   TEWEN  =    200398.33439399
  -Hartree energ DENC   =   -242813.36472730
  -exchange      EXHF   =         0.00000000
  -V(xc)+E(xc)   XCENC  =      -327.56210979
  PAW double counting   =     40340.05962942   -38292.62782345
  entropy T*S    EENTRO =        -0.21668871
  eigenvalues    EBANDS =     -1976.24511322
  atomic energy  EATOM  =     41659.78587232
  Solvation  Ediel_sol  =         0.00000000
  ---------------------------------------------------
  free energy    TOTEN  =      -205.96720139 eV

  energy without entropy =     -205.75051268  energy(sigma->0) =     -205.85885704


--------------------------------------------------------------------------------------------------------




----------------------------------------- Iteration    1(   6)  ---------------------------------------


    POTLOK:  cpu time    0.0509: real time    0.0511
    SETDIJ:  cpu time    0.0060: real time    0.0061
    EDDIAG:  cpu time    1.6614: real time    1.6624
  RMM-DIIS:  cpu time    4.5141: real time    4.5165
    ORTHCH:  cpu time    0.4131: real time    0.4134
       DOS:  cpu time    0.0016: real time    0.0016
    CHARGE:  cpu time    0.3072: real time    0.3072
    MIXING:  cpu time    0.0020: real time    0.0020
    --------------------------------------------
      LOOP:  cpu time    6.9569: real time    6.9635

 eigenvalue-minimisations  :  3679
 total energy-change (2. order) : 0.2515285E+01  (-0.9233521E+01)
 number of electron     503.9998424 magnetization 
 augmentation part      191.4192128 magnetization 

 DIPCOR: dipole corrections for dipol
 direction  3 min pos     1,
 dipolmoment           0.000000      0.000000      1.017130 electrons x Angstroem
 Tr[quadrupol]    -10255.335617

 energy correction for charged system         0.000000 eV
 dipol+quadrupol energy correction           -0.036455 eV
 added-field ion interaction          0.482970 eV  (added to PSCEN)


 Broyden mixing:
  rms(total) = 0.56722E+01    rms(broyden)= 0.56721E+01
  rms(prec ) = 0.60366E+01
  weight for this iteration     100.00

 eigenvalues of (default mixing * dielectric matrix)
  average eigenvalue GAMMA=   0.6912
  0.6912

 Free energy of the ion-electron system (eV)
  ---------------------------------------------------
  alpha Z        PSCENC =       806.31587900
  Ewald energy   TEWEN  =    200398.33439399
  -Hartree energ DENC   =   -242540.73081223
  -exchange      EXHF   =         0.00000000
  -V(xc)+E(xc)   XCENC  =      -339.97971762
  PAW double counting   =     43930.04525118   -41941.75954063
  entropy T*S    EENTRO =        -0.23353265
  eigenvalues    EBANDS =     -2175.22970996
  atomic energy  EATOM  =     41659.78587232
  Solvation  Ediel_sol  =         0.00000000
  ---------------------------------------------------
  free energy    TOTEN  =      -203.45191660 eV

  energy without entropy =     -203.21838395  energy(sigma->0) =     -203.33515027


--------------------------------------------------------------------------------------------------------




----------------------------------------- Iteration    1(   7)  ---------------------------------------


    POTLOK:  cpu time    0.0502: real time    0.0505
    SETDIJ:  cpu time    0.0061: real time    0.0061
    EDDIAG:  cpu time    1.8218: real time    1.8333
  RMM-DIIS:  cpu time    4.6488: real time    4.6688
    ORTHCH:  cpu time    0.4129: real time    0.4132
       DOS:  cpu time    0.0016: real time    0.0016
    CHARGE:  cpu time    0.3040: real time    0.3040
    MIXING:  cpu time    0.0021: real time    0.0021
    --------------------------------------------
      LOOP:  cpu time    7.2483: real time    7.2818

 eigenvalue-minimisations  :  3682
 total energy-change (2. order) :-0.1453168E+02  (-0.6323832E+01)
 number of electron     503.9998381 magnetization 
 augmentation part      194.2600680 magnetization 

 DIPCOR: dipole corrections for dipol
 direction  3 min pos     1,
 dipolmoment           0.000000      0.000000     -1.478829 electrons x Angstroem
 Tr[quadrupol]    -10254.756675

 energy correction for charged system         0.000000 eV
 dipol+quadrupol energy correction           -0.077062 eV
 added-field ion interaction         -0.702200 eV  (added to PSCEN)


 Broyden mixing:
  rms(total) = 0.51534E+01    rms(broyden)= 0.51531E+01
  rms(prec ) = 0.61333E+01
  weight for this iteration     100.00

 eigenvalues of (default mixing * dielectric matrix)
  average eigenvalue GAMMA=   0.8214
  1.3422  0.3005

 Free energy of the ion-electron system (eV)
  ---------------------------------------------------
  alpha Z        PSCENC =       805.09010220
  Ewald energy   TEWEN  =    200398.33439399
  -Hartree energ DENC   =   -242426.63663917
  -exchange      EXHF   =         0.00000000
  -V(xc)+E(xc)   XCENC  =      -342.24501934
  PAW double counting   =     45204.74996729   -43239.95407785
  entropy T*S    EENTRO =        -0.20983227
  eigenvalues    EBANDS =     -2276.89836059
  atomic energy  EATOM  =     41659.78587232
  Solvation  Ediel_sol  =         0.00000000
  ---------------------------------------------------
  free energy    TOTEN  =      -217.98359344 eV

  energy without entropy =     -217.77376116  energy(sigma->0) =     -217.87867730


--------------------------------------------------------------------------------------------------------




----------------------------------------- Iteration    1(   8)  ---------------------------------------


    POTLOK:  cpu time    0.0495: real time    0.0496
    SETDIJ:  cpu time    0.0061: real time    0.0061
    EDDIAG:  cpu time    1.6529: real time    1.6539
  RMM-DIIS:  cpu time    4.5122: real time    4.5148
    ORTHCH:  cpu time    0.4124: real time    0.4127
       DOS:  cpu time    0.0016: real time    0.0016
    CHARGE:  cpu time    0.3086: real time    0.3087
    MIXING:  cpu time    0.0021: real time    0.0021
    --------------------------------------------
      LOOP:  cpu time    6.9461: real time    6.9518

 eigenvalue-minimisations  :  3678
 total energy-change (2. order) :-0.2418596E+01  (-0.9399558E+01)
 number of electron     503.9998348 magnetization 
 augmentation part      197.0484037 magnetization 

 DIPCOR: dipole corrections for dipol
 direction  3 min pos     1,
 dipolmoment           0.000000      0.000000      1.534967 electrons x Angstroem
 Tr[quadrupol]    -10255.645966

 energy correction for charged system         0.000000 eV
 dipol+quadrupol energy correction           -0.083023 eV
 added-field ion interaction          0.728857 eV  (added to PSCEN)


 Broyden mixing:
  rms(total) = 0.45174E+01    rms(broyden)= 0.45171E+01
  rms(prec ) = 0.53221E+01
  weight for this iteration     100.00

 eigenvalues of (default mixing * dielectric matrix)
  average eigenvalue GAMMA=   0.8662
  1.9631  0.4098  0.2256

 Free energy of the ion-electron system (eV)
  ---------------------------------------------------
  alpha Z        PSCENC =       806.51519755
  Ewald energy   TEWEN  =    200398.33439399
  -Hartree energ DENC   =   -242365.98324990
  -exchange      EXHF   =         0.00000000
  -V(xc)+E(xc)   XCENC  =      -344.75083099
  PAW double counting   =     46806.84876458   -44869.85440594
  entropy T*S    EENTRO =        -0.20562726
  eigenvalues    EBANDS =     -2311.09230363
  atomic energy  EATOM  =     41659.78587232
  Solvation  Ediel_sol  =         0.00000000
  ---------------------------------------------------
  free energy    TOTEN  =      -220.40218927 eV

  energy without entropy =     -220.19656201  energy(sigma->0) =     -220.29937564


--------------------------------------------------------------------------------------------------------




----------------------------------------- Iteration    1(   9)  ---------------------------------------


    POTLOK:  cpu time    0.0494: real time    0.0495
    SETDIJ:  cpu time    0.0061: real time    0.0061
    EDDIAG:  cpu time    1.6215: real time    1.6837
  RMM-DIIS:  cpu time    4.3989: real time    4.4010
    ORTHCH:  cpu time    0.4156: real time    0.4157
       DOS:  cpu time    0.0017: real time    0.0017
    CHARGE:  cpu time    0.3024: real time    0.3026
    MIXING:  cpu time    0.0025: real time    0.0025
    --------------------------------------------
      LOOP:  cpu time    6.7990: real time    6.8647

 eigenvalue-minimisations  :  3678
 total energy-change (2. order) : 0.7444319E+01  (-0.5922338E+01)
 number of electron     503.9998330 magnetization 
 augmentation part      199.0178267 magnetization 

 DIPCOR: dipole corrections for dipol
 direction  3 min pos     1,
 dipolmoment           0.000000      0.000000     -0.301230 electrons x Angstroem
 Tr[quadrupol]    -10256.561414

 energy correction for charged system         0.000000 eV
 dipol+quadrupol energy correction           -0.003197 eV
 added-field ion interaction         -0.143035 eV  (added to PSCEN)


 Broyden mixing:
  rms(total) = 0.36959E+01    rms(broyden)= 0.36956E+01
  rms(prec ) = 0.40308E+01
  weight for this iteration     100.00

 eigenvalues of (default mixing * dielectric matrix)
  average eigenvalue GAMMA=   0.7926
  2.2076  0.3497  0.3497  0.2635

 Free energy of the ion-electron system (eV)
  ---------------------------------------------------
  alpha Z        PSCENC =       805.72313208
  Ewald energy   TEWEN  =    200398.33439399
  -Hartree energ DENC   =   -242357.86243953
  -exchange      EXHF   =         0.00000000
  -V(xc)+E(xc)   XCENC  =      -346.39042696
  PAW double counting   =     48336.42358024   -46422.30799933
  entropy T*S    EENTRO =        -0.22166829
  eigenvalues    EBANDS =     -2286.44231430
  atomic energy  EATOM  =     41659.78587232
  Solvation  Ediel_sol  =         0.00000000
  ---------------------------------------------------
  free energy    TOTEN  =      -212.95786978 eV

  energy without entropy =     -212.73620149  energy(sigma->0) =     -212.84703564


--------------------------------------------------------------------------------------------------------




----------------------------------------- Iteration    1(  10)  ---------------------------------------


    POTLOK:  cpu time    0.0500: real time    0.0500
    SETDIJ:  cpu time    0.0061: real time    0.0061
    EDDIAG:  cpu time    1.6638: real time    1.6656
  RMM-DIIS:  cpu time    4.5257: real time    4.5281
    ORTHCH:  cpu time    0.4127: real time    0.4128
       DOS:  cpu time    0.0016: real time    0.0016
    CHARGE:  cpu time    0.3036: real time    0.3036
    MIXING:  cpu time    0.0025: real time    0.0025
    --------------------------------------------
      LOOP:  cpu time    6.9669: real time    6.9763

 eigenvalue-minimisations  :  3681
 total energy-change (2. order) : 0.1470325E+02  (-0.1934571E+01)
 number of electron     503.9998339 magnetization 
 augmentation part      199.4381756 magnetization 

 DIPCOR: dipole corrections for dipol
 direction  3 min pos     1,
 dipolmoment           0.000000      0.000000      0.406734 electrons x Angstroem
 Tr[quadrupol]    -10255.635664

 energy correction for charged system         0.000000 eV
 dipol+quadrupol energy correction           -0.005829 eV
 added-field ion interaction          0.193132 eV  (added to PSCEN)


 Broyden mixing:
  rms(total) = 0.21036E+01    rms(broyden)= 0.21034E+01
  rms(prec ) = 0.24046E+01
  weight for this iteration     100.00

 eigenvalues of (default mixing * dielectric matrix)
  average eigenvalue GAMMA=   0.7605
  2.2960  0.4558  0.4558  0.3711  0.2237

 Free energy of the ion-electron system (eV)
  ---------------------------------------------------
  alpha Z        PSCENC =       806.05666656
  Ewald energy   TEWEN  =    200398.33439399
  -Hartree energ DENC   =   -242335.84078596
  -exchange      EXHF   =         0.00000000
  -V(xc)+E(xc)   XCENC  =      -346.30273423
  PAW double counting   =     49037.90461347   -47130.98471294
  entropy T*S    EENTRO =        -0.17440440
  eigenvalues    EBANDS =     -2287.03352845
  atomic energy  EATOM  =     41659.78587232
  Solvation  Ediel_sol  =         0.00000000
  ---------------------------------------------------
  free energy    TOTEN  =      -198.25461963 eV

  energy without entropy =     -198.08021523  energy(sigma->0) =     -198.16741743


--------------------------------------------------------------------------------------------------------




----------------------------------------- Iteration    1(  11)  ---------------------------------------


    POTLOK:  cpu time    0.0505: real time    0.0506
    SETDIJ:  cpu time    0.0061: real time    0.0061
    EDDIAG:  cpu time    1.6432: real time    1.6565
  RMM-DIIS:  cpu time    4.5241: real time    4.5262
    ORTHCH:  cpu time    0.4064: real time    0.4067
       DOS:  cpu time    0.0017: real time    0.0017
    CHARGE:  cpu time    0.3018: real time    0.3019
    MIXING:  cpu time    0.0026: real time    0.0026
    --------------------------------------------
      LOOP:  cpu time    6.9372: real time    6.9561

 eigenvalue-minimisations  :  3681
 total energy-change (2. order) : 0.5785008E+01  (-0.1405098E+01)
 number of electron     503.9998339 magnetization 
 augmentation part      198.9024043 magnetization 

 DIPCOR: dipole corrections for dipol
 direction  3 min pos     1,
 dipolmoment           0.000000      0.000000      0.079024 electrons x Angstroem
 Tr[quadrupol]    -10256.821826

 energy correction for charged system         0.000000 eV
 dipol+quadrupol energy correction           -0.000220 eV
 added-field ion interaction          0.037524 eV  (added to PSCEN)


 Broyden mixing:
  rms(total) = 0.14861E+01    rms(broyden)= 0.14858E+01
  rms(prec ) = 0.16748E+01
  weight for this iteration     100.00

 eigenvalues of (default mixing * dielectric matrix)
  average eigenvalue GAMMA=   0.7112
  2.2397  0.5340  0.5340  0.4518  0.2281  0.2795

 Free energy of the ion-electron system (eV)
  ---------------------------------------------------
  alpha Z        PSCENC =       805.90666783
  Ewald energy   TEWEN  =    200398.33439399
  -Hartree energ DENC   =   -242402.50036276
  -exchange      EXHF   =         0.00000000
  -V(xc)+E(xc)   XCENC  =      -345.81059540
  PAW double counting   =     49270.15126267   -47362.21732534
  entropy T*S    EENTRO =        -0.21054778
  eigenvalues    EBANDS =     -2215.90897681
  atomic energy  EATOM  =     41659.78587232
  Solvation  Ediel_sol  =         0.00000000
  ---------------------------------------------------
  free energy    TOTEN  =      -192.46961128 eV

  energy without entropy =     -192.25906350  energy(sigma->0) =     -192.36433739


--------------------------------------------------------------------------------------------------------




----------------------------------------- Iteration    1(  12)  ---------------------------------------


    POTLOK:  cpu time    0.0508: real time    0.0509
    SETDIJ:  cpu time    0.0061: real time    0.0061
    EDDIAG:  cpu time    1.6427: real time    1.6434
  RMM-DIIS:  cpu time    4.4687: real time    4.4709
    ORTHCH:  cpu time    0.4030: real time    0.4032
       DOS:  cpu time    0.0016: real time    0.0016
    CHARGE:  cpu time    0.3038: real time    0.3040
    MIXING:  cpu time    0.0027: real time    0.0027
    --------------------------------------------
      LOOP:  cpu time    6.8802: real time    6.8868

 eigenvalue-minimisations  :  3682
 total energy-change (2. order) : 0.2798661E+01  (-0.5851756E+00)
 number of electron     503.9998355 magnetization 
 augmentation part      197.9410872 magnetization 

 DIPCOR: dipole corrections for dipol
 direction  3 min pos     1,
 dipolmoment           0.000000      0.000000      0.233522 electrons x Angstroem
 Tr[quadrupol]    -10256.671821

 energy correction for charged system         0.000000 eV
 dipol+quadrupol energy correction           -0.001922 eV
 added-field ion interaction          0.110884 eV  (added to PSCEN)


 Broyden mixing:
  rms(total) = 0.96502E+00    rms(broyden)= 0.96481E+00
  rms(prec ) = 0.10973E+01
  weight for this iteration     100.00

 eigenvalues of (default mixing * dielectric matrix)
  average eigenvalue GAMMA=   0.6699
  2.2448  0.5243  0.5243  0.5296  0.3253  0.3253  0.2158

 Free energy of the ion-electron system (eV)
  ---------------------------------------------------
  alpha Z        PSCENC =       805.97832720
  Ewald energy   TEWEN  =    200398.33439399
  -Hartree energ DENC   =   -242432.43840929
  -exchange      EXHF   =         0.00000000
  -V(xc)+E(xc)   XCENC  =      -344.82354816
  PAW double counting   =     49288.04701982   -47375.60307491
  entropy T*S    EENTRO =        -0.21643541
  eigenvalues    EBANDS =     -2188.73509600
  atomic energy  EATOM  =     41659.78587232
  Solvation  Ediel_sol  =         0.00000000
  ---------------------------------------------------
  free energy    TOTEN  =      -189.67095044 eV

  energy without entropy =     -189.45451503  energy(sigma->0) =     -189.56273273


--------------------------------------------------------------------------------------------------------




----------------------------------------- Iteration    1(  13)  ---------------------------------------


    POTLOK:  cpu time    0.0496: real time    0.0497
    SETDIJ:  cpu time    0.0060: real time    0.0060
    EDDIAG:  cpu time    1.6443: real time    1.6451
  RMM-DIIS:  cpu time    4.5050: real time    4.5070
    ORTHCH:  cpu time    0.4044: real time    0.4044
       DOS:  cpu time    0.0017: real time    0.0017
    CHARGE:  cpu time    0.3094: real time    0.3095
    MIXING:  cpu time    0.0028: real time    0.0028
    --------------------------------------------
      LOOP:  cpu time    6.9239: real time    6.9299

 eigenvalue-minimisations  :  3683
 total energy-change (2. order) : 0.8794710E+00  (-0.1550123E+00)
 number of electron     503.9998358 magnetization 
 augmentation part      197.6684943 magnetization 

 DIPCOR: dipole corrections for dipol
 direction  3 min pos     1,
 dipolmoment           0.000000      0.000000      0.146086 electrons x Angstroem
 Tr[quadrupol]    -10257.114591

 energy correction for charged system         0.000000 eV
 dipol+quadrupol energy correction           -0.000752 eV
 added-field ion interaction          0.069367 eV  (added to PSCEN)


 Broyden mixing:
  rms(total) = 0.63941E+00    rms(broyden)= 0.63931E+00
  rms(prec ) = 0.68164E+00
  weight for this iteration     100.00

 eigenvalues of (default mixing * dielectric matrix)
  average eigenvalue GAMMA=   0.6881
  2.2272  0.7147  0.7147  0.6814  0.3403  0.3403  0.2196  0.2662

 Free energy of the ion-electron system (eV)
  ---------------------------------------------------
  alpha Z        PSCENC =       805.93797931
  Ewald energy   TEWEN  =    200398.33439399
  -Hartree energ DENC   =   -242456.00614679
  -exchange      EXHF   =         0.00000000
  -V(xc)+E(xc)   XCENC  =      -344.53553307
  PAW double counting   =     49323.79293430   -47409.80151860
  entropy T*S    EENTRO =        -0.23335282
  eigenvalues    EBANDS =     -2166.06610807
  atomic energy  EATOM  =     41659.78587232
  Solvation  Ediel_sol  =         0.00000000
  ---------------------------------------------------
  free energy    TOTEN  =      -188.79147944 eV

  energy without entropy =     -188.55812662  energy(sigma->0) =     -188.67480303


--------------------------------------------------------------------------------------------------------




----------------------------------------- Iteration    1(  14)  ---------------------------------------


    POTLOK:  cpu time    0.0496: real time    0.0498
    SETDIJ:  cpu time    0.0060: real time    0.0060
    EDDIAG:  cpu time    1.6394: real time    1.6404
  RMM-DIIS:  cpu time    4.4859: real time    4.5060
    ORTHCH:  cpu time    0.3891: real time    0.4163
       DOS:  cpu time    0.0016: real time    0.0016
    CHARGE:  cpu time    0.3007: real time    0.3160
    MIXING:  cpu time    0.0030: real time    0.0030
    --------------------------------------------
      LOOP:  cpu time    6.8760: real time    6.9416

 eigenvalue-minimisations  :  3681
 total energy-change (2. order) :-0.8777332E-01  (-0.7569666E-01)
 number of electron     503.9998358 magnetization 
 augmentation part      197.4478716 magnetization 

 DIPCOR: dipole corrections for dipol
 direction  3 min pos     1,
 dipolmoment           0.000000      0.000000      0.123721 electrons x Angstroem
 Tr[quadrupol]    -10257.350559

 energy correction for charged system         0.000000 eV
 dipol+quadrupol energy correction           -0.000539 eV
 added-field ion interaction          0.058747 eV  (added to PSCEN)


 Broyden mixing:
  rms(total) = 0.70699E+00    rms(broyden)= 0.70694E+00
  rms(prec ) = 0.77673E+00
  weight for this iteration     100.00

 eigenvalues of (default mixing * dielectric matrix)
  average eigenvalue GAMMA=   0.6988
  2.2458  0.9215  0.9215  0.6945  0.3799  0.3799  0.2164  0.2651  0.2651

 Free energy of the ion-electron system (eV)
  ---------------------------------------------------
  alpha Z        PSCENC =       805.92757216
  Ewald energy   TEWEN  =    200398.33439399
  -Hartree energ DENC   =   -242472.63655167
  -exchange      EXHF   =         0.00000000
  -V(xc)+E(xc)   XCENC  =      -344.22101825
  PAW double counting   =     49337.86388131   -47421.89396171
  entropy T*S    EENTRO =        -0.21796598
  eigenvalues    EBANDS =     -2151.82147493
  atomic energy  EATOM  =     41659.78587232
  Solvation  Ediel_sol  =         0.00000000
  ---------------------------------------------------
  free energy    TOTEN  =      -188.87925276 eV

  energy without entropy =     -188.66128678  energy(sigma->0) =     -188.77026977


--------------------------------------------------------------------------------------------------------




----------------------------------------- Iteration    1(  15)  ---------------------------------------


    POTLOK:  cpu time    0.0498: real time    0.0498
    SETDIJ:  cpu time    0.0060: real time    0.0060
    EDDIAG:  cpu time    1.6372: real time    1.6380
  RMM-DIIS:  cpu time    4.5154: real time    4.5218
    ORTHCH:  cpu time    0.4839: real time    0.4865
       DOS:  cpu time    0.0016: real time    0.0016
    CHARGE:  cpu time    0.4365: real time    0.4381
    MIXING:  cpu time    0.0053: real time    0.0054
    --------------------------------------------
      LOOP:  cpu time    7.1365: real time    7.1504

 eigenvalue-minimisations  :  3681
 total energy-change (2. order) :-0.1432737E+00  (-0.6203807E-01)
 number of electron     503.9998357 magnetization 
 augmentation part      197.4468444 magnetization 

 DIPCOR: dipole corrections for dipol
 direction  3 min pos     1,
 dipolmoment           0.000000      0.000000      0.082691 electrons x Angstroem
 Tr[quadrupol]    -10257.720573

 energy correction for charged system         0.000000 eV
 dipol+quadrupol energy correction           -0.000241 eV
 added-field ion interaction          0.039265 eV  (added to PSCEN)


 Broyden mixing:
  rms(total) = 0.63596E+00    rms(broyden)= 0.63588E+00
  rms(prec ) = 0.72066E+00
  weight for this iteration     100.00

 eigenvalues of (default mixing * dielectric matrix)
  average eigenvalue GAMMA=   0.7110
  2.2088  1.1592  1.1592  0.6756  0.4561  0.4561  0.2779  0.2779  0.2194  0.2194

 Free energy of the ion-electron system (eV)
  ---------------------------------------------------
  alpha Z        PSCENC =       805.90838797
  Ewald energy   TEWEN  =    200398.33439399
  -Hartree energ DENC   =   -242488.24247647
  -exchange      EXHF   =         0.00000000
  -V(xc)+E(xc)   XCENC  =      -344.09573686
  PAW double counting   =     49361.38782055   -47444.39550084
  entropy T*S    EENTRO =        -0.24489299
  eigenvalues    EBANDS =     -2137.46039418
  atomic energy  EATOM  =     41659.78587232
  Solvation  Ediel_sol  =         0.00000000
  ---------------------------------------------------
  free energy    TOTEN  =      -189.02252650 eV

  energy without entropy =     -188.77763350  energy(sigma->0) =     -188.90008000


--------------------------------------------------------------------------------------------------------




----------------------------------------- Iteration    1(  16)  ---------------------------------------


    POTLOK:  cpu time    0.0459: real time    0.0711
    SETDIJ:  cpu time    0.0044: real time    0.0065
    EDDIAG:  cpu time    1.4663: real time    2.0633
  RMM-DIIS:  cpu time    4.4114: real time    4.4133
    ORTHCH:  cpu time    0.4065: real time    0.4068
       DOS:  cpu time    0.0016: real time    0.0016
    CHARGE:  cpu time    0.3041: real time    0.3042
    MIXING:  cpu time    0.0035: real time    0.0035
    --------------------------------------------
      LOOP:  cpu time    6.6445: real time    7.2732

 eigenvalue-minimisations  :  3680
 total energy-change (2. order) : 0.2851608E+00  (-0.3161731E-01)
 number of electron     503.9998358 magnetization 
 augmentation part      197.4459592 magnetization 

 DIPCOR: dipole corrections for dipol
 direction  3 min pos     1,
 dipolmoment           0.000000      0.000000      0.046585 electrons x Angstroem
 Tr[quadrupol]    -10257.979422

 energy correction for charged system         0.000000 eV
 dipol+quadrupol energy correction           -0.000076 eV
 added-field ion interaction          0.022120 eV  (added to PSCEN)


 Broyden mixing:
  rms(total) = 0.45424E+00    rms(broyden)= 0.45417E+00
  rms(prec ) = 0.51823E+00
  weight for this iteration     100.00

 eigenvalues of (default mixing * dielectric matrix)
  average eigenvalue GAMMA=   0.7001
  2.1509  1.3361  1.3361  0.6059  0.4961  0.4961  0.2933  0.2933  0.2587  0.2219
  0.2124

 Free energy of the ion-electron system (eV)
  ---------------------------------------------------
  alpha Z        PSCENC =       805.89140800
  Ewald energy   TEWEN  =    200398.33439399
  -Hartree energ DENC   =   -242503.08290852
  -exchange      EXHF   =         0.00000000
  -V(xc)+E(xc)   XCENC  =      -343.87856762
  PAW double counting   =     49363.90344474   -47445.29275224
  entropy T*S    EENTRO =        -0.24706464
  eigenvalues    EBANDS =     -2124.15119170
  atomic energy  EATOM  =     41659.78587232
  Solvation  Ediel_sol  =         0.00000000
  ---------------------------------------------------
  free energy    TOTEN  =      -188.73736568 eV

  energy without entropy =     -188.49030104  energy(sigma->0) =     -188.61383336


--------------------------------------------------------------------------------------------------------




----------------------------------------- Iteration    1(  17)  ---------------------------------------


    POTLOK:  cpu time    0.0497: real time    0.0497
    SETDIJ:  cpu time    0.0061: real time    0.0061
    EDDIAG:  cpu time    1.6495: real time    1.6503
  RMM-DIIS:  cpu time    4.4816: real time    4.4841
    ORTHCH:  cpu time    0.4135: real time    0.4138
       DOS:  cpu time    0.0017: real time    0.0017
    CHARGE:  cpu time    0.2997: real time    0.2998
    MIXING:  cpu time    0.0037: real time    0.0037
    --------------------------------------------
      LOOP:  cpu time    6.9063: real time    6.9114

 eigenvalue-minimisations  :  3680
 total energy-change (2. order) : 0.1693703E+00  (-0.2098330E-01)
 number of electron     503.9998359 magnetization 
 augmentation part      197.3725014 magnetization 

 DIPCOR: dipole corrections for dipol
 direction  3 min pos     1,
 dipolmoment           0.000000      0.000000      0.047500 electrons x Angstroem
 Tr[quadrupol]    -10258.185057

 energy correction for charged system         0.000000 eV
 dipol+quadrupol energy correction           -0.000080 eV
 added-field ion interaction          0.022555 eV  (added to PSCEN)


 Broyden mixing:
  rms(total) = 0.32356E+00    rms(broyden)= 0.32350E+00
  rms(prec ) = 0.37552E+00
  weight for this iteration     100.00

 eigenvalues of (default mixing * dielectric matrix)
  average eigenvalue GAMMA=   0.7099
  2.1292  1.5554  1.5554  0.5808  0.5808  0.3990  0.3990  0.4142  0.2552  0.2552
  0.2166  0.1784

 Free energy of the ion-electron system (eV)
  ---------------------------------------------------
  alpha Z        PSCENC =       805.89183956
  Ewald energy   TEWEN  =    200398.33439399
  -Hartree energ DENC   =   -242515.16681190
  -exchange      EXHF   =         0.00000000
  -V(xc)+E(xc)   XCENC  =      -343.68864642
  PAW double counting   =     49366.87272335   -47446.89540019
  entropy T*S    EENTRO =        -0.24292850
  eigenvalues    EBANDS =     -2113.45903760
  atomic energy  EATOM  =     41659.78587232
  Solvation  Ediel_sol  =         0.00000000
  ---------------------------------------------------
  free energy    TOTEN  =      -188.56799540 eV

  energy without entropy =     -188.32506690  energy(sigma->0) =     -188.44653115


--------------------------------------------------------------------------------------------------------




----------------------------------------- Iteration    1(  18)  ---------------------------------------


    POTLOK:  cpu time    0.0499: real time    0.0510
    SETDIJ:  cpu time    0.0066: real time    0.0066
    EDDIAG:  cpu time    1.6520: real time    1.6537
  RMM-DIIS:  cpu time    4.5191: real time    4.5214
    ORTHCH:  cpu time    0.4129: real time    0.4130
       DOS:  cpu time    0.0016: real time    0.0016
    CHARGE:  cpu time    0.3032: real time    0.3034
    MIXING:  cpu time    0.0037: real time    0.0037
    --------------------------------------------
      LOOP:  cpu time    6.9500: real time    6.9585

 eigenvalue-minimisations  :  3681
 total energy-change (2. order) : 0.8996981E-01  (-0.1054191E-01)
 number of electron     503.9998361 magnetization 
 augmentation part      197.2796010 magnetization 

 DIPCOR: dipole corrections for dipol
 direction  3 min pos     1,
 dipolmoment           0.000000      0.000000      0.053731 electrons x Angstroem
 Tr[quadrupol]    -10258.481986

 energy correction for charged system         0.000000 eV
 dipol+quadrupol energy correction           -0.000102 eV
 added-field ion interaction          0.025514 eV  (added to PSCEN)


 Broyden mixing:
  rms(total) = 0.19173E+00    rms(broyden)= 0.19169E+00
  rms(prec ) = 0.21411E+00
  weight for this iteration     100.00

 eigenvalues of (default mixing * dielectric matrix)
  average eigenvalue GAMMA=   0.7061
  2.1389  1.6811  1.6811  0.6228  0.6228  0.4194  0.4194  0.3877  0.2896  0.2896
  0.2224  0.2224  0.1819

 Free energy of the ion-electron system (eV)
  ---------------------------------------------------
  alpha Z        PSCENC =       805.89477608
  Ewald energy   TEWEN  =    200398.33439399
  -Hartree energ DENC   =   -242529.53571399
  -exchange      EXHF   =         0.00000000
  -V(xc)+E(xc)   XCENC  =      -343.53557435
  PAW double counting   =     49383.57295001   -47462.47961718
  entropy T*S    EENTRO =        -0.24629222
  eigenvalues    EBANDS =     -2100.26882024
  atomic energy  EATOM  =     41659.78587232
  Solvation  Ediel_sol  =         0.00000000
  ---------------------------------------------------
  free energy    TOTEN  =      -188.47802558 eV

  energy without entropy =     -188.23173336  energy(sigma->0) =     -188.35487947


--------------------------------------------------------------------------------------------------------




----------------------------------------- Iteration    1(  19)  ---------------------------------------


    POTLOK:  cpu time    0.0498: real time    0.0498
    SETDIJ:  cpu time    0.0061: real time    0.0061
    EDDIAG:  cpu time    1.6501: real time    1.6527
  RMM-DIIS:  cpu time    4.4044: real time    4.4077
    ORTHCH:  cpu time    0.4115: real time    0.4122
       DOS:  cpu time    0.0017: real time    0.0017
    CHARGE:  cpu time    0.3002: real time    0.3002
    MIXING:  cpu time    0.0040: real time    0.0040
    --------------------------------------------
      LOOP:  cpu time    6.8286: real time    6.8402

 eigenvalue-minimisations  :  3682
 total energy-change (2. order) : 0.3537967E-01  (-0.4563271E-02)
 number of electron     503.9998361 magnetization 
 augmentation part      197.2224967 magnetization 

 DIPCOR: dipole corrections for dipol
 direction  3 min pos     1,
 dipolmoment           0.000000      0.000000      0.056062 electrons x Angstroem
 Tr[quadrupol]    -10258.674905

 energy correction for charged system         0.000000 eV
 dipol+quadrupol energy correction           -0.000111 eV
 added-field ion interaction          0.026620 eV  (added to PSCEN)


 Broyden mixing:
  rms(total) = 0.10891E+00    rms(broyden)= 0.10889E+00
  rms(prec ) = 0.12346E+00
  weight for this iteration     100.00

 eigenvalues of (default mixing * dielectric matrix)
  average eigenvalue GAMMA=   0.7015
  2.1621  1.6970  1.6970  0.6630  0.6630  0.4740  0.4740  0.4862  0.2976  0.2976
  0.2837  0.2175  0.2326  0.1752

 Free energy of the ion-electron system (eV)
  ---------------------------------------------------
  alpha Z        PSCENC =       805.89587377
  Ewald energy   TEWEN  =    200398.33439399
  -Hartree energ DENC   =   -242538.78831660
  -exchange      EXHF   =         0.00000000
  -V(xc)+E(xc)   XCENC  =      -343.43919929
  PAW double counting   =     49396.41396401   -47474.66789023
  entropy T*S    EENTRO =        -0.24609202
  eigenvalues    EBANDS =     -2091.73125186
  atomic energy  EATOM  =     41659.78587232
  Solvation  Ediel_sol  =         0.00000000
  ---------------------------------------------------
  free energy    TOTEN  =      -188.44264591 eV

  energy without entropy =     -188.19655389  energy(sigma->0) =     -188.31959990


--------------------------------------------------------------------------------------------------------




----------------------------------------- Iteration    1(  20)  ---------------------------------------


    POTLOK:  cpu time    0.0500: real time    0.0500
    SETDIJ:  cpu time    0.0060: real time    0.0060
    EDDIAG:  cpu time    1.6471: real time    1.6483
  RMM-DIIS:  cpu time    4.3710: real time    4.4437
    ORTHCH:  cpu time    0.4124: real time    0.4127
       DOS:  cpu time    0.0017: real time    0.0017
    CHARGE:  cpu time    0.3040: real time    0.3041
    MIXING:  cpu time    0.0040: real time    0.0040
    --------------------------------------------
      LOOP:  cpu time    6.7970: real time    6.8731

 eigenvalue-minimisations  :  3683
 total energy-change (2. order) : 0.7935994E-02  (-0.1150254E-02)
 number of electron     503.9998362 magnetization 
 augmentation part      197.1884055 magnetization 

 DIPCOR: dipole corrections for dipol
 direction  3 min pos     1,
 dipolmoment           0.000000      0.000000      0.046500 electrons x Angstroem
 Tr[quadrupol]    -10258.783750

 energy correction for charged system         0.000000 eV
 dipol+quadrupol energy correction           -0.000076 eV
 added-field ion interaction          0.022080 eV  (added to PSCEN)


 Broyden mixing:
  rms(total) = 0.79281E-01    rms(broyden)= 0.79271E-01
  rms(prec ) = 0.88016E-01
  weight for this iteration     100.00

 eigenvalues of (default mixing * dielectric matrix)
  average eigenvalue GAMMA=   0.6922
  2.1882  1.7030  1.7030  0.7416  0.7416  0.4991  0.4991  0.5163  0.3174  0.3174
  0.2672  0.2672  0.2184  0.2261  0.1768

 Free energy of the ion-electron system (eV)
  ---------------------------------------------------
  alpha Z        PSCENC =       805.89136795
  Ewald energy   TEWEN  =    200398.33439399
  -Hartree energ DENC   =   -242543.65373038
  -exchange      EXHF   =         0.00000000
  -V(xc)+E(xc)   XCENC  =      -343.39765421
  PAW double counting   =     49401.46308738   -47479.50178099
  entropy T*S    EENTRO =        -0.24810688
  eigenvalues    EBANDS =     -2087.10815909
  atomic energy  EATOM  =     41659.78587232
  Solvation  Ediel_sol  =         0.00000000
  ---------------------------------------------------
  free energy    TOTEN  =      -188.43470992 eV

  energy without entropy =     -188.18660303  energy(sigma->0) =     -188.31065647


--------------------------------------------------------------------------------------------------------




----------------------------------------- Iteration    1(  21)  ---------------------------------------


    POTLOK:  cpu time    0.0499: real time    0.0500
    SETDIJ:  cpu time    0.0059: real time    0.0059
    EDDIAG:  cpu time    1.6515: real time    1.6523
  RMM-DIIS:  cpu time    4.5207: real time    4.5234
    ORTHCH:  cpu time    0.4130: real time    0.4130
       DOS:  cpu time    0.0017: real time    0.0017
    CHARGE:  cpu time    0.2993: real time    0.2996
    MIXING:  cpu time    0.0041: real time    0.0041
    --------------------------------------------
      LOOP:  cpu time    6.9470: real time    6.9535

 eigenvalue-minimisations  :  3683
 total energy-change (2. order) : 0.5400946E-02  (-0.3791761E-03)
 number of electron     503.9998362 magnetization 
 augmentation part      197.1662811 magnetization 

 DIPCOR: dipole corrections for dipol
 direction  3 min pos     1,
 dipolmoment           0.000000      0.000000      0.040724 electrons x Angstroem
 Tr[quadrupol]    -10258.867789

 energy correction for charged system         0.000000 eV
 dipol+quadrupol energy correction           -0.000058 eV
 added-field ion interaction          0.019337 eV  (added to PSCEN)


 Broyden mixing:
  rms(total) = 0.54030E-01    rms(broyden)= 0.54025E-01
  rms(prec ) = 0.59365E-01
  weight for this iteration     100.00

 eigenvalues of (default mixing * dielectric matrix)
  average eigenvalue GAMMA=   0.7262
  2.2970  1.7171  1.7171  0.9537  0.9537  0.6249  0.6249  0.4400  0.4400  0.3942
  0.2821  0.2821  0.2716  0.2186  0.2262  0.1761

 Free energy of the ion-electron system (eV)
  ---------------------------------------------------
  alpha Z        PSCENC =       805.88864309
  Ewald energy   TEWEN  =    200398.33439399
  -Hartree energ DENC   =   -242547.33276439
  -exchange      EXHF   =         0.00000000
  -V(xc)+E(xc)   XCENC  =      -343.36862027
  PAW double counting   =     49404.86251253   -47482.77190198
  entropy T*S    EENTRO =        -0.24808064
  eigenvalues    EBANDS =     -2083.57936362
  atomic energy  EATOM  =     41659.78587232
  Solvation  Ediel_sol  =         0.00000000
  ---------------------------------------------------
  free energy    TOTEN  =      -188.42930897 eV

  energy without entropy =     -188.18122833  energy(sigma->0) =     -188.30526865


--------------------------------------------------------------------------------------------------------




----------------------------------------- Iteration    1(  22)  ---------------------------------------


    POTLOK:  cpu time    0.0499: real time    0.0504
    SETDIJ:  cpu time    0.0060: real time    0.0060
    EDDIAG:  cpu time    1.6437: real time    1.6442
  RMM-DIIS:  cpu time    4.5102: real time    4.5127
    ORTHCH:  cpu time    0.4121: real time    0.4122
       DOS:  cpu time    0.0016: real time    0.0016
    CHARGE:  cpu time    0.3028: real time    0.3030
    MIXING:  cpu time    0.0043: real time    0.0043
    --------------------------------------------
      LOOP:  cpu time    6.9316: real time    6.9368

 eigenvalue-minimisations  :  3681
 total energy-change (2. order) : 0.1757406E-02  (-0.3288227E-03)
 number of electron     503.9998362 magnetization 
 augmentation part      197.1400198 magnetization 

 DIPCOR: dipole corrections for dipol
 direction  3 min pos     1,
 dipolmoment           0.000000      0.000000      0.037652 electrons x Angstroem
 Tr[quadrupol]    -10259.041199

 energy correction for charged system         0.000000 eV
 dipol+quadrupol energy correction           -0.000050 eV
 added-field ion interaction          0.017879 eV  (added to PSCEN)


 Broyden mixing:
  rms(total) = 0.42669E-01    rms(broyden)= 0.42665E-01
  rms(prec ) = 0.47848E-01
  weight for this iteration     100.00

 eigenvalues of (default mixing * dielectric matrix)
  average eigenvalue GAMMA=   0.7529
  2.3937  1.9745  1.9745  1.2134  0.6962  0.6962  0.7320  0.4771  0.4421  0.4421
  0.3054  0.3054  0.2627  0.2627  0.2192  0.2254  0.1761

 Free energy of the ion-electron system (eV)
  ---------------------------------------------------
  alpha Z        PSCENC =       805.88719286
  Ewald energy   TEWEN  =    200398.33439399
  -Hartree energ DENC   =   -242554.24226265
  -exchange      EXHF   =         0.00000000
  -V(xc)+E(xc)   XCENC  =      -343.33044089
  PAW double counting   =     49411.18150769   -47488.96105373
  entropy T*S    EENTRO =        -0.24816120
  eigenvalues    EBANDS =     -2076.83459995
  atomic energy  EATOM  =     41659.78587232
  Solvation  Ediel_sol  =         0.00000000
  ---------------------------------------------------
  free energy    TOTEN  =      -188.42755156 eV

  energy without entropy =     -188.17939036  energy(sigma->0) =     -188.30347096


--------------------------------------------------------------------------------------------------------




----------------------------------------- Iteration    1(  23)  ---------------------------------------


    POTLOK:  cpu time    0.0501: real time    0.0502
    SETDIJ:  cpu time    0.0061: real time    0.0061
    EDDIAG:  cpu time    1.6462: real time    1.6472
  RMM-DIIS:  cpu time    4.5211: real time    4.5233
    ORTHCH:  cpu time    0.4118: real time    0.4120
       DOS:  cpu time    0.0016: real time    0.0016
    CHARGE:  cpu time    0.2984: real time    0.2985
    MIXING:  cpu time    0.0044: real time    0.0044
    --------------------------------------------
      LOOP:  cpu time    6.9405: real time    6.9455

 eigenvalue-minimisations  :  3681
 total energy-change (2. order) : 0.1958111E-02  (-0.3225183E-03)
 number of electron     503.9998363 magnetization 
 augmentation part      197.1146843 magnetization 

 DIPCOR: dipole corrections for dipol
 direction  3 min pos     1,
 dipolmoment           0.000000      0.000000      0.038052 electrons x Angstroem
 Tr[quadrupol]    -10259.222855

 energy correction for charged system         0.000000 eV
 dipol+quadrupol energy correction           -0.000051 eV
[...]
    275       1.6925      0.00000
    276       1.8214      0.00000
    277       2.0917      0.00000
    278       2.2137      0.00000
    279       2.2769      0.00000
    280       2.3357      0.00000
    281       2.4496      0.00000
    282       2.6301      0.00000
    283       2.6919      0.00000
    284       2.9751      0.00000
    285       3.1437      0.00000
    286       3.2523      0.00000
    287       3.4634      0.00000
    288       3.6347      0.00000
    289       3.6827      0.00000
    290       3.9645      0.00000
    291       4.1060      0.00000
    292       4.2079      0.00000
    293       4.4917      0.00000
    294       4.5448      0.00000
    295       4.5773      0.00000
    296       4.6310      0.00000
    297       4.7462      0.00000
    298       4.8311      0.00000
    299       4.8775      0.00000
    300       4.8999      0.00000
    301       4.9480      0.00000
    302       5.0393      0.00000
    303       5.0821      0.00000
    304       5.1183      0.00000
    305       5.1908      0.00000
    306       5.2654      0.00000


--------------------------------------------------------------------------------------------------------


 soft charge-density along one line, spin component           1
         0         1         2         3         4         5         6         7         8         9
 total charge-density along one line
 
 pseudopotential strength for first ion, spin component:           1
 -7.996  -0.002   0.002  -0.003   0.001  -8.143  -0.002   0.002
 -0.002  -7.918   0.001  -0.002  -0.001  -0.002  -8.067   0.001
  0.002   0.001  -7.908  -0.000  -0.003   0.002   0.001  -8.058
 -0.003  -0.002  -0.000  -7.914  -0.000  -0.003  -0.002  -0.000
  0.001  -0.001  -0.003  -0.000  -7.997   0.001  -0.001  -0.003
 -8.143  -0.002   0.002  -0.003   0.001  -8.275  -0.002   0.002
 -0.002  -8.067   0.001  -0.002  -0.001  -0.002  -8.200   0.001
  0.002   0.001  -8.058  -0.000  -0.003   0.002   0.001  -8.192
 -0.003  -0.002  -0.000  -8.063  -0.000  -0.003  -0.002  -0.000
  0.001  -0.001  -0.003  -0.000  -8.145   0.001  -0.001  -0.003
  0.001   0.001  -0.025   0.001  -0.001   0.001   0.001  -0.025
  0.002   0.001  -0.036   0.001  -0.002   0.002   0.001  -0.036
  0.002   0.006  -0.002  -0.000  -0.004   0.002   0.006  -0.002
 -0.000   0.004   0.009   0.001   0.000  -0.000   0.004   0.008
  0.004  -0.000  -0.001   0.006   0.001   0.003  -0.000  -0.001
  0.002   0.006  -0.002  -0.000  -0.005   0.002   0.006  -0.002
 -0.000   0.005   0.009   0.002   0.000  -0.000   0.005   0.009
  0.004  -0.000  -0.001   0.007   0.001   0.004  -0.000  -0.001
 total augmentation occupancy for first ion, spin component:           1
  4.139  -0.027  -0.119   0.014  -0.085  -2.331   0.008   0.118  -0.056   0.091  -0.101   0.047  -0.046  -0.008   0.007   0.004
 -0.027   4.187  -0.027  -0.013   0.058   0.008  -1.918   0.043   0.002  -0.073   0.001  -0.027   0.173  -0.006  -0.009  -0.002
 -0.119  -0.027   4.361   0.004   0.018   0.118   0.043  -2.242  -0.003  -0.027   0.896  -0.082   0.008   0.224   0.013  -0.002
  0.014  -0.013   0.004   4.102   0.036  -0.055   0.002  -0.003  -1.836  -0.027  -0.031   0.002  -0.009   0.002   0.178  -0.000
 -0.085   0.058   0.018   0.036   3.963   0.091  -0.073  -0.027  -0.026  -2.180   0.074  -0.041   0.034  -0.002   0.019  -0.005
 -2.331   0.008   0.118  -0.055   0.091   2.403   0.006  -0.118   0.087  -0.094   0.093  -0.046   0.037   0.007  -0.011  -0.002
  0.008  -1.918   0.043   0.002  -0.073   0.006   1.621  -0.054   0.007   0.084   0.003   0.022  -0.164   0.003   0.007   0.006
  0.118   0.043  -2.242  -0.003  -0.027  -0.118  -0.054   2.071   0.003   0.035  -0.830   0.095  -0.004  -0.231  -0.011   0.000
 -0.056   0.002  -0.003  -1.836  -0.026   0.087   0.007   0.003   1.541   0.020   0.028  -0.003   0.007  -0.004  -0.171  -0.000
  0.091  -0.073  -0.027  -0.027  -2.180  -0.094   0.084   0.035   0.020   2.269  -0.064   0.037  -0.027   0.000  -0.018   0.002
 -0.101   0.001   0.896  -0.031   0.074   0.093   0.003  -0.830   0.028  -0.064   2.356  -0.462   0.002  -0.129   0.002  -0.000
  0.047  -0.027  -0.082   0.002  -0.041  -0.046   0.022   0.095  -0.003   0.037  -0.462   0.126  -0.014   0.056  -0.007   0.001
 -0.046   0.173   0.008  -0.009   0.034   0.037  -0.164  -0.004   0.007  -0.027   0.002  -0.014   0.189   0.002   0.004  -0.006
 -0.008  -0.006   0.224   0.002  -0.002   0.007   0.003  -0.231  -0.004   0.000  -0.129   0.056   0.002   0.092   0.002  -0.000
  0.007  -0.009   0.013   0.178   0.019  -0.011   0.007  -0.011  -0.171  -0.018   0.002  -0.007   0.004   0.002   0.187  -0.000
  0.004  -0.002  -0.002  -0.000  -0.005  -0.002   0.006   0.000  -0.000   0.002  -0.000   0.001  -0.006  -0.000  -0.000   0.000
 -0.000   0.005   0.002   0.002   0.000  -0.000  -0.002   0.005  -0.000  -0.000   0.009  -0.003   0.000  -0.003  -0.000  -0.000
  0.004  -0.000  -0.002  -0.001   0.001  -0.000  -0.000   0.001   0.005   0.001  -0.000   0.000  -0.000  -0.000  -0.005   0.000


------------------------ aborting loop because EDIFF is reached ----------------------------------------


    CHARGE:  cpu time    0.2955: real time    0.2956
    FORLOC:  cpu time    0.0187: real time    0.0187
    FORNL :  cpu time    1.6279: real time    1.6286
    FORCOR:  cpu time    0.0668: real time    0.0685
    FORHAR:  cpu time    0.0293: real time    0.0293
    MIXING:  cpu time    0.0038: real time    0.0038
    OFIELD:  cpu time    0.0000: real time    0.0000

 VOLUME and BASIS-vectors are now :
 -----------------------------------------------------------------------------
  energy-cutoff  :      400.00
  volume of cell :     2567.68
      direct lattice vectors                 reciprocal lattice vectors
    11.002581515  0.000000000  0.000000000     0.090887761 -0.052474073  0.000000000
     5.501290758  9.528515099  0.000000000     0.000000000  0.104948147  0.000000000
     0.000000000  0.000000000 24.491785094     0.000000000  0.000000000  0.040830017

  length of vectors
    11.002581515 11.002581515 24.491785094     0.104948147  0.104948147  0.040830017


 FORCES acting on ions
    electron-ion (+dipol)            ewald-force                    non-local-force                 convergence-correction
 -----------------------------------------------------------------------------------------------
   -.178E+01 0.783E+01 -.228E+04   0.141E+01 -.855E+01 0.228E+04   0.383E+00 0.723E+00 0.344E+00   -.834E-02 -.562E-02 0.110E-02
   0.952E+01 -.278E+01 -.408E+02   -.885E+01 0.232E+01 0.408E+02   -.670E+00 0.456E+00 0.160E-02   -.120E-02 -.110E-02 -.241E-02
   -.251E+01 0.893E+00 0.226E+04   0.230E+01 -.749E+00 -.226E+04   0.211E+00 -.142E+00 -.628E-01   -.197E-02 0.199E-02 0.107E-03
   0.910E+01 0.117E+02 -.206E+02   -.854E+01 -.107E+02 0.205E+02   -.570E+00 -.960E+00 0.538E-01   0.553E-02 0.337E-02 0.201E-02
   -.131E+02 0.356E+01 -.227E+04   0.133E+02 -.369E+01 0.227E+04   -.248E+00 0.126E+00 0.228E+00   0.249E-02 0.737E-02 0.103E-02
   -.347E+01 0.354E+01 0.230E+04   0.362E+01 -.395E+01 -.230E+04   -.162E+00 0.407E+00 0.154E+00   -.353E-02 -.138E-02 -.151E-02
   -.724E+01 -.237E+01 -.232E+04   0.710E+01 0.254E+01 0.232E+04   0.140E+00 -.179E+00 0.875E-02   0.649E-02 0.169E-02 0.143E-02
   -.112E+02 0.245E+01 -.370E+02   0.111E+02 -.261E+01 0.364E+02   0.157E+00 0.164E+00 0.598E+00   -.600E-02 -.161E-02 -.329E-02
   -.501E+01 0.685E+01 -.226E+04   0.523E+01 -.668E+01 0.226E+04   -.212E+00 -.170E+00 0.273E+00   -.405E-02 0.155E-02 0.349E-02
   -.665E+01 0.176E+01 0.226E+04   0.715E+01 -.166E+01 -.226E+04   -.501E+00 -.956E-01 0.797E-02   0.659E-04 -.628E-04 -.386E-02
   -.102E+02 -.166E+01 -.502E+02   0.103E+02 0.167E+01 0.502E+02   -.141E+00 -.359E-02 0.349E-01   0.831E-03 -.735E-03 0.212E-03
   0.110E+02 -.511E+01 -.546E+01   -.112E+02 0.488E+01 0.596E+01   0.158E+00 0.231E+00 -.508E+00   0.191E-02 0.698E-02 0.110E-02
   0.106E+02 -.900E+01 0.226E+04   -.114E+02 0.925E+01 -.226E+04   0.861E+00 -.255E+00 -.207E-01   0.155E-02 -.673E-04 -.100E-02
   -.102E+02 -.652E+01 -.187E+02   0.982E+01 0.629E+01 0.192E+02   0.412E+00 0.227E+00 -.530E+00   0.183E-03 0.226E-02 0.175E-02
   -.112E+02 0.574E+01 0.227E+04   0.117E+02 -.593E+01 -.227E+04   -.472E+00 0.195E+00 -.842E-01   0.306E-02 -.133E-02 -.106E-02
   0.645E+01 -.114E+02 -.231E+04   -.638E+01 0.119E+02 0.231E+04   -.754E-01 -.410E+00 0.126E+00   0.617E-02 -.172E-02 0.288E-02
   0.189E+01 0.115E+02 -.186E+02   -.163E+01 -.115E+02 0.191E+02   -.262E+00 -.170E-03 -.580E+00   0.433E-02 0.232E-02 0.922E-03
   -.103E+02 0.132E+02 0.224E+04   0.107E+02 -.136E+02 -.224E+04   -.389E+00 0.426E+00 -.291E+00   0.459E-02 -.772E-03 -.286E-02
   0.804E+01 -.185E+01 0.223E+04   -.820E+01 0.165E+01 -.223E+04   0.157E+00 0.196E+00 -.397E+00   -.210E-02 0.170E-02 -.296E-02
   0.137E+01 -.471E+01 -.103E+02   -.176E+01 0.504E+01 0.109E+02   0.388E+00 -.315E+00 -.578E+00   0.813E-03 -.443E-02 -.477E-03
   0.171E+02 -.911E+00 0.223E+04   -.180E+02 0.692E+00 -.223E+04   0.888E+00 0.220E+00 -.507E+00   -.589E-02 -.782E-03 -.303E-02
   0.963E+01 -.101E+01 -.234E+04   -.957E+01 0.965E+00 0.234E+04   -.515E-01 0.476E-01 -.136E+00   -.193E-02 -.151E-03 0.982E-03
   0.463E+01 0.631E+00 -.121E+02   -.543E+01 0.296E-01 0.127E+02   0.788E+00 -.653E+00 -.571E+00   -.289E-02 -.167E-02 0.282E-03
   0.612E+01 -.116E+02 0.228E+04   -.538E+01 0.122E+02 -.228E+04   -.741E+00 -.554E+00 0.259E-01   0.107E-02 0.454E-02 0.659E-03
   -.897E+01 -.114E+01 -.199E+02   0.877E+01 0.867E+00 0.199E+02   0.195E+00 0.272E+00 -.292E-02   -.557E-03 0.211E-02 -.742E-03
   -.129E+02 0.484E+00 0.196E+04   0.131E+02 -.527E+00 -.196E+04   -.163E+00 0.482E-01 -.112E+01   -.866E-03 -.246E-02 -.921E-04
   -.469E-01 -.100E+01 -.200E+04   0.624E-01 0.135E+01 0.200E+04   -.171E-01 -.347E+00 0.149E+01   -.473E-03 0.550E-02 -.154E-02
   0.546E+01 -.346E+01 -.199E+04   -.552E+01 0.349E+01 0.199E+04   0.685E-01 -.334E-01 0.177E+01   -.678E-02 -.214E-02 -.140E-02
   0.421E+01 -.442E-01 0.109E+02   -.426E+01 -.107E+00 -.101E+02   0.551E-01 0.149E+00 -.812E+00   -.191E-02 0.191E-02 -.363E-02
   0.476E+01 0.192E+00 -.198E+04   -.468E+01 -.429E+00 0.198E+04   -.740E-01 0.239E+00 0.183E+01   -.160E-02 -.265E-02 0.259E-02
   -.328E+01 0.269E+01 0.197E+04   0.316E+01 -.267E+01 -.197E+04   0.116E+00 -.145E-01 -.968E+00   0.113E-02 0.185E-02 -.362E-02
   -.253E+01 0.275E+01 0.179E+02   0.260E+01 -.200E+01 -.172E+02   -.646E-01 -.761E+00 -.738E+00   -.304E-02 0.371E-02 0.178E-02
   -.784E+01 -.173E+01 -.923E+00   0.748E+01 0.145E+01 0.142E+01   0.378E+00 0.276E+00 -.498E+00   -.706E-02 -.518E-02 -.220E-02
   0.659E+01 0.743E+01 -.201E+04   -.710E+01 -.737E+01 0.201E+04   0.504E+00 -.597E-01 0.155E+01   -.199E-02 -.320E-02 0.371E-02
   -.142E+01 -.232E+00 -.372E+02   0.121E+01 0.965E-01 0.368E+02   0.205E+00 0.139E+00 0.352E+00   0.388E-03 -.335E-02 0.178E-02
   0.115E+02 -.108E+02 0.195E+04   -.119E+02 0.110E+02 -.195E+04   0.410E+00 -.214E+00 -.188E+01   -.385E-02 0.256E-03 -.942E-03
   0.464E+01 -.328E+00 0.197E+04   -.468E+01 0.489E+00 -.197E+04   0.502E-01 -.158E+00 -.133E+01   -.249E-02 -.250E-02 -.238E-03
   -.698E+01 -.667E+01 -.198E+04   0.704E+01 0.688E+01 0.198E+04   -.677E-01 -.196E+00 0.191E+01   0.422E-02 -.379E-02 0.345E-02
   0.365E+01 -.197E+01 0.673E+01   -.355E+01 0.131E+01 -.593E+01   -.105E+00 0.658E+00 -.793E+00   0.348E-02 -.139E-02 0.945E-03
   -.206E-01 0.602E+01 0.197E+04   -.575E-01 -.644E+01 -.196E+04   0.736E-01 0.422E+00 -.174E+01   0.808E-03 -.190E-02 -.315E-03
   0.807E+01 0.574E+00 -.524E+02   -.724E+01 -.322E+00 0.519E+02   -.838E+00 -.251E+00 0.445E+00   0.609E-02 -.207E-02 0.345E-02
   0.190E+01 -.882E+01 0.195E+04   -.178E+01 0.919E+01 -.195E+04   -.126E+00 -.375E+00 -.162E+01   0.475E-02 0.420E-03 0.165E-02
   0.215E+01 0.520E+01 -.201E+04   -.234E+01 -.516E+01 0.201E+04   0.188E+00 -.285E-01 0.142E+01   0.892E-04 0.779E-03 0.431E-02
   0.248E+01 -.212E+01 -.201E+04   -.217E+01 0.191E+01 0.200E+04   -.317E+00 0.207E+00 0.156E+01   0.303E-02 -.284E-03 0.112E-02
   0.125E+02 -.435E+01 -.202E+04   -.128E+02 0.428E+01 0.202E+04   0.300E+00 0.659E-01 0.116E+01   0.623E-03 -.231E-02 0.184E-02
   -.114E+02 0.667E+01 0.195E+04   0.117E+02 -.681E+01 -.195E+04   -.257E+00 0.127E+00 -.147E+01   0.155E-02 -.600E-03 -.161E-02
   -.121E+02 0.238E+00 -.199E+04   0.125E+02 -.669E-01 0.199E+04   -.480E+00 -.178E+00 0.167E+01   0.499E-03 0.262E-02 -.514E-03
   -.296E+01 -.118E+00 -.200E+04   0.301E+01 -.105E+00 0.199E+04   -.582E-01 0.220E+00 0.143E+01   0.323E-02 0.348E-02 0.144E-02
 -----------------------------------------------------------------------------------------------
   -.393E-01 0.126E+00 -.125E+01   -.385E-12 0.663E-12 -.318E-11   0.251E-01 -.110E+00 0.119E+01   0.446E-03 0.114E-02 0.672E-02
 
 
 POSITION                                       TOTAL-FORCE (eV/Angst)
 -----------------------------------------------------------------------------------
      8.24786      4.74144     14.75038         0.006480      0.003772      0.001482
      6.88667      8.72513     12.27835         0.002872     -0.004652      0.002945
      9.61919      0.79237      9.69442         0.000605      0.003456     -0.012490
      5.52120      1.62006     12.25785        -0.005863     -0.001540      0.013037
      5.51283      0.00104     14.76267        -0.002470      0.006740      0.013296
     11.00217      3.16103      9.63467        -0.006589     -0.004906      0.002952
      4.12692      2.39562     14.84520         0.003728     -0.008280      0.012077
      8.25844      6.34500     12.26822         0.005304      0.002623     -0.004727
      9.63713      7.14119     14.74957         0.005220     -0.000133      0.007877
     12.38743      5.55140      9.68839        -0.009158      0.004659     -0.008174
      2.77065      1.59806     12.28940         0.005758     -0.000580     -0.002616
     12.36723      8.73753     12.24542         0.012100      0.000584     -0.009246
      4.09361      0.80488      9.72355        -0.003951     -0.007592      0.009629
     15.13214      8.73514     12.25851        -0.011313     -0.001548     -0.006232
      5.52108      7.92526      9.70449        -0.008319     -0.000715      0.001444
      2.74758      4.77882     14.81738         0.003253      0.015376     -0.004741
     13.76123      6.33838     12.25964         0.000576      0.006913      0.001094
      4.14321      5.53165      9.75398         0.006705      0.003407     -0.000419
     10.98683      7.94158      9.74474        -0.006235     -0.005953     -0.010192
     12.36328      3.98546     12.25548        -0.002618      0.002122     -0.001458
      9.59805      5.54549      9.76033        -0.000425     -0.000270     -0.017769
     -0.00096     -0.00053     14.85336         0.006357      0.004142     -0.011780
     10.97914      1.60944     12.25380        -0.011822      0.006153     -0.001313
      6.87515      0.80941      9.68198         0.001033     -0.000821      0.001077
      9.63759      8.73455     12.25988        -0.003931      0.001139      0.000676
      1.36904      0.78840      9.87204        -0.002409      0.002457     -0.002585
      8.25953      0.01150     14.62662        -0.001811      0.003480     -0.005335
      9.62427      2.37459     14.61206         0.005099     -0.000632     -0.003693
     10.99409      6.35191     12.22246         0.002025     -0.000627      0.004482
     11.00513      4.75091     14.60655        -0.000786     -0.000607      0.001638
     13.75618      7.93452      9.83637        -0.000287     -0.000001     -0.015311
      8.24834      1.60542     12.21448         0.008572     -0.008259      0.001173
      9.60404      3.97428     12.24081         0.010092     -0.009638     -0.003693
      6.86211      7.14474     14.65381        -0.003202     -0.000588      0.013202
      6.88785      3.98309     12.27469         0.002695     -0.000422     -0.005437
      8.22994      3.17827      9.89485         0.002006      0.006509     -0.004341
      8.23908      7.93760      9.87691         0.006896     -0.000056      0.001773
      5.50420      4.77786     14.61538        -0.001404      0.010712      0.014252
      5.50330      6.33606     12.22971        -0.004484     -0.001752      0.010968
      6.87634      5.53319      9.89569        -0.003389     -0.006700     -0.000939
      4.15290      3.98821     12.29322         0.002479     -0.001438     -0.000120
      5.50584      3.18145      9.91285        -0.000394      0.001771     -0.004519
      2.74440      0.00021     14.67566        -0.000676      0.008203      0.004977
      4.14096      7.14506     14.63976        -0.000357     -0.009477      0.004153
      1.36155      2.38319     14.67775        -0.002591     -0.004281      0.003771
      2.75491      3.17042      9.89346        -0.004889     -0.007638     -0.002064
      6.89556      2.38184     14.61681        -0.001148     -0.004828      0.013661
     12.38999      7.14523     14.62926         0.000668     -0.000284     -0.002444
 -----------------------------------------------------------------------------------
    total drift:                               -0.013808      0.017030     -0.054715


--------------------------------------------------------------------------------------------------------



  FREE ENERGIE OF THE ION-ELECTRON SYSTEM (eV)
  ---------------------------------------------------
  free  energy   TOTEN  =      -192.13248451 eV

  energy  without entropy=     -191.91264509  energy(sigma->0) =     -192.02256480
 
 d Force = 0.7922836E-03[ 0.380E-03, 0.120E-02]  d Energy = 0.7817736E-03 0.105E-04
 d Force =-0.1027382E+02[-0.102E+02,-0.104E+02]  d Ewald  =-0.1027382E+02 0.273E-05


--------------------------------------------------------------------------------------------------------


    POTLOK:  cpu time    0.0581: real time    0.0581


--------------------------------------------------------------------------------------------------------


 stress matrix after NEB project (eV)
      0.00000      0.00000      0.00000
      0.00000      0.00000      0.00000
      0.00000      0.00000      0.00000
  FORCES: max atom, RMS     0.017884    0.010639
  FORCE total and by dimension    0.073706    0.017769
  Stress total and by dimension    0.000000    0.000000
 Conjugate gradient step on ions:
 trial-energy change:   -0.000782  1 .order   -0.000792   -0.001204   -0.000380
  (g-gl).g = 0.411E-03      g.g   = 0.387E-03  gl.gl    = 0.584E-03
 g(Force)  = 0.387E-03   g(Stress)= 0.000E+00 ortho     = 0.691E-04
 gamma     =   0.70449
 trial     =   2.76429
 opt step  =   4.20791  (harmonic =   4.03975) maximal distance =0.00891309
 next E    =  -192.132582   (d E  =  -0.00088)


--------------------------------------------------------------------------------------------------------


  
 reached required accuracy - stopping structural energy minimisation
     LOOP+:  cpu time   84.0822: real time   84.3540
    4ORBIT:  cpu time    0.0000: real time    0.0000

 total amount of memory used by VASP on root node    84353. kBytes
========================================================================

   base      :      30000. kBytes
   nonlr-proj:       4285. kBytes
   fftplans  :       4447. kBytes
   grid      :       6721. kBytes
   one-center:        124. kBytes
   wavefun   :      38776. kBytes
 
  
  
 General timing and accounting informations for this job:
 ========================================================
  
                  Total CPU time used (sec):     2134.216
                            User time (sec):     2050.911
                          System time (sec):       83.305
                         Elapsed time (sec):     2160.872
  
                   Maximum memory used (kb):      875044.
                   Average memory used (kb):           0.
  
                          Minor page faults:       845931
                          Major page faults:            2
                 Voluntary context switches:        10443
