unknown system                          
           1
    11.002582    0.000000    0.000000
     5.501291    9.528515    0.000000
     0.000000    0.000000   24.491785
   Au   Pd
  24  24
Direct configuration=     1
   0.50000000  0.50000000  0.59169983
   0.16666667  0.91666667  0.50000000
   0.83333333  0.08333333  0.40830017
   0.41666667  0.16666667  0.50000000
   0.50000000  0.00000000  0.59169983
   0.83333333  0.33333333  0.40830017
   0.25000000  0.25000000  0.59169983
   0.41666667  0.66666667  0.50000000
   0.50000000  0.75000000  0.59169983
   0.83333333  0.58333333  0.40830017
   0.16666667  0.16666667  0.50000000
   0.66666667  0.91666667  0.50000000
   0.33333333  0.08333333  0.40830017
   0.91666667  0.91666667  0.50000000
   0.08333333  0.83333333  0.40830017
   0.00000000  0.50000000  0.59169983
   0.91666667  0.66666667  0.50000000
   0.08333333  0.58333333  0.40830017
   0.58333333  0.83333333  0.40830017
   0.91666667  0.41666667  0.50000000
   0.58333333  0.58333333  0.40830017
   0.00000000  0.00000000  0.59169983
   0.91666667  0.16666667  0.50000000
   0.58333333  0.08333333  0.40830017
   0.41666667  0.91666667  0.50000000
   0.08333333  0.08333333  0.40830017
   0.75000000  0.00000000  0.59169983
   0.75000000  0.25000000  0.59169983
   0.66666667  0.66666667  0.50000000
   0.75000000  0.50000000  0.59169983
   0.83333333  0.83333333  0.40830017
   0.66666667  0.16666667  0.50000000
   0.66666667  0.41666667  0.50000000
   0.25000000  0.75000000  0.59169983
   0.41666667  0.41666667  0.50000000
   0.58333333  0.33333333  0.40830017
   0.33333333  0.83333333  0.40830017
   0.25000000  0.50000000  0.59169983
   0.16666667  0.66666667  0.50000000
   0.33333333  0.58333333  0.40830017
   0.16666667  0.41666667  0.50000000
   0.33333333  0.33333333  0.40830017
   0.25000000  0.00000000  0.59169983
   0.00000000  0.75000000  0.59169983
   0.00000000  0.25000000  0.59169983
   0.08333333  0.33333333  0.40830017
   0.50000000  0.25000000  0.59169983
   0.75000000  0.75000000  0.59169983
Direct configuration=     2
   0.50030700  0.49874292  0.59343115
   0.16880451  0.91557490  0.50003122
   0.83272337  0.08375065  0.40607531
   0.41661126  0.16897560  0.50002548
   0.50046393 -0.00038614  0.59382982
   0.83343722  0.33287779  0.40606909
   0.24973492  0.25048575  0.59390304
   0.41606026  0.66647762  0.49967937
   0.50037186  0.75016925  0.59356833
   0.83362219  0.58347802  0.40608072
   0.16660511  0.16661178  0.49993984
   0.66736431  0.91593407  0.50045480
   0.33214062  0.08355391  0.40609311
   0.91594650  0.91592257  0.50046105
   0.08436968  0.83280268  0.40610331
  -0.00016716  0.50049398  0.59380703
   0.91687663  0.66717225  0.50045959
   0.08472583  0.58228085  0.40645834
   0.58292688  0.83311817  0.40637782
   0.91604451  0.41680313  0.50046651
   0.58229243  0.58311111  0.40652887
   0.00000012 -0.00006828  0.59410755
   0.91515329  0.16805938  0.50043424
   0.58351192  0.08439356  0.40613000
   0.41647300  0.91594825  0.50000268
   0.08378609  0.08328887  0.40682327
   0.74974772  0.00054967  0.59287659
   0.74954807  0.25017504  0.59265631
   0.66656020  0.66640852  0.50046351
   0.75025841  0.49954636  0.59269492
   0.83335787  0.83332848  0.40680612
   0.66571694  0.16838238  0.50044175
   0.66611974  0.41618310  0.50031127
   0.24930632  0.74982404  0.59290427
   0.41650433  0.41646698  0.49975122
   0.58228821  0.33378036  0.40758962
   0.33306222  0.83344599  0.40708772
   0.24991102  0.50057282  0.59245183
   0.16778958  0.66510225  0.50043237
   0.33373502  0.58242231  0.40748667
   0.16796993  0.41706808  0.49978466
   0.33320938  0.33427317  0.40742576
   0.24975009 -0.00013166  0.59301236
   0.00066308  0.74960763  0.59286216
  -0.00057395  0.25008309  0.59310928
   0.08398468  0.33311442  0.40702651
   0.50070490  0.25035494  0.59258985
   0.75019994  0.74986936  0.59289370
Direct configuration=     3
   0.50117625  0.49518356  0.59833328
   0.17485769  0.91248364  0.50011962
   0.83099628  0.08493226  0.39977577
   0.41645438  0.17551322  0.50009763
   0.50177753 -0.00147948  0.59986075
   0.83373138  0.33158796  0.39975192
   0.24898434  0.25186112  0.60014129
   0.41434324  0.66594236  0.49877152
   0.50142476  0.75064847  0.59885888
   0.83444009  0.58388768  0.39979649
   0.16643083  0.16645636  0.49976949
   0.66933967  0.91385978  0.50174253
   0.32876354  0.08417845  0.39984395
   0.91390738  0.91381572  0.50176650
   0.08730402  0.83130015  0.39988304
  -0.00064048  0.50189264  0.59977345
   0.91747114  0.66860378  0.50176088
   0.08866859  0.57930081  0.40124331
   0.58177603  0.83250896  0.40093480
   0.91428292  0.41718954  0.50178739
   0.57934516  0.58248188  0.40151356
   0.00000046 -0.00026160  0.60092485
   0.91086826  0.17200278  0.50166378
   0.58401757  0.08739553  0.39998529
   0.41592466  0.91391410  0.50001027
   0.08506806  0.08316299  0.40264151
   0.74903342  0.00210604  0.59620853
   0.74826846  0.25067065  0.59536452
   0.66625874  0.66567759  0.50177592
   0.75099007  0.49826191  0.59551247
   0.83342734  0.83331475  0.40257582
   0.66302786  0.17324033  0.50169255
   0.66457115  0.41481392  0.50119260
   0.24734222  0.74932580  0.59631455
   0.41604468  0.41590158  0.49904681
   0.57932899  0.33504611  0.40557776
   0.33229459  0.83376496  0.40365473
   0.24965910  0.50219471  0.59458108
   0.17096905  0.66067268  0.50165659
   0.33487237  0.57984281  0.40518330
   0.17166004  0.41820466  0.49917493
   0.33285843  0.33693426  0.40494993
   0.24904250 -0.00050444  0.59672871
   0.00254054  0.74849666  0.59615324
  -0.00219906  0.25031836  0.59710005
   0.08582895  0.33249458  0.40342023
   0.50270079  0.25135995  0.59510989
   0.75076606  0.74949946  0.59627407
Direct configuration=     4
   0.50031011  0.49734938  0.59962306
   0.16928090  0.91444395  0.50014523
   0.83258826  0.08401156  0.39869958
   0.41723550  0.17094542  0.50008831
   0.50084801  0.00007172  0.60109548
   0.83380316  0.33218829  0.39829544
   0.24929442  0.25148958  0.60155840
   0.41751088  0.66344637  0.49932583
   0.50075445  0.74945195  0.60020118
   0.83470197  0.58325096  0.39868071
   0.16725178  0.16723753  0.49991755
   0.66462702  0.91676858  0.50118261
   0.33045701  0.08433708  0.39851717
   0.91678969  0.91656872  0.50126615
   0.08648044  0.83170159  0.39880205
  -0.00033501  0.50143714  0.60133240
   0.91914345  0.66445378  0.50118524
   0.08710253  0.58075959  0.39995779
   0.58173059  0.83339597  0.39995007
   0.91502120  0.41878430  0.50124770
   0.58049399  0.58203267  0.40034610
  -0.00011229 -0.00022513  0.60240649
   0.91291578  0.16809640  0.50122117
   0.58278436  0.08640491  0.39878160
   0.41848851  0.91544686  0.50000872
   0.08358181  0.08310861  0.40201754
   0.74927419  0.00205034  0.59739726
   0.74931203  0.24997029  0.59681917
   0.66578248  0.66528796  0.50124193
   0.75063097  0.49838271  0.59663517
   0.83391357  0.83318413  0.40178878
   0.66432601  0.17090783  0.50107425
   0.66286400  0.41741596  0.50082175
   0.24837939  0.74922611  0.59731305
   0.41678310  0.41805731  0.49940619
   0.57995674  0.33507410  0.40489591
   0.33231871  0.83353463  0.40244116
   0.24996668  0.50138015  0.59553814
   0.16945172  0.66241218  0.50116102
   0.33439958  0.58049566  0.40419732
   0.16880082  0.41870250  0.49951342
   0.33358833  0.33512419  0.40371135
   0.24894448 -0.00014554  0.59764959
   0.00217958  0.74906974  0.59752338
  -0.00175224  0.25005253  0.59828145
   0.08488895  0.33301791  0.40286198
   0.50187622  0.25050848  0.59627572
   0.75136620  0.74933305  0.59759840
Direct configuration=     5
   0.50014342  0.49776621  0.59987128
   0.16820762  0.91482122  0.50015016
   0.83289464  0.08383437  0.39849247
   0.41738583  0.17006632  0.50008652
   0.50066913  0.00037026  0.60133311
   0.83381697  0.33230383  0.39801514
   0.24935410  0.25141808  0.60183113
   0.41812051  0.66296601  0.49943251
   0.50062545  0.74922168  0.60045951
   0.83475237  0.58312842  0.39846597
   0.16740978  0.16738787  0.49994604
   0.66372005  0.91732839  0.50107485
   0.33078292  0.08436760  0.39826183
   0.91734440  0.91709855  0.50116986
   0.08632194  0.83177885  0.39859401
  -0.00027622  0.50134948  0.60163243
   0.91946529  0.66365510  0.50107446
   0.08680114  0.58104034  0.39971038
   0.58172184  0.83356667  0.39976056
   0.91516328  0.41909122  0.50114384
   0.58071509  0.58194622  0.40012142
  -0.00013399 -0.00021812  0.60269164
   0.91330983  0.16734461  0.50113599
   0.58254702  0.08621426  0.39854995
   0.41898193  0.91574185  0.50000842
   0.08329577  0.08309814  0.40189746
   0.74932053  0.00203962  0.59762603
   0.74951287  0.24983550  0.59709913
   0.66569083  0.66521297  0.50113917
   0.75056186  0.49840596  0.59685124
   0.83400714  0.83315899  0.40163731
   0.66457585  0.17045893  0.50095526
   0.66253545  0.41791673  0.50075038
   0.24857899  0.74920692  0.59750522
   0.41692521  0.41847218  0.49947535
   0.58007756  0.33507948  0.40476468
   0.33232335  0.83349030  0.40220761
   0.25002587  0.50122339  0.59572233
   0.16915970  0.66274696  0.50106565
   0.33430859  0.58062130  0.40400756
   0.16825055  0.41879831  0.49957857
   0.33372880  0.33477583  0.40347298
   0.24892561 -0.00007646  0.59782682
   0.00211011  0.74918003  0.59778707
  -0.00166625  0.25000136  0.59850882
   0.08470804  0.33311863  0.40275455
   0.50171753  0.25034461  0.59650009
   0.75148169  0.74930103  0.59785328
Direct configuration=     6
   0.49995075  0.49831539  0.60067162
   0.16827199  0.91485737  0.50015762
   0.83302251  0.08355499  0.39798204
   0.41670449  0.16968405  0.50006414
   0.50032869  0.00052108  0.60201198
   0.83385264  0.33256386  0.39738908
   0.24935968  0.25124151  0.60253357
   0.41768546  0.66509604  0.49976997
   0.50023753  0.74930488  0.60107936
   0.83439890  0.58317545  0.39791354
   0.16769518  0.16742523  0.50009454
   0.66512919  0.91696237  0.50079027
   0.33089859  0.08455358  0.39764536
   0.91696468  0.91643510  0.50089395
   0.08586842  0.83187768  0.39805210
  -0.00016076  0.50096961  0.60250547
   0.91832232  0.66523161  0.50079767
   0.08603420  0.58172883  0.39906695
   0.58220496  0.83345417  0.39930553
   0.91509322  0.41794756  0.50085362
   0.58150088  0.58221268  0.39947907
  -0.00001828 -0.00026187  0.60354737
   0.91371922  0.16809576  0.50086795
   0.58267483  0.08545441  0.39794102
   0.41821913  0.91600147  0.50003967
   0.08302192  0.08315893  0.40181403
   0.74966958  0.00147994  0.59800672
   0.74990240  0.24967898  0.59767113
   0.66579130  0.66565907  0.50073160
   0.75070388  0.49830844  0.59731535
   0.83401019  0.83320539  0.40166297
   0.66516528  0.16909667  0.50046226
   0.66414433  0.41736410  0.50059160
   0.24904725  0.74948335  0.59785534
   0.41681756  0.41785854  0.49982984
   0.58101096  0.33433346  0.40443424
   0.33243080  0.83339410  0.40196509
   0.25015028  0.50064554  0.59615803
   0.16803443  0.66416697  0.50062540
   0.33381895  0.58128494  0.40348506
   0.16837278  0.41791027  0.49983542
   0.33378944  0.33403961  0.40304181
   0.24902714 -0.00002335  0.59805857
   0.00149717  0.74967113  0.59828552
  -0.00138096  0.24994903  0.59887244
   0.08432361  0.33310524  0.40262878
   0.50118298  0.25021881  0.59697684
   0.75151030  0.74960803  0.59823852
Direct configuration=     7
   0.49985839  0.49857866  0.60105528
   0.16830285  0.91487470  0.50016119
   0.83308381  0.08342106  0.39773735
   0.41637786  0.16950079  0.50005342
   0.50016549  0.00059339  0.60233742
   0.83386974  0.33268851  0.39708896
   0.24936235  0.25115686  0.60287031
   0.41747691  0.66611714  0.49993175
   0.50005156  0.74934477  0.60137650
   0.83422946  0.58319799  0.39764872
   0.16783200  0.16744314  0.50016573
   0.66580471  0.91678690  0.50065385
   0.33095404  0.08464274  0.39734983
   0.91678265  0.91611705  0.50076168
   0.08565101  0.83192506  0.39779231
  -0.00010542  0.50078751  0.60292400
   0.91777440  0.66598737  0.50066498
   0.08566654  0.58205889  0.39875849
   0.58243656  0.83340024  0.39908739
   0.91505964  0.41739931  0.50071449
   0.58187757  0.58234041  0.39917113
   0.00003719 -0.00028284  0.60395759
   0.91391547  0.16845585  0.50073946
   0.58273610  0.08509014  0.39764910
   0.41785346  0.91612593  0.50005465
   0.08289064  0.08318807  0.40177404
   0.74983691  0.00121164  0.59818921
   0.75008913  0.24960394  0.59794534
   0.66583947  0.66587292  0.50053623
   0.75077196  0.49826170  0.59753784
   0.83401165  0.83322763  0.40167527
   0.66544784  0.16844363  0.50022593
   0.66491559  0.41709918  0.50051549
   0.24927173  0.74961587  0.59802318
   0.41676596  0.41756437  0.49999977
   0.58145841  0.33397584  0.40427582
   0.33248231  0.83334798  0.40184883
   0.25020991  0.50036853  0.59636690
   0.16749499  0.66484770  0.50041436
   0.33358422  0.58160307  0.40323459
   0.16843138  0.41748456  0.49995855
   0.33381852  0.33368668  0.40283511
   0.24907582  0.00000211  0.59816966
   0.00120334  0.74990656  0.59852446
  -0.00124419  0.24992394  0.59904676
   0.08413932  0.33309882  0.40256849
   0.50092672  0.25015851  0.59720539
   0.75152401  0.74975521  0.59842320
Direct configuration=     8
   0.50017789  0.49798073  0.60137775
   0.16852606  0.91519670  0.50021110
   0.83276700  0.08355319  0.39741503
   0.41662181  0.16973874  0.50006820
   0.50050823  0.00003178  0.60258720
   0.83391155  0.33240699  0.39665375
   0.24924735  0.25105404  0.60335392
   0.41726367  0.66624344  0.49996199
   0.50048078  0.74972119  0.60168526
   0.83433853  0.58330748  0.39730645
   0.16782138  0.16701510  0.50027817
   0.66608361  0.91654367  0.50071034
   0.33043752  0.08451808  0.39702181
   0.91650704  0.91626427  0.50081703
   0.08566474  0.83211259  0.39743281
  -0.00042501  0.50107755  0.60321790
   0.91760505  0.66577068  0.50075132
   0.08587935  0.58151331  0.39850187
   0.58244365  0.83336498  0.39884332
   0.91498289  0.41771562  0.50074731
   0.58147244  0.58249823  0.39891875
   0.00012317 -0.00031352  0.60438359
   0.91380303  0.16846126  0.50076848
   0.58307687  0.08496681  0.39726834
   0.41752230  0.91623190  0.50008257
   0.08323692  0.08314250  0.40185170
   0.74982237  0.00114061  0.59821211
   0.74992165  0.24956669  0.59794058
   0.66612563  0.66617489  0.50043378
   0.75094749  0.49836413  0.59757322
   0.83383577  0.83324387  0.40165554
   0.66542854  0.16851851  0.50009527
   0.66491919  0.41674743  0.50054619
   0.24889260  0.74977546  0.59809386
   0.41677790  0.41749771  0.50014651
   0.58147817  0.33389144  0.40424970
   0.33257464  0.83342529  0.40189411
   0.24995541  0.50069013  0.59640024
   0.16766707  0.66457697  0.50023710
   0.33402486  0.58134353  0.40323276
   0.16827915  0.41799366  0.50011046
   0.33355598  0.33408412  0.40281101
   0.24906265  0.00004167  0.59820456
   0.00121262  0.74981244  0.59857607
  -0.00118946  0.24989884  0.59913293
   0.08418201  0.33307287  0.40259193
   0.50123294  0.25016476  0.59724802
   0.75121497  0.74985769  0.59839804
Direct configuration=     9
   0.50041593  0.49753526  0.60161800
   0.16869235  0.91543660  0.50024829
   0.83253096  0.08365164  0.39717490
   0.41680357  0.16991603  0.50007921
   0.50076358 -0.00038664  0.60277330
   0.83394271  0.33219724  0.39632951
   0.24916167  0.25097743  0.60371422
   0.41710481  0.66633754  0.49998452
   0.50080056  0.75000163  0.60191530
   0.83441979  0.58338905  0.39705145
   0.16781346  0.16669620  0.50036195
   0.66629141  0.91636245  0.50075243
   0.33005270  0.08442521  0.39677743
   0.91630171  0.91637395  0.50085826
   0.08567497  0.83225230  0.39716497
  -0.00066312  0.50129364  0.60343686
   0.91747887  0.66560924  0.50081564
   0.08603791  0.58110684  0.39831068
   0.58244894  0.83333871  0.39866149
   0.91492571  0.41795128  0.50077176
   0.58117061  0.58261581  0.39873072
   0.00018723 -0.00033638  0.60470098
   0.91371926  0.16846529  0.50079011
   0.58333076  0.08487492  0.39698466
   0.41727558  0.91631085  0.50010338
   0.08349491  0.08310855  0.40190956
   0.74981153  0.00108769  0.59822918
   0.74979688  0.24953893  0.59793703
   0.66633883  0.66639986  0.50035746
   0.75107826  0.49844045  0.59759959
   0.83370473  0.83325597  0.40164084
   0.66541416  0.16857430  0.49999793
   0.66492187  0.41648537  0.50056906
   0.24861013  0.74989437  0.59814653
   0.41678679  0.41744805  0.50025584
   0.58149289  0.33382856  0.40423024
   0.33264343  0.83348289  0.40192785
   0.24976580  0.50092974  0.59642507
   0.16779528  0.66437527  0.50010504
   0.33435314  0.58115016  0.40323140
   0.16816573  0.41837295  0.50022365
   0.33336039  0.33438023  0.40279304
   0.24905284  0.00007115  0.59823055
   0.00121954  0.74974232  0.59861452
  -0.00114868  0.24988014  0.59919713
   0.08421382  0.33305353  0.40260939
   0.50146108  0.25016941  0.59727979
   0.75098472  0.74993404  0.59837929
Direct configuration=    10
   0.50056118  0.49761339  0.60184877
   0.16833602  0.91534272  0.50031655
   0.83261425  0.08365290  0.39682426
   0.41689150  0.17000476  0.50007972
   0.50089357 -0.00024002  0.60294008
   0.83394603  0.33210296  0.39585619
   0.24928909  0.25093327  0.60419950
   0.41749691  0.66572629  0.50011400
   0.50101215  0.74972097  0.60215152
   0.83444211  0.58322959  0.39666365
   0.16781325  0.16717123  0.50051732
   0.66568255  0.91668012  0.50079823
   0.33005667  0.08444142  0.39649100
   0.91671681  0.91639758  0.50095766
   0.08576234  0.83220140  0.39682920
  -0.00088876  0.50156457  0.60371977
   0.91793624  0.66525144  0.50092067
   0.08628416  0.58095389  0.39811095
   0.58222751  0.83352176  0.39843868
   0.91494845  0.41803692  0.50080369
   0.58105549  0.58248410  0.39856163
   0.00009851 -0.00028868  0.60516604
   0.91350464  0.16836539  0.50086178
   0.58294981  0.08503327  0.39658119
   0.41766256  0.91642129  0.50012710
   0.08346105  0.08307183  0.40202095
   0.74981275  0.00110364  0.59818671
   0.74988028  0.24935676  0.59780828
   0.66605609  0.66643211  0.50025246
   0.75103174  0.49852662  0.59750524
   0.83389939  0.83308392  0.40162998
   0.66533172  0.16874811  0.49988526
   0.66448072  0.41671969  0.50060464
   0.24856633  0.74983947  0.59812588
   0.41688047  0.41767150  0.50040795
   0.58125543  0.33395572  0.40425477
   0.33270137  0.83341109  0.40203665
   0.24949192  0.50123788  0.59641589
   0.16783719  0.66435120  0.49988256
   0.33455050  0.58095242  0.40334339
   0.16814343  0.41851472  0.50041983
   0.33342635  0.33435842  0.40291996
   0.24908373  0.00003233  0.59831402
   0.00122034  0.74966929  0.59854250
  -0.00124309  0.24991475  0.59922484
   0.08420303  0.33297934  0.40276252
   0.50161971  0.24987086  0.59725251
   0.75101654  0.74987582  0.59832407
Direct configuration=    11
   0.50066641  0.49766999  0.60201595
   0.16807787  0.91527470  0.50036600
   0.83267458  0.08365381  0.39657024
   0.41695521  0.17006904  0.50008009
   0.50098775 -0.00013380  0.60306092
   0.83394843  0.33203465  0.39551329
   0.24938141  0.25090127  0.60455106
   0.41778097  0.66528346  0.50020781
   0.50116544  0.74951764  0.60232265
   0.83445828  0.58311406  0.39638270
   0.16781309  0.16751537  0.50062989
   0.66524145  0.91691026  0.50083141
   0.33005954  0.08445317  0.39628349
   0.91701753  0.91641470  0.50102966
   0.08582563  0.83216453  0.39658594
  -0.00105222  0.50176086  0.60392473
   0.91826759  0.66499223  0.50099677
   0.08646256  0.58084308  0.39796624
   0.58206709  0.83365438  0.39827726
   0.91496492  0.41809897  0.50082683
   0.58097209  0.58238867  0.39843913
   0.00003423 -0.00025412  0.60550296
   0.91334915  0.16829302  0.50091371
   0.58267383  0.08514799  0.39628889
   0.41794292  0.91650131  0.50014429
   0.08343653  0.08304524  0.40210164
   0.74981364  0.00111520  0.59815595
   0.74994069  0.24922478  0.59771500
   0.66585124  0.66645546  0.50017639
   0.75099804  0.49858904  0.59743689
   0.83404041  0.83295928  0.40162212
   0.66527200  0.16887403  0.49980363
   0.66416112  0.41688945  0.50063041
   0.24853460  0.74979970  0.59811092
   0.41694833  0.41783338  0.50051814
   0.58108339  0.33404783  0.40427253
   0.33274334  0.83335907  0.40211547
   0.24929350  0.50146111  0.59640924
   0.16786755  0.66433377  0.49972139
   0.33469347  0.58080916  0.40342452
   0.16812728  0.41861742  0.50056195
   0.33347413  0.33434262  0.40301190
   0.24910610  0.00000421  0.59837448
   0.00122092  0.74961639  0.59849033
  -0.00131149  0.24993982  0.59924491
   0.08419522  0.33292558  0.40287346
   0.50173463  0.24965457  0.59723276
   0.75103959  0.74983364  0.59828407
Direct configuration=    12
   0.50058150  0.49780898  0.60221000
   0.16839174  0.91503245  0.50046705
   0.83274174  0.08348420  0.39626397
   0.41663456  0.17037475  0.50007376
   0.50084726  0.00013453  0.60318657
   0.83388280  0.33209687  0.39503685
   0.24941791  0.25111479  0.60499623
   0.41775321  0.66553746  0.50040503
   0.50098527  0.74931363  0.60247452
   0.83433510  0.58297820  0.39606250
   0.16794884  0.16777225  0.50082496
   0.66554304  0.91696439  0.50075630
   0.33013076  0.08463779  0.39610256
   0.91687159  0.91622172  0.50105269
   0.08593743  0.83197757  0.39630365
  -0.00096817  0.50159322  0.60425522
   0.91816339  0.66540659  0.50096461
   0.08647051  0.58096230  0.39783857
   0.58207564  0.83362473  0.39810712
   0.91464613  0.41798688  0.50077270
   0.58132581  0.58220640  0.39833896
  -0.00001863 -0.00022337  0.60600290
   0.91322897  0.16864539  0.50089163
   0.58243350  0.08522812  0.39591772
   0.41775661  0.91653566  0.50018717
   0.08323940  0.08299615  0.40230252
   0.74997587  0.00105856  0.59804771
   0.75005284  0.24911847  0.59755575
   0.66569357  0.66631809  0.49998578
   0.75094393  0.49851481  0.59726982
   0.83417021  0.83286822  0.40175543
   0.66532349  0.16870605  0.49961125
   0.66428331  0.41704971  0.50060410
   0.24871007  0.74972861  0.59802417
   0.41687777  0.41783184  0.50072879
   0.58107615  0.33392942  0.40429630
   0.33267844  0.83326430  0.40235376
   0.24934253  0.50138819  0.59640576
   0.16785109  0.66452454  0.49947018
   0.33452033  0.58088643  0.40354634
   0.16852543  0.41831905  0.50077049
   0.33361051  0.33406924  0.40326083
   0.24928073 -0.00014933  0.59843074
   0.00118779  0.74979011  0.59837343
  -0.00134334  0.25002801  0.59924460
   0.08412514  0.33287443  0.40311797
   0.50161720  0.24965485  0.59716774
   0.75114103  0.74981479  0.59818330
Direct configuration=    13
   0.50056489  0.49783615  0.60224793
   0.16845310  0.91498508  0.50048680
   0.83275487  0.08345104  0.39620409
   0.41657187  0.17043452  0.50007252
   0.50081979  0.00018699  0.60321114
   0.83386996  0.33210904  0.39494370
   0.24942505  0.25115653  0.60508326
   0.41774778  0.66558711  0.50044359
   0.50095005  0.74927374  0.60250421
   0.83431102  0.58295164  0.39599990
   0.16797538  0.16782247  0.50086309
   0.66560201  0.91697497  0.50074162
   0.33014468  0.08467389  0.39606718
   0.91684306  0.91618400  0.50105719
   0.08595929  0.83194102  0.39624846
  -0.00095174  0.50156045  0.60431983
   0.91814302  0.66548761  0.50095832
   0.08647206  0.58098561  0.39781361
   0.58207731  0.83361893  0.39807386
   0.91458380  0.41796496  0.50076212
   0.58139497  0.58217077  0.39831938
  -0.00002896 -0.00021736  0.60610064
   0.91320547  0.16871428  0.50088731
   0.58238651  0.08524379  0.39584516
   0.41772018  0.91654237  0.50019556
   0.08320086  0.08298655  0.40234180
   0.75000759  0.00104748  0.59802654
   0.75007477  0.24909768  0.59752461
   0.66566274  0.66629123  0.49994851
   0.75093335  0.49850029  0.59723716
   0.83419558  0.83285041  0.40178150
   0.66533355  0.16867321  0.49957364
   0.66430720  0.41708104  0.50059895
   0.24874437  0.74971471  0.59800721
   0.41686398  0.41783153  0.50076998
   0.58107474  0.33390627  0.40430095
   0.33266576  0.83324577  0.40240035
   0.24935212  0.50137393  0.59640508
   0.16784787  0.66456183  0.49942107
   0.33448648  0.58090153  0.40357016
   0.16860328  0.41826071  0.50081126
   0.33363717  0.33401579  0.40330950
   0.24931487 -0.00017935  0.59844174
   0.00118131  0.74982408  0.59835057
  -0.00134957  0.25004525  0.59924454
   0.08411143  0.33286443  0.40316578
   0.50159425  0.24965491  0.59715502
   0.75116086  0.74981110  0.59816360
Direct configuration=    14
   0.50049210  0.49766013  0.60235012
   0.16835591  0.91533783  0.50059869
   0.83270254  0.08327996  0.39606336
   0.41665886  0.17018467  0.50010268
   0.50072034  0.00014120  0.60322041
   0.83388204  0.33197630  0.39455099
   0.24932416  0.25133776  0.60538121
   0.41764901  0.66591314  0.50058013
   0.50087965  0.74940855  0.60255103
   0.83444014  0.58291858  0.39585795
   0.16800658  0.16757781  0.50103388
   0.66562709  0.91697382  0.50058061
   0.33004914  0.08468270  0.39603684
   0.91681271  0.91649997  0.50098241
   0.08593456  0.83194288  0.39608930
  -0.00082801  0.50136430  0.60455468
   0.91798940  0.66527005  0.50083351
   0.08625292  0.58095359  0.39779823
   0.58217127  0.83351731  0.39802218
   0.91445423  0.41823312  0.50063767
   0.58152909  0.58210422  0.39832497
   0.00009905 -0.00019026  0.60641815
   0.91347939  0.16854810  0.50077349
   0.58264019  0.08507114  0.39562596
   0.41756227  0.91665464  0.50025076
   0.08306996  0.08295781  0.40258106
   0.75006010  0.00108689  0.59791950
   0.75003212  0.24912513  0.59738447
   0.66583702  0.66639464  0.49975274
   0.75090906  0.49842897  0.59709670
   0.83405985  0.83290294  0.40190195
   0.66544289  0.16843306  0.49935623
   0.66439864  0.41706927  0.50049390
   0.24873095  0.74973331  0.59795412
   0.41693483  0.41784497  0.50092834
   0.58122889  0.33374407  0.40433337
   0.33265019  0.83321396  0.40262893
   0.24946580  0.50126912  0.59642422
   0.16779357  0.66470854  0.49926589
   0.33448703  0.58094705  0.40368449
   0.16837828  0.41844320  0.50098521
   0.33356795  0.33399416  0.40355068
   0.24936264 -0.00016274  0.59848964
   0.00131970  0.74989534  0.59826283
  -0.00120661  0.24998772  0.59925585
   0.08399215  0.33295265  0.40340140
   0.50151547  0.24985796  0.59708755
   0.75108488  0.74981044  0.59804171
Direct configuration=    15
   0.50046719  0.49759989  0.60238509
   0.16832265  0.91545854  0.50063698
   0.83268463  0.08322141  0.39601520
   0.41668863  0.17009916  0.50011300
   0.50068631  0.00012553  0.60322359
   0.83388617  0.33193088  0.39441660
   0.24928963  0.25139977  0.60548318
   0.41761522  0.66602472  0.50062686
   0.50085556  0.74945468  0.60256705
   0.83448433  0.58290727  0.39580938
   0.16801725  0.16749409  0.50109232
   0.66563567  0.91697343  0.50052551
   0.33001645  0.08468572  0.39602645
   0.91680233  0.91660810  0.50095682
   0.08592610  0.83194351  0.39603484
  -0.00078567  0.50129717  0.60463504
   0.91793683  0.66519560  0.50079079
   0.08617792  0.58094263  0.39779297
   0.58220343  0.83348253  0.39800449
   0.91440989  0.41832489  0.50059509
   0.58157499  0.58208145  0.39832689
   0.00014286 -0.00018099  0.60652681
   0.91357313  0.16849123  0.50073453
   0.58272700  0.08501206  0.39555095
   0.41750823  0.91669306  0.50026965
   0.08302516  0.08294797  0.40266294
   0.75007807  0.00110038  0.59788287
   0.75001753  0.24913453  0.59733651
   0.66589666  0.66643003  0.49968575
   0.75090074  0.49840456  0.59704864
   0.83401340  0.83292091  0.40194317
   0.66548031  0.16835088  0.49928182
   0.66442993  0.41706525  0.50045795
   0.24872635  0.74973967  0.59793595
   0.41695907  0.41784957  0.50098253
   0.58128165  0.33368857  0.40434446
   0.33264487  0.83320308  0.40270715
   0.24950470  0.50123325  0.59643077
   0.16777499  0.66475875  0.49921279
   0.33448722  0.58096263  0.40372361
   0.16830128  0.41850566  0.50104474
   0.33354427  0.33398676  0.40363321
   0.24937899 -0.00015705  0.59850603
   0.00136706  0.74991973  0.59823280
  -0.00115769  0.24996803  0.59925973
   0.08395133  0.33298284  0.40348203
   0.50148851  0.24992745  0.59706446
   0.75105888  0.74981021  0.59799999
Direct configuration=    16
   0.50055096  0.49757733  0.60239698
   0.16801968  0.91559316  0.50074996
   0.83273296  0.08319697  0.39598832
   0.41678409  0.16991049  0.50016005
   0.50074550  0.00010282  0.60313854
   0.83392861  0.33179968  0.39420094
   0.24938068  0.25127151  0.60560987
   0.41775099  0.66588371  0.50067576
   0.50101833  0.74943616  0.60252614
   0.83457018  0.58284876  0.39575208
   0.16792412  0.16765051  0.50120480
   0.66548548  0.91693796  0.50044895
   0.32995533  0.08457265  0.39613428
   0.91700198  0.91660496  0.50088950
   0.08585226  0.83196734  0.39602429
  -0.00092656  0.50148544  0.60472849
   0.91802416  0.66519785  0.50076893
   0.08618355  0.58087044  0.39784824
   0.58208189  0.83350385  0.39801101
   0.91455474  0.41819425  0.50053634
   0.58143948  0.58207622  0.39839433
   0.00020385 -0.00014798  0.60659391
   0.91349468  0.16862236  0.50065950
   0.58272609  0.08494456  0.39546748
   0.41772126  0.91671716  0.50030980
   0.08302620  0.08294056  0.40277155
   0.74999338  0.00119507  0.59778075
   0.75005845  0.24911040  0.59720720
   0.66581676  0.66665090  0.49957201
   0.75088742  0.49844368  0.59693250
   0.83397034  0.83289705  0.40195513
   0.66554684  0.16834971  0.49914873
   0.66441487  0.41697010  0.50034118
   0.24863280  0.74977252  0.59795282
   0.41707091  0.41790899  0.50100281
   0.58130449  0.33370948  0.40435133
   0.33268035  0.83320307  0.40281190
   0.24940528  0.50138410  0.59645680
   0.16750723  0.66497024  0.49919664
   0.33465080  0.58082267  0.40380234
   0.16814528  0.41856362  0.50117559
   0.33349099  0.33407716  0.40383122
   0.24930364 -0.00000168  0.59861035
   0.00146047  0.74978293  0.59812453
  -0.00115921  0.24990895  0.59925822
   0.08396164  0.33291514  0.40362147
   0.50154954  0.24984567  0.59700872
   0.75107723  0.74976147  0.59786771
Direct configuration=    17
   0.50057344  0.49757128  0.60240017
   0.16793837  0.91562929  0.50078028
   0.83274593  0.08319042  0.39598111
   0.41680971  0.16985986  0.50017268