  48  48   0   0
  0.5349325E+02  0.1100258E-08  0.1100258E-08  0.2449179E-08  0.3500000E-15
  1.000000000000000E-004
  CAR 
 unknown system                          
      6.38656853     -9.75436835  301     -1.09694302      1.00000000
     -9.754  0.0000E+00  0.0000E+00
     -9.701  0.0000E+00  0.0000E+00
     -9.647  0.0000E+00  0.0000E+00
     -9.593  0.0000E+00  0.0000E+00
     -9.539  0.0000E+00  0.0000E+00
     -9.485  0.0000E+00  0.0000E+00
     -9.432  0.0000E+00  0.0000E+00
     -9.378  0.0000E+00  0.0000E+00
     -9.324  0.8254E-17  0.4441E-18
     -9.270  0.3253E-14  0.1755E-15
     -9.216  0.7251E-12  0.3919E-13
     -9.163  0.9177E-10  0.4977E-11
     -9.109  0.6605E-08  0.3604E-09
     -9.055  0.2709E-06  0.1494E-07
     -9.001  0.6345E-05  0.3563E-06
     -8.947  0.8508E-04  0.4934E-05
     -8.894  0.6546E-03  0.4016E-04
     -8.840  0.2897E-02  0.1960E-03
     -8.786  0.7395E-02  0.5939E-03
     -8.732  0.1097E-01  0.1184E-02
     -8.678  0.9932E-02  0.1718E-02
     -8.625  0.7487E-02  0.2121E-02
     -8.571  0.8620E-02  0.2585E-02
     -8.517  0.1089E-01  0.3171E-02
     -8.463  0.9168E-02  0.3664E-02
     -8.409  0.4619E-02  0.3913E-02
     -8.355  0.1462E-02  0.3991E-02
     -8.302  0.9021E-03  0.4040E-02
     -8.248  0.2762E-02  0.4189E-02
     -8.194  0.6787E-02  0.4554E-02
     -8.140  0.1022E-01  0.5104E-02
     -8.086  0.9639E-02  0.5622E-02
     -8.033  0.7007E-02  0.5999E-02
     -7.979  0.8126E-02  0.6437E-02
     -7.925  0.1430E-01  0.7206E-02
     -7.871  0.1978E-01  0.8271E-02
     -7.817  0.1937E-01  0.9313E-02
     -7.764  0.1582E-01  0.1016E-01
     -7.710  0.1440E-01  0.1094E-01
     -7.656  0.1486E-01  0.1174E-01
     -7.602  0.1601E-01  0.1260E-01
     -7.548  0.1902E-01  0.1362E-01
     -7.495  0.2245E-01  0.1483E-01
     -7.441  0.2257E-01  0.1604E-01
     -7.387  0.1908E-01  0.1707E-01
     -7.333  0.1643E-01  0.1796E-01
     -7.279  0.1703E-01  0.1887E-01
     -7.226  0.1983E-01  0.1994E-01
     -7.172  0.2487E-01  0.2128E-01
     -7.118  0.3193E-01  0.2299E-01
     -7.064  0.3863E-01  0.2507E-01
     -7.010  0.4376E-01  0.2743E-01
     -6.957  0.4929E-01  0.3008E-01
     -6.903  0.5524E-01  0.3305E-01
     -6.849  0.5914E-01  0.3623E-01
     -6.795  0.6368E-01  0.3966E-01
     -6.741  0.7402E-01  0.4364E-01
     -6.688  0.8720E-01  0.4833E-01
     -6.634  0.9835E-01  0.5362E-01
     -6.580  0.1072E+00  0.5939E-01
     -6.526  0.1123E+00  0.6544E-01
     -6.472  0.1136E+00  0.7155E-01
     -6.419  0.1171E+00  0.7785E-01
     -6.365  0.1249E+00  0.8457E-01
     -6.311  0.1317E+00  0.9166E-01
     -6.257  0.1360E+00  0.9898E-01
     -6.203  0.1418E+00  0.1066E+00
     -6.150  0.1499E+00  0.1147E+00
     -6.096  0.1548E+00  0.1230E+00
     -6.042  0.1548E+00  0.1313E+00
     -5.988  0.1565E+00  0.1397E+00
     -5.934  0.1613E+00  0.1484E+00
     -5.881  0.1628E+00  0.1572E+00
     -5.827  0.1578E+00  0.1657E+00
     -5.773  0.1500E+00  0.1737E+00
     -5.719  0.1438E+00  0.1815E+00
     -5.665  0.1394E+00  0.1890E+00
     -5.612  0.1364E+00  0.1963E+00
     -5.558  0.1337E+00  0.2035E+00
     -5.504  0.1307E+00  0.2105E+00
     -5.450  0.1307E+00  0.2176E+00
     -5.396  0.1367E+00  0.2249E+00
     -5.343  0.1488E+00  0.2329E+00
     -5.289  0.1640E+00  0.2418E+00
     -5.235  0.1752E+00  0.2512E+00
     -5.181  0.1767E+00  0.2607E+00
     -5.127  0.1727E+00  0.2700E+00
     -5.073  0.1696E+00  0.2791E+00
     -5.020  0.1680E+00  0.2882E+00
     -4.966  0.1668E+00  0.2971E+00
     -4.912  0.1671E+00  0.3061E+00
     -4.858  0.1688E+00  0.3152E+00
     -4.804  0.1713E+00  0.3244E+00
     -4.751  0.1763E+00  0.3339E+00
     -4.697  0.1816E+00  0.3437E+00
     -4.643  0.1820E+00  0.3535E+00
     -4.589  0.1779E+00  0.3630E+00
     -4.535  0.1735E+00  0.3724E+00
     -4.482  0.1712E+00  0.3816E+00
     -4.428  0.1725E+00  0.3909E+00
     -4.374  0.1784E+00  0.4005E+00
     -4.320  0.1847E+00  0.4104E+00
     -4.266  0.1852E+00  0.4204E+00
     -4.213  0.1816E+00  0.4301E+00
     -4.159  0.1799E+00  0.4398E+00
     -4.105  0.1800E+00  0.4495E+00
     -4.051  0.1790E+00  0.4591E+00
     -3.997  0.1785E+00  0.4687E+00
     -3.944  0.1812E+00  0.4785E+00
     -3.890  0.1870E+00  0.4885E+00
     -3.836  0.1909E+00  0.4988E+00
     -3.782  0.1907E+00  0.5091E+00
     -3.728  0.1891E+00  0.5193E+00
     -3.675  0.1886E+00  0.5294E+00
     -3.621  0.1885E+00  0.5395E+00
     -3.567  0.1879E+00  0.5497E+00
     -3.513  0.1874E+00  0.5597E+00
     -3.459  0.1898E+00  0.5699E+00
     -3.406  0.1954E+00  0.5805E+00
     -3.352  0.1975E+00  0.5911E+00
     -3.298  0.1916E+00  0.6014E+00
     -3.244  0.1814E+00  0.6111E+00
     -3.190  0.1731E+00  0.6205E+00
     -3.137  0.1686E+00  0.6295E+00
     -3.083  0.1674E+00  0.6385E+00
     -3.029  0.1721E+00  0.6478E+00
     -2.975  0.1825E+00  0.6576E+00
     -2.921  0.1908E+00  0.6679E+00
     -2.868  0.1919E+00  0.6782E+00
     -2.814  0.1908E+00  0.6885E+00
     -2.760  0.1931E+00  0.6989E+00
     -2.706  0.1957E+00  0.7094E+00
     -2.652  0.1943E+00  0.7199E+00
     -2.599  0.1898E+00  0.7301E+00
     -2.545  0.1839E+00  0.7400E+00
     -2.491  0.1780E+00  0.7495E+00
     -2.437  0.1748E+00  0.7589E+00
     -2.383  0.1771E+00  0.7685E+00
     -2.330  0.1828E+00  0.7783E+00
     -2.276  0.1869E+00  0.7884E+00
     -2.222  0.1879E+00  0.7985E+00
     -2.168  0.1891E+00  0.8086E+00
     -2.114  0.1925E+00  0.8190E+00
     -2.061  0.1960E+00  0.8295E+00
     -2.007  0.1975E+00  0.8402E+00
     -1.953  0.1977E+00  0.8508E+00
     -1.899  0.1988E+00  0.8615E+00
     -1.845  0.2020E+00  0.8724E+00
     -1.792  0.2063E+00  0.8835E+00
     -1.738  0.2099E+00  0.8948E+00
     -1.684  0.2106E+00  0.9061E+00
     -1.630  0.2088E+00  0.9173E+00
     -1.576  0.2050E+00  0.9284E+00
     -1.522  0.1976E+00  0.9390E+00
     -1.469  0.1885E+00  0.9491E+00
     -1.415  0.1807E+00  0.9589E+00
     -1.361  0.1772E+00  0.9684E+00
     -1.307  0.1780E+00  0.9780E+00
     -1.253  0.1743E+00  0.9873E+00
     -1.200  0.1579E+00  0.9958E+00
     -1.146  0.1312E+00  0.1003E+01
     -1.092  0.1030E+00  0.1008E+01
     -1.038  0.7859E-01  0.1013E+01
     -0.984  0.5749E-01  0.1016E+01
     -0.931  0.3918E-01  0.1018E+01
     -0.877  0.2545E-01  0.1019E+01
     -0.823  0.1852E-01  0.1020E+01
     -0.769  0.1839E-01  0.1021E+01
     -0.715  0.2043E-01  0.1022E+01
     -0.662  0.2044E-01  0.1023E+01
     -0.608  0.2077E-01  0.1025E+01
     -0.554  0.2630E-01  0.1026E+01
     -0.500  0.3636E-01  0.1028E+01
     -0.446  0.4448E-01  0.1030E+01
     -0.393  0.4501E-01  0.1033E+01
     -0.339  0.3972E-01  0.1035E+01
     -0.285  0.3632E-01  0.1037E+01
     -0.231  0.3923E-01  0.1039E+01
     -0.177  0.4247E-01  0.1041E+01
     -0.124  0.3801E-01  0.1043E+01
     -0.070  0.2836E-01  0.1045E+01
     -0.016  0.2172E-01  0.1046E+01
      0.038  0.2208E-01  0.1047E+01
      0.092  0.2783E-01  0.1049E+01
      0.145  0.3334E-01  0.1050E+01
      0.199  0.3449E-01  0.1052E+01
      0.253  0.3320E-01  0.1054E+01
      0.307  0.3281E-01  0.1056E+01
      0.361  0.3366E-01  0.1058E+01
      0.414  0.3630E-01  0.1060E+01
      0.468  0.4019E-01  0.1062E+01
      0.522  0.4226E-01  0.1064E+01
      0.576  0.4353E-01  0.1066E+01
      0.630  0.4685E-01  0.1069E+01
      0.683  0.4929E-01  0.1072E+01
      0.737  0.4591E-01  0.1074E+01
      0.791  0.3705E-01  0.1076E+01
      0.845  0.2739E-01  0.1077E+01
      0.899  0.2224E-01  0.1079E+01
      0.952  0.2277E-01  0.1080E+01
      1.006  0.2486E-01  0.1081E+01
      1.060  0.2461E-01  0.1083E+01
      1.114  0.2141E-01  0.1084E+01
      1.168  0.1662E-01  0.1085E+01
      1.221  0.1235E-01  0.1085E+01
      1.275  0.1069E-01  0.1086E+01
      1.329  0.1191E-01  0.1087E+01
      1.383  0.1437E-01  0.1087E+01
      1.437  0.1850E-01  0.1088E+01
      1.490  0.2722E-01  0.1090E+01
      1.544  0.3546E-01  0.1092E+01
      1.598  0.3459E-01  0.1094E+01
      1.652  0.2939E-01  0.1095E+01
      1.706  0.2876E-01  0.1097E+01
      1.759  0.3292E-01  0.1098E+01
      1.813  0.3706E-01  0.1100E+01
      1.867  0.3440E-01  0.1102E+01
      1.921  0.2417E-01  0.1104E+01
      1.975  0.1588E-01  0.1104E+01
      2.029  0.1454E-01  0.1105E+01
      2.082  0.1646E-01  0.1106E+01
      2.136  0.2138E-01  0.1107E+01
      2.190  0.3082E-01  0.1109E+01
      2.244  0.4090E-01  0.1111E+01
      2.298  0.4843E-01  0.1114E+01
      2.351  0.5244E-01  0.1117E+01
      2.405  0.5098E-01  0.1119E+01
      2.459  0.4588E-01  0.1122E+01
      2.513  0.4212E-01  0.1124E+01
      2.567  0.4275E-01  0.1126E+01
      2.620  0.4640E-01  0.1129E+01
      2.674  0.4920E-01  0.1131E+01
      2.728  0.4736E-01  0.1134E+01
      2.782  0.3802E-01  0.1136E+01
      2.836  0.2390E-01  0.1137E+01
      2.889  0.1321E-01  0.1138E+01
      2.943  0.1067E-01  0.1139E+01
      2.997  0.1181E-01  0.1139E+01
      3.051  0.1106E-01  0.1140E+01
      3.105  0.1144E-01  0.1140E+01
      3.158  0.1738E-01  0.1141E+01
      3.212  0.2475E-01  0.1143E+01
      3.266  0.2645E-01  0.1144E+01
      3.320  0.2233E-01  0.1145E+01
      3.374  0.1840E-01  0.1146E+01
      3.427  0.1802E-01  0.1147E+01
      3.481  0.1940E-01  0.1148E+01
      3.535  0.2110E-01  0.1149E+01
      3.589  0.2533E-01  0.1151E+01
      3.643  0.3330E-01  0.1153E+01
      3.696  0.4015E-01  0.1155E+01
      3.750  0.4103E-01  0.1157E+01
      3.804  0.3586E-01  0.1159E+01
      3.858  0.2790E-01  0.1160E+01
      3.912  0.2190E-01  0.1162E+01
      3.965  0.2175E-01  0.1163E+01
      4.019  0.2754E-01  0.1164E+01
      4.073  0.3145E-01  0.1166E+01
      4.127  0.2796E-01  0.1167E+01
      4.181  0.2421E-01  0.1169E+01
      4.234  0.2436E-01  0.1170E+01
      4.288  0.2174E-01  0.1171E+01
      4.342  0.1646E-01  0.1172E+01
      4.396  0.1658E-01  0.1173E+01
      4.450  0.2312E-01  0.1174E+01
      4.503  0.3186E-01  0.1176E+01
      4.557  0.4084E-01  0.1178E+01
      4.611  0.4850E-01  0.1181E+01
      4.665  0.5167E-01  0.1184E+01
      4.719  0.5067E-01  0.1186E+01
      4.772  0.4986E-01  0.1189E+01
      4.826  0.5113E-01  0.1192E+01
      4.880  0.5429E-01  0.1195E+01
      4.934  0.5895E-01  0.1198E+01
      4.988  0.6386E-01  0.1201E+01
      5.041  0.6847E-01  0.1205E+01
      5.095  0.7035E-01  0.1209E+01
      5.149  0.6547E-01  0.1212E+01
      5.203  0.5775E-01  0.1215E+01
      5.257  0.5194E-01  0.1218E+01
      5.311  0.4414E-01  0.1221E+01
      5.364  0.3224E-01  0.1222E+01
      5.418  0.1961E-01  0.1223E+01
      5.472  0.9245E-02  0.1224E+01
      5.526  0.3002E-02  0.1224E+01
      5.580  0.6128E-03  0.1224E+01
      5.633  0.7497E-04  0.1224E+01
      5.687  0.5375E-05  0.1224E+01
      5.741  0.2233E-06  0.1224E+01
      5.795  0.5341E-08  0.1224E+01
      5.849  0.7324E-10  0.1224E+01
      5.902  0.5738E-12  0.1224E+01
      5.956  0.2563E-14  0.1224E+01
      6.010  0.6878E-17  0.1224E+01
      6.064  0.0000E+00  0.1224E+01
      6.118  0.0000E+00  0.1224E+01
      6.171  0.0000E+00  0.1224E+01
      6.225  0.0000E+00  0.1224E+01
      6.279  0.0000E+00  0.1224E+01
      6.333  0.0000E+00  0.1224E+01
      6.387  0.0000E+00  0.1224E+01
