       N       E                     dE             d eps       ncg     rms          rms(c)
DAV:   1     0.320152884068E+04    0.32015E+04   -0.18982E+05  3672   0.112E+03
DAV:   2     0.147220172819E+02   -0.31868E+04   -0.29313E+04  4380   0.263E+02
DAV:   3    -0.200362167176E+03   -0.21508E+03   -0.19981E+03  4128   0.650E+01
DAV:   4    -0.206206073545E+03   -0.58439E+01   -0.57717E+01  4236   0.108E+01
DAV:   5    -0.206403167736E+03   -0.19709E+00   -0.19639E+00  4428   0.202E+00    0.623E+01
RMM:   6    -0.199896374064E+03    0.65068E+01   -0.92301E+01  3678   0.152E+01    0.531E+01
RMM:   7    -0.211455121014E+03   -0.11559E+02   -0.59202E+01  3683   0.127E+01    0.473E+01
RMM:   8    -0.223840107100E+03   -0.12385E+02   -0.94067E+01  3672   0.139E+01    0.449E+01
RMM:   9    -0.213289136055E+03    0.10551E+02   -0.44424E+01  3674   0.103E+01    0.353E+01
RMM:  10    -0.198973081970E+03    0.14316E+02   -0.17584E+01  3681   0.696E+00    0.217E+01
RMM:  11    -0.194512891439E+03    0.44602E+01   -0.14783E+01  3681   0.613E+00    0.158E+01
RMM:  12    -0.190212172646E+03    0.43007E+01   -0.50234E+00  3680   0.355E+00    0.101E+01
RMM:  13    -0.189535088911E+03    0.67708E+00   -0.18607E+00  3681   0.210E+00    0.757E+00
RMM:  14    -0.189433921090E+03    0.10117E+00   -0.10341E+00  3682   0.148E+00    0.697E+00
RMM:  15    -0.189330756347E+03    0.10316E+00   -0.34123E-01  3681   0.903E-01    0.574E+00
RMM:  16    -0.189130054975E+03    0.20070E+00   -0.32632E-01  3681   0.887E-01    0.421E+00
RMM:  17    -0.188948185591E+03    0.18187E+00   -0.20818E-01  3680   0.695E-01    0.185E+00
RMM:  18    -0.188925592700E+03    0.22593E-01   -0.53169E-02  3681   0.349E-01    0.140E+00
RMM:  19    -0.188912673554E+03    0.12919E-01   -0.26106E-02  3683   0.247E-01    0.904E-01
RMM:  20    -0.188906412311E+03    0.62612E-02   -0.68305E-03  3682   0.123E-01    0.647E-01
RMM:  21    -0.188904695547E+03    0.17168E-02   -0.45627E-03  3680   0.106E-01    0.496E-01
RMM:  22    -0.188902461819E+03    0.22337E-02   -0.33205E-03  3679   0.855E-02    0.350E-01
RMM:  23    -0.188901298448E+03    0.11634E-02   -0.19914E-03  3683   0.650E-02    0.171E-01
RMM:  24    -0.188901286622E+03    0.11827E-04   -0.65237E-04  3681   0.381E-02    0.113E-01
RMM:  25    -0.188901393933E+03   -0.10731E-03   -0.20038E-04  3685   0.219E-02    0.614E-02
RMM:  26    -0.188901745433E+03   -0.35150E-03   -0.12643E-04  3678   0.164E-02    0.659E-02
RMM:  27    -0.188902208726E+03   -0.46329E-03   -0.79672E-05  3679   0.133E-02    0.390E-02
RMM:  28    -0.188902564386E+03   -0.35566E-03   -0.32515E-05  3672   0.820E-03    0.242E-02
RMM:  29    -0.188902920310E+03   -0.35592E-03   -0.22298E-05  3671   0.681E-03    0.206E-02
RMM:  30    -0.188903494095E+03   -0.57378E-03   -0.20853E-05  3485   0.625E-03    0.126E-02
RMM:  31    -0.188904368771E+03   -0.87468E-03   -0.66099E-05  3672   0.109E-02    0.184E-02
RMM:  32    -0.188904600275E+03   -0.23150E-03   -0.22914E-05  3302   0.590E-03    0.735E-03
RMM:  33    -0.188904718327E+03   -0.11805E-03   -0.61100E-06  2704   0.299E-03    0.669E-03
RMM:  34    -0.188904794482E+03   -0.76155E-04   -0.24879E-06  2420   0.220E-03    0.399E-03
RMM:  35    -0.188904872795E+03   -0.78312E-04   -0.15309E-06  2233   0.175E-03    0.259E-03
RMM:  36    -0.188904904665E+03   -0.31870E-04   -0.65206E-07  2141   0.113E-03    0.177E-03
RMM:  37    -0.188904937566E+03   -0.32901E-04   -0.59688E-07  2159   0.113E-03    0.151E-03
RMM:  38    -0.188904948027E+03   -0.10462E-04   -0.23597E-07  1653   0.678E-04    0.106E-03
RMM:  39    -0.188904956111E+03   -0.80834E-05   -0.22953E-07  2016   0.711E-04    0.686E-04
RMM:  40    -0.188904957233E+03   -0.11223E-05   -0.51022E-08   890   0.319E-04    0.431E-04
RMM:  41    -0.188904958010E+03   -0.77642E-06   -0.17083E-08   622   0.321E-04
   1 F= -.18890496E+03 E0= -.18877525E+03  d E =-.188905E+03
       N       E                     dE             d eps       ncg     rms          rms(c)
DAV:   1    -0.189946793536E+03   -0.10418E+01   -0.35801E+02  3672   0.290E+01    0.358E+00
RMM:   2    -0.190317037056E+03   -0.37024E+00   -0.37882E+00  3678   0.421E+00    0.220E+00
RMM:   3    -0.190449868080E+03   -0.13283E+00   -0.36607E-01  3705   0.105E+00    0.430E+00
RMM:   4    -0.190305069132E+03    0.14480E+00   -0.14827E-01  3687   0.649E-01    0.153E+00
RMM:   5    -0.190393815768E+03   -0.88747E-01   -0.92119E-02  3686   0.454E-01    0.316E+00
RMM:   6    -0.190300492060E+03    0.93324E-01   -0.62256E-02  3683   0.383E-01    0.112E+00
RMM:   7    -0.190288196354E+03    0.12296E-01   -0.19698E-02  3682   0.226E-01    0.429E-01
RMM:   8    -0.190286660553E+03    0.15358E-02   -0.52881E-03  3683   0.113E-01    0.317E-01
RMM:   9    -0.190285628983E+03    0.10316E-02   -0.20397E-03  3684   0.713E-02    0.152E-01
RMM:  10    -0.190285508551E+03    0.12043E-03   -0.69135E-04  3686   0.413E-02    0.109E-01
RMM:  11    -0.190285406112E+03    0.10244E-03   -0.19788E-04  3686   0.224E-02    0.577E-02
RMM:  12    -0.190285399856E+03    0.62556E-05   -0.56848E-05  3683   0.121E-02    0.423E-02
RMM:  13    -0.190285390546E+03    0.93103E-05   -0.26393E-05  3676   0.850E-03    0.228E-02
RMM:  14    -0.190285388811E+03    0.17342E-05   -0.10128E-05  3574   0.520E-03    0.124E-02
RMM:  15    -0.190285388197E+03    0.61433E-06   -0.33087E-06  2627   0.302E-03
   2 F= -.19028539E+03 E0= -.19015839E+03  d E =-.138043E+01
       N       E                     dE             d eps       ncg     rms          rms(c)
DAV:   1    -0.188921319037E+03    0.13641E+01   -0.33500E+03  3672   0.910E+01    0.859E+00
RMM:   2    -0.192169692004E+03   -0.32484E+01   -0.33280E+01  3679   0.126E+01    0.534E+00
RMM:   3    -0.192863485566E+03   -0.69379E+00   -0.23906E+00  3706   0.267E+00    0.101E+01
RMM:   4    -0.191982704214E+03    0.88078E+00   -0.76417E-01  3686   0.149E+00    0.363E+00
RMM:   5    -0.192497415785E+03   -0.51471E+00   -0.54345E-01  3686   0.112E+00    0.730E+00
RMM:   6    -0.192050818230E+03    0.44660E+00   -0.49014E-01  3683   0.106E+00    0.352E+00
RMM:   7    -0.191918797294E+03    0.13202E+00   -0.20161E-01  3681   0.708E-01    0.145E+00
RMM:   8    -0.191894901933E+03    0.23895E-01   -0.52987E-02  3681   0.359E-01    0.955E-01
RMM:   9    -0.191884774082E+03    0.10128E-01   -0.19557E-02  3685   0.221E-01    0.428E-01
RMM:  10    -0.191883630079E+03    0.11440E-02   -0.54111E-03  3685   0.114E-01    0.291E-01
RMM:  11    -0.191883088511E+03    0.54157E-03   -0.19330E-03  3683   0.695E-02    0.182E-01
RMM:  12    -0.191882984765E+03    0.10375E-03   -0.65334E-04  3686   0.413E-02    0.133E-01
RMM:  13    -0.191882879619E+03    0.10515E-03   -0.33154E-04  3679   0.296E-02    0.730E-02
RMM:  14    -0.191882850182E+03    0.29437E-04   -0.95206E-05  3678   0.158E-02    0.366E-02
RMM:  15    -0.191882846665E+03    0.35176E-05   -0.30132E-05  3676   0.880E-03    0.192E-02
RMM:  16    -0.191882851657E+03   -0.49921E-05   -0.82674E-06  3295   0.462E-03    0.112E-02
RMM:  17    -0.191882855545E+03   -0.38879E-05   -0.24985E-06  2339   0.264E-03    0.800E-03
RMM:  18    -0.191882862470E+03   -0.69255E-05   -0.10228E-06  2096   0.181E-03    0.492E-03
RMM:  19    -0.191882867198E+03   -0.47281E-05   -0.50691E-07  2062   0.125E-03    0.210E-03
RMM:  20    -0.191882871139E+03   -0.39408E-05   -0.17227E-07  1660   0.667E-04    0.117E-03
RMM:  21    -0.191882874491E+03   -0.33523E-05   -0.85872E-08  1156   0.491E-04    0.887E-04
RMM:  22    -0.191882880756E+03   -0.62647E-05   -0.17575E-07  1663   0.547E-04    0.699E-04
RMM:  23    -0.191882886105E+03   -0.53491E-05   -0.23610E-07  1599   0.568E-04    0.834E-04
RMM:  24    -0.191882889349E+03   -0.32445E-05   -0.20432E-07  1418   0.512E-04    0.458E-04
RMM:  25    -0.191882890692E+03   -0.13421E-05   -0.77183E-08   854   0.417E-04    0.414E-04
RMM:  26    -0.191882891463E+03   -0.77175E-06   -0.85920E-08  1094   0.444E-04
   3 F= -.19188289E+03 E0= -.19176446E+03  d E =-.297793E+01
       N       E                     dE             d eps       ncg     rms          rms(c)
DAV:   1    -0.192003130540E+03   -0.12024E+00   -0.34129E+02  3672   0.286E+01    0.250E+00
RMM:   2    -0.192370534765E+03   -0.36740E+00   -0.38089E+00  3685   0.416E+00    0.173E+00
RMM:   3    -0.192444838728E+03   -0.74304E-01   -0.28434E-01  3703   0.923E-01    0.341E+00
RMM:   4    -0.192354872689E+03    0.89966E-01   -0.74107E-02  3685   0.467E-01    0.123E+00
RMM:   5    -0.192381906690E+03   -0.27034E-01   -0.39136E-02  3689   0.301E-01    0.198E+00
RMM:   6    -0.192359619358E+03    0.22287E-01   -0.49989E-02  3683   0.342E-01    0.124E+00
RMM:   7    -0.192342475769E+03    0.17144E-01   -0.21305E-02  3683   0.233E-01    0.344E-01
RMM:   8    -0.192341341216E+03    0.11346E-02   -0.48411E-03  3682   0.110E-01    0.282E-01
RMM:   9    -0.192340182062E+03    0.11592E-02   -0.16877E-03  3681   0.651E-02    0.869E-02
RMM:  10    -0.192340143867E+03    0.38195E-04   -0.37965E-04  3684   0.297E-02    0.636E-02
RMM:  11    -0.192340098523E+03    0.45343E-04   -0.12263E-04  3685   0.173E-02    0.293E-02
RMM:  12    -0.192340106229E+03   -0.77057E-05   -0.40605E-05  3684   0.101E-02    0.328E-02
RMM:  13    -0.192340099054E+03    0.71752E-05   -0.15702E-05  3677   0.646E-03    0.153E-02
RMM:  14    -0.192340098710E+03    0.34401E-06   -0.38783E-06  2742   0.331E-03
   4 F= -.19234010E+03 E0= -.19222492E+03  d E =-.457207E+00
       N       E                     dE             d eps       ncg     rms          rms(c)
DAV:   1    -0.192337544174E+03    0.25549E-02   -0.18923E+01  3732   0.671E+00    0.526E-01
RMM:   2    -0.192358430122E+03   -0.20886E-01   -0.21485E-01  3684   0.988E-01    0.440E-01
RMM:   3    -0.192361410235E+03   -0.29801E-02   -0.16043E-02  3704   0.220E-01    0.714E-01
RMM:   4    -0.192357476445E+03    0.39338E-02   -0.35354E-03  3686   0.102E-01    0.325E-01
RMM:   5    -0.192357627848E+03   -0.15140E-03   -0.14548E-03  3690   0.587E-02    0.336E-01
RMM:   6    -0.192357404837E+03    0.22301E-03   -0.26967E-03  3682   0.800E-02    0.288E-01
RMM:   7    -0.192356561813E+03    0.84302E-03   -0.13551E-03  3684   0.587E-02    0.828E-02
RMM:   8    -0.192356510329E+03    0.51484E-04   -0.25386E-04  3682   0.256E-02    0.630E-02
RMM:   9    -0.192356447537E+03    0.62793E-04   -0.99430E-05  3682   0.158E-02    0.229E-02
RMM:  10    -0.192356443873E+03    0.36638E-05   -0.26303E-05  3680   0.780E-03    0.183E-02
RMM:  11    -0.192356440885E+03    0.29882E-05   -0.82189E-06  3661   0.441E-03    0.844E-03
RMM:  12    -0.192356441469E+03   -0.58418E-06   -0.29873E-06  2291   0.287E-03
   5 F= -.19235644E+03 E0= -.19224194E+03  d E =-.473550E+00
       N       E                     dE             d eps       ncg     rms          rms(c)
DAV:   1    -0.192370485623E+03   -0.14045E-01   -0.40987E+01  3696   0.988E+00    0.793E-01
RMM:   2    -0.192413546905E+03   -0.43061E-01   -0.46247E-01  3684   0.145E+00    0.485E-01
RMM:   3    -0.192415503865E+03   -0.19570E-02   -0.26164E-02  3709   0.288E-01    0.608E-01
RMM:   4    -0.192412795459E+03    0.27084E-02   -0.60536E-03  3682   0.135E-01    0.380E-01
RMM:   5    -0.192414084254E+03   -0.12888E-02   -0.52642E-03  3684   0.115E-01    0.510E-01
RMM:   6    -0.192412815692E+03    0.12686E-02   -0.39677E-03  3682   0.100E-01    0.344E-01
RMM:   7    -0.192411941704E+03    0.87399E-03   -0.11093E-03  3682   0.501E-02    0.194E-01
RMM:   8    -0.192411575304E+03    0.36640E-03   -0.49780E-04  3681   0.359E-02    0.893E-02
RMM:   9    -0.192411481804E+03    0.93500E-04   -0.19539E-04  3680   0.217E-02    0.431E-02
RMM:  10    -0.192411461764E+03    0.20040E-04   -0.58138E-05  3683   0.118E-02    0.248E-02
RMM:  11    -0.192411456805E+03    0.49592E-05   -0.14805E-05  3672   0.600E-03    0.129E-02
RMM:  12    -0.192411457014E+03   -0.20935E-06   -0.67609E-06  3649   0.404E-03
   6 F= -.19241146E+03 E0= -.19229732E+03  d E =-.550155E-01
       N       E                     dE             d eps       ncg     rms          rms(c)
DAV:   1    -0.192410432637E+03    0.10242E-02   -0.45917E+00  3720   0.331E+00    0.257E-01
RMM:   2    -0.192415256550E+03   -0.48239E-02   -0.51970E-02  3684   0.486E-01    0.162E-01
RMM:   3    -0.192415574865E+03   -0.31832E-03   -0.30407E-03  3709   0.980E-02    0.233E-01
RMM:   4    -0.192415145792E+03    0.42907E-03   -0.65733E-04  3682   0.446E-02    0.122E-01
RMM:   5    -0.192415348251E+03   -0.20246E-03   -0.55412E-04  3684   0.371E-02    0.177E-01
RMM:   6    -0.192415378711E+03   -0.30461E-04   -0.50418E-04  3683   0.343E-02    0.180E-01
RMM:   7    -0.192415038438E+03    0.34027E-03   -0.22793E-04  3682   0.232E-02    0.439E-02
RMM:   8    -0.192415030184E+03    0.82539E-05   -0.51074E-05  3684   0.119E-02    0.276E-02
RMM:   9    -0.192415021269E+03    0.89153E-05   -0.20798E-05  3672   0.703E-03    0.167E-02
RMM:  10    -0.192415018070E+03    0.31985E-05   -0.74350E-06  3616   0.423E-03    0.813E-03
RMM:  11    -0.192415017524E+03    0.54605E-06   -0.16850E-06  2057   0.215E-03
   7 F= -.19241502E+03 E0= -.19230106E+03  d E =-.585761E-01
       N       E                     dE             d eps       ncg     rms          rms(c)
DAV:   1    -0.192418780900E+03   -0.37628E-02   -0.77770E+00  3684   0.427E+00    0.286E-01
RMM:   2    -0.192426765651E+03   -0.79848E-02   -0.84398E-02  3684   0.624E-01    0.214E-01
RMM:   3    -0.192426905780E+03   -0.14013E-03   -0.46314E-03  3716   0.124E-01    0.214E-01
RMM:   4    -0.192426783717E+03    0.12206E-03   -0.10399E-03  3680   0.547E-02    0.216E-01
RMM:   5    -0.192427055460E+03   -0.27174E-03   -0.88682E-04  3684   0.461E-02    0.266E-01
RMM:   6    -0.192426621422E+03    0.43404E-03   -0.87164E-04  3682   0.449E-02    0.176E-01
RMM:   7    -0.192426393396E+03    0.22803E-03   -0.46599E-04  3683   0.342E-02    0.830E-02
RMM:   8    -0.192426341866E+03    0.51530E-04   -0.10806E-04  3682   0.169E-02    0.423E-02
RMM:   9    -0.192426323130E+03    0.18736E-04   -0.39965E-05  3679   0.101E-02    0.288E-02
RMM:  10    -0.192426309652E+03    0.13478E-04   -0.27366E-05  3675   0.793E-03    0.126E-02
RMM:  11    -0.192426307944E+03    0.17084E-05   -0.73028E-06  3646   0.413E-03    0.770E-03
RMM:  12    -0.192426307459E+03    0.48526E-06   -0.32729E-06  2180   0.288E-03
   8 F= -.19242631E+03 E0= -.19231249E+03  d E =-.112899E-01
       N       E                     dE             d eps       ncg     rms          rms(c)
DAV:   1    -0.192425347143E+03    0.96080E-03   -0.30917E+00  3720   0.269E+00    0.178E-01
RMM:   2    -0.192428515841E+03   -0.31687E-02   -0.33543E-02  3684   0.394E-01    0.134E-01
RMM:   3    -0.192428566973E+03   -0.51132E-04   -0.18326E-03  3716   0.778E-02    0.133E-01
RMM:   4    -0.192428527749E+03    0.39224E-04   -0.39709E-04  3680   0.338E-02    0.137E-01
RMM:   5    -0.192428632218E+03   -0.10447E-03   -0.33521E-04  3684   0.282E-02    0.169E-01
RMM:   6    -0.192428433448E+03    0.19877E-03   -0.36026E-04  3682   0.291E-02    0.103E-01
RMM:   7    -0.192428366854E+03    0.66593E-04   -0.18558E-04  3683   0.216E-02    0.534E-02
RMM:   8    -0.192428345434E+03    0.21421E-04   -0.43407E-05  3678   0.107E-02    0.271E-02
RMM:   9    -0.192428338245E+03    0.71890E-05   -0.15636E-05  3672   0.629E-03    0.190E-02
RMM:  10    -0.192428332405E+03    0.58392E-05   -0.11193E-05  3672   0.507E-03    0.781E-03
RMM:  11    -0.192428331682E+03    0.72320E-06   -0.27398E-06  2150   0.268E-03
   9 F= -.19242833E+03 E0= -.19231459E+03  d E =-.133142E-01
       N       E                     dE             d eps       ncg     rms          rms(c)
DAV:   1    -0.192429189157E+03   -0.85675E-03   -0.66995E+00  3672   0.396E+00    0.213E-01
RMM:   2    -0.192436202050E+03   -0.70129E-02   -0.72088E-02  3680   0.582E-01    0.218E-01
RMM:   3    -0.192436284777E+03   -0.82726E-04   -0.43356E-03  3780   0.119E-01    0.202E-01
RMM:   4    -0.192436158321E+03    0.12646E-03   -0.56760E-04  3676   0.400E-02    0.192E-01
RMM:   5    -0.192436091414E+03    0.66907E-04   -0.44454E-04  3687   0.323E-02    0.200E-01
RMM:   6    -0.192435829759E+03    0.26166E-03   -0.85130E-04  3682   0.452E-02    0.152E-01
RMM:   7    -0.192435753177E+03    0.76583E-04   -0.73892E-04  3683   0.427E-02    0.977E-02
RMM:   8    -0.192435706971E+03    0.46206E-04   -0.16718E-04  3683   0.207E-02    0.525E-02
RMM:   9    -0.192435683214E+03    0.23756E-04   -0.31448E-05  3682   0.904E-03    0.377E-02
RMM:  10    -0.192435662009E+03    0.21206E-04   -0.33402E-05  3682   0.882E-03    0.242E-02
RMM:  11    -0.192435653397E+03    0.86115E-05   -0.20237E-05  3673   0.678E-03    0.122E-02
RMM:  12    -0.192435651501E+03    0.18961E-05   -0.16709E-05  3678   0.598E-03    0.504E-03
RMM:  13    -0.192435651554E+03   -0.52787E-07   -0.20413E-06  2036   0.240E-03
  10 F= -.19243565E+03 E0= -.19232191E+03  d E =-.731987E-02
       N       E                     dE             d eps       ncg     rms          rms(c)
DAV:   1    -0.192431653884E+03    0.39976E-02   -0.73675E+00  3672   0.415E+00    0.221E-01
RMM:   2    -0.192439359700E+03   -0.77058E-02   -0.79145E-02  3680   0.610E-01    0.228E-01
RMM:   3    -0.192439454230E+03   -0.94530E-04   -0.47571E-03  3783   0.124E-01    0.213E-01
RMM:   4    -0.192439299839E+03    0.15439E-03   -0.60705E-04  3676   0.414E-02    0.199E-01
RMM:   5    -0.192439216120E+03    0.83720E-04   -0.47258E-04  3687   0.334E-02    0.206E-01
RMM:   6    -0.192438942834E+03    0.27329E-03   -0.93291E-04  3682   0.473E-02    0.160E-01
RMM:   7    -0.192438854273E+03    0.88561E-04   -0.83311E-04  3683   0.453E-02    0.102E-01
RMM:   8    -0.192438805875E+03    0.48398E-04   -0.18746E-04  3683   0.219E-02    0.557E-02
RMM:   9    -0.192438779219E+03    0.26655E-04   -0.34728E-05  3683   0.950E-03    0.402E-02
RMM:  10    -0.192438755113E+03    0.24106E-04   -0.37047E-05  3683   0.929E-03    0.257E-02
RMM:  11    -0.192438745431E+03    0.96820E-05   -0.23003E-05  3673   0.723E-03    0.130E-02
RMM:  12    -0.192438743363E+03    0.20683E-05   -0.19437E-05  3681   0.646E-03    0.514E-03
RMM:  13    -0.192438743464E+03   -0.10141E-06   -0.22237E-06  2065   0.251E-03
  11 F= -.19243874E+03 E0= -.19232497E+03  d E =-.104118E-01
       N       E                     dE             d eps       ncg     rms          rms(c)
DAV:   1    -0.192436230098E+03    0.25133E-02   -0.73853E+00  3672   0.419E+00    0.216E-01
RMM:   2    -0.192444393898E+03   -0.81638E-02   -0.83232E-02  3683   0.619E-01    0.256E-01
RMM:   3    -0.192444798971E+03   -0.40507E-03   -0.54017E-03  3728   0.129E-01    0.294E-01
RMM:   4    -0.192444099997E+03    0.69897E-03   -0.74481E-04  3673   0.454E-02    0.182E-01
RMM:   5    -0.192443877211E+03    0.22279E-03   -0.28224E-04  3688   0.274E-02    0.144E-01
RMM:   6    -0.192443808061E+03    0.69149E-04   -0.59902E-04  3682   0.377E-02    0.155E-01
RMM:   7    -0.192443670396E+03    0.13767E-03   -0.95703E-04  3682   0.479E-02    0.854E-02
RMM:   8    -0.192443657314E+03    0.13081E-04   -0.23045E-04  3682   0.239E-02    0.511E-02
RMM:   9    -0.192443633882E+03    0.23433E-04   -0.33942E-05  3682   0.948E-03    0.362E-02
RMM:  10    -0.192443613335E+03    0.20547E-04   -0.31955E-05  3681   0.861E-03    0.231E-02
RMM:  11    -0.192443606578E+03    0.67570E-05   -0.16412E-05  3672   0.609E-03    0.127E-02
RMM:  12    -0.192443605145E+03    0.14323E-05   -0.14928E-05  3674   0.568E-03    0.651E-03
RMM:  13    -0.192443605103E+03    0.42906E-07   -0.24009E-06  2120   0.256E-03
  12 F= -.19244361E+03 E0= -.19232944E+03  d E =-.486164E-02
       N       E                     dE             d eps       ncg     rms          rms(c)
DAV:   1    -0.192443318119E+03    0.28703E-03   -0.57817E-01  3744   0.117E+00    0.598E-02
RMM:   2    -0.192443951459E+03   -0.63334E-03   -0.65001E-03  3683   0.173E-01    0.721E-02
RMM:   3    -0.192443977468E+03   -0.26009E-04   -0.42118E-04  3732   0.360E-02    0.814E-02
RMM:   4    -0.192443923407E+03    0.54061E-04   -0.56659E-05  3673   0.126E-02    0.506E-02
RMM:   5    -0.192443908419E+03    0.14988E-04   -0.21225E-05  3686   0.754E-03    0.404E-02
RMM:   6    -0.192443905444E+03    0.29746E-05   -0.47413E-05  3681   0.106E-02    0.435E-02
RMM:   7    -0.192443896967E+03    0.84779E-05   -0.76976E-05  3672   0.136E-02    0.241E-02
RMM:   8    -0.192443896584E+03    0.38267E-06   -0.18498E-05  3672   0.679E-03    0.146E-02
RMM:   9    -0.192443894776E+03    0.18083E-05   -0.25120E-06  2333   0.268E-03    0.103E-02
RMM:  10    -0.192443893034E+03    0.17414E-05   -0.24587E-06  1975   0.264E-03    0.656E-03
RMM:  11    -0.192443892552E+03    0.48208E-06   -0.15425E-06  1937   0.223E-03
  13 F= -.19244389E+03 E0= -.19232961E+03  d E =-.514909E-02
       N       E                     dE             d eps       ncg     rms          rms(c)
DAV:   1    -0.192440752532E+03    0.31405E-02   -0.62863E+00  3672   0.387E+00    0.199E-01
RMM:   2    -0.192447931713E+03   -0.71792E-02   -0.71333E-02  3682   0.572E-01    0.265E-01
RMM:   3    -0.192448071850E+03   -0.14014E-03   -0.48324E-03  3721   0.121E-01    0.264E-01
RMM:   4    -0.192447552487E+03    0.51936E-03   -0.65813E-04  3676   0.426E-02    0.181E-01
RMM:   5    -0.192447302639E+03    0.24985E-03   -0.15738E-04  3688   0.210E-02    0.118E-01
RMM:   6    -0.192447269154E+03    0.33484E-04   -0.32594E-04  3681   0.281E-02    0.134E-01
RMM:   7    -0.192447150666E+03    0.11849E-03   -0.93466E-04  3679   0.469E-02    0.731E-02
RMM:   8    -0.192447148430E+03    0.22359E-05   -0.22116E-04  3679   0.231E-02    0.453E-02
RMM:   9    -0.192447132494E+03    0.15936E-04   -0.25617E-05  3684   0.830E-03    0.311E-02
RMM:  10    -0.192447120148E+03    0.12346E-04   -0.17087E-05  3672   0.642E-03    0.217E-02
RMM:  11    -0.192447114213E+03    0.59350E-05   -0.13270E-05  3672   0.550E-03    0.117E-02
RMM:  12    -0.192447113180E+03    0.10326E-05   -0.11852E-05  3673   0.510E-03    0.676E-03
RMM:  13    -0.192447113080E+03    0.10052E-06   -0.21879E-06  2080   0.242E-03
  14 F= -.19244711E+03 E0= -.19233249E+03  d E =-.322053E-02
       N       E                     dE             d eps       ncg     rms          rms(c)
DAV:   1    -0.192446460516E+03    0.65266E-03   -0.10545E+00  3684   0.159E+00    0.810E-02
RMM:   2    -0.192447652499E+03   -0.11920E-02   -0.11929E-02  3682   0.234E-01    0.109E-01
RMM:   3    -0.192447667582E+03   -0.15083E-04   -0.80786E-04  3722   0.494E-02    0.107E-01
RMM:   4    -0.192447582072E+03    0.85510E-04   -0.10847E-04  3677   0.173E-02    0.737E-02
RMM:   5    -0.192447543628E+03    0.38445E-04   -0.25764E-05  3683   0.854E-03    0.487E-02
RMM:   6    -0.192447542363E+03    0.12647E-05   -0.56711E-05  3679   0.117E-02    0.554E-02
RMM:   7    -0.192447527783E+03    0.14580E-04   -0.15943E-04  3678   0.194E-02    0.299E-02
RMM:   8    -0.192447528722E+03   -0.93882E-06   -0.36988E-05  3678   0.947E-03    0.189E-02
RMM:   9    -0.192447526030E+03    0.26921E-05   -0.42122E-06  2790   0.343E-03    0.128E-02
RMM:  10    -0.192447523856E+03    0.21740E-05   -0.27564E-06  2173   0.277E-03    0.906E-03
RMM:  11    -0.192447522871E+03    0.98524E-06   -0.24219E-06  1975   0.273E-03
  15 F= -.19244752E+03 E0= -.19233275E+03  d E =-.363032E-02
       N       E                     dE             d eps       ncg     rms          rms(c)
DAV:   1    -0.192445619750E+03    0.19041E-02   -0.41125E+00  3672   0.313E+00    0.161E-01
RMM:   2    -0.192450330364E+03   -0.47106E-02   -0.47199E-02  3679   0.462E-01    0.219E-01
RMM:   3    -0.192450214100E+03    0.11626E-03   -0.31762E-03  3717   0.981E-02    0.175E-01
RMM:   4    -0.192450020595E+03    0.19351E-03   -0.33679E-04  3681   0.318E-02    0.125E-01
RMM:   5    -0.192449962516E+03    0.58079E-04   -0.10475E-04  3684   0.165E-02    0.114E-01
RMM:   6    -0.192449943727E+03    0.18788E-04   -0.21381E-04  3679   0.226E-02    0.122E-01
RMM:   7    -0.192449841574E+03    0.10215E-03   -0.66694E-04  3678   0.396E-02    0.550E-02
RMM:   8    -0.192449848305E+03   -0.67313E-05   -0.13943E-04  3678   0.183E-02    0.369E-02
RMM:   9    -0.192449837930E+03    0.10376E-04   -0.13988E-05  3672   0.624E-03    0.259E-02
RMM:  10    -0.192449830165E+03    0.77646E-05   -0.88492E-06  3625   0.465E-03    0.193E-02
RMM:  11    -0.192449824047E+03    0.61176E-05   -0.13156E-05  3673   0.546E-03    0.942E-03
RMM:  12    -0.192449823235E+03    0.81222E-06   -0.92120E-06  3667   0.448E-03
  16 F= -.19244982E+03 E0= -.19233495E+03  d E =-.230036E-02
       N       E                     dE             d eps       ncg     rms          rms(c)
DAV:   1    -0.192449389281E+03    0.43477E-03   -0.73575E-01  3708   0.132E+00    0.676E-02
RMM:   2    -0.192450224455E+03   -0.83517E-03   -0.84042E-03  3680   0.195E-01    0.939E-02
RMM:   3    -0.192450195028E+03    0.29427E-04   -0.56344E-04  3717   0.414E-02    0.728E-02
RMM:   4    -0.192450162866E+03    0.32162E-04   -0.57704E-05  3679   0.132E-02    0.527E-02
RMM:   5    -0.192450154721E+03    0.81447E-05   -0.18156E-05  3678   0.689E-03    0.488E-02
RMM:   6    -0.192450154834E+03   -0.11222E-06   -0.40574E-05  3676   0.984E-03    0.530E-02
RMM:   7    -0.192450140186E+03    0.14647E-04   -0.12518E-04  3677   0.171E-02    0.233E-02
RMM:   8    -0.192450142413E+03   -0.22266E-05   -0.25158E-05  3672   0.778E-03    0.163E-02
RMM:   9    -0.192450140490E+03    0.19225E-05   -0.24695E-06  2299   0.272E-03    0.115E-02
RMM:  10    -0.192450139047E+03    0.14431E-05   -0.15037E-06  1954   0.215E-03    0.887E-03
RMM:  11    -0.192450137796E+03    0.12508E-05   -0.24904E-06  2001   0.267E-03    0.470E-03
RMM:  12    -0.192450137613E+03    0.18331E-06   -0.22308E-06  1953   0.256E-03
  17 F= -.19245014E+03 E0= -.19233522E+03  d E =-.261474E-02
       N       E                     dE             d eps       ncg     rms          rms(c)
DAV:   1    -0.192447289022E+03    0.28488E-02   -0.46182E+00  3672   0.331E+00    0.166E-01
RMM:   2    -0.192452628896E+03   -0.53399E-02   -0.53074E-02  3680   0.490E-01    0.236E-01
RMM:   3    -0.192452436188E+03    0.19271E-03   -0.35826E-03  3721   0.104E-01    0.172E-01
RMM:   4    -0.192452281095E+03    0.15509E-03   -0.36889E-04  3679   0.330E-02    0.140E-01
RMM:   5    -0.192452187311E+03    0.93784E-04   -0.12209E-04  3687   0.178E-02    0.122E-01
RMM:   6    -0.192452168346E+03    0.18965E-04   -0.25335E-04  3683   0.246E-02    0.135E-01
RMM:   7    -0.192452043881E+03    0.12446E-03   -0.84065E-04  3679   0.444E-02    0.570E-02
RMM:   8    -0.192452053184E+03   -0.93030E-05   -0.14936E-04  3679   0.189E-02    0.404E-02
RMM:   9    -0.192452041018E+03    0.12167E-04   -0.13239E-05  3672   0.611E-03    0.292E-02
RMM:  10    -0.192452032134E+03    0.88837E-05   -0.94516E-06  3600   0.480E-03    0.222E-02
RMM:  11    -0.192452023133E+03    0.90014E-05   -0.25806E-05  3675   0.756E-03    0.850E-03
RMM:  12    -0.192452022873E+03    0.25933E-06   -0.80593E-06  3535   0.421E-03
  18 F= -.19245202E+03 E0= -.19233689E+03  d E =-.188526E-02
       N       E                     dE             d eps       ncg     rms          rms(c)
DAV:   1    -0.192451792823E+03    0.23031E-03   -0.41006E-01  3720   0.987E-01    0.488E-02
RMM:   2    -0.192452260485E+03   -0.46766E-03   -0.46822E-03  3680   0.146E-01    0.715E-02
RMM:   3    -0.192452236925E+03    0.23561E-04   -0.31393E-04  3724   0.309E-02    0.506E-02
RMM:   4    -0.192452224341E+03    0.12584E-04   -0.30840E-05  3679   0.960E-03    0.412E-02
RMM:   5    -0.192452218344E+03    0.59975E-05   -0.10195E-05  3622   0.518E-03    0.372E-02
RMM:   6    -0.192452219293E+03   -0.94927E-06   -0.23749E-05  3673   0.753E-03    0.414E-02
RMM:   7    -0.192452212097E+03    0.71958E-05   -0.81250E-05  3677   0.138E-02    0.173E-02
RMM:   8    -0.192452213474E+03   -0.13768E-05   -0.13650E-05  3664   0.573E-03    0.126E-02
RMM:   9    -0.192452212325E+03    0.11485E-05   -0.11625E-06  1996   0.190E-03    0.920E-03
RMM:  10    -0.192452211481E+03    0.84436E-06   -0.80344E-07  1941   0.159E-03
  19 F= -.19245221E+03 E0= -.19233701E+03  d E =-.207387E-02
       N       E                     dE             d eps       ncg     rms          rms(c)
DAV:   1    -0.192450072618E+03    0.21397E-02   -0.32106E+00  3672   0.277E+00    0.138E-01
RMM:   2    -0.192453623229E+03   -0.35506E-02   -0.36431E-02  3680   0.407E-01    0.157E-01
RMM:   3    -0.192453701537E+03   -0.78308E-04   -0.23349E-03  3726   0.843E-02    0.163E-01
RMM:   4    -0.192453540740E+03    0.16080E-03   -0.30086E-04  3675   0.289E-02    0.124E-01
RMM:   5    -0.192453420823E+03    0.11992E-03   -0.93827E-05  3687   0.159E-02    0.840E-02
RMM:   6    -0.192453406356E+03    0.14467E-04   -0.36358E-04  3681   0.294E-02    0.933E-02
RMM:   7    -0.192453370192E+03    0.36164E-04   -0.33935E-04  3683   0.283E-02    0.476E-02
RMM:   8    -0.192453372852E+03   -0.26603E-05   -0.56464E-05  3682   0.119E-02    0.360E-02
RMM:   9    -0.192453362006E+03    0.10847E-04   -0.10117E-05  3630   0.521E-03    0.218E-02
RMM:  10    -0.192453357138E+03    0.48682E-05   -0.69461E-06  3336   0.411E-03    0.166E-02
RMM:  11    -0.192453352711E+03    0.44268E-05   -0.15189E-05  3674   0.583E-03    0.619E-03
RMM:  12    -0.192453352565E+03    0.14581E-06   -0.29721E-06  2312   0.275E-03
  20 F= -.19245335E+03 E0= -.19233798E+03  d E =-.114108E-02
       N       E                     dE             d eps       ncg     rms          rms(c)
DAV:   1    -0.192453336534E+03    0.16177E-04   -0.40577E-02  3744   0.311E-01    0.150E-02
RMM:   2    -0.192453381310E+03   -0.44776E-04   -0.45535E-04  3680   0.459E-02    0.203E-02
RMM:   3    -0.192453380639E+03    0.67167E-06   -0.29485E-05  3718   0.946E-03    0.194E-02
RMM:   4    -0.192453377821E+03    0.28171E-05   -0.31258E-06  2457   0.314E-03    0.132E-02
RMM:   5    -0.192453376970E+03    0.85187E-06   -0.10343E-06  1975   0.196E-03
  21 F= -.19245338E+03 E0= -.19233798E+03  d E =-.116549E-02
       N       E                     dE             d eps       ncg     rms          rms(c)
DAV:   1    -0.192452016648E+03    0.13612E-02   -0.20016E+00  3672   0.219E+00    0.105E-01
RMM:   2    -0.192454133805E+03   -0.21172E-02   -0.22010E-02  3679   0.320E-01    0.109E-01
RMM:   3    -0.192454182293E+03   -0.48487E-04   -0.13509E-03  3732   0.650E-02    0.121E-01
RMM:   4    -0.192454083057E+03    0.99236E-04   -0.15799E-04  3675   0.216E-02    0.863E-02
RMM:   5    -0.192454045253E+03    0.37803E-04   -0.43601E-05  3685   0.107E-02    0.700E-02
RMM:   6    -0.192454046170E+03   -0.91629E-06   -0.16527E-04  3681   0.199E-02    0.841E-02
RMM:   7    -0.192454002918E+03    0.43252E-04   -0.26492E-04  3678   0.251E-02    0.307E-02
RMM:   8    -0.192454013163E+03   -0.10245E-04   -0.41643E-05  3677   0.102E-02    0.289E-02
RMM:   9    -0.192454005832E+03    0.73308E-05   -0.68576E-06  3091   0.434E-03    0.177E-02
RMM:  10    -0.192454002710E+03    0.31222E-05   -0.44965E-06  2822   0.339E-03    0.134E-02
RMM:  11    -0.192453999867E+03    0.28431E-05   -0.98789E-06  3672   0.485E-03    0.467E-03
RMM:  12    -0.192453999808E+03    0.58404E-07   -0.22807E-06  2021   0.246E-03
  22 F= -.19245400E+03 E0= -.19233859E+03  d E =-.622839E-03
