 vasp.5.4.1 24Jun15 (build Mar 14 2019 10:18:33) complex                        
  
 executed on INTEL-19.0.2+OPENMPI date 2022.07.15  18:19:52
 running on   36 total cores
 distrk:  each k-point on   36 cores,    1 groups
 distr:  one band on NCORES_PER_BAND=   6 cores,    6 groups


--------------------------------------------------------------------------------------------------------


 INCAR:
 POTCAR:    PAW_PBE Au 04Oct2007                  
 POTCAR:    PAW_PBE Pd 04Jan2005                  
 POTCAR:    PAW_PBE Au 04Oct2007                  
  local pseudopotential read in
  partial core-charges read in
  partial kinetic energy density read in
  atomic valenz-charges read in
  non local Contribution for L=           2  read in
    real space projection operators read in
  non local Contribution for L=           2  read in
    real space projection operators read in
  non local Contribution for L=           0  read in
    real space projection operators read in
  non local Contribution for L=           0  read in
    real space projection operators read in
  non local Contribution for L=           1  read in
    real space projection operators read in
  non local Contribution for L=           1  read in
    real space projection operators read in
    PAW grid and wavefunctions read in
 
   number of l-projection  operators is LMAX  =           6
   number of lm-projection operators is LMMAX =          18
 
 POTCAR:    PAW_PBE Pd 04Jan2005                  
  local pseudopotential read in
  partial core-charges read in
  partial kinetic energy density read in
  atomic valenz-charges read in
  non local Contribution for L=           2  read in
    real space projection operators read in
  non local Contribution for L=           2  read in
    real space projection operators read in
  non local Contribution for L=           0  read in
    real space projection operators read in
  non local Contribution for L=           0  read in
    real space projection operators read in
  non local Contribution for L=           1  read in
    real space projection operators read in
  non local Contribution for L=           1  read in
    real space projection operators read in
    PAW grid and wavefunctions read in
 
   number of l-projection  operators is LMAX  =           6
   number of lm-projection operators is LMMAX =          18
 
 Optimization of the real space projectors (new method)

 maximal supplied QI-value         = 15.12
 optimisation between [QCUT,QGAM] = [ 10.13, 20.41] = [ 28.73,116.64] Ry 
 Optimized for a Real-space Cutoff    1.51 Angstroem

   l    n(q)    QCUT    max X(q) W(low)/X(q) W(high)/X(q)  e(spline) 
   2      8    10.129    60.898    0.46E-03    0.46E-03    0.14E-06
   2      8    10.129    58.894    0.47E-03    0.47E-03    0.14E-06
   0      9    10.129   109.617    0.16E-03    0.11E-03    0.54E-07
   0      9    10.129    75.026    0.15E-03    0.11E-03    0.52E-07
   1      9    10.129    16.344    0.96E-04    0.15E-03    0.14E-06
   1      9    10.129    10.160    0.81E-04    0.12E-03    0.11E-06
 Optimization of the real space projectors (new method)

 maximal supplied QI-value         = 14.36
 optimisation between [QCUT,QGAM] = [ 10.20, 20.39] = [ 29.12,116.47] Ry 
 Optimized for a Real-space Cutoff    1.51 Angstroem

   l    n(q)    QCUT    max X(q) W(low)/X(q) W(high)/X(q)  e(spline) 
   2      8    10.197    59.108    0.26E-03    0.14E-03    0.96E-07
   2      8    10.197    58.101    0.27E-03    0.14E-03    0.98E-07
   0      9    10.197   102.235    0.54E-04    0.60E-05    0.72E-07
   0      9    10.197    58.388    0.52E-04    0.60E-05    0.68E-07
   1      9    10.197    22.191    0.18E-03    0.25E-03    0.79E-07
   1      9    10.197    15.590    0.15E-03    0.21E-03    0.69E-07
  PAW_PBE Au 04Oct2007                  :
 energy of atom  1       EATOM= -926.0867
 kinetic energy error for atom=    0.0062 (will be added to EATOM!!)
  PAW_PBE Pd 04Jan2005                  :
 energy of atom  2       EATOM= -809.7530
 kinetic energy error for atom=    0.0091 (will be added to EATOM!!)
 
 
 POSCAR: Au Pd                                   
  positions in cartesian coordinates
  No initial velocities read in
 exchange correlation table for  LEXCH =        8
   RHO(1)=    0.500       N(1)  =     2000
   RHO(2)=  100.500       N(2)  =     4000

 VTST: version 3.2, (02/03/18)

 CHAIN: initializing optimizer
 
 OPT: Using VASP Conjugate-Gradient optimizer
 CHAIN: Read ICHAIN            0
 
 POSCAR: Au Pd                                   
  positions in cartesian coordinates
  No initial velocities read in
 


--------------------------------------------------------------------------------------------------------


 ion  position               nearest neighbor table
   1  0.083  0.083  0.408-  12 2.75  17 2.75  22 2.75  27 2.75  38 2.75  20 2.75   7 2.75  37 2.75
                            15 2.75
   2  0.500  0.250  0.592-  47 2.75   8 2.75  26 2.75  30 2.75  35 2.75   9 2.75  10 2.75  32 2.75
                            36 2.75
   3  0.417  0.917  0.500-  38 2.75   4 2.75  43 2.75  23 2.75  36 2.75  12 2.75  13 2.75   6 2.75
                            37 2.75  20 2.75  29 2.75  35 2.75
   4  0.500  0.750  0.592-   3 2.75  23 2.75  25 2.75  30 2.75  35 2.75  43 2.75  33 2.75  48 2.75
                            13 2.75
   5  0.583  0.083  0.408-   8 2.75  19 2.75  29 2.75  34 2.75  42 2.75  20 2.75   7 2.75   6 2.75
                            36 2.75
   6  0.667  0.917  0.500-  29 2.75  48 2.75  35 2.75  23 2.75  36 2.75  45 2.75   8 2.75   3 2.75
                            44 2.75   5 2.75  19 2.75  26 2.75
   7  0.833  0.083  0.408-  15 2.75  19 2.75  22 2.75  27 2.75  34 2.75   5 2.75   1 2.75  44 2.75
                             8 2.75
   8  0.667  0.167  0.500-   5 2.75  26 2.75   2 2.75   6 2.75  28 2.75  44 2.75  47 2.75  15 2.75
                            36 2.75  34 2.75   7 2.75  32 2.75
   9  0.250  0.500  0.592-  39 2.75  47 2.75  14 2.75  33 2.75   2 2.75  10 2.75  30 2.75  24 2.75
                            41 2.75
  10  0.250  0.250  0.592-  41 2.75  36 2.75  35 2.75   9 2.75  24 2.75  43 2.75   2 2.75  46 2.75
                            12 2.75
  11  0.583  0.583  0.408-  23 2.75  27 2.75  29 2.75  34 2.75  38 2.75  31 2.75  40 2.75  28 2.75
                            13 2.75
  12  0.167  0.167  0.500-   1 2.75  43 2.75  46 2.75  37 2.75  41 2.75   3 2.75  18 2.75  15 2.75
                            36 2.75  17 2.75  20 2.75  10 2.75
  13  0.417  0.667  0.500-  40 2.75  30 2.75  33 2.75  28 2.75  37 2.75   3 2.75  47 2.75  23 2.75
                            39 2.75  38 2.75  11 2.75   4 2.75
  14  0.000  0.750  0.592-  44 2.75  39 2.75  24 2.75  26 2.75   9 2.75  16 2.75  33 2.75  48 2.75
                            45 2.75
  15  0.917  0.167  0.500-   7 2.75  16 2.75  32 2.75  28 2.75  18 2.75  37 2.75  44 2.75   8 2.75
                            12 2.75  27 2.75   1 2.75  46 2.75
  16  0.000  0.000  0.592-  15 2.75  37 2.75  32 2.75  33 2.75  14 2.75  46 2.75  43 2.75  26 2.75
                            44 2.75
  17  0.083  0.333  0.408-  41 2.75  20 2.75  21 2.75  31 2.75   1 2.75  27 2.75  42 2.75  12 2.75
                            18 2.75
  18  0.917  0.417  0.500-  27 2.75  46 2.75  25 2.75  12 2.75  15 2.75  45 2.75  23 2.75  28 2.75
                            41 2.75  31 2.75  24 2.75  17 2.75
  19  0.833  0.833  0.408-  44 2.75   7 2.75  21 2.75  31 2.75   5 2.75  22 2.75  29 2.75  45 2.75
                             6 2.75
  20  0.333  0.083  0.408-  36 2.75  29 2.75  17 2.75  38 2.75  42 2.75   5 2.75   1 2.75   3 2.75
                            12 2.75
  21  0.083  0.583  0.408-  39 2.75  19 2.75  22 2.75  17 2.75  42 2.75  40 2.75  31 2.75  41 2.75
                            45 2.75
  22  0.083  0.833  0.408-  37 2.75   7 2.75  21 2.75   1 2.75  40 2.75  38 2.75  19 2.75  39 2.75
                            44 2.75
  23  0.667  0.667  0.500-  11 2.75  25 2.75   4 2.75   3 2.75  18 2.75   6 2.75  28 2.75  13 2.75
                            45 2.75  29 2.75  31 2.75  48 2.75
  24  0.000  0.500  0.592-  45 2.75  41 2.75  10 2.75  14 2.75  46 2.75  48 2.75   9 2.75  25 2.75
                            18 2.75
  25  0.750  0.500  0.592-  23 2.75  18 2.75   4 2.75  32 2.75  46 2.75  48 2.75  30 2.75  24 2.75
                            28 2.75
  26  0.750  0.000  0.592-   8 2.75  44 2.75  14 2.75  32 2.75   2 2.75  48 2.75  16 2.75  35 2.75
                             6 2.75
  27  0.833  0.333  0.408-  18 2.75   7 2.75  11 2.75   1 2.75  31 2.75  17 2.75  34 2.75  15 2.75
                            28 2.75
  28  0.667  0.417  0.500-  34 2.75  32 2.75  30 2.75  23 2.75   8 2.75  13 2.75  15 2.75  18 2.75
                            47 2.75  11 2.75  25 2.75  27 2.75
  29  0.583  0.833  0.408-   6 2.75   5 2.75  11 2.75  20 2.75  31 2.75  19 2.75  38 2.75  23 2.75
                             3 2.75
  30  0.500  0.500  0.592-  13 2.75  28 2.75   2 2.75   4 2.75  32 2.75  33 2.75  25 2.75   9 2.75
                            47 2.75
  31  0.833  0.583  0.408-  45 2.75  19 2.75  27 2.75  29 2.75  17 2.75  21 2.75  11 2.75  18 2.75
                            23 2.75
  32  0.750  0.250  0.592-  28 2.75  15 2.75  25 2.75  26 2.75  16 2.75  30 2.75   2 2.75  46 2.75
                             8 2.75
  33  0.250  0.750  0.592-  37 2.75  13 2.75  16 2.75  30 2.75   9 2.75  43 2.75   4 2.75  14 2.75
                            39 2.75
  34  0.583  0.333  0.408-  28 2.75   7 2.75  11 2.75   5 2.75  40 2.75  27 2.75  42 2.75   8 2.75
                            47 2.75
  35  0.500  0.000  0.592-  36 2.75   6 2.75   2 2.75  10 2.75   4 2.75  48 2.75  43 2.75  26 2.75
                             3 2.75
  36  0.417  0.167  0.500-  20 2.75  35 2.75  10 2.75   6 2.75   3 2.75  41 2.75  47 2.75   8 2.75
                            12 2.75  42 2.75   5 2.75   2 2.75
  37  0.167  0.917  0.500-  22 2.75  33 2.75  16 2.75  12 2.75  13 2.75  15 2.75  39 2.75   3 2.75
                            44 2.75   1 2.75  43 2.75  38 2.75
  38  0.333  0.833  0.408-   3 2.75   1 2.75  11 2.75  20 2.75  40 2.75  29 2.75  22 2.75  13 2.75
                            37 2.75
  39  0.167  0.667  0.500-  21 2.75   9 2.75  14 2.75  37 2.75  41 2.75  44 2.75  47 2.75  45 2.75
                            13 2.75  22 2.75  33 2.75  40 2.75
  40  0.333  0.583  0.408-  13 2.75  22 2.75  34 2.75  38 2.75  42 2.75  11 2.75  21 2.75  47 2.75
                            39 2.75
  41  0.167  0.417  0.500-  17 2.75  10 2.75  24 2.75  12 2.75  36 2.75  39 2.75  45 2.75  18 2.75
                            47 2.75  21 2.75   9 2.75  42 2.75
  42  0.333  0.333  0.408-  47 2.75  20 2.75  21 2.75  40 2.75   5 2.75  17 2.75  34 2.75  36 2.75
                            41 2.75
  43  0.250  0.000  0.592-  12 2.75   3 2.75  10 2.75   4 2.75  33 2.75  46 2.75  35 2.75  16 2.75
                            37 2.75
  44  0.917  0.917  0.500-  19 2.75  14 2.75  26 2.75   8 2.75  15 2.75  39 2.75  45 2.75   6 2.75
                            37 2.75   7 2.75  16 2.75  22 2.75
  45  0.917  0.667  0.500-  31 2.75  24 2.75  48 2.75  18 2.75  41 2.75  44 2.75   6 2.75  39 2.75
                            23 2.75  19 2.75  21 2.75  14 2.75
  46  0.000  0.250  0.592-  18 2.75  12 2.75  16 2.75  24 2.75  25 2.75  43 2.75  32 2.75  10 2.75
                            15 2.75
  47  0.417  0.417  0.500-  42 2.75   2 2.75   9 2.75  13 2.75  36 2.75  39 2.75   8 2.75  41 2.75
                            28 2.75  40 2.75  34 2.75  30 2.75
  48  0.750  0.750  0.592-   6 2.75  45 2.75  25 2.75  26 2.75  35 2.75  24 2.75  14 2.75   4 2.75
                            23 2.75
 
  LATTYP: Found a hexagonal cell.
 ALAT       =    11.0025815153
 C/A-ratio  =     2.2260035120
  
  Lattice vectors:
  
 A1 = (   5.5012907576,  -9.5285150994,   0.0000000000)
 A2 = ( -11.0025815153,   0.0000000000,   0.0000000000)
 A3 = (   0.0000000000,   0.0000000000, -24.4917850943)


Analysis of symmetry for initial positions (statically):
=====================================================================
 Subroutine PRICEL returns:
 Original cell was already a primitive cell.
 

 Routine SETGRP: Setting up the symmetry group for a 
 hexagonal supercell.


 Subroutine GETGRP returns: Found  1 space group operations
 (whereof  1 operations were pure point group operations)
 out of a pool of 24 trial point group operations.


The static configuration has the point symmetry C_1 .


Analysis of symmetry for dynamics (positions and initial velocities):
=====================================================================
 Subroutine PRICEL returns:
 Original cell was already a primitive cell.
 

 Routine SETGRP: Setting up the symmetry group for a 
 hexagonal supercell.


 Subroutine GETGRP returns: Found  1 space group operations
 (whereof  1 operations were pure point group operations)
 out of a pool of 24 trial point group operations.


The dynamic configuration has the point symmetry C_1 .
 
 
 KPOINTS: Automatic mesh                          

Automatic generation of k-mesh.
Space group operators:
 irot       det(A)        alpha          n_x          n_y          n_z        tau_x        tau_y        tau_z
    1     1.000000     0.000000     1.000000     0.000000     0.000000     0.000000     0.000000     0.000000
 
 Subroutine IBZKPT returns following result:
 ===========================================
 
 Found      6 irreducible k-points:
 
 Following reciprocal coordinates:
            Coordinates               Weight
  0.250000  0.250000  0.000000     16.000000
  0.000000  0.250000  0.000000     16.000000
 -0.250000  0.000000  0.000000     16.000000
 -0.250000  0.250000  0.000000     16.000000
  0.500000 -0.250000  0.000000     16.000000
 -0.250000  0.500000  0.000000     16.000000
 
 Following cartesian coordinates:
            Coordinates               Weight
  0.022722  0.013119  0.000000     16.000000
  0.000000  0.026237  0.000000     16.000000
 -0.022722  0.013119  0.000000     16.000000
 -0.022722  0.039356  0.000000     16.000000
  0.045444 -0.052474  0.000000     16.000000
 -0.022722  0.065593  0.000000     16.000000
 


--------------------------------------------------------------------------------------------------------




 Dimension of arrays:
   k-points           NKPTS =      6   k-points in BZ     NKDIM =      6   number of bands    NBANDS=    306
   number of dos      NEDOS =    301   number of ions     NIONS =     48
   non local maximal  LDIM  =      6   non local SUM 2l+1 LMDIM =     18
   total plane-waves  NPLWV = 349920
   max r-space proj   IRMAX =   2009   max aug-charges    IRDMAX=   8532
   dimension x,y,z NGX =    54 NGY =   54 NGZ =  120
   dimension x,y,z NGXF=   108 NGYF=  108 NGZF=  240
   support grid    NGXF=   108 NGYF=  108 NGZF=  240
   ions per type =              24  24
 NGX,Y,Z   is equivalent  to a cutoff of   8.16,  8.16,  8.15 a.u.
 NGXF,Y,Z  is equivalent  to a cutoff of  16.32, 16.32, 16.29 a.u.


 I would recommend the setting:
   dimension x,y,z NGX =    54 NGY =   54 NGZ =  120
 SYSTEM =  unknown system                          
 POSCAR =  Au Pd                                   

 Startparameter for this run:
   NWRITE =      1    write-flag & timer
   PREC   = normal    normal or accurate (medium, high low for compatibility)
   ISTART =      0    job   : 0-new  1-cont  2-samecut
   ICHARG =      2    charge: 1-file 2-atom 10-const
   ISPIN  =      1    spin polarized calculation?
   LNONCOLLINEAR =      F non collinear calculations
   LSORBIT =      F    spin-orbit coupling
   INIWAV =      1    electr: 0-lowe 1-rand  2-diag
   LASPH  =      F    aspherical Exc in radial PAW
   METAGGA=      F    non-selfconsistent MetaGGA calc.

 Electronic Relaxation 1
   ENCUT  =  400.0 eV  29.40 Ry    5.42 a.u.  17.94 17.94 39.94*2*pi/ulx,y,z
   ENINI  =  400.0     initial cutoff
   ENAUG  =  416.2 eV  augmentation charge cutoff
   NELM   =    500;   NELMIN=  2; NELMDL= -5     # of ELM steps 
   EDIFF  = 0.1E-05   stopping-criterion for ELM
   LREAL  =      T    real-space projection
   NLSPLINE    = F    spline interpolate recip. space projectors
   LCOMPAT=      F    compatible to vasp.4.4
   GGA_COMPAT  = T    GGA compatible to vasp.4.4-vasp.4.6
   LMAXPAW     = -100 max onsite density
   LMAXMIX     =    2 max onsite mixed and CHGCAR
   VOSKOWN=      1    Vosko Wilk Nusair interpolation
   ROPT   =   -0.00050  -0.00050
 Ionic relaxation
   EDIFFG = -.2E-01   stopping-criterion for IOM
   NSW    =    500    number of steps for IOM
   NBLOCK =      1;   KBLOCK =    500    inner block; outer block 
   IBRION =      2    ionic relax: 0-MD 1-quasi-New 2-CG
   NFREE  =      2    steps in history (QN), initial steepest desc. (CG)
   ISIF   =      0    stress and relaxation
   IWAVPR =     11    prediction:  0-non 1-charg 2-wave 3-comb
   ISYM   =      2    0-nonsym 1-usesym 2-fastsym
   LCORR  =      T    Harris-Foulkes like correction to forces

   POTIM  = 0.3500    time-step for ionic-motion
   TEIN   =    0.0    initial temperature
   TEBEG  =    0.0;   TEEND  =   0.0 temperature during run
   SMASS  =  -3.00    Nose mass-parameter (am)
   estimated Nose-frequenzy (Omega)   =  0.10E-29 period in steps =****** mass=  -0.277E-26a.u.
   SCALEE = 1.0000    scale energy and forces
   NPACO  =    256;   APACO  = 16.0  distance and # of slots for P.C.
   PSTRESS=    0.0 pullay stress

  Mass of Ions in am
   POMASS = 196.97106.42
  Ionic Valenz
   ZVAL   =  11.00 10.00
  Atomic Wigner-Seitz radii
   RWIGS  =  -1.00 -1.00
  virtual crystal weights 
   VCA    =   1.00  1.00
   NELECT =     504.0000    total number of electrons
   NUPDOWN=      -1.0000    fix difference up-down

 DOS related values:
   EMIN   =  10.00;   EMAX   =-10.00  energy-range for DOS
   EFERMI =   0.00
   ISMEAR =     0;   SIGMA  =   0.10  broadening in eV -4-tet -1-fermi 0-gaus

 Electronic relaxation 2 (details)
   IALGO  =     68    algorithm
   LDIAG  =      T    sub-space diagonalisation (order eigenvalues)
   LSUBROT=      F    optimize rotation matrix (better conditioning)
   TURBO    =      0    0=normal 1=particle mesh
   IRESTART =      0    0=no restart 2=restart with 2 vectors
   NREBOOT  =      0    no. of reboots
   NMIN     =      0    reboot dimension
   EREF     =   0.00    reference energy to select bands
   IMIX   =      4    mixing-type and parameters
     AMIX     =   0.40;   BMIX     =  1.00
     AMIX_MAG =   1.60;   BMIX_MAG =  1.00
     AMIN     =   0.10
     WC   =   100.;   INIMIX=   1;  MIXPRE=   1;  MAXMIX= -45

 Intra band minimization:
   WEIMIN = 0.0010     energy-eigenvalue tresh-hold
   EBREAK =  0.82E-09  absolut break condition
   DEPER  =   0.30     relativ break condition  

   TIME   =   0.40     timestep for ELM

  volume/ion in A,a.u.               =      53.49       360.99
  Fermi-wavevector in a.u.,A,eV,Ry     =   0.951418  1.797920 12.315955  0.905197
  Thomas-Fermi vector in A             =   2.079887
 
 Write flags
   LWAVE  =      F    write WAVECAR
   LCHARG =      F    write CHGCAR
   LVTOT  =      F    write LOCPOT, total local potential
   LVHAR  =      F    write LOCPOT, Hartree potential only
   LELF   =      F    write electronic localiz. function (ELF)
   LORBIT =      0    0 simple, 1 ext, 2 COOP (PROOUT)


 Dipole corrections
   LMONO  =      F    monopole corrections only (constant potential shift)
   LDIPOL =      T    correct potential (dipole corrections)
   IDIPOL =      3    1-x, 2-y, 3-z, 4-all directions 
   EPSILON=  1.0000000 bulk dielectric constant

 Exchange correlation treatment:
   GGA     =    PE    GGA type
   LEXCH   =     8    internal setting for exchange type
   VOSKOWN=      1    Vosko Wilk Nusair interpolation
   LHFCALC =     F    Hartree Fock is set to
   LHFONE  =     F    Hartree Fock one center treatment
   AEXX    =    0.0000 exact exchange contribution

 Linear response parameters
   LEPSILON=     F    determine dielectric tensor
   LRPA    =     F    only Hartree local field effects (RPA)
   LNABLA  =     F    use nabla operator in PAW spheres
   LVEL    =     F    velocity operator in full k-point grid
   LINTERFAST=   F  fast interpolation
   KINTER  =     0    interpolate to denser k-point grid
   CSHIFT  =0.1000    complex shift for real part using Kramers Kronig
   OMEGAMAX=  -1.0    maximum frequency
   DEG_THRESHOLD= 0.2000000E-02 threshold for treating states as degnerate
   RTIME   =    0.100 relaxation time in fs

 Orbital magnetization related:
   ORBITALMAG=     F  switch on orbital magnetization
   LCHIMAG   =     F  perturbation theory with respect to B field
   DQ        =  0.001000  dq finite difference perturbation B field



--------------------------------------------------------------------------------------------------------


 conjugate gradient relaxation of ions
 charge density and potential will be updated during run
 non-spin polarized calculation
 RMM-DIIS sequential band-by-band and
  variant of blocked Davidson during initial phase
 perform sub-space diagonalisation
    before iterative eigenvector-optimisation
 modified Broyden-mixing scheme, WC =      100.0
 initial mixing is a Kerker type mixing with AMIX =  0.4000 and BMIX =      1.0000
 Hartree-type preconditioning will be used
 using additional bands           54
 real space projection scheme for non local part
 use partial core corrections
 calculate Harris-corrections to forces 
   (improved forces if not selfconsistent)
 use gradient corrections 
 use of overlap-Matrix (Vanderbilt PP)
 Gauss-broadening in eV      SIGMA  =   0.10


--------------------------------------------------------------------------------------------------------


  energy-cutoff  :      400.00
  volume of cell :     2567.68
      direct lattice vectors                 reciprocal lattice vectors
    11.002581515  0.000000000  0.000000000     0.090887761 -0.052474073  0.000000000
     5.501290758  9.528515099  0.000000000     0.000000000  0.104948147  0.000000000
     0.000000000  0.000000000 24.491785094     0.000000000  0.000000000  0.040830017

  length of vectors
    11.002581515 11.002581515 24.491785094     0.104948147  0.104948147  0.040830017


 
 k-points in units of 2pi/SCALE and weight: Automatic mesh                          
   0.02272194  0.01311852  0.00000000       0.167
   0.00000000  0.02623704  0.00000000       0.167
  -0.02272194  0.01311852  0.00000000       0.167
  -0.02272194  0.03935555  0.00000000       0.167
   0.04544388 -0.05247407  0.00000000       0.167
  -0.02272194  0.06559259  0.00000000       0.167
 
 k-points in reciprocal lattice and weights: Automatic mesh                          
   0.25000000  0.25000000  0.00000000       0.167
   0.00000000  0.25000000  0.00000000       0.167
  -0.25000000  0.00000000  0.00000000       0.167
  -0.25000000  0.25000000  0.00000000       0.167
   0.50000000 -0.25000000  0.00000000       0.167
  -0.25000000  0.50000000  0.00000000       0.167
 
 position of ions in fractional coordinates (direct lattice) 
   0.08333333  0.08333333  0.40830017
   0.50000000  0.25000000  0.59169983
   0.41666667  0.91666667  0.50000000
   0.50000000  0.75000000  0.59169983
   0.58333333  0.08333333  0.40830017
   0.66666667  0.91666667  0.50000000
   0.83333333  0.08333333  0.40830017
   0.66666667  0.16666667  0.50000000
   0.25000000  0.50000000  0.59169983
   0.25000000  0.25000000  0.59169983
   0.58333333  0.58333333  0.40830017
   0.16666667  0.16666667  0.50000000
   0.41666667  0.66666667  0.50000000
   0.00000000  0.75000000  0.59169983
   0.91666667  0.16666667  0.50000000
   0.00000000  0.00000000  0.59169983
   0.08333333  0.33333333  0.40830017
   0.91666667  0.41666667  0.50000000
   0.83333333  0.83333333  0.40830017
   0.33333333  0.08333333  0.40830017
   0.08333333  0.58333333  0.40830017
   0.08333333  0.83333333  0.40830017
   0.66666667  0.66666667  0.50000000
   0.00000000  0.50000000  0.59169983
   0.75000000  0.50000000  0.59169983
   0.75000000  0.00000000  0.59169983
   0.83333333  0.33333333  0.40830017
   0.66666667  0.41666667  0.50000000
   0.58333333  0.83333333  0.40830017
   0.50000000  0.50000000  0.59169983
   0.83333333  0.58333333  0.40830017
   0.75000000  0.25000000  0.59169983
   0.25000000  0.75000000  0.59169983
   0.58333333  0.33333333  0.40830017
   0.50000000  0.00000000  0.59169983
   0.41666667  0.16666667  0.50000000
   0.16666667  0.91666667  0.50000000
   0.33333333  0.83333333  0.40830017
   0.16666667  0.66666667  0.50000000
   0.33333333  0.58333333  0.40830017
   0.16666667  0.41666667  0.50000000
   0.33333333  0.33333333  0.40830017
   0.25000000  0.00000000  0.59169983
   0.91666667  0.91666667  0.50000000
   0.91666667  0.66666667  0.50000000
   0.00000000  0.25000000  0.59169983
   0.41666667  0.41666667  0.50000000
   0.75000000  0.75000000  0.59169983
 
 position of ions in cartesian coordinates  (Angst):
   1.37532269  0.79404292 10.00000000
   6.87661345  2.38212877 14.49178509
   9.62725883  8.73447217 12.24589255
   9.62725883  7.14638632 14.49178509
   6.87661345  0.79404292 10.00000000
  12.37790420  8.73447217 12.24589255
   9.62725883  0.79404292 10.00000000
   8.25193614  1.58808585 12.24589255
   5.50129076  4.76425755 14.49178509
   4.12596807  2.38212877 14.49178509
   9.62725883  5.55830047 10.00000000
   2.75064538  1.58808585 12.24589255
   8.25193614  6.35234340 12.24589255
   4.12596807  7.14638632 14.49178509
  11.00258152  1.58808585 12.24589255
   0.00000000  0.00000000 14.49178509
   2.75064538  3.17617170 10.00000000
  12.37790420  3.97021462 12.24589255
  13.75322689  7.94042925 10.00000000
   4.12596807  0.79404292 10.00000000
   4.12596807  5.55830047 10.00000000
   5.50129076  7.94042925 10.00000000
  11.00258152  6.35234340 12.24589255
   2.75064538  4.76425755 14.49178509
  11.00258152  4.76425755 14.49178509
   8.25193614  0.00000000 14.49178509
  11.00258152  3.17617170 10.00000000
   9.62725883  3.97021462 12.24589255
  11.00258152  7.94042925 10.00000000
   8.25193614  4.76425755 14.49178509
  12.37790420  5.55830047 10.00000000
   9.62725883  2.38212877 14.49178509
   6.87661345  7.14638632 14.49178509
   8.25193614  3.17617170 10.00000000
   5.50129076  0.00000000 14.49178509
   5.50129076  1.58808585 12.24589255
   6.87661345  8.73447217 12.24589255
   8.25193614  7.94042925 10.00000000
   5.50129076  6.35234340 12.24589255
   6.87661345  5.55830047 10.00000000
   4.12596807  3.97021462 12.24589255
   5.50129076  3.17617170 10.00000000
   2.75064538  0.00000000 14.49178509
  15.12854958  8.73447217 12.24589255
  13.75322689  6.35234340 12.24589255
   1.37532269  2.38212877 14.49178509
   6.87661345  3.97021462 12.24589255
  12.37790420  7.14638632 14.49178509
 


--------------------------------------------------------------------------------------------------------


 k-point  1 :   0.2500 0.2500 0.0000  plane waves:   46635
 k-point  2 :   0.0000 0.2500 0.0000  plane waves:   46635
 k-point  3 :  -0.2500 0.0000 0.0000  plane waves:   46635
 k-point  4 :  -0.2500 0.2500 0.0000  plane waves:   46644
 k-point  5 :   0.5000-0.2500 0.0000  plane waves:   46644
 k-point  6 :  -0.2500 0.5000 0.0000  plane waves:   46644

 maximum and minimum number of plane-waves per node :      7818     7732

 maximum number of plane-waves:     46644
 maximum index in each direction: 
   IXMAX=   18   IYMAX=   18   IZMAX=   39
   IXMIN=  -18   IYMIN=  -18   IZMIN=  -39

 WARNING: aliasing errors must be expected set NGX to  74 to avoid them
 WARNING: aliasing errors must be expected set NGY to  74 to avoid them
 WARNING: aliasing errors must be expected set NGZ to 158 to avoid them
 aliasing errors are usually negligible using standard VASP settings
 and one can safely disregard these warnings

 real space projection operators:
  total allocation   :      12803.06 KBytes
  max/ min on nodes  :       2145.66       2127.94


 parallel 3D FFT for wavefunctions:
    minimum data exchange during FFTs selected (reduces bandwidth)
 parallel 3D FFT for charge:
    minimum data exchange during FFTs selected (reduces bandwidth)


 total amount of memory used by VASP on root node    84353. kBytes
========================================================================

   base      :      30000. kBytes
   nonlr-proj:       4285. kBytes
   fftplans  :       4447. kBytes
   grid      :       6721. kBytes
   one-center:        124. kBytes
   wavefun   :      38776. kBytes
 
     INWAV:  cpu time    0.0000: real time    0.0000
 Broyden mixing: mesh for mixing (old mesh)
   NGX = 35   NGY = 35   NGZ = 79
  (NGX  =108   NGY  =108   NGZ  =240)
  gives a total of  96775 points

 initial charge density was supplied:
 charge density of overlapping atoms calculated
 number of electron     504.0000000 magnetization 
 keeping initial charge density in first step


--------------------------------------------------------------------------------------------------------


 Maximum index for non-local projection operator          355
 Maximum index for augmentation-charges          437 (set IRDMAX)


--------------------------------------------------------------------------------------------------------


 First call to EWALD:  gamma=   0.129
 Maximum number of real-space cells 4x 4x 2
 Maximum number of reciprocal cells 2x 2x 5

 FEWALD executed in parallel
    FEWALD:  cpu time    0.0021: real time    0.0021


----------------------------------------- Iteration    1(   1)  ---------------------------------------


    POTLOK:  cpu time    0.0449: real time    0.0465
    SETDIJ:  cpu time    0.0056: real time    0.0058
     EDDAV:  cpu time    7.1786: real time    7.2638
       DOS:  cpu time    0.0012: real time    0.0012
    --------------------------------------------
      LOOP:  cpu time    7.2332: real time    7.3242

 eigenvalue-minimisations  :  3672
 total energy-change (2. order) : 0.3201529E+04  (-0.1898225E+05)
 number of electron     504.0000000 magnetization 
 augmentation part      504.0000000 magnetization 

 DIPCOR: dipole corrections for dipol
 direction  3 min pos     1,
 dipolmoment           0.000000      0.000000      0.000001 electrons x Angstroem
 Tr[quadrupol]    -10225.200439

 energy correction for charged system         0.000000 eV
 dipol+quadrupol energy correction           -0.000000 eV
 added-field ion interaction          0.000000 eV  (added to PSCEN)


 Free energy of the ion-electron system (eV)
  ---------------------------------------------------
  alpha Z        PSCENC =       805.86936475
  Ewald energy   TEWEN  =    200158.47313148
  -Hartree energ DENC   =   -242572.40005425
  -exchange      EXHF   =         0.00000000
  -V(xc)+E(xc)   XCENC  =      -327.62910277
  PAW double counting   =     40340.05962942   -38292.62782345
  entropy T*S    EENTRO =        -0.13499128
  eigenvalues    EBANDS =      1430.13281445
  atomic energy  EATOM  =     41659.78587232
  Solvation  Ediel_sol  =         0.00000000
  ---------------------------------------------------
  free energy    TOTEN  =      3201.52884068 eV

  energy without entropy =     3201.66383196  energy(sigma->0) =     3201.59633632


--------------------------------------------------------------------------------------------------------




----------------------------------------- Iteration    1(   2)  ---------------------------------------


     EDDAV:  cpu time    8.4939: real time    8.5173
       DOS:  cpu time    0.0014: real time    0.0014
    --------------------------------------------
      LOOP:  cpu time    8.4959: real time    8.5210

 eigenvalue-minimisations  :  4380
 total energy-change (2. order) :-0.3186807E+04  (-0.2931284E+04)
 number of electron     504.0000000 magnetization 
 augmentation part      504.0000000 magnetization 

 DIPCOR: dipole corrections for dipol
 direction  3 min pos     1,
 dipolmoment           0.000000      0.000000      0.000001 electrons x Angstroem
 Tr[quadrupol]    -10225.200439

 energy correction for charged system         0.000000 eV
 dipol+quadrupol energy correction           -0.000000 eV
 added-field ion interaction          0.000000 eV  (added to PSCEN)


 Free energy of the ion-electron system (eV)
  ---------------------------------------------------
  alpha Z        PSCENC =       805.86936475
  Ewald energy   TEWEN  =    200158.47313148
  -Hartree energ DENC   =   -242572.40005425
  -exchange      EXHF   =         0.00000000
  -V(xc)+E(xc)   XCENC  =      -327.62910277
  PAW double counting   =     40340.05962942   -38292.62782345
  entropy T*S    EENTRO =        -0.13571239
  eigenvalues    EBANDS =     -1756.67328784
  atomic energy  EATOM  =     41659.78587232
  Solvation  Ediel_sol  =         0.00000000
  ---------------------------------------------------
  free energy    TOTEN  =        14.72201728 eV

  energy without entropy =       14.85772967  energy(sigma->0) =       14.78987348


--------------------------------------------------------------------------------------------------------




----------------------------------------- Iteration    1(   3)  ---------------------------------------


     EDDAV:  cpu time    8.1920: real time    8.2157
       DOS:  cpu time    0.0014: real time    0.0014
    --------------------------------------------
      LOOP:  cpu time    8.1943: real time    8.2197

 eigenvalue-minimisations  :  4128
 total energy-change (2. order) :-0.2150842E+03  (-0.1998050E+03)
 number of electron     504.0000000 magnetization 
 augmentation part      504.0000000 magnetization 

 DIPCOR: dipole corrections for dipol
 direction  3 min pos     1,
 dipolmoment           0.000000      0.000000      0.000001 electrons x Angstroem
 Tr[quadrupol]    -10225.200439

 energy correction for charged system         0.000000 eV
 dipol+quadrupol energy correction           -0.000000 eV
 added-field ion interaction          0.000000 eV  (added to PSCEN)


 Free energy of the ion-electron system (eV)
  ---------------------------------------------------
  alpha Z        PSCENC =       805.86936475
  Ewald energy   TEWEN  =    200158.47313148
  -Hartree energ DENC   =   -242572.40005425
  -exchange      EXHF   =         0.00000000
  -V(xc)+E(xc)   XCENC  =      -327.62910277
  PAW double counting   =     40340.05962942   -38292.62782345
  entropy T*S    EENTRO =        -0.19152382
  eigenvalues    EBANDS =     -1971.70166086
  atomic energy  EATOM  =     41659.78587232
  Solvation  Ediel_sol  =         0.00000000
  ---------------------------------------------------
  free energy    TOTEN  =      -200.36216718 eV

  energy without entropy =     -200.17064335  energy(sigma->0) =     -200.26640526


--------------------------------------------------------------------------------------------------------




----------------------------------------- Iteration    1(   4)  ---------------------------------------


     EDDAV:  cpu time    8.3976: real time    8.4222
       DOS:  cpu time    0.0015: real time    0.0015
    --------------------------------------------
      LOOP:  cpu time    8.4000: real time    8.4284

 eigenvalue-minimisations  :  4236
 total energy-change (2. order) :-0.5843906E+01  (-0.5771745E+01)
 number of electron     504.0000000 magnetization 
 augmentation part      504.0000000 magnetization 

 DIPCOR: dipole corrections for dipol
 direction  3 min pos     1,
 dipolmoment           0.000000      0.000000      0.000001 electrons x Angstroem
 Tr[quadrupol]    -10225.200439

 energy correction for charged system         0.000000 eV
 dipol+quadrupol energy correction           -0.000000 eV
 added-field ion interaction          0.000000 eV  (added to PSCEN)


 Free energy of the ion-electron system (eV)
  ---------------------------------------------------
  alpha Z        PSCENC =       805.86936475
  Ewald energy   TEWEN  =    200158.47313148
  -Hartree energ DENC   =   -242572.40005425
  -exchange      EXHF   =         0.00000000
  -V(xc)+E(xc)   XCENC  =      -327.62910277
  PAW double counting   =     40340.05962942   -38292.62782345
  entropy T*S    EENTRO =        -0.20602652
  eigenvalues    EBANDS =     -1977.53106453
  atomic energy  EATOM  =     41659.78587232
  Solvation  Ediel_sol  =         0.00000000
  ---------------------------------------------------
  free energy    TOTEN  =      -206.20607355 eV

  energy without entropy =     -206.00004702  energy(sigma->0) =     -206.10306028


--------------------------------------------------------------------------------------------------------




----------------------------------------- Iteration    1(   5)  ---------------------------------------


     EDDAV:  cpu time    8.6621: real time    8.7548
       DOS:  cpu time    0.0015: real time    0.0015
    CHARGE:  cpu time    0.2177: real time    0.2182
    MIXING:  cpu time    0.0021: real time    0.0023
    --------------------------------------------
      LOOP:  cpu time    8.8841: real time    8.9809

 eigenvalue-minimisations  :  4428
 total energy-change (2. order) :-0.1970942E+00  (-0.1963900E+00)
 number of electron     503.9998405 magnetization 
 augmentation part      191.2838321 magnetization 

 DIPCOR: dipole corrections for dipol
 direction  3 min pos     1,
 dipolmoment           0.000000      0.000000      0.000001 electrons x Angstroem
 Tr[quadrupol]    -10225.200439

 energy correction for charged system         0.000000 eV
 dipol+quadrupol energy correction           -0.000000 eV
 added-field ion interaction          0.000000 eV  (added to PSCEN)


 Broyden mixing:
  rms(total) = 0.62287E+01    rms(broyden)= 0.62287E+01
  rms(prec ) = 0.63431E+01
  weight for this iteration     100.00

 Free energy of the ion-electron system (eV)
  ---------------------------------------------------
  alpha Z        PSCENC =       805.86936475
  Ewald energy   TEWEN  =    200158.47313148
  -Hartree energ DENC   =   -242572.40005425
  -exchange      EXHF   =         0.00000000
  -V(xc)+E(xc)   XCENC  =      -327.62910277
  PAW double counting   =     40340.05962942   -38292.62782345
  entropy T*S    EENTRO =        -0.20555144
  eigenvalues    EBANDS =     -1977.72863380
  atomic energy  EATOM  =     41659.78587232
  Solvation  Ediel_sol  =         0.00000000
  ---------------------------------------------------
  free energy    TOTEN  =      -206.40316774 eV

  energy without entropy =     -206.19761629  energy(sigma->0) =     -206.30039201


--------------------------------------------------------------------------------------------------------




----------------------------------------- Iteration    1(   6)  ---------------------------------------


    POTLOK:  cpu time    0.0412: real time    0.0414
    SETDIJ:  cpu time    0.0056: real time    0.0056
    EDDIAG:  cpu time    1.2824: real time    1.2858
  RMM-DIIS:  cpu time    3.4469: real time    3.4624
    ORTHCH:  cpu time    0.3576: real time    0.3585
       DOS:  cpu time    0.0013: real time    0.0013
    CHARGE:  cpu time    0.2176: real time    0.2185
    MIXING:  cpu time    0.0019: real time    0.0020
    --------------------------------------------
      LOOP:  cpu time    5.3550: real time    5.3795

 eigenvalue-minimisations  :  3678
 total energy-change (2. order) : 0.6506794E+01  (-0.9230072E+01)
 number of electron     503.9998423 magnetization 
 augmentation part      192.0318813 magnetization 

 DIPCOR: dipole corrections for dipol
 direction  3 min pos     1,
 dipolmoment           0.000000      0.000000      0.675352 electrons x Angstroem
 Tr[quadrupol]    -10226.618063

 energy correction for charged system         0.000000 eV
 dipol+quadrupol energy correction           -0.016072 eV
 added-field ion interaction          0.213787 eV  (added to PSCEN)


 Broyden mixing:
  rms(total) = 0.53080E+01    rms(broyden)= 0.53078E+01
  rms(prec ) = 0.55180E+01
  weight for this iteration     100.00

 eigenvalues of (default mixing * dielectric matrix)
  average eigenvalue GAMMA=   0.8008
  0.8008

 Free energy of the ion-electron system (eV)
  ---------------------------------------------------
  alpha Z        PSCENC =       806.06707989
  Ewald energy   TEWEN  =    200158.47313148
  -Hartree energ DENC   =   -242324.47353793
  -exchange      EXHF   =         0.00000000
  -V(xc)+E(xc)   XCENC  =      -340.20660571
  PAW double counting   =     43918.17466206   -41930.02870385
  entropy T*S    EENTRO =        -0.26716804
  eigenvalues    EBANDS =     -2147.42110429
  atomic energy  EATOM  =     41659.78587232
  Solvation  Ediel_sol  =         0.00000000
  ---------------------------------------------------
  free energy    TOTEN  =      -199.89637406 eV

  energy without entropy =     -199.62920603  energy(sigma->0) =     -199.76279004


--------------------------------------------------------------------------------------------------------




----------------------------------------- Iteration    1(   7)  ---------------------------------------


    POTLOK:  cpu time    0.0400: real time    0.0406
    SETDIJ:  cpu time    0.0059: real time    0.0059
    EDDIAG:  cpu time    1.2859: real time    1.2901
  RMM-DIIS:  cpu time    3.4670: real time    3.4864
    ORTHCH:  cpu time    0.3553: real time    0.3562
       DOS:  cpu time    0.0014: real time    0.0014
    CHARGE:  cpu time    0.2163: real time    0.2168
    MIXING:  cpu time    0.0020: real time    0.0020
    --------------------------------------------
      LOOP:  cpu time    5.3745: real time    5.4023

 eigenvalue-minimisations  :  3683
 total energy-change (2. order) :-0.1155875E+02  (-0.5920212E+01)
 number of electron     503.9998368 magnetization 
 augmentation part      195.5105738 magnetization 

 DIPCOR: dipole corrections for dipol
 direction  3 min pos     1,
 dipolmoment           0.000000      0.000000     -1.155371 electrons x Angstroem
 Tr[quadrupol]    -10225.126846

 energy correction for charged system         0.000000 eV
 dipol+quadrupol energy correction           -0.047038 eV
 added-field ion interaction         -0.365741 eV  (added to PSCEN)


 Broyden mixing:
  rms(total) = 0.47284E+01    rms(broyden)= 0.47281E+01
  rms(prec ) = 0.55314E+01
  weight for this iteration     100.00

 eigenvalues of (default mixing * dielectric matrix)
  average eigenvalue GAMMA=   0.9166
  1.4808  0.3523

 Free energy of the ion-electron system (eV)
  ---------------------------------------------------
  alpha Z        PSCENC =       805.45658584
  Ewald energy   TEWEN  =    200158.47313148
  -Hartree energ DENC   =   -242167.29687932
  -exchange      EXHF   =         0.00000000
  -V(xc)+E(xc)   XCENC  =      -342.54215961
  PAW double counting   =     45458.40839483   -43497.19265261
  entropy T*S    EENTRO =        -0.21201561
  eigenvalues    EBANDS =     -2286.33539833
  atomic energy  EATOM  =     41659.78587232
  Solvation  Ediel_sol  =         0.00000000
  ---------------------------------------------------
  free energy    TOTEN  =      -211.45512101 eV

  energy without entropy =     -211.24310540  energy(sigma->0) =     -211.34911321


--------------------------------------------------------------------------------------------------------




----------------------------------------- Iteration    1(   8)  ---------------------------------------


    POTLOK:  cpu time    0.0409: real time    0.0411
    SETDIJ:  cpu time    0.0051: real time    0.0059
    EDDIAG:  cpu time    1.2951: real time    1.3063
  RMM-DIIS:  cpu time    3.4769: real time    3.4857
    ORTHCH:  cpu time    0.3524: real time    0.3533
       DOS:  cpu time    0.0013: real time    0.0013
    CHARGE:  cpu time    0.2181: real time    0.2187
    MIXING:  cpu time    0.0020: real time    0.0020
    --------------------------------------------
      LOOP:  cpu time    5.3926: real time    5.4181

 eigenvalue-minimisations  :  3672
 total energy-change (2. order) :-0.1238499E+02  (-0.9406709E+01)
 number of electron     503.9998358 magnetization 
 augmentation part      196.2325692 magnetization 

 DIPCOR: dipole corrections for dipol
 direction  3 min pos     1,
 dipolmoment           0.000000      0.000000      1.750488 electrons x Angstroem
 Tr[quadrupol]    -10226.554488

 energy correction for charged system         0.000000 eV
 dipol+quadrupol energy correction           -0.107975 eV
 added-field ion interaction          0.554129 eV  (added to PSCEN)


 Broyden mixing:
  rms(total) = 0.44907E+01    rms(broyden)= 0.44903E+01
  rms(prec ) = 0.53837E+01
  weight for this iteration     100.00

 eigenvalues of (default mixing * dielectric matrix)
  average eigenvalue GAMMA=   0.9101
  2.0478  0.4420  0.2407

 Free energy of the ion-electron system (eV)
  ---------------------------------------------------
  alpha Z        PSCENC =       806.31551904
  Ewald energy   TEWEN  =    200158.47313148
  -Hartree energ DENC   =   -242144.13834095
  -exchange      EXHF   =         0.00000000
  -V(xc)+E(xc)   XCENC  =      -344.65109426
  PAW double counting   =     47088.35145191   -45152.65078568
  entropy T*S    EENTRO =        -0.28316528
  eigenvalues    EBANDS =     -2295.04269566
  atomic energy  EATOM  =     41659.78587232
  Solvation  Ediel_sol  =         0.00000000
  ---------------------------------------------------
  free energy    TOTEN  =      -223.84010710 eV

  energy without entropy =     -223.55694182  energy(sigma->0) =     -223.69852446


--------------------------------------------------------------------------------------------------------




----------------------------------------- Iteration    1(   9)  ---------------------------------------


    POTLOK:  cpu time    0.0403: real time    0.0404
    SETDIJ:  cpu time    0.0052: real time    0.0052
    EDDIAG:  cpu time    1.2876: real time    1.2916
  RMM-DIIS:  cpu time    3.4532: real time    3.4625
    ORTHCH:  cpu time    0.3518: real time    0.3536
       DOS:  cpu time    0.0014: real time    0.0014
    CHARGE:  cpu time    0.2196: real time    0.2202
    MIXING:  cpu time    0.0021: real time    0.0021
    --------------------------------------------
      LOOP:  cpu time    5.3619: real time    5.3800

 eigenvalue-minimisations  :  3674
 total energy-change (2. order) : 0.1055097E+02  (-0.4442405E+01)
 number of electron     503.9998341 magnetization 
 augmentation part      198.2575916 magnetization 

 DIPCOR: dipole corrections for dipol
 direction  3 min pos     1,
 dipolmoment           0.000000      0.000000     -0.471192 electrons x Angstroem
 Tr[quadrupol]    -10227.950098

 energy correction for charged system         0.000000 eV
 dipol+quadrupol energy correction           -0.007823 eV
 added-field ion interaction         -0.149159 eV  (added to PSCEN)


 Broyden mixing:
  rms(total) = 0.35317E+01    rms(broyden)= 0.35313E+01
  rms(prec ) = 0.39264E+01
  weight for this iteration     100.00

 eigenvalues of (default mixing * dielectric matrix)
  average eigenvalue GAMMA=   0.8128
  2.2309  0.4302  0.2951  0.2951

 Free energy of the ion-electron system (eV)
  ---------------------------------------------------
  alpha Z        PSCENC =       805.71238182
  Ewald energy   TEWEN  =    200158.47313148
  -Hartree energ DENC   =   -242151.99251891
  -exchange      EXHF   =         0.00000000
  -V(xc)+E(xc)   XCENC  =      -346.37147893
  PAW double counting   =     48491.52786999   -46577.36141386
  entropy T*S    EENTRO =        -0.25100283
  eigenvalues    EBANDS =     -2252.81197713
  atomic energy  EATOM  =     41659.78587232
  Solvation  Ediel_sol  =         0.00000000
  ---------------------------------------------------
  free energy    TOTEN  =      -213.28913606 eV

  energy without entropy =     -213.03813323  energy(sigma->0) =     -213.16363464


--------------------------------------------------------------------------------------------------------




----------------------------------------- Iteration    1(  10)  ---------------------------------------


    POTLOK:  cpu time    0.0402: real time    0.0408
    SETDIJ:  cpu time    0.0051: real time    0.0051
    EDDIAG:  cpu time    1.2864: real time    1.2933
  RMM-DIIS:  cpu time    3.4466: real time    3.4550
    ORTHCH:  cpu time    0.3523: real time    0.3532
       DOS:  cpu time    0.0014: real time    0.0014
    CHARGE:  cpu time    0.2149: real time    0.2154
    MIXING:  cpu time    0.0022: real time    0.0022
    --------------------------------------------
      LOOP:  cpu time    5.3497: real time    5.3694

 eigenvalue-minimisations  :  3681
 total energy-change (2. order) : 0.1431605E+02  (-0.1758440E+01)
 number of electron     503.9998338 magnetization 
 augmentation part      199.0469943 magnetization 

 DIPCOR: dipole corrections for dipol
 direction  3 min pos     1,
 dipolmoment           0.000000      0.000000      0.552864 electrons x Angstroem
 Tr[quadrupol]    -10226.785138

 energy correction for charged system         0.000000 eV
 dipol+quadrupol energy correction           -0.010771 eV
 added-field ion interaction          0.175013 eV  (added to PSCEN)


 Broyden mixing:
  rms(total) = 0.21685E+01    rms(broyden)= 0.21682E+01
  rms(prec ) = 0.25888E+01
  weight for this iteration     100.00

 eigenvalues of (default mixing * dielectric matrix)
  average eigenvalue GAMMA=   0.7664
  2.2832  0.4768  0.4768  0.3743  0.2206

 Free energy of the ion-electron system (eV)
  ---------------------------------------------------
  alpha Z        PSCENC =       806.03360675
  Ewald energy   TEWEN  =    200158.47313148
  -Hartree energ DENC   =   -242121.95613856
  -exchange      EXHF   =         0.00000000
  -V(xc)+E(xc)   XCENC  =      -346.26001491
  PAW double counting   =     49046.46229858   -47138.36424187
  entropy T*S    EENTRO =        -0.18784995
  eigenvalues    EBANDS =     -2262.95974581
  atomic energy  EATOM  =     41659.78587232
  Solvation  Ediel_sol  =         0.00000000
  ---------------------------------------------------
  free energy    TOTEN  =      -198.97308197 eV

  energy without entropy =     -198.78523202  energy(sigma->0) =     -198.87915700


--------------------------------------------------------------------------------------------------------




----------------------------------------- Iteration    1(  11)  ---------------------------------------


    POTLOK:  cpu time    0.0397: real time    0.0398
    SETDIJ:  cpu time    0.0051: real time    0.0051
    EDDIAG:  cpu time    1.2800: real time    1.2843
  RMM-DIIS:  cpu time    3.4525: real time    3.4625
    ORTHCH:  cpu time    0.3521: real time    0.3530
       DOS:  cpu time    0.0014: real time    0.0014
    CHARGE:  cpu time    0.2137: real time    0.2142
    MIXING:  cpu time    0.0023: real time    0.0023
    --------------------------------------------
      LOOP:  cpu time    5.3475: real time    5.3659

 eigenvalue-minimisations  :  3681
 total energy-change (2. order) : 0.4460191E+01  (-0.1478294E+01)
 number of electron     503.9998344 magnetization 
 augmentation part      198.4822237 magnetization 

 DIPCOR: dipole corrections for dipol
 direction  3 min pos     1,
 dipolmoment           0.000000      0.000000      0.124880 electrons x Angstroem
 Tr[quadrupol]    -10227.739260

 energy correction for charged system         0.000000 eV
 dipol+quadrupol energy correction           -0.000550 eV
 added-field ion interaction          0.039532 eV  (added to PSCEN)


 Broyden mixing:
  rms(total) = 0.15830E+01    rms(broyden)= 0.15827E+01
  rms(prec ) = 0.18043E+01
  weight for this iteration     100.00

 eigenvalues of (default mixing * dielectric matrix)
  average eigenvalue GAMMA=   0.7173
  2.2392  0.6037  0.6037  0.3605  0.2638  0.2327

 Free energy of the ion-electron system (eV)
  ---------------------------------------------------
  alpha Z        PSCENC =       805.90834632
  Ewald energy   TEWEN  =    200158.47313148
  -Hartree energ DENC   =   -242179.62646946
  -exchange      EXHF   =         0.00000000
  -V(xc)+E(xc)   XCENC  =      -345.72718250
  PAW double counting   =     49210.63684563   -47300.99513970
  entropy T*S    EENTRO =        -0.24548758
  eigenvalues    EBANDS =     -2202.72280795
  atomic energy  EATOM  =     41659.78587232
  Solvation  Ediel_sol  =         0.00000000
  ---------------------------------------------------
  free energy    TOTEN  =      -194.51289144 eV

  energy without entropy =     -194.26740386  energy(sigma->0) =     -194.39014765


--------------------------------------------------------------------------------------------------------




----------------------------------------- Iteration    1(  12)  ---------------------------------------


    POTLOK:  cpu time    0.0400: real time    0.0401
    SETDIJ:  cpu time    0.0051: real time    0.0051
    EDDIAG:  cpu time    1.2871: real time    1.2914
  RMM-DIIS:  cpu time    3.4515: real time    3.4600
    ORTHCH:  cpu time    0.3526: real time    0.3535
       DOS:  cpu time    0.0014: real time    0.0014
    CHARGE:  cpu time    0.2151: real time    0.2156
    MIXING:  cpu time    0.0024: real time    0.0024
    --------------------------------------------
      LOOP:  cpu time    5.3559: real time    5.3731

 eigenvalue-minimisations  :  3680
 total energy-change (2. order) : 0.4300719E+01  (-0.5023446E+00)
 number of electron     503.9998357 magnetization 
 augmentation part      197.7205570 magnetization 

 DIPCOR: dipole corrections for dipol
 direction  3 min pos     1,
 dipolmoment           0.000000      0.000000      0.132515 electrons x Angstroem
 Tr[quadrupol]    -10227.820011

 energy correction for charged system         0.000000 eV
 dipol+quadrupol energy correction           -0.000619 eV
 added-field ion interaction          0.041949 eV  (added to PSCEN)


 Broyden mixing:
  rms(total) = 0.10093E+01    rms(broyden)= 0.10092E+01
  rms(prec ) = 0.11201E+01
  weight for this iteration     100.00

 eigenvalues of (default mixing * dielectric matrix)
  average eigenvalue GAMMA=   0.6754
  2.2636  0.5479  0.5479  0.5218  0.3140  0.3140  0.2186

 Free energy of the ion-electron system (eV)
  ---------------------------------------------------
  alpha Z        PSCENC =       805.91069416
  Ewald energy   TEWEN  =    200158.47313148
  -Hartree energ DENC   =   -242217.35843905
  -exchange      EXHF   =         0.00000000
  -V(xc)+E(xc)   XCENC  =      -344.76166733
  PAW double counting   =     49248.20454559   -47334.39760850
  entropy T*S    EENTRO =        -0.24156939
  eigenvalues    EBANDS =     -2165.82713192
  atomic energy  EATOM  =     41659.78587232
  Solvation  Ediel_sol  =         0.00000000
  ---------------------------------------------------
  free energy    TOTEN  =      -190.21217265 eV

  energy without entropy =     -189.97060325  energy(sigma->0) =     -190.09138795


--------------------------------------------------------------------------------------------------------




----------------------------------------- Iteration    1(  13)  ---------------------------------------


    POTLOK:  cpu time    0.0399: real time    0.0400
    SETDIJ:  cpu time    0.0051: real time    0.0052
    EDDIAG:  cpu time    1.2751: real time    1.3245
  RMM-DIIS:  cpu time    3.3965: real time    3.4461
    ORTHCH:  cpu time    0.3500: real time    0.3515
       DOS:  cpu time    0.0014: real time    0.0014
    CHARGE:  cpu time    0.2174: real time    0.2180
    MIXING:  cpu time    0.0025: real time    0.0025
    --------------------------------------------
      LOOP:  cpu time    5.2886: real time    5.3927

 eigenvalue-minimisations  :  3681
 total energy-change (2. order) : 0.6770837E+00  (-0.1860668E+00)
 number of electron     503.9998356 magnetization 
 augmentation part      197.6348043 magnetization 

 DIPCOR: dipole corrections for dipol
 direction  3 min pos     1,
 dipolmoment           0.000000      0.000000      0.110286 electrons x Angstroem
 Tr[quadrupol]    -10228.143305

 energy correction for charged system         0.000000 eV
 dipol+quadrupol energy correction           -0.000429 eV
 added-field ion interaction          0.034912 eV  (added to PSCEN)


 Broyden mixing:
  rms(total) = 0.75722E+00    rms(broyden)= 0.75711E+00
  rms(prec ) = 0.84406E+00
  weight for this iteration     100.00

 eigenvalues of (default mixing * dielectric matrix)
  average eigenvalue GAMMA=   0.6975
  2.2727  0.7607  0.7607  0.6900  0.3163  0.3163  0.2229  0.2400

 Free energy of the ion-electron system (eV)
  ---------------------------------------------------
  alpha Z        PSCENC =       805.90384765
  Ewald energy   TEWEN  =    200158.47313148
  -Hartree energ DENC   =   -242232.39078100
  -exchange      EXHF   =         0.00000000
  -V(xc)+E(xc)   XCENC  =      -344.64001606
  PAW double counting   =     49282.98526074   -47368.51220543
  entropy T*S    EENTRO =        -0.24547751
  eigenvalues    EBANDS =     -2150.89472109
  atomic energy  EATOM  =     41659.78587232
  Solvation  Ediel_sol  =         0.00000000
  ---------------------------------------------------
  free energy    TOTEN  =      -189.53508891 eV

  energy without entropy =     -189.28961140  energy(sigma->0) =     -189.41235016


--------------------------------------------------------------------------------------------------------




----------------------------------------- Iteration    1(  14)  ---------------------------------------


    POTLOK:  cpu time    0.0405: real time    0.0407
    SETDIJ:  cpu time    0.0051: real time    0.0051
    EDDIAG:  cpu time    1.2808: real time    1.2839
  RMM-DIIS:  cpu time    3.4374: real time    3.4460
    ORTHCH:  cpu time    0.3491: real time    0.3512
       DOS:  cpu time    0.0014: real time    0.0014
    CHARGE:  cpu time    0.2146: real time    0.2152
    MIXING:  cpu time    0.0028: real time    0.0028
    --------------------------------------------
      LOOP:  cpu time    5.3324: real time    5.3504

 eigenvalue-minimisations  :  3682
 total energy-change (2. order) : 0.1011678E+00  (-0.1034118E+00)
 number of electron     503.9998358 magnetization 
 augmentation part      197.5283989 magnetization 

 DIPCOR: dipole corrections for dipol
 direction  3 min pos     1,
 dipolmoment           0.000000      0.000000      0.055098 electrons x Angstroem
 Tr[quadrupol]    -10228.382161

 energy correction for charged system         0.000000 eV
 dipol+quadrupol energy correction           -0.000107 eV
 added-field ion interaction          0.017442 eV  (added to PSCEN)


 Broyden mixing:
  rms(total) = 0.69654E+00    rms(broyden)= 0.69638E+00
  rms(prec ) = 0.77361E+00
  weight for this iteration     100.00

 eigenvalues of (default mixing * dielectric matrix)
  average eigenvalue GAMMA=   0.7002
  2.2606  0.9158  0.9158  0.7245  0.3684  0.3684  0.2783  0.2561  0.2140

 Free energy of the ion-electron system (eV)
  ---------------------------------------------------
  alpha Z        PSCENC =       805.88669904
  Ewald energy   TEWEN  =    200158.47313148
  -Hartree energ DENC   =   -242247.27024378
  -exchange      EXHF   =         0.00000000
  -V(xc)+E(xc)   XCENC  =      -344.39788405
  PAW double counting   =     49310.63988842   -47394.67976317
  entropy T*S    EENTRO =        -0.24531335
  eigenvalues    EBANDS =     -2137.62630800
  atomic energy  EATOM  =     41659.78587232
  Solvation  Ediel_sol  =         0.00000000
  ---------------------------------------------------
  free energy    TOTEN  =      -189.43392109 eV

  energy without entropy =     -189.18860774  energy(sigma->0) =     -189.31126442


--------------------------------------------------------------------------------------------------------




----------------------------------------- Iteration    1(  15)  ---------------------------------------


    POTLOK:  cpu time    0.0402: real time    0.0403
    SETDIJ:  cpu time    0.0052: real time    0.0052
    EDDIAG:  cpu time    1.2767: real time    1.2801
  RMM-DIIS:  cpu time    3.4363: real time    3.4480
    ORTHCH:  cpu time    0.3422: real time    0.3431
       DOS:  cpu time    0.0015: real time    0.0015
    CHARGE:  cpu time    0.2137: real time    0.2142
    MIXING:  cpu time    0.0030: real time    0.0030
    --------------------------------------------
      LOOP:  cpu time    5.3194: real time    5.3379

 eigenvalue-minimisations  :  3681
 total energy-change (2. order) : 0.1031647E+00  (-0.3412302E-01)
 number of electron     503.9998359 magnetization 
 augmentation part      197.4478891 magnetization 

 DIPCOR: dipole corrections for dipol
 direction  3 min pos     1,
 dipolmoment           0.000000      0.000000      0.047563 electrons x Angstroem
 Tr[quadrupol]    -10228.585845

 energy correction for charged system         0.000000 eV
 dipol+quadrupol energy correction           -0.000080 eV
 added-field ion interaction          0.015056 eV  (added to PSCEN)


 Broyden mixing:
  rms(total) = 0.57354E+00    rms(broyden)= 0.57348E+00
  rms(prec ) = 0.64448E+00
  weight for this iteration     100.00

 eigenvalues of (default mixing * dielectric matrix)
  average eigenvalue GAMMA=   0.7195
  2.2330  1.1657  1.1657  0.6921  0.4504  0.4504  0.2965  0.2965  0.2302  0.2150

 Free energy of the ion-electron system (eV)
  ---------------------------------------------------
  alpha Z        PSCENC =       805.88434082
  Ewald energy   TEWEN  =    200158.47313148
  -Hartree energ DENC   =   -242259.29729056
  -exchange      EXHF   =         0.00000000
  -V(xc)+E(xc)   XCENC  =      -344.20152046
  PAW double counting   =     49314.70525749   -47397.42052413
  entropy T*S    EENTRO =        -0.23731686
  eigenvalues    EBANDS =     -2127.02270645
  atomic energy  EATOM  =     41659.78587232
  Solvation  Ediel_sol  =         0.00000000
  ---------------------------------------------------
  free energy    TOTEN  =      -189.33075635 eV

  energy without entropy =     -189.09343949  energy(sigma->0) =     -189.21209792


--------------------------------------------------------------------------------------------------------




----------------------------------------- Iteration    1(  16)  ---------------------------------------


    POTLOK:  cpu time    0.0402: real time    0.0403
    SETDIJ:  cpu time    0.0058: real time    0.0058
    EDDIAG:  cpu time    1.2804: real time    1.2836
  RMM-DIIS:  cpu time    3.4773: real time    3.4859
    ORTHCH:  cpu time    0.3423: real time    0.3431
       DOS:  cpu time    0.0014: real time    0.0014
    CHARGE:  cpu time    0.2146: real time    0.2152
    MIXING:  cpu time    0.0029: real time    0.0029
    --------------------------------------------
      LOOP:  cpu time    5.3656: real time    5.3812

 eigenvalue-minimisations  :  3681
 total energy-change (2. order) : 0.2007014E+00  (-0.3263223E-01)
 number of electron     503.9998359 magnetization 
 augmentation part      197.3700749 magnetization 

 DIPCOR: dipole corrections for dipol
 direction  3 min pos     1,
 dipolmoment           0.000000      0.000000      0.031312 electrons x Angstroem
 Tr[quadrupol]    -10228.911541

 energy correction for charged system         0.000000 eV
 dipol+quadrupol energy correction           -0.000035 eV
 added-field ion interaction          0.009912 eV  (added to PSCEN)


 Broyden mixing:
  rms(total) = 0.42062E+00    rms(broyden)= 0.42054E+00
  rms(prec ) = 0.47478E+00
  weight for this iteration     100.00

 eigenvalues of (default mixing * dielectric matrix)
  average eigenvalue GAMMA=   0.7153
  2.1717  1.3661  1.3661  0.5779  0.5779  0.4628  0.3374  0.3374  0.2412  0.2265
  0.2033

 Free energy of the ion-electron system (eV)
  ---------------------------------------------------
  alpha Z        PSCENC =       805.87924183
  Ewald energy   TEWEN  =    200158.47313148
  -Hartree energ DENC   =   -242277.70197235
  -exchange      EXHF   =         0.00000000
  -V(xc)+E(xc)   XCENC  =      -343.94778658
  PAW double counting   =     49319.10540487   -47400.00713193
  entropy T*S    EENTRO =        -0.25107704
  eigenvalues    EBANDS =     -2110.46573757
  atomic energy  EATOM  =     41659.78587232
  Solvation  Ediel_sol  =         0.00000000
  ---------------------------------------------------
  free energy    TOTEN  =      -189.13005498 eV

  energy without entropy =     -188.87897793  energy(sigma->0) =     -189.00451645


--------------------------------------------------------------------------------------------------------




----------------------------------------- Iteration    1(  17)  ---------------------------------------


    POTLOK:  cpu time    0.0401: real time    0.0410
    SETDIJ:  cpu time    0.0051: real time    0.0051
    EDDIAG:  cpu time    1.2779: real time    1.2810
  RMM-DIIS:  cpu time    3.4612: real time    3.4699
    ORTHCH:  cpu time    0.3394: real time    0.3489
       DOS:  cpu time    0.0014: real time    0.0014
    CHARGE:  cpu time    0.2126: real time    0.2162
    MIXING:  cpu time    0.0031: real time    0.0032
    --------------------------------------------
      LOOP:  cpu time    5.3415: real time    5.3690

 eigenvalue-minimisations  :  3680
 total energy-change (2. order) : 0.1818694E+00  (-0.2081821E-01)
 number of electron     503.9998362 magnetization 
 augmentation part      197.2412636 magnetization 

 DIPCOR: dipole corrections for dipol
 direction  3 min pos     1,
 dipolmoment           0.000000      0.000000      0.036007 electrons x Angstroem
 Tr[quadrupol]    -10229.212588

 energy correction for charged system         0.000000 eV
 dipol+quadrupol energy correction           -0.000046 eV
 added-field ion interaction          0.011398 eV  (added to PSCEN)


 Broyden mixing:
  rms(total) = 0.18460E+00    rms(broyden)= 0.18449E+00
  rms(prec ) = 0.20387E+00
  weight for this iteration     100.00

 eigenvalues of (default mixing * dielectric matrix)
  average eigenvalue GAMMA=   0.7329
  2.1956  1.5746  1.5746  0.6518  0.6518  0.4373  0.3759  0.3759  0.2693  0.2693
  0.2171  0.2019

 Free energy of the ion-electron system (eV)
  ---------------------------------------------------
  alpha Z        PSCENC =       805.88071685
  Ewald energy   TEWEN  =    200158.47313148
  -Hartree energ DENC   =   -242294.82058453
  -exchange      EXHF   =         0.00000000
  -V(xc)+E(xc)   XCENC  =      -343.70076888
  PAW double counting   =     49325.25874679   -47404.44816049
  entropy T*S    EENTRO =        -0.25409365
  eigenvalues    EBANDS =     -2095.12304547
  atomic energy  EATOM  =     41659.78587232
  Solvation  Ediel_sol  =         0.00000000
  ---------------------------------------------------
  free energy    TOTEN  =      -188.94818559 eV

  energy without entropy =     -188.69409194  energy(sigma->0) =     -188.82113877


--------------------------------------------------------------------------------------------------------




----------------------------------------- Iteration    1(  18)  ---------------------------------------


    POTLOK:  cpu time    0.0405: real time    0.0412
    SETDIJ:  cpu time    0.0051: real time    0.0051
    EDDIAG:  cpu time    1.2633: real time    1.2856
  RMM-DIIS:  cpu time    3.4494: real time    3.4581
    ORTHCH:  cpu time    0.3395: real time    0.3510
       DOS:  cpu time    0.0014: real time    0.0014
    CHARGE:  cpu time    0.2136: real time    0.2141
    MIXING:  cpu time    0.0031: real time    0.0032
    --------------------------------------------
      LOOP:  cpu time    5.3165: real time    5.3632

 eigenvalue-minimisations  :  3681
 total energy-change (2. order) : 0.2259289E-01  (-0.5316893E-02)
 number of electron     503.9998362 magnetization 
 augmentation part      197.1802148 magnetization 

 DIPCOR: dipole corrections for dipol
 direction  3 min pos     1,
 dipolmoment           0.000000      0.000000      0.041119 electrons x Angstroem
 Tr[quadrupol]    -10229.434677

 energy correction for charged system         0.000000 eV
 dipol+quadrupol energy correction           -0.000060 eV
 added-field ion interaction          0.013016 eV  (added to PSCEN)


 Broyden mixing:
  rms(total) = 0.13968E+00    rms(broyden)= 0.13964E+00
  rms(prec ) = 0.15840E+00
  weight for this iteration     100.00

 eigenvalues of (default mixing * dielectric matrix)
  average eigenvalue GAMMA=   0.7167
  2.1959  1.6302  1.6302  0.6663  0.6663  0.4475  0.3978  0.3978  0.3123  0.3123
  0.2451  0.2207  0.1948

 Free energy of the ion-electron system (eV)
  ---------------------------------------------------
  alpha Z        PSCENC =       805.88232120
  Ewald energy   TEWEN  =    200158.47313148
  -Hartree energ DENC   =   -242305.35039702
  -exchange      EXHF   =         0.00000000
  -V(xc)+E(xc)   XCENC  =      -343.59921566
  PAW double counting   =     49338.05305544   -47416.49148182
  entropy T*S    EENTRO =        -0.25828967
  eigenvalues    EBANDS =     -2085.42058896
  atomic energy  EATOM  =     41659.78587232
  Solvation  Ediel_sol  =         0.00000000
  ---------------------------------------------------
  free energy    TOTEN  =      -188.92559270 eV

  energy without entropy =     -188.66730303  energy(sigma->0) =     -188.79644787


--------------------------------------------------------------------------------------------------------




----------------------------------------- Iteration    1(  19)  ---------------------------------------


    POTLOK:  cpu time    0.0401: real time    0.0402
    SETDIJ:  cpu time    0.0051: real time    0.0051
    EDDIAG:  cpu time    1.2725: real time    1.2756
  RMM-DIIS:  cpu time    3.4718: real time    3.4813
    ORTHCH:  cpu time    0.3427: real time    0.3435
       DOS:  cpu time    0.0014: real time    0.0015
    CHARGE:  cpu time    0.2129: real time    0.2134
    MIXING:  cpu time    0.0033: real time    0.0033
    --------------------------------------------
      LOOP:  cpu time    5.3505: real time    5.3672

 eigenvalue-minimisations  :  3683
 total energy-change (2. order) : 0.1291915E-01  (-0.2610598E-02)
 number of electron     503.9998363 magnetization 
 augmentation part      197.1438291 magnetization 

 DIPCOR: dipole corrections for dipol
 direction  3 min pos     1,
 dipolmoment           0.000000      0.000000      0.035146 electrons x Angstroem
 Tr[quadrupol]    -10229.562698

 energy correction for charged system         0.000000 eV
 dipol+quadrupol energy correction           -0.000044 eV
 added-field ion interaction          0.011126 eV  (added to PSCEN)


 Broyden mixing:
  rms(total) = 0.90429E-01    rms(broyden)= 0.90393E-01
  rms(prec ) = 0.10134E+00
  weight for this iteration     100.00

 eigenvalues of (default mixing * dielectric matrix)
  average eigenvalue GAMMA=   0.7170
  2.2186  1.6411  1.6411  0.7495  0.7495  0.5978  0.4418  0.4418  0.3297  0.3297
  0.2431  0.2431  0.2182  0.1935

 Free energy of the ion-electron system (eV)
  ---------------------------------------------------
  alpha Z        PSCENC =       805.88044640
  Ewald energy   TEWEN  =    200158.47313148
  -Hartree energ DENC   =   -242311.16489263
  -exchange      EXHF   =         0.00000000
  -V(xc)+E(xc)   XCENC  =      -343.54238179
  PAW double counting   =     49344.02512652   -47422.10549714
  entropy T*S    EENTRO =        -0.25568072
  eigenvalues    EBANDS =     -2080.00879799
  atomic energy  EATOM  =     41659.78587232
  Solvation  Ediel_sol  =         0.00000000
  ---------------------------------------------------
  free energy    TOTEN  =      -188.91267355 eV

  energy without entropy =     -188.65699284  energy(sigma->0) =     -188.78483320


--------------------------------------------------------------------------------------------------------




----------------------------------------- Iteration    1(  20)  ---------------------------------------


    POTLOK:  cpu time    0.0401: real time    0.0402
    SETDIJ:  cpu time    0.0050: real time    0.0050
    EDDIAG:  cpu time    1.2809: real time    1.2850
  RMM-DIIS:  cpu time    3.4125: real time    3.5018
    ORTHCH:  cpu time    0.3422: real time    0.3430
       DOS:  cpu time    0.0014: real time    0.0014
    CHARGE:  cpu time    0.2146: real time    0.2151
    MIXING:  cpu time    0.0035: real time    0.0035
    --------------------------------------------
      LOOP:  cpu time    5.3009: real time    5.3988

 eigenvalue-minimisations  :  3682
 total energy-change (2. order) : 0.6261244E-02  (-0.6830519E-03)
 number of electron     503.9998362 magnetization 
 augmentation part      197.1224859 magnetization 

 DIPCOR: dipole corrections for dipol
 direction  3 min pos     1,
 dipolmoment           0.000000      0.000000      0.027001 electrons x Angstroem
 Tr[quadrupol]    -10229.661494

 energy correction for charged system         0.000000 eV
 dipol+quadrupol energy correction           -0.000026 eV
 added-field ion interaction          0.008547 eV  (added to PSCEN)


 Broyden mixing:
  rms(total) = 0.64671E-01    rms(broyden)= 0.64661E-01
  rms(prec ) = 0.71057E-01
  weight for this iteration     100.00

 eigenvalues of (default mixing * dielectric matrix)
  average eigenvalue GAMMA=   0.7270
  2.2798  1.6675  1.6675  0.8641  0.8641  0.7335  0.4801  0.4801  0.3435  0.3435
  0.2678  0.2510  0.2510  0.2188  0.1933

 Free energy of the ion-electron system (eV)
  ---------------------------------------------------
  alpha Z        PSCENC =       805.87788590
  Ewald energy   TEWEN  =    200158.47313148
  -Hartree energ DENC   =   -242315.47999442
  -exchange      EXHF   =         0.00000000
  -V(xc)+E(xc)   XCENC  =      -343.51183313
  PAW double counting   =     49348.07706578   -47426.01770542
  entropy T*S    EENTRO =        -0.25978816
  eigenvalues    EBANDS =     -2075.85104665
  atomic energy  EATOM  =     41659.78587232
  Solvation  Ediel_sol  =         0.00000000
  ---------------------------------------------------
  free energy    TOTEN  =      -188.90641231 eV

  energy without entropy =     -188.64662415  energy(sigma->0) =     -188.77651823


--------------------------------------------------------------------------------------------------------




----------------------------------------- Iteration    1(  21)  ---------------------------------------


    POTLOK:  cpu time    0.0400: real time    0.0401
    SETDIJ:  cpu time    0.0050: real time    0.0051
    EDDIAG:  cpu time    1.2806: real time    1.2849
  RMM-DIIS:  cpu time    3.4903: real time    3.4990
    ORTHCH:  cpu time    0.3423: real time    0.3431
       DOS:  cpu time    0.0014: real time    0.0014
    CHARGE:  cpu time    0.2161: real time    0.2166
    MIXING:  cpu time    0.0037: real time    0.0037
    --------------------------------------------
      LOOP:  cpu time    5.3801: real time    5.3969

 eigenvalue-minimisations  :  3680
 total energy-change (2. order) : 0.1716764E-02  (-0.4562739E-03)
 number of electron     503.9998363 magnetization 
 augmentation part      197.1200637 magnetization 

 DIPCOR: dipole corrections for dipol
 direction  3 min pos     1,
 dipolmoment           0.000000      0.000000      0.022989 electrons x Angstroem
 Tr[quadrupol]    -10229.762613

 energy correction for charged system         0.000000 eV
 dipol+quadrupol energy correction           -0.000019 eV
 added-field ion interaction          0.007277 eV  (added to PSCEN)


 Broyden mixing:
  rms(total) = 0.49618E-01    rms(broyden)= 0.49612E-01
  rms(prec ) = 0.55771E-01
  weight for this iteration     100.00

 eigenvalues of (default mixing * dielectric matrix)
  average eigenvalue GAMMA=   0.7425
  2.3173  1.8080  1.8080  0.8507  0.8507  0.8630  0.5791  0.5791  0.3703  0.3703
  0.2969  0.2969  0.2396  0.2396  0.2183  0.1925

 Free energy of the ion-electron system (eV)
  ---------------------------------------------------
  alpha Z        PSCENC =       805.87662295
  Ewald energy   TEWEN  =    200158.47313148
  -Hartree energ DENC   =   -242319.34690874
  -exchange      EXHF   =         0.00000000
  -V(xc)+E(xc)   XCENC  =      -343.49907160
  PAW double counting   =     49352.17676576   -47430.12184287
  entropy T*S    EENTRO =        -0.25922044
  eigenvalues    EBANDS =     -2071.99004441
  atomic energy  EATOM  =     41659.78587232
  Solvation  Ediel_sol  =         0.00000000
  ---------------------------------------------------
  free energy    TOTEN  =      -188.90469555 eV

  energy without entropy =     -188.64547511  energy(sigma->0) =     -188.77508533


--------------------------------------------------------------------------------------------------------




----------------------------------------- Iteration    1(  22)  ---------------------------------------


    POTLOK:  cpu time    0.0405: real time    0.0406
    SETDIJ:  cpu time    0.0052: real time    0.0052
    EDDIAG:  cpu time    1.2753: real time    1.2793
  RMM-DIIS:  cpu time    3.4408: real time    3.4578
    ORTHCH:  cpu time    0.3422: real time    0.3431
       DOS:  cpu time    0.0013: real time    0.0013
    CHARGE:  cpu time    0.2139: real time    0.2145
    MIXING:  cpu time    0.0038: real time    0.0038
    --------------------------------------------
      LOOP:  cpu time    5.3238: real time    5.3491

 eigenvalue-minimisations  :  3679
 total energy-change (2. order) : 0.2233728E-02  (-0.3320520E-03)
 number of electron     503.9998363 magnetization 
 augmentation part      197.1010984 magnetization 

 DIPCOR: dipole corrections for dipol
 direction  3 min pos     1,
 dipolmoment           0.000000      0.000000      0.022262 electrons x Angstroem
 Tr[quadrupol]    -10229.890268

 energy correction for charged system         0.000000 eV
 dipol+quadrupol energy correction           -0.000017 eV
 added-field ion interaction          0.007047 eV  (added to PSCEN)


 Broyden mixing:
  rms(total) = 0.35018E-01    rms(broyden)= 0.35011E-01
  rms(prec ) = 0.39670E-01
  weight for this iteration     100.00

 eigenvalues of (default mixing * dielectric matrix)
  average eigenvalue GAMMA=   0.7691
  2.4375  2.0186  2.0186  1.1906  0.8802  0.7456  0.7456  0.4749  0.3845  0.3845
  0.3315  0.3315  0.2503  0.2503  0.2188  0.2188  0.1924

 Free energy of the ion-electron system (eV)
  ---------------------------------------------------
  alpha Z        PSCENC =       805.87639386
  Ewald energy   TEWEN  =    200158.47313148
  -Hartree energ DENC   =   -242324.75026161
  -exchange      EXHF   =         0.00000000
  -V(xc)+E(xc)   XCENC  =      -343.46441746
  PAW double counting   =     49355.61910114   -47433.44433495
  entropy T*S    EENTRO =        -0.25911920
  eigenvalues    EBANDS =     -2066.73882740
  atomic energy  EATOM  =     41659.78587232
  Solvation  Ediel_sol  =         0.00000000
  ---------------------------------------------------
  free energy    TOTEN  =      -188.90246182 eV

  energy without entropy =     -188.64334262  energy(sigma->0) =     -188.77290222


--------------------------------------------------------------------------------------------------------




----------------------------------------- Iteration    1(  23)  ---------------------------------------


    POTLOK:  cpu time    0.0403: real time    0.0404
    SETDIJ:  cpu time    0.0051: real time    0.0051
    EDDIAG:  cpu time    1.2734: real time    1.2776
  RMM-DIIS:  cpu time    3.4959: real time    3.5047
    ORTHCH:  cpu time    0.3422: real time    0.3430
       DOS:  cpu time    0.0014: real time    0.0014
    CHARGE:  cpu time    0.2132: real time    0.2137
    MIXING:  cpu time    0.0039: real time    0.0039
    --------------------------------------------
      LOOP:  cpu time    5.3760: real time    5.3933

 eigenvalue-minimisations  :  3683
 total energy-change (2. order) : 0.1163370E-02  (-0.1991448E-03)
 number of electron     503.9998363 magnetization 
 augmentation part      197.0860459 magnetization 

 DIPCOR: dipole corrections for dipol
 direction  3 min pos     1,
 dipolmoment           0.000000      0.000000      0.024931 electrons x Angstroem
 Tr[quadrupol]    -10230.046151

 energy correction for charged system         0.000000 eV
 dipol+quadrupol energy correction           -0.000022 eV
[...]
    275       1.7255      0.00000
    276       1.8260      0.00000
    277       2.1852      0.00000
    278       2.2086      0.00000
    279       2.3050      0.00000
    280       2.3545      0.00000
    281       2.4626      0.00000
    282       2.5672      0.00000
    283       2.7007      0.00000
    284       2.9694      0.00000
    285       3.1813      0.00000
    286       3.2294      0.00000
    287       3.5016      0.00000
    288       3.6554      0.00000
    289       3.7775      0.00000
    290       4.0406      0.00000
    291       4.0687      0.00000
    292       4.2083      0.00000
    293       4.4956      0.00000
    294       4.5114      0.00000
    295       4.5887      0.00000
    296       4.6140      0.00000
    297       4.7771      0.00000
    298       4.8233      0.00000
    299       4.8863      0.00000
    300       4.9346      0.00000
    301       4.9715      0.00000
    302       5.0186      0.00000
    303       5.0762      0.00000
    304       5.0913      0.00000
    305       5.1646      0.00000
    306       5.2452      0.00000


--------------------------------------------------------------------------------------------------------


 soft charge-density along one line, spin component           1
         0         1         2         3         4         5         6         7         8         9
 total charge-density along one line
 
 pseudopotential strength for first ion, spin component:           1
 -8.064   0.001   0.006  -0.001   0.001  -8.211   0.001   0.006
  0.001  -7.982   0.000  -0.004  -0.003   0.001  -8.130   0.000
  0.006   0.000  -7.980   0.001   0.005   0.006   0.000  -8.128
 -0.001  -0.004   0.001  -7.989   0.000  -0.001  -0.004   0.001
  0.001  -0.003   0.005   0.000  -8.066   0.001  -0.003   0.004
 -8.211   0.001   0.006  -0.001   0.001  -8.341   0.001   0.006
  0.001  -8.130   0.000  -0.004  -0.003   0.001  -8.262   0.000
  0.006   0.000  -8.128   0.001   0.004   0.006   0.000  -8.260
 -0.001  -0.004   0.001  -8.137   0.000  -0.001  -0.004   0.001
  0.001  -0.003   0.004   0.000  -8.212   0.001  -0.003   0.004
  0.003  -0.001  -0.026  -0.001   0.002   0.003  -0.001  -0.026
  0.004  -0.001  -0.038  -0.001   0.003   0.004  -0.001  -0.038
 -0.000  -0.003  -0.001   0.000  -0.001  -0.000  -0.003  -0.000
  0.000   0.001  -0.005  -0.000   0.000   0.000   0.001  -0.005
  0.001   0.000   0.000  -0.003  -0.000   0.001   0.000   0.000
 -0.000  -0.003  -0.001   0.000  -0.001  -0.000  -0.003  -0.001
  0.000   0.002  -0.006  -0.000   0.000   0.000   0.002  -0.005
  0.002   0.000   0.000  -0.003  -0.000   0.002   0.000   0.000
 total augmentation occupancy for first ion, spin component:           1
  4.293  -0.018  -0.203   0.035  -0.208  -2.471   0.022   0.213  -0.057   0.215  -0.207   0.099   0.004   0.009  -0.025  -0.000
 -0.018   4.036   0.074  -0.023   0.027   0.022  -1.753  -0.070   0.010  -0.059   0.007   0.026  -0.157  -0.017   0.011   0.004
 -0.203   0.074   4.409   0.008  -0.075   0.213  -0.070  -2.287  -0.003   0.088   1.095  -0.150  -0.006  -0.208   0.009   0.000
  0.035  -0.023   0.008   4.091   0.001  -0.056   0.010  -0.003  -1.816  -0.004   0.024   0.000   0.012  -0.001  -0.128   0.000
 -0.208   0.027  -0.075   0.001   4.500   0.215  -0.060   0.088  -0.004  -2.687  -0.125   0.068  -0.029   0.004  -0.003  -0.000
 -2.471   0.022   0.213  -0.056   0.215   2.532  -0.025  -0.220   0.073  -0.218   0.187  -0.093  -0.003  -0.010   0.021   0.000
  0.022  -1.753  -0.070   0.010  -0.060  -0.025   1.446   0.066   0.001   0.083  -0.006  -0.022   0.148   0.012  -0.011  -0.006
  0.213  -0.070  -2.287  -0.003   0.088  -0.220   0.066   2.109  -0.001  -0.098  -1.023   0.171   0.005   0.212  -0.008  -0.001
 -0.057   0.010  -0.003  -1.816  -0.004   0.073   0.001  -0.001   1.515   0.007  -0.019   0.000  -0.011  -0.000   0.118   0.000
  0.215  -0.059   0.088  -0.004  -2.687  -0.218   0.083  -0.098   0.007   2.753   0.111  -0.061   0.028  -0.007   0.004  -0.001
 -0.207   0.007   1.095   0.024  -0.125   0.187  -0.006  -1.023  -0.019   0.111   2.411  -0.519  -0.003   0.107   0.000   0.000
  0.099   0.026  -0.150   0.000   0.068  -0.093  -0.022   0.171   0.000  -0.061  -0.519   0.154  -0.002  -0.050   0.001   0.000
  0.004  -0.157  -0.006   0.012  -0.029  -0.003   0.148   0.005  -0.011   0.028  -0.003  -0.002   0.191  -0.002   0.007  -0.006
  0.009  -0.017  -0.208  -0.001   0.004  -0.010   0.012   0.212  -0.000  -0.007   0.107  -0.050  -0.002   0.085  -0.002  -0.000
 -0.025   0.011   0.009  -0.128  -0.003   0.021  -0.011  -0.008   0.118   0.004   0.000   0.001   0.007  -0.002   0.197  -0.000
 -0.000   0.004   0.000   0.000  -0.000   0.000  -0.006  -0.001   0.000  -0.001   0.000   0.000  -0.006  -0.000  -0.000   0.000
  0.000   0.003   0.001  -0.000   0.000   0.000  -0.001  -0.006   0.000   0.000  -0.007   0.002  -0.000  -0.003   0.000   0.000
  0.002   0.000   0.000   0.004  -0.000  -0.001   0.000   0.000  -0.005  -0.000  -0.000  -0.000  -0.000   0.000  -0.006   0.000


------------------------ aborting loop because EDIFF is reached ----------------------------------------


    CHARGE:  cpu time    0.2152: real time    0.2158
    FORLOC:  cpu time    0.0159: real time    0.0159
    FORNL :  cpu time    1.3219: real time    1.3251
    FORCOR:  cpu time    0.0566: real time    0.0578
    FORHAR:  cpu time    0.0244: real time    0.0245
    MIXING:  cpu time    0.0030: real time    0.0031
    OFIELD:  cpu time    0.0000: real time    0.0000

 VOLUME and BASIS-vectors are now :
 -----------------------------------------------------------------------------
  energy-cutoff  :      400.00
  volume of cell :     2567.68
      direct lattice vectors                 reciprocal lattice vectors
    11.002581515  0.000000000  0.000000000     0.090887761 -0.052474073  0.000000000
     5.501290758  9.528515099  0.000000000     0.000000000  0.104948147  0.000000000
     0.000000000  0.000000000 24.491785094     0.000000000  0.000000000  0.040830017

  length of vectors
    11.002581515 11.002581515 24.491785094     0.104948147  0.104948147  0.040830017


 FORCES acting on ions
    electron-ion (+dipol)            ewald-force                    non-local-force                 convergence-correction
 -----------------------------------------------------------------------------------------------
   -.289E+01 0.331E+01 0.227E+04   0.292E+01 -.356E+01 -.227E+04   -.351E-01 0.247E+00 0.348E-01   0.163E-02 0.308E-03 0.477E-03
   -.156E+02 0.101E+02 -.229E+04   0.162E+02 -.104E+02 0.229E+04   -.552E+00 0.282E+00 0.301E+00   -.318E-02 -.271E-03 -.347E-02
   -.812E+00 -.180E+01 -.143E+02   0.449E+00 0.240E+01 0.142E+02   0.364E+00 -.610E+00 0.636E-01   0.328E-02 0.437E-02 0.550E-02
   -.134E+01 -.505E-01 -.234E+04   0.138E+01 0.936E-02 0.234E+04   -.403E-01 0.447E-01 -.123E+00   -.186E-03 0.189E-02 0.161E-02
   0.848E+01 -.128E+02 0.227E+04   -.895E+01 0.135E+02 -.227E+04   0.459E+00 -.615E+00 0.140E+00   -.335E-02 0.307E-02 0.295E-02
   -.545E+01 -.484E+01 0.938E+01   0.580E+01 0.480E+01 -.832E+01   -.335E+00 0.306E-01 -.106E+01   -.520E-02 0.472E-02 0.434E-02
   0.302E+01 -.596E+01 0.229E+04   -.302E+01 0.680E+01 -.229E+04   0.593E-02 -.837E+00 -.242E-01   -.204E-02 -.331E-03 0.311E-03
   0.256E+01 0.779E+01 0.212E+01   -.258E+01 -.718E+01 -.166E+01   0.399E-01 -.615E+00 -.467E+00   -.812E-02 0.320E-02 0.378E-02
   -.478E+01 -.909E+01 -.226E+04   0.567E+01 0.953E+01 0.226E+04   -.893E+00 -.440E+00 0.669E+00   0.279E-02 -.390E-02 -.133E-02
   0.882E+01 0.858E+01 -.228E+04   -.910E+01 -.943E+01 0.227E+04   0.270E+00 0.854E+00 0.292E+00   0.514E-02 -.315E-02 -.244E-02
   0.849E+01 -.972E+00 0.228E+04   -.842E+01 0.664E+00 -.228E+04   -.730E-01 0.306E+00 -.134E+00   -.400E-03 0.131E-02 0.855E-04
   -.708E+01 -.334E+01 0.612E+01   0.737E+01 0.316E+01 -.491E+01   -.298E+00 0.193E+00 -.121E+01   0.735E-02 -.715E-03 0.284E-02
   -.968E+01 -.287E+01 -.254E+02   0.851E+01 0.244E+01 0.254E+02   0.118E+01 0.443E+00 -.490E-01   0.127E-02 -.401E-02 0.338E-02
   0.349E+01 -.138E+02 -.223E+04   -.380E+01 0.141E+02 0.223E+04   0.302E+00 -.306E+00 0.803E+00   -.166E-02 -.144E-02 0.491E-02
   -.273E+00 0.145E+02 0.215E+02   0.959E-02 -.145E+02 -.211E+02   0.258E+00 -.408E-01 -.438E+00   -.520E-04 0.520E-03 0.232E-02
   0.363E+01 -.733E+01 -.225E+04   -.317E+01 0.751E+01 0.225E+04   -.449E+00 -.175E+00 0.399E+00   0.965E-03 -.154E-02 0.495E-02
   -.104E+02 -.137E+02 0.226E+04   0.102E+02 0.141E+02 -.226E+04   0.174E+00 -.424E+00 0.580E-02   0.514E-02 -.280E-03 0.206E-03
   -.121E+02 0.205E+01 -.521E+01   0.120E+02 -.163E+01 0.516E+01   0.133E+00 -.425E+00 0.388E-01   0.214E-02 0.504E-03 0.198E-02
   0.304E+01 0.129E+02 0.224E+04   -.375E+01 -.134E+02 -.224E+04   0.710E+00 0.503E+00 -.178E+00   -.153E-02 0.686E-03 -.642E-03
   -.830E+01 -.171E+01 0.227E+04   0.870E+01 0.139E+01 -.228E+04   -.403E+00 0.314E+00 0.167E+00   0.369E-02 0.374E-02 0.274E-02
   -.105E+02 0.972E+01 0.219E+04   0.108E+02 -.101E+02 -.219E+04   -.254E+00 0.431E+00 -.746E+00   0.193E-02 -.406E-02 -.226E-02
   -.762E+01 0.188E+02 0.221E+04   0.846E+01 -.191E+02 -.221E+04   -.842E+00 0.231E+00 -.733E+00   -.157E-03 -.767E-03 -.191E-02
   0.937E+01 -.201E+01 -.304E+02   -.863E+01 0.150E+01 0.304E+02   -.737E+00 0.519E+00 0.265E-01   -.139E-02 0.214E-02 0.343E-02
   0.128E+02 -.286E+01 -.226E+04   -.137E+02 0.284E+01 0.226E+04   0.850E+00 0.117E-01 0.406E+00   0.245E-02 0.105E-02 0.121E-02
   0.337E+01 0.785E+01 -.201E+04   -.374E+01 -.811E+01 0.201E+04   0.372E+00 0.245E+00 0.157E+01   -.255E-02 0.468E-02 0.168E-02
   -.553E+01 0.997E+00 -.199E+04   0.529E+01 -.107E+01 0.198E+04   0.234E+00 0.591E-01 0.169E+01   -.523E-02 0.168E-02 0.205E-02
   0.553E+01 -.140E+02 0.199E+04   -.589E+01 0.143E+02 -.198E+04   0.353E+00 -.254E+00 -.128E+01   0.101E-03 0.555E-03 -.127E-02
   -.119E+00 -.232E+01 0.146E+02   -.268E+00 0.209E+01 -.143E+02   0.395E+00 0.225E+00 -.382E+00   -.547E-02 0.171E-02 0.329E-02
   0.604E+01 0.102E+02 0.199E+04   -.612E+01 -.104E+02 -.198E+04   0.757E-01 0.162E+00 -.129E+01   0.243E-04 0.109E-02 0.268E-03
   -.103E+02 0.318E+01 -.200E+04   0.106E+02 -.340E+01 0.199E+04   -.286E+00 0.216E+00 0.177E+01   -.237E-02 0.194E-03 0.763E-03
   0.283E+01 -.227E+01 0.198E+04   -.288E+01 0.228E+01 -.197E+04   0.584E-01 -.839E-02 -.141E+01   0.545E-05 0.339E-03 -.121E-02
   -.752E+01 0.259E+01 -.199E+04   0.760E+01 -.208E+01 0.199E+04   -.643E-01 -.495E+00 0.138E+01   -.605E-02 0.945E-03 0.497E-03
   -.217E+00 -.841E+01 -.198E+04   0.336E+00 0.850E+01 0.198E+04   -.124E+00 -.811E-01 0.160E+01   0.367E-02 -.193E-02 0.425E-02
   0.111E+02 -.189E+02 0.197E+04   -.112E+02 0.191E+02 -.197E+04   0.752E-01 -.196E+00 -.172E+01   -.578E-02 -.863E-03 0.252E-02
   -.665E+01 0.748E+01 -.200E+04   0.663E+01 -.737E+01 0.200E+04   0.223E-01 -.111E+00 0.150E+01   -.673E-03 0.253E-02 -.684E-03
   0.332E+01 -.196E+00 -.308E+02   -.333E+01 0.843E+00 0.307E+02   0.349E-02 -.644E+00 0.120E-01   0.652E-03 0.244E-02 0.366E-02
   0.846E+01 -.593E+01 0.365E+01   -.854E+01 0.548E+01 -.330E+01   0.748E-01 0.439E+00 -.346E+00   0.405E-02 0.149E-02 0.220E-02
   -.121E+01 0.139E+02 0.197E+04   0.116E+01 -.140E+02 -.197E+04   0.518E-01 0.886E-01 -.144E+01   0.130E-02 -.229E-03 0.291E-03
   0.802E+01 -.130E+01 -.211E+02   -.793E+01 0.132E+01 0.211E+02   -.927E-01 -.478E-02 0.339E-01   0.186E-02 -.596E-02 0.254E-02
   -.392E-01 0.911E+01 0.196E+04   -.821E-01 -.946E+01 -.196E+04   0.124E+00 0.358E+00 -.166E+01   -.152E-02 -.462E-02 0.148E-02
   0.652E+01 0.105E+01 -.492E+02   -.575E+01 -.963E+00 0.486E+02   -.787E+00 -.877E-01 0.527E+00   0.558E-02 -.550E-02 0.240E-02
   -.446E+01 -.996E+01 0.191E+04   0.499E+01 0.102E+02 -.191E+04   -.520E+00 -.216E+00 -.192E+01   0.477E-03 -.183E-02 0.437E-02
   0.911E+01 0.193E+01 -.200E+04   -.914E+01 -.209E+01 0.200E+04   0.174E-01 0.174E+00 0.145E+01   0.494E-02 -.429E-03 0.113E-02
   -.307E+01 -.190E+01 0.159E+02   0.319E+01 0.139E+01 -.154E+02   -.121E+00 0.510E+00 -.533E+00   -.190E-02 0.191E-02 0.142E-03
   -.822E+01 0.263E+00 -.126E+02   0.848E+01 -.213E+00 0.126E+02   -.263E+00 -.389E-01 -.185E-01   -.181E-02 -.183E-02 0.286E-02
   0.134E+02 0.380E+01 -.201E+04   -.137E+02 -.369E+01 0.200E+04   0.252E+00 -.104E+00 0.126E+01   0.410E-02 -.116E-02 0.256E-03
   0.404E+01 0.378E+01 -.587E+02   -.423E+01 -.371E+01 0.579E+02   0.188E+00 -.767E-01 0.806E+00   -.216E-02 -.446E-02 0.303E-02
   -.122E+01 -.546E+01 -.200E+04   0.129E+01 0.555E+01 0.200E+04   -.553E-01 -.758E-01 0.140E+01   -.171E-02 0.216E-02 0.252E-02
 -----------------------------------------------------------------------------------------------
   0.175E+00 0.216E-02 -.126E+01   -.111E-14 0.242E-12 -.682E-12   -.183E+00 0.625E-02 0.119E+01   0.185E-04 -.114E-04 0.740E-01
 
 
 POSITION                                       TOTAL-FORCE (eV/Angst)
 -----------------------------------------------------------------------------------
      1.38602      0.78140      9.67627        -0.001202     -0.002349     -0.002025
      6.90322      2.37351     14.79340        -0.001952      0.002858      0.003251
      9.61118      8.74852     12.25526         0.003453     -0.010445     -0.003662
      9.63117      7.14678     14.85695        -0.000770      0.005186     -0.006813
      6.86469      0.80620      9.69694        -0.012432     -0.004949      0.001115
     12.39029      8.74124     12.23938         0.008312     -0.006368      0.008385
      9.62201      0.81287      9.65519         0.003703      0.000441     -0.013707
      8.23467      1.61436     12.24366         0.012199     -0.002639     -0.000683
      5.52866      4.78050     14.76244         0.004229      0.001941      0.012212
      4.12123      2.35633     14.78318        -0.003453      0.002462      0.010128
      9.62962      5.54058      9.71955        -0.003191     -0.000857      0.000658
      2.75711      1.59671     12.25019        -0.001743      0.011896      0.004270
      8.21525      6.34231     12.26730         0.010147      0.009752      0.000334
      4.12074      7.16702     14.70305        -0.006708      0.008457      0.007460
     10.98266      1.58655     12.21884        -0.005577      0.005461     -0.001998
      0.01404      0.01351     14.71340         0.009215      0.003893     -0.000346
      2.75515      3.18301      9.70464        -0.004404      0.003369      0.005340
     12.38172      3.98545     12.24606         0.001437     -0.010345     -0.003461
     13.73524      7.91803      9.72920        -0.003376     -0.011507     -0.003871
      4.14076      0.77855      9.67743        -0.000413     -0.004093      0.002991
      4.13875      5.53488      9.82401        -0.006472     -0.000890      0.002581
      5.52699      7.91947      9.78437        -0.000546     -0.004912     -0.004276
     11.00246      6.34795     12.26969        -0.003230      0.005125     -0.003852
      2.72274      4.77135     14.75208        -0.004611     -0.004687      0.009291
     10.98604      4.75187     14.64853         0.001148     -0.009849     -0.002610
      8.24993      0.00657     14.60973        -0.007868     -0.009818     -0.001338
     10.99654      3.17807      9.84166        -0.002991     -0.008525     -0.001235
      9.59928      3.98678     12.22179         0.002498     -0.007813      0.000980
     10.99539      7.92257      9.84407        -0.002095      0.003404     -0.001390
      8.27777      4.76574     14.63785         0.001412     -0.000616      0.005573
     12.37050      5.54813      9.86568         0.008926     -0.003437     -0.009131
      9.63819      2.40752     14.61737         0.005606      0.012486     -0.001722
      6.89315      7.15533     14.62327        -0.001067      0.003862      0.004981
      8.24136      3.17926      9.87476         0.001707     -0.004189     -0.003490
      5.51025     -0.00583     14.64755         0.004815      0.003009      0.002808
      5.49691      1.61005     12.28546        -0.005386      0.006228     -0.006282
      6.85301      8.73162     12.23541         0.000086     -0.007060      0.000019
      8.26218      7.91511      9.86710         0.000789     -0.004861      0.003960
      5.48051      6.35567     12.26469         0.000085      0.004129      0.000710
      6.88475      5.52703      9.91555         0.001272     -0.002964     -0.001891
      4.14884      3.98210     12.30054        -0.004834     -0.003073      0.001987
      5.52447      3.17813      9.96169         0.003812     -0.000976     -0.003583
      2.75563     -0.00621     14.64155        -0.006289      0.007139     -0.000560
     15.13599      8.71901     12.22756        -0.001721      0.003945     -0.003991
     13.77864      6.35602     12.25582        -0.004539      0.008439     -0.002543
      1.36881      2.38282     14.64110        -0.000436      0.008477     -0.004037
      6.84962      3.97358     12.30937         0.003107     -0.005654      0.001651
     12.37110      7.15929     14.64225         0.009349      0.010916     -0.002186
 -----------------------------------------------------------------------------------
    total drift:                               -0.008483      0.008394      0.002405


--------------------------------------------------------------------------------------------------------



  FREE ENERGIE OF THE ION-ELECTRON SYSTEM (eV)
  ---------------------------------------------------
  free  energy   TOTEN  =      -192.45399981 eV

  energy  without entropy=     -192.22318722  energy(sigma->0) =     -192.33859352
 
 d Force = 0.6180457E-03[ 0.165E-03, 0.107E-02]  d Energy = 0.6228387E-03-0.479E-05
 d Force = 0.8844211E+01[ 0.892E+01, 0.877E+01]  d Ewald  = 0.8844209E+01 0.175E-05


--------------------------------------------------------------------------------------------------------


    POTLOK:  cpu time    0.0473: real time    0.0474


--------------------------------------------------------------------------------------------------------


 stress matrix after NEB project (eV)
      0.00000      0.00000      0.00000
      0.00000      0.00000      0.00000
      0.00000      0.00000      0.00000
  FORCES: max atom, RMS     0.014538    0.009582
  FORCE total and by dimension    0.066387    0.013707
  Stress total and by dimension    0.000000    0.000000
 Conjugate gradient step on ions:
 trial-energy change:   -0.000623  1 .order   -0.000618   -0.001071   -0.000165
  (g-gl).g = 0.350E-03      g.g   = 0.313E-03  gl.gl    = 0.577E-03
 g(Force)  = 0.313E-03   g(Stress)= 0.000E+00 ortho     = 0.478E-04
 gamma     =   0.60670
 trial     =   3.12994
 opt step  =   3.68129  (harmonic =   3.70190) maximal distance =0.00617374
 next E    =  -192.454014   (d E  =  -0.00064)


--------------------------------------------------------------------------------------------------------


  
 reached required accuracy - stopping structural energy minimisation
     LOOP+:  cpu time   64.6963: real time   65.0296
    4ORBIT:  cpu time    0.0000: real time    0.0000

 total amount of memory used by VASP on root node    84353. kBytes
========================================================================

   base      :      30000. kBytes
   nonlr-proj:       4285. kBytes
   fftplans  :       4447. kBytes
   grid      :       6721. kBytes
   one-center:        124. kBytes
   wavefun   :      38776. kBytes
 
  
  
 General timing and accounting informations for this job:
 ========================================================
  
                  Total CPU time used (sec):     1667.614
                            User time (sec):     1592.871
                          System time (sec):       74.744
                         Elapsed time (sec):     1677.980
  
                   Maximum memory used (kb):      882416.
                   Average memory used (kb):           0.
  
                          Minor page faults:       804763
                          Major page faults:            0
                 Voluntary context switches:         9781
