unknown system                          
           1
    11.002582    0.000000    0.000000
     5.501291    9.528515    0.000000
     0.000000    0.000000   26.191785
   Au   O    Pd
  24   8  24
Direct configuration=     1
   0.08333333  0.08333333  0.38179910
   0.33333333  0.83333333  0.38179910
   0.08333333  0.83333333  0.38179910
   0.66666667  0.91666667  0.46754708
   0.83333333  0.33333333  0.38179910
   0.75000000  0.00000000  0.55329505
   0.00000000  0.25000000  0.55329505
   0.83333333  0.08333333  0.38179910
   0.08333333  0.58333333  0.38179910
   0.91666667  0.66666667  0.46754708
   0.50000000  0.75000000  0.55329505
   0.91666667  0.91666667  0.46754708
   0.41666667  0.91666667  0.46754708
   0.00000000  0.75000000  0.55329505
   0.58333333  0.83333333  0.38179910
   0.33333333  0.08333333  0.38179910
   0.58333333  0.58333333  0.38179910
   0.33333333  0.33333333  0.38179910
   0.16666667  0.41666667  0.46754708
   0.50000000  0.25000000  0.55329505
   0.58333333  0.33333333  0.38179910
   0.33333333  0.58333333  0.38179910
   0.16666667  0.66666667  0.46754708
   0.25000000  0.50000000  0.55329505
   0.33333333  0.08333333  0.61820090
   0.08333333  0.83333333  0.61820090
   0.08333333  0.33333333  0.61820090
   0.83333333  0.83333333  0.61820090
   0.83333333  0.58333333  0.61820090
   0.83333333  0.08333333  0.61820090
   0.58333333  0.33333333  0.61820090
   0.58333333  0.58333333  0.61820090
   0.16666667  0.16666667  0.46754708
   0.41666667  0.41666667  0.46754708
   0.58333333  0.08333333  0.38179910
   0.25000000  0.25000000  0.55329505
   0.25000000  0.00000000  0.55329505
   0.41666667  0.66666667  0.46754708
   0.50000000  0.50000000  0.55329505
   0.75000000  0.75000000  0.55329505
   0.25000000  0.75000000  0.55329505
   0.00000000  0.50000000  0.55329505
   0.66666667  0.16666667  0.46754708
   0.91666667  0.41666667  0.46754708
   0.08333333  0.33333333  0.38179910
   0.66666667  0.41666667  0.46754708
   0.75000000  0.25000000  0.55329505
   0.83333333  0.58333333  0.38179910
   0.66666667  0.66666667  0.46754708
   0.75000000  0.50000000  0.55329505
   0.00000000  0.00000000  0.55329505
   0.83333333  0.83333333  0.38179910
   0.91666667  0.16666667  0.46754708
   0.16666667  0.91666667  0.46754708
   0.41666667  0.16666667  0.46754708
   0.50000000  0.00000000  0.55329505
Direct configuration=     2
   0.08333333  0.08333333  0.38179910
   0.33333333  0.83333333  0.38179910
   0.08333333  0.83333333  0.38179910
   0.66571776  0.91774839  0.46812953
   0.83333333  0.33333333  0.38179910
   0.74814419  0.00109637  0.55635786
   0.00004336  0.24958523  0.55527191
   0.83333333  0.08333333  0.38179910
   0.08333333  0.58333333  0.38179910
   0.91514771  0.66538339  0.46777917
   0.49976638  0.74970456  0.55556067
   0.91652583  0.91866652  0.46737911
   0.41575141  0.91681311  0.46854414
   0.00184371  0.74832399  0.55669746
   0.58333333  0.83333333  0.38179910
   0.33333333  0.08333333  0.38179910
   0.58333333  0.58333333  0.38179910
   0.33333333  0.33333333  0.38179910
   0.16660175  0.41383141  0.46818563
   0.49921480  0.25029438  0.55526094
   0.58333333  0.33333333  0.38179910
   0.33333333  0.58333333  0.38179910
   0.16843709  0.66721328  0.46820975
   0.25080103  0.49946133  0.55501465
   0.33411011  0.08227947  0.61381022
   0.08592646  0.83373734  0.61450485
   0.08328419  0.33395366  0.61450899
   0.83117773  0.83271034  0.61544436
   0.83353586  0.58358992  0.61414485
   0.83398609  0.08497222  0.61471052
   0.58355078  0.33364829  0.61452723
   0.58334528  0.58306533  0.61451543
   0.16614297  0.16697299  0.46755696
   0.41840642  0.41653753  0.46800585
   0.58333333  0.08333333  0.38179910
   0.25009521  0.24835930  0.55674517
   0.25050407  0.00108434  0.55542764
   0.41676103  0.66559480  0.46865344
   0.50064783  0.49994279  0.55632437
   0.75037176  0.74920757  0.55684983
   0.24921172  0.75099393  0.55537547
  -0.00067582  0.49897993  0.55699877
   0.66659834  0.16709356  0.46769409
   0.91555854  0.41699117  0.46772309
   0.08333333  0.33333333  0.38179910
   0.66717506  0.41654670  0.46861152
   0.74953664  0.25039173  0.55643318
   0.83333333  0.58333333  0.38179910
   0.66780256  0.66507814  0.46784834
   0.74915957  0.50058410  0.55633510
   0.00106556 -0.00034234  0.55675273
   0.83333333  0.83333333  0.38179910
   0.91654276  0.16724426  0.46893916
   0.16645999  0.91770966  0.46868284
   0.41662304  0.16733268  0.46825881
   0.49780480  0.00099491  0.55568244
Direct configuration=     3
   0.08333333  0.08333333  0.38179910
   0.33333333  0.83333333  0.38179910
   0.08333333  0.83333333  0.38179910
   0.66400921  0.91969609  0.46917827
   0.83333333  0.33333333  0.38179910
   0.74480272  0.00307043  0.56187258
   0.00012144  0.24883841  0.55883132
   0.83333333  0.08333333  0.38179910
   0.08333333  0.58333333  0.38179910
   0.91241276  0.66307279  0.46819707
   0.49934574  0.74917262  0.55964001
   0.91627224  0.92226735  0.46707669
   0.41410346  0.91707679  0.47033939
   0.00516338  0.74530627  0.56282365
   0.58333333  0.83333333  0.38179910
   0.33333333  0.08333333  0.38179910
   0.58333333  0.58333333  0.38179910
   0.33333333  0.33333333  0.38179910
   0.16648487  0.40872641  0.46933538
   0.49780101  0.25082443  0.55880062
   0.58333333  0.33333333  0.38179910
   0.33333333  0.58333333  0.38179910
   0.17162481  0.66819748  0.46940293
   0.25224331  0.49849142  0.55811087
   0.33550873  0.08038195  0.60590461
   0.09059549  0.83446478  0.60784995
   0.08319570  0.33507058  0.60786154
   0.82729646  0.83158862  0.61048110
   0.83390053  0.58405190  0.60684177
   0.83516141  0.08792311  0.60842595
   0.58394229  0.33421538  0.60791264
   0.58336680  0.58258278  0.60787958
   0.16520003  0.16752454  0.46757476
   0.42153893  0.41630501  0.46883188
   0.58333333  0.08333333  0.38179910
   0.25026664  0.24540514  0.56295725
   0.25141168  0.00303675  0.55926746
   0.41693094  0.66366486  0.47064549
   0.50181428  0.49983978  0.56177879
   0.75104112  0.74778076  0.56325037
   0.24779239  0.75278355  0.55912136
  -0.00189266  0.49714325  0.56366747
   0.66647533  0.16786219  0.46795879
   0.91356332  0.41757547  0.46804000
   0.08333333  0.33333333  0.38179910
   0.66809044  0.41633070  0.47052810
   0.74870234  0.25109706  0.56208351
   0.83333333  0.58333333  0.38179910
   0.66984779  0.66221794  0.46839077
   0.74764634  0.50163579  0.56180884
   0.00298415 -0.00095875  0.56297844
   0.83333333  0.83333333  0.38179910
   0.91631966  0.16828425  0.47144568
   0.16608785  0.91958761  0.47072783
   0.41654449  0.16853188  0.46954033
   0.49385224  0.00278629  0.55998104
Direct configuration=     4
   0.08333333  0.08333333  0.38179910
   0.33333333  0.83333333  0.38179910
   0.08333333  0.83333333  0.38179910
   0.66436869  0.91928628  0.46895761
   0.83333333  0.33333333  0.38179910
   0.74550578  0.00265508  0.56071226
   0.00010502  0.24899555  0.55808240
   0.83333333  0.08333333  0.38179910
   0.08333333  0.58333333  0.38179910
   0.91298821  0.66355895  0.46810915
   0.49943425  0.74928454  0.55878170
   0.91632560  0.92150972  0.46714032
   0.41445020  0.91702131  0.46996166
   0.00446490  0.74594122  0.56153467
   0.58333333  0.83333333  0.38179910
   0.33333333  0.08333333  0.38179910
   0.58333333  0.58333333  0.38179910
   0.33333333  0.33333333  0.38179910
   0.16650946  0.40980052  0.46909347
   0.49809848  0.25071291  0.55805585
   0.58333333  0.33333333  0.38179910
   0.33333333  0.58333333  0.38179910
   0.17095409  0.66799040  0.46915188
   0.25193985  0.49869549  0.55745941
   0.33521445  0.08078120  0.60756799
   0.08961310  0.83431172  0.60925017
   0.08321432  0.33483557  0.60926019
   0.82811310  0.83182464  0.61152539
   0.83382380  0.58395470  0.60837837
   0.83491411  0.08730223  0.60974825
   0.58385991  0.33409606  0.60930438
   0.58336228  0.58268431  0.60927579
   0.16539843  0.16740850  0.46757102
   0.42087983  0.41635394  0.46865808
   0.58333333  0.08333333  0.38179910
   0.25023057  0.24602671  0.56165020
   0.25122072  0.00262595  0.55845954
   0.41689519  0.66407093  0.47022635
   0.50156885  0.49986146  0.56063115
   0.75090029  0.74808096  0.56190366
   0.24809103  0.75240700  0.55833321
  -0.00163663  0.49752969  0.56226435
   0.66650121  0.16770047  0.46790309
   0.91398312  0.41745253  0.46797332
   0.08333333  0.33333333  0.38179910
   0.66789784  0.41637615  0.47012485
   0.74887788  0.25094865  0.56089465
   0.83333333  0.58333333  0.38179910
   0.66941746  0.66281974  0.46827664
   0.74796473  0.50141451  0.56065714
   0.00258047 -0.00082905  0.56166852
   0.83333333  0.83333333  0.38179910
   0.91636660  0.16806543  0.47091829
   0.16616615  0.91919248  0.47029755
   0.41656102  0.16827956  0.46927069
   0.49468388  0.00240937  0.55907659
Direct configuration=     5
   0.08333333  0.08333333  0.38179910
   0.33333333  0.83333333  0.38179910
   0.08333333  0.83333333  0.38179910
   0.66426332  0.91940640  0.46902229
   0.83333333  0.33333333  0.38179910
   0.74529970  0.00277683  0.56105237
   0.00010983  0.24894949  0.55830192
   0.83333333  0.08333333  0.38179910
   0.08333333  0.58333333  0.38179910
   0.91281953  0.66341645  0.46813492
   0.49940830  0.74925174  0.55903329
   0.91630996  0.92173179  0.46712167
   0.41434856  0.91703757  0.47007238
   0.00466964  0.74575510  0.56191250
   0.58333333  0.83333333  0.38179910
   0.33333333  0.08333333  0.38179910
   0.58333333  0.58333333  0.38179910
   0.33333333  0.33333333  0.38179910
   0.16650226  0.40948568  0.46916438
   0.49801129  0.25074560  0.55827416
   0.58333333  0.33333333  0.38179910
   0.33333333  0.58333333  0.38179910
   0.17115069  0.66805110  0.46922547
   0.25202880  0.49863568  0.55765037
   0.33530071  0.08066417  0.60708042
   0.08990106  0.83435658  0.60883974
   0.08320887  0.33490446  0.60885022
   0.82787373  0.83175546  0.61121929
   0.83384629  0.58398319  0.60792796
   0.83498660  0.08748422  0.60936066
   0.58388406  0.33413103  0.60889643
   0.58336360  0.58265455  0.60886653
   0.16534028  0.16744251  0.46757211
   0.42107303  0.41633960  0.46870903
   0.58333333  0.08333333  0.38179910
   0.25024115  0.24584452  0.56203332
   0.25127669  0.00274637  0.55869636
   0.41690567  0.66395190  0.47034921
   0.50164079  0.49985510  0.56096755
   0.75094157  0.74799297  0.56229841
   0.24800349  0.75251738  0.55856423
  -0.00171168  0.49741642  0.56267563
   0.66649362  0.16774787  0.46791942
   0.91386007  0.41748856  0.46799286
   0.08333333  0.33333333  0.38179910
   0.66795429  0.41636282  0.47024305
   0.74882643  0.25099215  0.56124313
   0.83333333  0.58333333  0.38179910
   0.66954360  0.66264334  0.46831010
   0.74787140  0.50147937  0.56099473
   0.00269880 -0.00086707  0.56205249
   0.83333333  0.83333333  0.38179910
   0.91635284  0.16812957  0.47107288
   0.16614320  0.91930830  0.47042368
   0.41655617  0.16835352  0.46934973
   0.49444011  0.00251985  0.55934171
Direct configuration=     6
   0.08333333  0.08333333  0.38179910
   0.33333333  0.83333333  0.38179910
   0.08333333  0.83333333  0.38179910
   0.66431476  0.91962185  0.47104018
   0.83333333  0.33333333  0.38179910
   0.73876365  0.00390969  0.56178496
  -0.00329037  0.24527185  0.55844537
   0.83333333  0.08333333  0.38179910
   0.08333333  0.58333333  0.38179910
   0.91385539  0.66388325  0.47014958
   0.49479106  0.75652630  0.55949667
   0.91635160  0.92101465  0.46914157
   0.41471838  0.91602091  0.47169101
   0.00762640  0.73781441  0.56236524
   0.58333333  0.83333333  0.38179910
   0.33333333  0.08333333  0.38179910
   0.58333333  0.58333333  0.38179910
   0.33333333  0.33333333  0.38179910
   0.16601951  0.40971197  0.47124218
   0.49395263  0.24863609  0.55851483
   0.58333333  0.33333333  0.38179910
   0.33333333  0.58333333  0.38179910
   0.16964625  0.66782191  0.47093719
   0.25234435  0.49771517  0.55873379
   0.33703278  0.07791678  0.60603393
   0.09494489  0.83536732  0.60819954
   0.08425265  0.33495692  0.60814713
   0.82425663  0.83216758  0.61074494
   0.83240156  0.58415738  0.60629977
   0.83752228  0.08991871  0.60781684
   0.58354787  0.33597233  0.60784398
   0.58324601  0.58146699  0.60814742
   0.16468467  0.16709462  0.46857908
   0.42163843  0.41588704  0.47021415
   0.58333333  0.08333333  0.38179910
   0.25131624  0.24986289  0.56324552
   0.24903919 -0.00030534  0.55932621
   0.41799791  0.66392352  0.47213880
   0.49772125  0.50135226  0.56203619
   0.74680569  0.75164982  0.56374091
   0.25202022  0.75117332  0.55944666
   0.00226612  0.49885360  0.56348625
   0.66650546  0.16803658  0.46939731
   0.91358231  0.41654810  0.46924171
   0.08333333  0.33333333  0.38179910
   0.66848729  0.41607463  0.47199676
   0.75198777  0.25205699  0.56256157
   0.83333333  0.58333333  0.38179910
   0.66826122  0.66275883  0.46967568
   0.74994594  0.49731208  0.56228999
   0.00396014  0.00273856  0.56382424
   0.83333333  0.83333333  0.38179910
   0.91618302  0.16906548  0.47303799
   0.16574831  0.92068899  0.47219000
   0.41673925  0.16887627  0.47082930
   0.49937147 -0.00013370  0.56020422
Direct configuration=     7
   0.08333333  0.08333333  0.38179910
   0.33333333  0.83333333  0.38179910
   0.08333333  0.83333333  0.38179910
   0.66433158  0.91969230  0.47169995
   0.83333333  0.33333333  0.38179910
   0.73662661  0.00428009  0.56202448
  -0.00440211  0.24406940  0.55849228
   0.83333333  0.08333333  0.38179910
   0.08333333  0.58333333  0.38179910
   0.91419407  0.66403588  0.47080829
   0.49328140  0.75890481  0.55964818
   0.91636522  0.92078017  0.46980200
   0.41483930  0.91568851  0.47222024
   0.00859314  0.73521811  0.56251327
   0.58333333  0.83333333  0.38179910
   0.33333333  0.08333333  0.38179910
   0.58333333  0.58333333  0.38179910
   0.33333333  0.33333333  0.38179910
   0.16586167  0.40978596  0.47192154
   0.49262561  0.24794636  0.55859352
   0.58333333  0.33333333  0.38179910
   0.33333333  0.58333333  0.38179910
   0.16915435  0.66774698  0.47149686
   0.25244752  0.49741420  0.55908802
   0.33759910  0.07701848  0.60569176
   0.09659403  0.83569779  0.60799022
   0.08459392  0.33497407  0.60791725
   0.82307398  0.83230232  0.61058985
   0.83192919  0.58421433  0.60576742
   0.83835135  0.09071469  0.60731207
   0.58343795  0.33657437  0.60749987
   0.58320756  0.58107871  0.60791230
   0.16447032  0.16698087  0.46890832
   0.42182330  0.41573907  0.47070627
   0.58333333  0.08333333  0.38179910
   0.25166775  0.25117675  0.56364186
   0.24830762 -0.00130313  0.55953214
   0.41835503  0.66391424  0.47272393
   0.49643971  0.50184178  0.56238560
   0.74545342  0.75284547  0.56421256
   0.25333353  0.75073386  0.55973518
   0.00356671  0.49932351  0.56375129
   0.66650933  0.16813098  0.46988053
   0.91349149  0.41624060  0.46965003
   0.08333333  0.33333333  0.38179910
   0.66866156  0.41598040  0.47257015
   0.75302141  0.25240515  0.56299265
   0.83333333  0.58333333  0.38179910
   0.66784194  0.66279660  0.47012217
   0.75062424  0.49594953  0.56271349
   0.00437255  0.00391747  0.56440354
   0.83333333  0.83333333  0.38179910
   0.91612749  0.16937149  0.47368051
   0.16561920  0.92114042  0.47276753
   0.41679911  0.16904719  0.47131306
   0.50098383 -0.00100131  0.56048622
Direct configuration=     8
   0.08333333  0.08333333  0.38179910
   0.33333333  0.83333333  0.38179910
   0.08333333  0.83333333  0.38179910
   0.66454899  0.91891806  0.47232128
   0.83333333  0.33333333  0.38179910
   0.73604090  0.00648748  0.56253485
  -0.00260092  0.24547582  0.55909422
   0.83333333  0.08333333  0.38179910
   0.08333333  0.58333333  0.38179910
   0.91424212  0.66434121  0.47204335
   0.49319093  0.76035259  0.56044737
   0.91648209  0.92034435  0.47163277
   0.41494220  0.91623334  0.47256177
   0.00960065  0.73508440  0.56308226
   0.58333333  0.83333333  0.38179910
   0.33333333  0.08333333  0.38179910
   0.58333333  0.58333333  0.38179910
   0.33333333  0.33333333  0.38179910
   0.16551192  0.41045749  0.47290468
   0.49222847  0.24794897  0.55900254
   0.58333333  0.33333333  0.38179910
   0.33333333  0.58333333  0.38179910
   0.16874970  0.66757850  0.47237378
   0.25426439  0.49691227  0.56006347
   0.33812884  0.07510558  0.60602515
   0.09907832  0.83551805  0.60878092
   0.08412640  0.33348309  0.60854497
   0.82258919  0.83396228  0.61196298
   0.83164639  0.58368036  0.60633661
   0.83888666  0.09037048  0.60832053
   0.58260727  0.33652211  0.60805467
   0.58230637  0.58168910  0.60841512
   0.16467973  0.16674835  0.46980269
   0.42148467  0.41599608  0.47172074
   0.58333333  0.08333333  0.38179910
   0.25218272  0.25134920  0.56393820
   0.24675739 -0.00077553  0.55985663
   0.41857079  0.66363234  0.47362976
   0.49298482  0.50383703  0.56195989
   0.74022387  0.75370758  0.56359928
   0.25638463  0.74852077  0.55980166
   0.00529567  0.49896826  0.56339762
   0.66696691  0.16811517  0.47111376
   0.91372181  0.41616131  0.47063667
   0.08333333  0.33333333  0.38179910
   0.66848066  0.41588586  0.47377920
   0.75094117  0.25572256  0.56246928
   0.83333333  0.58333333  0.38179910
   0.66740033  0.66309667  0.47129838
   0.75102891  0.49380122  0.56250452
   0.00694047  0.00180039  0.56439108
   0.83333333  0.83333333  0.38179910
   0.91537968  0.16887385  0.47398059
   0.16504758  0.92107204  0.47366742
   0.41632755  0.16872068  0.47189669
   0.50172143 -0.00228618  0.56089659
Direct configuration=     9
   0.08333333  0.08333333  0.38179910
   0.33333333  0.83333333  0.38179910
   0.08333333  0.83333333  0.38179910
   0.66461574  0.91868034  0.47251205
   0.83333333  0.33333333  0.38179910
   0.73586107  0.00716522  0.56269155
  -0.00204789  0.24590764  0.55927903
   0.83333333  0.08333333  0.38179910
   0.08333333  0.58333333  0.38179910
   0.91425687  0.66443496  0.47242256
   0.49316316  0.76079711  0.56069274
   0.91651798  0.92021054  0.47219488
   0.41497380  0.91640062  0.47266663
   0.00991000  0.73504334  0.56325696
   0.58333333  0.83333333  0.38179910
   0.33333333  0.08333333  0.38179910
   0.58333333  0.58333333  0.38179910
   0.33333333  0.33333333  0.38179910
   0.16540453  0.41066367  0.47320654
   0.49210653  0.24794976  0.55912812
   0.58333333  0.33333333  0.38179910
   0.33333333  0.58333333  0.38179910
   0.16862546  0.66752676  0.47264302
   0.25482223  0.49675816  0.56036296
   0.33829150  0.07451825  0.60612751
   0.09984109  0.83546287  0.60902369
   0.08398285  0.33302531  0.60873770
   0.82244035  0.83447194  0.61238458
   0.83155956  0.58351642  0.60651138
   0.83905101  0.09026479  0.60863016
   0.58235223  0.33650607  0.60822501
   0.58202967  0.58187651  0.60856950
   0.16474402  0.16667696  0.47007729
   0.42138070  0.41607499  0.47203222
   0.58333333  0.08333333  0.38179910
   0.25234083  0.25140214  0.56402919
   0.24628141 -0.00061355  0.55995625
   0.41863704  0.66354578  0.47390788
   0.49192405  0.50444964  0.56182918
   0.73861821  0.75397227  0.56341098
   0.25732143  0.74784128  0.55982207
   0.00582652  0.49885919  0.56328903
   0.66710740  0.16811032  0.47149241
   0.91379253  0.41613697  0.47093961
   0.08333333  0.33333333  0.38179910
   0.66842512  0.41585683  0.47415042
   0.75030247  0.25674112  0.56230859
   0.83333333  0.58333333  0.38179910
   0.66726474  0.66318881  0.47165952
   0.75115316  0.49314162  0.56244036
   0.00772891  0.00115037  0.56438725
   0.83333333  0.83333333  0.38179910
   0.91515007  0.16872106  0.47407272
   0.16487207  0.92105105  0.47394372
   0.41618277  0.16862044  0.47207588
   0.50194790 -0.00268068  0.56102259
Direct configuration=    10
   0.08333333  0.08333333  0.38179910
   0.33333333  0.83333333  0.38179910
   0.08333333  0.83333333  0.38179910
   0.66495889  0.91824029  0.47270897
   0.83333333  0.33333333  0.38179910
   0.73776375  0.00785492  0.56409263
  -0.00083685  0.24648739  0.55984432
   0.83333333  0.08333333  0.38179910
   0.08333333  0.58333333  0.38179910
   0.91396774  0.66463084  0.47331640
   0.49332779  0.76026584  0.56203899
   0.91646618  0.91988653  0.47368540
   0.41454960  0.91709271  0.47268858
   0.00877859  0.73757730  0.56470044
   0.58333333  0.83333333  0.38179910
   0.33333333  0.08333333  0.38179910
   0.58333333  0.58333333  0.38179910
   0.33333333  0.33333333  0.38179910
   0.16547536  0.41112618  0.47371957
   0.49282466  0.24799789  0.55995397
   0.58333333  0.33333333  0.38179910
   0.33333333  0.58333333  0.38179910
   0.16868096  0.66731640  0.47313098
   0.25555651  0.49657830  0.56177372
   0.33843585  0.07308233  0.60656832
   0.10312885  0.83444650  0.60984442
   0.08348304  0.33236023  0.60953211
   0.82089372  0.83521203  0.61248870
   0.83130370  0.58360435  0.60622449
   0.83936671  0.09104246  0.60882398
   0.58101136  0.33752523  0.60854183
   0.58094084  0.58222920  0.60870622
   0.16493827  0.16656481  0.47073291
   0.42085174  0.41624839  0.47260304
   0.58333333  0.08333333  0.38179910
   0.25298510  0.24973806  0.56472716
   0.24590372  0.00056562  0.56047854
   0.41861704  0.66356117  0.47436979
   0.49157728  0.50485912  0.56208356
   0.73904808  0.75346022  0.56432319
   0.25811179  0.74699720  0.56033187
   0.00495373  0.49886093  0.56376165
   0.66728279  0.16791261  0.47237893
   0.91386677  0.41622771  0.47162234
   0.08333333  0.33333333  0.38179910
   0.66802941  0.41597244  0.47487019
   0.74956115  0.25620112  0.56257139
   0.83333333  0.58333333  0.38179910
   0.66710400  0.66318565  0.47252380
   0.75074099  0.49348895  0.56283461
   0.00751999  0.00034300  0.56468572
   0.83333333  0.83333333  0.38179910
   0.91480532  0.16834878  0.47439790
   0.16459077  0.92054578  0.47441623
   0.41579881  0.16820781  0.47240238
   0.50118698 -0.00225461  0.56153843
Direct configuration=    11
   0.08333333  0.08333333  0.38179910
   0.33333333  0.83333333  0.38179910
   0.08333333  0.83333333  0.38179910
   0.66521208  0.91791562  0.47285427
   0.83333333  0.33333333  0.38179910
   0.73916761  0.00836381  0.56512638
   0.00005670  0.24691515  0.56026141
   0.83333333  0.08333333  0.38179910
   0.08333333  0.58333333  0.38179910
   0.91375442  0.66477537  0.47397590
   0.49344926  0.75987386  0.56303229
   0.91642796  0.91964746  0.47478515
   0.41423661  0.91760336  0.47270478
   0.00794380  0.73944693  0.56576549
   0.58333333  0.83333333  0.38179910
   0.33333333  0.08333333  0.38179910
   0.58333333  0.58333333  0.38179910
   0.33333333  0.33333333  0.38179910
   0.16552763  0.41146743  0.47409811
   0.49335452  0.24803340  0.56056330
   0.58333333  0.33333333  0.38179910
   0.33333333  0.58333333  0.38179910
   0.16872191  0.66716119  0.47349100
   0.25609829  0.49644560  0.56281462
   0.33854236  0.07202286  0.60689356
   0.10555466  0.83369659  0.61044999
   0.08311426  0.33186951  0.61011826
   0.81975257  0.83575808  0.61256553
   0.83111492  0.58366922  0.60601281
   0.83959963  0.09161625  0.60896700
   0.58002203  0.33827720  0.60877559
   0.58013748  0.58248942  0.60880710
   0.16508159  0.16648206  0.47121665
   0.42046146  0.41637633  0.47302421
   0.58333333  0.08333333  0.38179910
   0.25346047  0.24851026  0.56524215
   0.24562504  0.00143565  0.56086389
   0.41860228  0.66357252  0.47471060
   0.49132143  0.50516124  0.56227125
   0.73936526  0.75308240  0.56499624
   0.25869494  0.74637441  0.56070801
   0.00430976  0.49886221  0.56411037
   0.66741220  0.16776673  0.47303303
   0.91392154  0.41629467  0.47212609
   0.08333333  0.33333333  0.38179910
   0.66773745  0.41605775  0.47540125
   0.74901418  0.25580269  0.56276529
   0.83333333  0.58333333  0.38179910
   0.66698540  0.66318332  0.47316148
   0.75043688  0.49374523  0.56312550
   0.00736584 -0.00025271  0.56490593
   0.83333333  0.83333333  0.38179910
   0.91455096  0.16807411  0.47463782
   0.16438321  0.92017298  0.47476487
   0.41551551  0.16790337  0.47264328
   0.50062555 -0.00194024  0.56191904
Direct configuration=    12
   0.08333333  0.08333333  0.38179910
   0.33333333  0.83333333  0.38179910
   0.08333333  0.83333333  0.38179910
   0.66537051  0.91812188  0.47323835
   0.83333333  0.33333333  0.38179910
   0.73836575  0.00844743  0.56642674
  -0.00103271  0.24603858  0.56058317
   0.83333333  0.08333333  0.38179910
   0.08333333  0.58333333  0.38179910
   0.91367688  0.66481065  0.47468245
   0.49245101  0.76116961  0.56426857
   0.91629025  0.91925428  0.47573446
   0.41395618  0.91738621  0.47298970
   0.00845169  0.73987557  0.56743182
   0.58333333  0.83333333  0.38179910
   0.33333333  0.08333333  0.38179910
   0.58333333  0.58333333  0.38179910
   0.33333333  0.33333333  0.38179910
   0.16593641  0.41164705  0.47462743
   0.49344327  0.24722621  0.56142405
   0.58333333  0.33333333  0.38179910
   0.33333333  0.58333333  0.38179910
   0.16864958  0.66680229  0.47404565
   0.25443769  0.49682142  0.56443409
   0.33868615  0.07095389  0.60807451
   0.10873030  0.83324985  0.61168285
   0.08302049  0.33211708  0.61121697
   0.81783805  0.83624941  0.61317139
   0.83114279  0.58306238  0.60639546
   0.84047402  0.09307056  0.60972569
   0.57895340  0.33979625  0.60942246
   0.57948136  0.58211582  0.60943979
   0.16484336  0.16663337  0.47155065
   0.41992142  0.41624450  0.47344777
   0.58333333  0.08333333  0.38179910
   0.25372511  0.24821083  0.56613210
   0.24566362  0.00077804  0.56118420
   0.41848457  0.66402333  0.47499631
   0.49237876  0.50436833  0.56263197
   0.73977841  0.75437430  0.56577554
   0.25835966  0.74669289  0.56124419
   0.00473293  0.49885590  0.56481672
   0.66715842  0.16740972  0.47361407
   0.91383950  0.41627693  0.47248547
   0.08333333  0.33333333  0.38179910
   0.66738713  0.41609365  0.47577125
   0.74962963  0.25518137  0.56317715
   0.83333333  0.58333333  0.38179910
   0.66667210  0.66333975  0.47380809
   0.74984984  0.49377046  0.56356038
   0.00783148 -0.00012083  0.56531432
   0.83333333  0.83333333  0.38179910
   0.91475485  0.16812008  0.47518362
   0.16448945  0.91967050  0.47507152
   0.41554845  0.16789939  0.47299887
   0.50188856 -0.00204649  0.56218190
Direct configuration=    13
   0.08333333  0.08333333  0.38179910
   0.33333333  0.83333333  0.38179910
   0.08333333  0.83333333  0.38179910
   0.66554123  0.91834416  0.47365223
   0.83333333  0.33333333  0.38179910
   0.73750167  0.00853754  0.56782801
  -0.00220666  0.24509399  0.56092990
   0.83333333  0.08333333  0.38179910
   0.08333333  0.58333333  0.38179910
   0.91359333  0.66484867  0.47544383
   0.49137531  0.76256592  0.56560079
   0.91614185  0.91883060  0.47675742
   0.41365399  0.91715222  0.47329673
   0.00899898  0.74033748  0.56922746
   0.58333333  0.83333333  0.38179910
   0.33333333  0.08333333  0.38179910
   0.58333333  0.58333333  0.38179910
   0.33333333  0.33333333  0.38179910
   0.16637691  0.41184062  0.47519782
   0.49353890  0.24635639  0.56235159
   0.58333333  0.33333333  0.38179910
   0.33333333  0.58333333  0.38179910
   0.16857165  0.66641553  0.47464333
   0.25264824  0.49722641  0.56617923
   0.33884110  0.06980198  0.60934710
   0.11215236  0.83276845  0.61301138
   0.08291945  0.33238387  0.61240094
   0.81577496  0.83677887  0.61382425
   0.83117283  0.58240846  0.60680781
   0.84141625  0.09463771  0.61054326
   0.57780185  0.34143317  0.61011954
   0.57877434  0.58171322  0.61012158
   0.16458664  0.16679642  0.47191056
   0.41933947  0.41610245  0.47390419
   0.58333333  0.08333333  0.38179910
   0.25401029  0.24788816  0.56709112
   0.24570518  0.00006941  0.56152936
   0.41835773  0.66450912  0.47530420
   0.49351813  0.50351389  0.56302067
   0.74022362  0.75576645  0.56661531
   0.25799836  0.74703608  0.56182198
   0.00518894  0.49884909  0.56557788
   0.66688494  0.16702501  0.47424020
   0.91375109  0.41625782  0.47287274
   0.08333333  0.33333333  0.38179910
   0.66700963  0.41613233  0.47616997
   0.75029283  0.25451185  0.56362096
   0.83333333  0.58333333  0.38179910
   0.66633448  0.66350832  0.47450487
   0.74921726  0.49379766  0.56402901
   0.00833325  0.00002129  0.56575439
   0.83333333  0.83333333  0.38179910
   0.91497457  0.16816962  0.47577178
   0.16460394  0.91912902  0.47540197
   0.41558394  0.16789511  0.47338206
   0.50324957 -0.00216098  0.56246517
Direct configuration=    14
   0.08333333  0.08333333  0.38179910
   0.33333333  0.83333333  0.38179910
   0.08333333  0.83333333  0.38179910
   0.66533733  0.91869027  0.47394649
   0.83333333  0.33333333  0.38179910
   0.73625212  0.00974823  0.56907382
  -0.00278330  0.24535489  0.56159249
   0.83333333  0.08333333  0.38179910
   0.08333333  0.58333333  0.38179910
   0.91372903  0.66465358  0.47595209
   0.49064271  0.76404089  0.56670517
   0.91611571  0.91858400  0.47724851
   0.41374151  0.91663783  0.47378069
   0.01043053  0.73978564  0.57103583
   0.58333333  0.83333333  0.38179910
   0.33333333  0.08333333  0.38179910
   0.58333333  0.58333333  0.38179910
   0.33333333  0.33333333  0.38179910
   0.16672571  0.41163442  0.47573301
   0.49249366  0.24687577  0.56319090
   0.58333333  0.33333333  0.38179910
   0.33333333  0.58333333  0.38179910
   0.16844998  0.66601483  0.47530293
   0.25180631  0.49721795  0.56767179
   0.33972241  0.06873602  0.61006528
   0.11370631  0.83402318  0.61443329
   0.08288776  0.33267894  0.61295625
   0.81499246  0.83732668  0.61571915
   0.83111758  0.58199617  0.60750763
   0.84291507  0.09545601  0.61157685
   0.57796604  0.34187796  0.61090165
   0.57874360  0.58117911  0.61102044
   0.16427224  0.16714149  0.47203370
   0.41900646  0.41597573  0.47444770
   0.58333333  0.08333333  0.38179910
   0.25318737  0.24776640  0.56839298
   0.24681311 -0.00060182  0.56197569
   0.41819910  0.66471893  0.47567180
   0.49318133  0.50311735  0.56310145
   0.73991141  0.75515522  0.56679887
   0.25830087  0.74666756  0.56205360
   0.00596843  0.49799636  0.56656786
   0.66653508  0.16674580  0.47457329
   0.91362250  0.41632797  0.47300292
   0.08333333  0.33333333  0.38179910