  48  48   0   0
  0.5349325E+02  0.1100258E-08  0.1100258E-08  0.2449179E-08  0.3500000E-15
  1.000000000000000E-004
  CAR 
 unknown system                          
      6.32939746     -9.68652181  301     -1.09167564      1.00000000
     -9.687  0.0000E+00  0.0000E+00
     -9.633  0.0000E+00  0.0000E+00
     -9.580  0.0000E+00  0.0000E+00
     -9.526  0.0000E+00  0.0000E+00
     -9.473  0.0000E+00  0.0000E+00
     -9.420  0.0000E+00  0.0000E+00
     -9.366  0.0000E+00  0.0000E+00
     -9.313  0.0000E+00  0.0000E+00
     -9.259  0.6239E-17  0.3331E-18
     -9.206  0.2299E-14  0.1231E-15
     -9.153  0.5096E-12  0.2733E-13
     -9.099  0.6468E-10  0.3480E-11
     -9.046  0.4708E-08  0.2548E-09
     -8.992  0.1970E-06  0.1077E-07
     -8.939  0.4746E-05  0.2641E-06
     -8.886  0.6602E-04  0.3789E-05
     -8.832  0.5316E-03  0.3217E-04
     -8.779  0.2485E-02  0.1648E-03
     -8.726  0.6773E-02  0.5264E-03
     -8.672  0.1097E-01  0.1112E-02
     -8.619  0.1150E-01  0.1726E-02
     -8.565  0.1055E-01  0.2289E-02
     -8.512  0.1135E-01  0.2895E-02
     -8.459  0.1080E-01  0.3471E-02
     -8.405  0.6736E-02  0.3831E-02
     -8.352  0.2527E-02  0.3966E-02
     -8.298  0.5612E-03  0.3996E-02
     -8.245  0.9873E-04  0.4001E-02
     -8.192  0.2392E-03  0.4014E-02
     -8.138  0.1252E-02  0.4081E-02
     -8.085  0.4125E-02  0.4301E-02
     -8.032  0.8964E-02  0.4780E-02
     -7.978  0.1457E-01  0.5557E-02
     -7.925  0.2019E-01  0.6635E-02
     -7.871  0.2458E-01  0.7948E-02
     -7.818  0.2513E-01  0.9289E-02
     -7.765  0.2126E-01  0.1042E-01
     -7.711  0.1551E-01  0.1125E-01
     -7.658  0.1138E-01  0.1186E-01
     -7.604  0.1131E-01  0.1246E-01
     -7.551  0.1486E-01  0.1326E-01
     -7.498  0.1806E-01  0.1422E-01
     -7.444  0.1778E-01  0.1517E-01
     -7.391  0.1576E-01  0.1601E-01
     -7.338  0.1582E-01  0.1686E-01
     -7.284  0.1831E-01  0.1783E-01
     -7.231  0.2211E-01  0.1901E-01
     -7.177  0.2743E-01  0.2048E-01
     -7.124  0.3404E-01  0.2230E-01
     -7.071  0.4218E-01  0.2455E-01
     -7.017  0.5100E-01  0.2727E-01
     -6.964  0.5739E-01  0.3033E-01
     -6.910  0.6225E-01  0.3366E-01
     -6.857  0.6894E-01  0.3734E-01
     -6.804  0.7570E-01  0.4138E-01
     -6.750  0.7814E-01  0.4555E-01
     -6.697  0.7654E-01  0.4964E-01
     -6.643  0.7596E-01  0.5369E-01
     -6.590  0.8024E-01  0.5798E-01
     -6.537  0.8940E-01  0.6275E-01
     -6.483  0.1006E+00  0.6812E-01
     -6.430  0.1097E+00  0.7398E-01
     -6.377  0.1180E+00  0.8028E-01
     -6.323  0.1300E+00  0.8722E-01
     -6.270  0.1418E+00  0.9479E-01
     -6.216  0.1461E+00  0.1026E+00
     -6.163  0.1423E+00  0.1102E+00
     -6.110  0.1367E+00  0.1175E+00
     -6.056  0.1371E+00  0.1248E+00
     -6.003  0.1472E+00  0.1327E+00
     -5.949  0.1629E+00  0.1414E+00
     -5.896  0.1739E+00  0.1507E+00
     -5.843  0.1713E+00  0.1598E+00
     -5.789  0.1571E+00  0.1682E+00
     -5.736  0.1429E+00  0.1758E+00
     -5.683  0.1365E+00  0.1831E+00
     -5.629  0.1364E+00  0.1904E+00
     -5.576  0.1381E+00  0.1978E+00
     -5.522  0.1400E+00  0.2052E+00
     -5.469  0.1420E+00  0.2128E+00
     -5.416  0.1440E+00  0.2205E+00
     -5.362  0.1477E+00  0.2284E+00
     -5.309  0.1545E+00  0.2366E+00
     -5.255  0.1629E+00  0.2453E+00
     -5.202  0.1712E+00  0.2545E+00
     -5.149  0.1785E+00  0.2640E+00
     -5.095  0.1823E+00  0.2737E+00
     -5.042  0.1809E+00  0.2834E+00
     -4.989  0.1772E+00  0.2928E+00
     -4.935  0.1741E+00  0.3021E+00
     -4.882  0.1723E+00  0.3113E+00
     -4.828  0.1726E+00  0.3206E+00
     -4.775  0.1741E+00  0.3298E+00
     -4.722  0.1725E+00  0.3391E+00
     -4.668  0.1687E+00  0.3481E+00
     -4.615  0.1676E+00  0.3570E+00
     -4.561  0.1692E+00  0.3660E+00
     -4.508  0.1713E+00  0.3752E+00
     -4.455  0.1718E+00  0.3844E+00
     -4.401  0.1719E+00  0.3935E+00
     -4.348  0.1759E+00  0.4029E+00
     -4.294  0.1819E+00  0.4126E+00
     -4.241  0.1864E+00  0.4226E+00
     -4.188  0.1888E+00  0.4327E+00
     -4.134  0.1888E+00  0.4427E+00
     -4.081  0.1866E+00  0.4527E+00
     -4.028  0.1844E+00  0.4626E+00
     -3.974  0.1836E+00  0.4724E+00
     -3.921  0.1837E+00  0.4822E+00
     -3.867  0.1850E+00  0.4920E+00
     -3.814  0.1878E+00  0.5021E+00
     -3.761  0.1917E+00  0.5123E+00
     -3.707  0.1997E+00  0.5230E+00
     -3.654  0.2117E+00  0.5343E+00
     -3.600  0.2207E+00  0.5461E+00
     -3.547  0.2221E+00  0.5579E+00
     -3.494  0.2192E+00  0.5696E+00
     -3.440  0.2167E+00  0.5812E+00
     -3.387  0.2144E+00  0.5926E+00
     -3.334  0.2122E+00  0.6040E+00
     -3.280  0.2121E+00  0.6153E+00
     -3.227  0.2107E+00  0.6265E+00
     -3.173  0.2022E+00  0.6373E+00
     -3.120  0.1877E+00  0.6473E+00
     -3.067  0.1762E+00  0.6568E+00
     -3.013  0.1750E+00  0.6661E+00
     -2.960  0.1803E+00  0.6757E+00
     -2.906  0.1830E+00  0.6855E+00
     -2.853  0.1793E+00  0.6951E+00
     -2.800  0.1740E+00  0.7044E+00
     -2.746  0.1713E+00  0.7135E+00
     -2.693  0.1695E+00  0.7225E+00
     -2.640  0.1670E+00  0.7315E+00
     -2.586  0.1661E+00  0.7403E+00
     -2.533  0.1680E+00  0.7493E+00
     -2.479  0.1713E+00  0.7584E+00
     -2.426  0.1747E+00  0.7678E+00
     -2.373  0.1783E+00  0.7773E+00
     -2.319  0.1818E+00  0.7870E+00
     -2.266  0.1845E+00  0.7968E+00
     -2.212  0.1859E+00  0.8068E+00
     -2.159  0.1865E+00  0.8167E+00
     -2.106  0.1866E+00  0.8267E+00
     -2.052  0.1861E+00  0.8366E+00
     -1.999  0.1848E+00  0.8465E+00
     -1.945  0.1823E+00  0.8562E+00
     -1.892  0.1806E+00  0.8659E+00
     -1.839  0.1832E+00  0.8757E+00
     -1.785  0.1888E+00  0.8857E+00
     -1.732  0.1918E+00  0.8960E+00
     -1.679  0.1900E+00  0.9061E+00
     -1.625  0.1861E+00  0.9161E+00
     -1.572  0.1822E+00  0.9258E+00
     -1.518  0.1796E+00  0.9354E+00
     -1.465  0.1796E+00  0.9450E+00
     -1.412  0.1821E+00  0.9547E+00
     -1.358  0.1861E+00  0.9646E+00
     -1.305  0.1883E+00  0.9747E+00
     -1.251  0.1837E+00  0.9845E+00
     -1.198  0.1695E+00  0.9935E+00
     -1.145  0.1481E+00  0.1001E+01
     -1.091  0.1237E+00  0.1008E+01
     -1.038  0.9705E-01  0.1013E+01
     -0.985  0.6733E-01  0.1017E+01
     -0.931  0.3881E-01  0.1019E+01
     -0.878  0.2015E-01  0.1020E+01
     -0.824  0.1493E-01  0.1021E+01
     -0.771  0.1743E-01  0.1022E+01
     -0.718  0.2012E-01  0.1023E+01
     -0.664  0.2183E-01  0.1024E+01
     -0.611  0.2559E-01  0.1025E+01
     -0.557  0.3337E-01  0.1027E+01
     -0.504  0.4258E-01  0.1029E+01
     -0.451  0.4567E-01  0.1032E+01
     -0.397  0.3891E-01  0.1034E+01
     -0.344  0.2806E-01  0.1035E+01
     -0.291  0.2373E-01  0.1037E+01
     -0.237  0.3091E-01  0.1038E+01
     -0.184  0.4219E-01  0.1041E+01
     -0.130  0.4685E-01  0.1043E+01
     -0.077  0.4209E-01  0.1045E+01
     -0.024  0.3160E-01  0.1047E+01
      0.030  0.2331E-01  0.1048E+01
      0.083  0.2501E-01  0.1050E+01
      0.137  0.3342E-01  0.1051E+01
      0.190  0.3774E-01  0.1053E+01
      0.243  0.3597E-01  0.1055E+01
      0.297  0.3560E-01  0.1057E+01
      0.350  0.3832E-01  0.1059E+01
      0.404  0.3848E-01  0.1061E+01
      0.457  0.3511E-01  0.1063E+01
      0.510  0.3262E-01  0.1065E+01
      0.564  0.3370E-01  0.1067E+01
      0.617  0.3847E-01  0.1069E+01
      0.670  0.4347E-01  0.1071E+01
      0.724  0.4359E-01  0.1073E+01
      0.777  0.3805E-01  0.1075E+01
      0.831  0.2819E-01  0.1077E+01
      0.884  0.1806E-01  0.1078E+01
      0.937  0.1483E-01  0.1079E+01
      0.991  0.1867E-01  0.1080E+01
      1.044  0.2283E-01  0.1081E+01
      1.098  0.2466E-01  0.1082E+01
      1.151  0.2556E-01  0.1084E+01
      1.204  0.2421E-01  0.1085E+01
      1.258  0.1957E-01  0.1086E+01
      1.311  0.1525E-01  0.1087E+01
      1.364  0.1497E-01  0.1088E+01
      1.418  0.1781E-01  0.1088E+01
      1.471  0.2156E-01  0.1090E+01
      1.525  0.2618E-01  0.1091E+01
      1.578  0.3044E-01  0.1093E+01
      1.631  0.3220E-01  0.1094E+01
      1.685  0.3329E-01  0.1096E+01
      1.738  0.3639E-01  0.1098E+01
      1.792  0.3874E-01  0.1100E+01
      1.845  0.3483E-01  0.1102E+01
      1.898  0.2454E-01  0.1103E+01
      1.952  0.1575E-01  0.1104E+01
      2.005  0.1496E-01  0.1105E+01
      2.058  0.1930E-01  0.1106E+01
      2.112  0.2377E-01  0.1107E+01
      2.165  0.2865E-01  0.1109E+01
      2.219  0.3552E-01  0.1111E+01
      2.272  0.4138E-01  0.1113E+01
      2.325  0.4251E-01  0.1115E+01
      2.379  0.4048E-01  0.1117E+01
      2.432  0.3771E-01  0.1119E+01
      2.486  0.3547E-01  0.1121E+01
      2.539  0.3753E-01  0.1123E+01
      2.592  0.4471E-01  0.1126E+01
      2.646  0.5183E-01  0.1128E+01
      2.699  0.5416E-01  0.1131E+01
      2.753  0.4951E-01  0.1134E+01
      2.806  0.3857E-01  0.1136E+01
      2.859  0.2756E-01  0.1137E+01
      2.913  0.2115E-01  0.1139E+01
      2.966  0.1710E-01  0.1140E+01
      3.019  0.1438E-01  0.1140E+01
      3.073  0.1540E-01  0.1141E+01
      3.126  0.1999E-01  0.1142E+01
      3.180  0.2436E-01  0.1143E+01
      3.233  0.2373E-01  0.1145E+01
      3.286  0.1807E-01  0.1146E+01
      3.340  0.1289E-01  0.1146E+01
      3.393  0.1102E-01  0.1147E+01
      3.447  0.1192E-01  0.1148E+01
      3.500  0.1648E-01  0.1148E+01
      3.553  0.2464E-01  0.1150E+01
      3.607  0.3388E-01  0.1152E+01
      3.660  0.3981E-01  0.1154E+01
      3.713  0.3907E-01  0.1156E+01
      3.767  0.3471E-01  0.1158E+01
      3.820  0.3100E-01  0.1159E+01
      3.874  0.2847E-01  0.1161E+01
      3.927  0.2729E-01  0.1162E+01
      3.980  0.2749E-01  0.1164E+01
      4.034  0.2734E-01  0.1165E+01
      4.087  0.2583E-01  0.1167E+01
      4.141  0.2427E-01  0.1168E+01
      4.194  0.2280E-01  0.1169E+01
      4.247  0.2050E-01  0.1170E+01
      4.301  0.1813E-01  0.1171E+01
      4.354  0.1758E-01  0.1172E+01
      4.407  0.2083E-01  0.1173E+01
      4.461  0.2699E-01  0.1175E+01
      4.514  0.3493E-01  0.1177E+01
      4.568  0.4727E-01  0.1179E+01
      4.621  0.5989E-01  0.1182E+01
      4.674  0.6144E-01  0.1186E+01
      4.728  0.5301E-01  0.1188E+01
      4.781  0.4785E-01  0.1191E+01
      4.835  0.4955E-01  0.1194E+01
      4.888  0.5082E-01  0.1196E+01
      4.941  0.5094E-01  0.1199E+01
      4.995  0.5592E-01  0.1202E+01
      5.048  0.6377E-01  0.1205E+01
      5.102  0.6577E-01  0.1209E+01
      5.155  0.6179E-01  0.1212E+01
      5.208  0.6035E-01  0.1215E+01
      5.262  0.6023E-01  0.1219E+01
      5.315  0.5067E-01  0.1221E+01
      5.368  0.3145E-01  0.1223E+01
      5.422  0.1356E-01  0.1224E+01
      5.475  0.3900E-02  0.1224E+01
      5.529  0.7187E-03  0.1224E+01
      5.582  0.8196E-04  0.1224E+01
      5.635  0.5635E-05  0.1224E+01
      5.689  0.2295E-06  0.1224E+01
      5.742  0.5466E-08  0.1224E+01
      5.796  0.7557E-10  0.1224E+01
      5.849  0.6027E-12  0.1224E+01
      5.902  0.2762E-14  0.1224E+01
      5.956  0.5546E-17  0.1224E+01
      6.009  0.0000E+00  0.1224E+01
      6.062  0.0000E+00  0.1224E+01
      6.116  0.0000E+00  0.1224E+01
      6.169  0.0000E+00  0.1224E+01
      6.223  0.0000E+00  0.1224E+01
      6.276  0.0000E+00  0.1224E+01
      6.329  0.0000E+00  0.1224E+01
