  56  56   0   0
  0.4903395E+02  0.1100258E-08  0.1100258E-08  0.2619179E-08  0.3500000E-15
  1.000000000000000E-004
  CAR 
 unknown system                          
      6.41369599    -21.66024738  301     -1.36763639      1.00000000
    -21.660  0.0000E+00  0.0000E+00
    -21.567  0.0000E+00  0.0000E+00
    -21.473  0.0000E+00  0.0000E+00
    -21.380  0.0000E+00  0.0000E+00
    -21.286  0.0000E+00  0.0000E+00
    -21.192  0.0000E+00  0.0000E+00
    -21.099  0.0000E+00  0.0000E+00
    -21.005  0.0000E+00  0.0000E+00
    -20.912  0.1657E-14  0.1550E-15
    -20.818  0.1659E-10  0.1553E-11
    -20.724  0.3034E-07  0.2841E-08
    -20.631  0.1045E-04  0.9806E-06
    -20.537  0.7143E-03  0.6783E-04
    -20.444  0.1050E-01  0.1050E-02
    -20.350  0.3623E-01  0.4440E-02
    -20.257  0.3112E-01  0.7353E-02
    -20.163  0.7153E-02  0.8022E-02
    -20.069  0.8170E-02  0.8787E-02
    -19.976  0.2820E-01  0.1143E-01
    -19.882  0.3758E-01  0.1494E-01
    -19.789  0.3244E-01  0.1798E-01
    -19.695  0.2270E-01  0.2010E-01
    -19.601  0.2532E-01  0.2247E-01
    -19.508  0.3456E-01  0.2571E-01
    -19.414  0.2057E-01  0.2763E-01
    -19.321  0.3861E-02  0.2799E-01
    -19.227  0.2489E-02  0.2822E-01
    -19.134  0.1453E-01  0.2958E-01
    -19.040  0.1963E-01  0.3142E-01
    -18.946  0.5815E-02  0.3197E-01
    -18.853  0.3623E-03  0.3200E-01
    -18.759  0.4478E-05  0.3200E-01
    -18.666  0.1048E-07  0.3200E-01
    -18.572  0.4499E-11  0.3200E-01
    -18.479  0.3488E-15  0.3200E-01
    -18.385  0.0000E+00  0.3200E-01
    -18.291  0.0000E+00  0.3200E-01
    -18.198  0.0000E+00  0.3200E-01
    -18.104  0.0000E+00  0.3200E-01
    -18.011  0.0000E+00  0.3200E-01
    -17.917  0.0000E+00  0.3200E-01
    -17.823  0.0000E+00  0.3200E-01
    -17.730  0.0000E+00  0.3200E-01
    -17.636  0.0000E+00  0.3200E-01
    -17.543  0.0000E+00  0.3200E-01
    -17.449  0.0000E+00  0.3200E-01
    -17.356  0.0000E+00  0.3200E-01
    -17.262  0.0000E+00  0.3200E-01
    -17.168  0.0000E+00  0.3200E-01
    -17.075  0.0000E+00  0.3200E-01
    -16.981  0.0000E+00  0.3200E-01
    -16.888  0.0000E+00  0.3200E-01
    -16.794  0.0000E+00  0.3200E-01
    -16.701  0.0000E+00  0.3200E-01
    -16.607  0.0000E+00  0.3200E-01
    -16.513  0.0000E+00  0.3200E-01
    -16.420  0.0000E+00  0.3200E-01
    -16.326  0.0000E+00  0.3200E-01
    -16.233  0.0000E+00  0.3200E-01
    -16.139  0.0000E+00  0.3200E-01
    -16.045  0.0000E+00  0.3200E-01
    -15.952  0.0000E+00  0.3200E-01
    -15.858  0.0000E+00  0.3200E-01
    -15.765  0.0000E+00  0.3200E-01
    -15.671  0.0000E+00  0.3200E-01
    -15.578  0.0000E+00  0.3200E-01
    -15.484  0.0000E+00  0.3200E-01
    -15.390  0.0000E+00  0.3200E-01
    -15.297  0.0000E+00  0.3200E-01
    -15.203  0.0000E+00  0.3200E-01
    -15.110  0.0000E+00  0.3200E-01
    -15.016  0.0000E+00  0.3200E-01
    -14.923  0.0000E+00  0.3200E-01
    -14.829  0.0000E+00  0.3200E-01
    -14.735  0.0000E+00  0.3200E-01
    -14.642  0.0000E+00  0.3200E-01
    -14.548  0.0000E+00  0.3200E-01
    -14.455  0.0000E+00  0.3200E-01
    -14.361  0.0000E+00  0.3200E-01
    -14.267  0.0000E+00  0.3200E-01
    -14.174  0.0000E+00  0.3200E-01
    -14.080  0.0000E+00  0.3200E-01
    -13.987  0.0000E+00  0.3200E-01
    -13.893  0.0000E+00  0.3200E-01
    -13.800  0.0000E+00  0.3200E-01
    -13.706  0.0000E+00  0.3200E-01
    -13.612  0.0000E+00  0.3200E-01
    -13.519  0.0000E+00  0.3200E-01
    -13.425  0.0000E+00  0.3200E-01
    -13.332  0.0000E+00  0.3200E-01
    -13.238  0.0000E+00  0.3200E-01
    -13.144  0.0000E+00  0.3200E-01
    -13.051  0.0000E+00  0.3200E-01
    -12.957  0.0000E+00  0.3200E-01
    -12.864  0.0000E+00  0.3200E-01
    -12.770  0.0000E+00  0.3200E-01
    -12.677  0.0000E+00  0.3200E-01
    -12.583  0.0000E+00  0.3200E-01
    -12.489  0.0000E+00  0.3200E-01
    -12.396  0.0000E+00  0.3200E-01
    -12.302  0.0000E+00  0.3200E-01
    -12.209  0.0000E+00  0.3200E-01
    -12.115  0.0000E+00  0.3200E-01
    -12.022  0.0000E+00  0.3200E-01
    -11.928  0.0000E+00  0.3200E-01
    -11.834  0.0000E+00  0.3200E-01
    -11.741  0.0000E+00  0.3200E-01
    -11.647  0.0000E+00  0.3200E-01
    -11.554  0.0000E+00  0.3200E-01
    -11.460  0.0000E+00  0.3200E-01
    -11.366  0.0000E+00  0.3200E-01
    -11.273  0.0000E+00  0.3200E-01
    -11.179  0.0000E+00  0.3200E-01
    -11.086  0.0000E+00  0.3200E-01
    -10.992  0.0000E+00  0.3200E-01
    -10.899  0.0000E+00  0.3200E-01
    -10.805  0.0000E+00  0.3200E-01
    -10.711  0.0000E+00  0.3200E-01
    -10.618  0.0000E+00  0.3200E-01
    -10.524  0.0000E+00  0.3200E-01
    -10.431  0.0000E+00  0.3200E-01
    -10.337  0.0000E+00  0.3200E-01
    -10.244  0.0000E+00  0.3200E-01
    -10.150  0.0000E+00  0.3200E-01
    -10.056  0.0000E+00  0.3200E-01
     -9.963  0.0000E+00  0.3200E-01
     -9.869  0.0000E+00  0.3200E-01
     -9.776  0.0000E+00  0.3200E-01
     -9.682  0.7909E-18  0.3200E-01
     -9.588  0.2408E-13  0.3200E-01
     -9.495  0.1313E-09  0.3200E-01
     -9.401  0.1304E-06  0.3200E-01
     -9.308  0.2420E-04  0.3200E-01
     -9.214  0.8704E-03  0.3208E-01
     -9.121  0.6424E-02  0.3268E-01
     -9.027  0.1077E-01  0.3369E-01
     -8.933  0.8660E-02  0.3450E-01
     -8.840  0.1064E-01  0.3550E-01
     -8.746  0.4942E-02  0.3596E-01
     -8.653  0.2152E-02  0.3616E-01
     -8.559  0.7379E-02  0.3685E-01
     -8.465  0.1174E-01  0.3795E-01
     -8.372  0.1819E-01  0.3965E-01
     -8.278  0.2249E-01  0.4176E-01
     -8.185  0.2050E-01  0.4368E-01
     -8.091  0.4065E-01  0.4748E-01
     -7.998  0.5322E-01  0.5246E-01
     -7.904  0.4062E-01  0.5626E-01
     -7.810  0.3681E-01  0.5971E-01
     -7.717  0.3704E-01  0.6317E-01
     -7.623  0.3965E-01  0.6688E-01
     -7.530  0.5348E-01  0.7189E-01
     -7.436  0.7317E-01  0.7874E-01
     -7.343  0.9848E-01  0.8795E-01
     -7.249  0.1132E+00  0.9855E-01
     -7.155  0.1127E+00  0.1091E+00
     -7.062  0.1197E+00  0.1203E+00
     -6.968  0.1366E+00  0.1331E+00
     -6.875  0.1474E+00  0.1469E+00
     -6.781  0.1493E+00  0.1608E+00
     -6.687  0.1546E+00  0.1753E+00
     -6.594  0.1657E+00  0.1908E+00
     -6.500  0.1652E+00  0.2063E+00
     -6.407  0.1631E+00  0.2215E+00
     -6.313  0.1648E+00  0.2370E+00
     -6.220  0.1695E+00  0.2528E+00
     -6.126  0.1711E+00  0.2688E+00
     -6.032  0.1675E+00  0.2845E+00
     -5.939  0.1680E+00  0.3002E+00
     -5.845  0.1700E+00  0.3161E+00
     -5.752  0.1588E+00  0.3310E+00
     -5.658  0.1565E+00  0.3456E+00
     -5.565  0.1565E+00  0.3603E+00
     -5.471  0.1584E+00  0.3751E+00
     -5.377  0.1654E+00  0.3906E+00
     -5.284  0.1728E+00  0.4068E+00
     -5.190  0.1787E+00  0.4235E+00
     -5.097  0.1745E+00  0.4398E+00
     -5.003  0.1701E+00  0.4557E+00
     -4.909  0.1805E+00  0.4726E+00
     -4.816  0.1865E+00  0.4901E+00
     -4.722  0.1865E+00  0.5075E+00
     -4.629  0.1818E+00  0.5246E+00
     -4.535  0.1752E+00  0.5409E+00
     -4.442  0.1722E+00  0.5571E+00
     -4.348  0.1733E+00  0.5733E+00
     -4.254  0.1724E+00  0.5894E+00
     -4.161  0.1792E+00  0.6062E+00
     -4.067  0.1950E+00  0.6244E+00
     -3.974  0.2063E+00  0.6437E+00
     -3.880  0.2148E+00  0.6638E+00
     -3.787  0.2100E+00  0.6835E+00
     -3.693  0.1929E+00  0.7015E+00
     -3.599  0.1880E+00  0.7191E+00
     -3.506  0.1896E+00  0.7369E+00
     -3.412  0.1866E+00  0.7543E+00
     -3.319  0.1842E+00  0.7716E+00
     -3.225  0.1860E+00  0.7890E+00
     -3.131  0.1854E+00  0.8063E+00
     -3.038  0.1821E+00  0.8234E+00
     -2.944  0.1820E+00  0.8404E+00
     -2.851  0.1866E+00  0.8579E+00
     -2.757  0.1947E+00  0.8761E+00
     -2.664  0.1962E+00  0.8944E+00
     -2.570  0.1949E+00  0.9127E+00
     -2.476  0.1977E+00  0.9312E+00
     -2.383  0.1981E+00  0.9497E+00
     -2.289  0.1992E+00  0.9684E+00
     -2.196  0.1936E+00  0.9865E+00
     -2.102  0.1816E+00  0.1003E+01
     -2.008  0.1808E+00  0.1020E+01
     -1.915  0.1814E+00  0.1037E+01
     -1.821  0.1714E+00  0.1053E+01
     -1.728  0.1455E+00  0.1067E+01
     -1.634  0.1245E+00  0.1079E+01
     -1.541  0.1083E+00  0.1089E+01
     -1.447  0.9455E-01  0.1098E+01
     -1.353  0.7862E-01  0.1105E+01
     -1.260  0.6617E-01  0.1111E+01
     -1.166  0.5799E-01  0.1117E+01
     -1.073  0.5299E-01  0.1122E+01
     -0.979  0.5410E-01  0.1127E+01
     -0.886  0.4506E-01  0.1131E+01
     -0.792  0.5141E-01  0.1136E+01
     -0.698  0.6453E-01  0.1142E+01
     -0.605  0.6883E-01  0.1148E+01
     -0.511  0.6372E-01  0.1154E+01
     -0.418  0.4838E-01  0.1159E+01
     -0.324  0.3346E-01  0.1162E+01
     -0.230  0.2626E-01  0.1164E+01
     -0.137  0.2552E-01  0.1167E+01
     -0.043  0.1854E-01  0.1168E+01
      0.050  0.1648E-01  0.1170E+01
      0.144  0.2304E-01  0.1172E+01
      0.237  0.2528E-01  0.1174E+01
      0.331  0.3075E-01  0.1177E+01
      0.425  0.3908E-01  0.1181E+01
      0.518  0.3632E-01  0.1184E+01
      0.612  0.3216E-01  0.1187E+01
      0.705  0.3744E-01  0.1191E+01
      0.799  0.4048E-01  0.1195E+01
      0.892  0.3496E-01  0.1198E+01
      0.986  0.2049E-01  0.1200E+01
      1.080  0.1423E-01  0.1201E+01
      1.173  0.1918E-01  0.1203E+01
      1.267  0.2137E-01  0.1205E+01
      1.360  0.2298E-01  0.1207E+01
      1.454  0.2638E-01  0.1210E+01
      1.548  0.3375E-01  0.1213E+01
      1.641  0.3561E-01  0.1216E+01
      1.735  0.3476E-01  0.1219E+01
      1.828  0.3293E-01  0.1222E+01
      1.922  0.3594E-01  0.1226E+01
      2.015  0.3526E-01  0.1229E+01
      2.109  0.3468E-01  0.1232E+01
      2.203  0.3277E-01  0.1235E+01
      2.296  0.2815E-01  0.1238E+01
      2.390  0.2789E-01  0.1241E+01
      2.483  0.2186E-01  0.1243E+01
      2.577  0.1654E-01  0.1244E+01
      2.671  0.2280E-01  0.1246E+01
      2.764  0.3078E-01  0.1249E+01
      2.858  0.2824E-01  0.1252E+01
      2.951  0.2416E-01  0.1254E+01
      3.045  0.2965E-01  0.1257E+01
      3.138  0.3028E-01  0.1260E+01
      3.232  0.2798E-01  0.1262E+01
      3.326  0.2862E-01  0.1265E+01
      3.419  0.3392E-01  0.1268E+01
      3.513  0.4473E-01  0.1272E+01
      3.606  0.4480E-01  0.1277E+01
      3.700  0.3414E-01  0.1280E+01
      3.793  0.3145E-01  0.1283E+01
      3.887  0.3444E-01  0.1286E+01
      3.981  0.3419E-01  0.1289E+01
      4.074  0.3163E-01  0.1292E+01
      4.168  0.3290E-01  0.1295E+01
      4.261  0.3357E-01  0.1298E+01
      4.355  0.4061E-01  0.1302E+01
      4.449  0.4882E-01  0.1307E+01
      4.542  0.5303E-01  0.1312E+01
      4.636  0.5903E-01  0.1317E+01
      4.729  0.5769E-01  0.1323E+01
      4.823  0.5246E-01  0.1328E+01
      4.916  0.5270E-01  0.1332E+01
      5.010  0.5631E-01  0.1338E+01
      5.104  0.4429E-01  0.1342E+01
      5.197  0.1924E-01  0.1344E+01
      5.291  0.3376E-02  0.1344E+01
      5.384  0.1774E-03  0.1344E+01
      5.478  0.2274E-05  0.1344E+01
      5.571  0.6191E-08  0.1344E+01
      5.665  0.3290E-11  0.1344E+01
      5.759  0.3259E-15  0.1344E+01
      5.852  0.0000E+00  0.1344E+01
      5.946  0.0000E+00  0.1344E+01
      6.039  0.0000E+00  0.1344E+01
      6.133  0.0000E+00  0.1344E+01
      6.227  0.0000E+00  0.1344E+01
      6.320  0.0000E+00  0.1344E+01
      6.414  0.0000E+00  0.1344E+01
