       N       E                     dE             d eps       ncg     rms          rms(c)
DAV:   1     0.366438981917E+04    0.36644E+04   -0.21068E+05  4080   0.112E+03
DAV:   2     0.551380191838E+02   -0.36093E+04   -0.33486E+04  4836   0.272E+02
DAV:   3    -0.251513410983E+03   -0.30665E+03   -0.28221E+03  4584   0.756E+01
DAV:   4    -0.262697935797E+03   -0.11185E+02   -0.10991E+02  4404   0.155E+01
DAV:   5    -0.263050087721E+03   -0.35215E+00   -0.35134E+00  4692   0.258E+00    0.715E+01
RMM:   6    -0.414720077075E+03   -0.15167E+03   -0.19998E+02  4032   0.202E+01    0.115E+02
RMM:   7    -0.245773086643E+03    0.16895E+03   -0.10097E+02  4038   0.128E+01    0.668E+01
RMM:   8    -0.256709434570E+03   -0.10936E+02   -0.70609E+01  4039   0.121E+01    0.535E+01
RMM:   9    -0.280649282585E+03   -0.23940E+02   -0.88409E+01  4043   0.148E+01    0.661E+01
RMM:  10    -0.255343006376E+03    0.25306E+02   -0.33085E+01  4041   0.841E+00    0.483E+01
RMM:  11    -0.237587528557E+03    0.17755E+02   -0.18565E+01  4044   0.587E+00    0.323E+01
RMM:  12    -0.238203264908E+03   -0.61574E+00   -0.13992E+01  4043   0.521E+00    0.415E+01
RMM:  13    -0.226249318203E+03    0.11954E+02   -0.11793E+01  4044   0.508E+00    0.191E+01
RMM:  14    -0.223384725893E+03    0.28646E+01   -0.14731E+00  4043   0.176E+00    0.124E+01
RMM:  15    -0.222375346080E+03    0.10094E+01   -0.52333E-01  4042   0.103E+00    0.109E+01
RMM:  16    -0.221946053825E+03    0.42929E+00   -0.24678E-01  4043   0.683E-01    0.983E+00
RMM:  17    -0.221776860862E+03    0.16919E+00   -0.29718E-01  4041   0.743E-01    0.934E+00
RMM:  18    -0.221490826334E+03    0.28603E+00   -0.27536E-01  4044   0.711E-01    0.754E+00
RMM:  19    -0.221306828171E+03    0.18400E+00   -0.24134E-01  4042   0.672E-01    0.727E+00
RMM:  20    -0.220960002672E+03    0.34683E+00   -0.42866E-01  4040   0.881E-01    0.481E+00
RMM:  21    -0.220953832404E+03    0.61703E-02   -0.24246E-01  4043   0.702E-01    0.462E+00
RMM:  22    -0.220888945092E+03    0.64887E-01   -0.11120E-01  4043   0.483E-01    0.375E+00
RMM:  23    -0.220830101495E+03    0.58844E-01   -0.53807E-02  4041   0.341E-01    0.225E+00
RMM:  24    -0.220829283206E+03    0.81829E-03   -0.36060E-02  4041   0.276E-01    0.222E+00
RMM:  25    -0.220811225579E+03    0.18058E-01   -0.20934E-02  4043   0.208E-01    0.135E+00
RMM:  26    -0.220803696689E+03    0.75289E-02   -0.39407E-03  4041   0.964E-02    0.932E-01
RMM:  27    -0.220801019222E+03    0.26775E-02   -0.32578E-03  4041   0.786E-02    0.864E-01
RMM:  28    -0.220798334969E+03    0.26843E-02   -0.23466E-03  4043   0.703E-02    0.566E-01
RMM:  29    -0.220797385201E+03    0.94977E-03   -0.15535E-03  4042   0.573E-02    0.319E-01
RMM:  30    -0.220797585350E+03   -0.20015E-03   -0.95414E-04  4046   0.471E-02    0.193E-01
RMM:  31    -0.220797909488E+03   -0.32414E-03   -0.40088E-04  4041   0.300E-02    0.128E-01
RMM:  32    -0.220798231764E+03   -0.32228E-03   -0.24637E-04  4045   0.233E-02    0.598E-02
RMM:  33    -0.220798447448E+03   -0.21568E-03   -0.61626E-05  4037   0.113E-02    0.511E-02
RMM:  34    -0.220798686017E+03   -0.23857E-03   -0.26687E-05  4009   0.734E-03    0.474E-02
RMM:  35    -0.220798896129E+03   -0.21011E-03   -0.19907E-05  3943   0.613E-03    0.315E-02
RMM:  36    -0.220799185187E+03   -0.28906E-03   -0.20534E-05  3917   0.572E-03    0.157E-02
RMM:  37    -0.220799349212E+03   -0.16403E-03   -0.87244E-06  3351   0.383E-03    0.163E-02
RMM:  38    -0.220799596752E+03   -0.24754E-03   -0.14457E-05  3606   0.482E-03    0.159E-02
RMM:  39    -0.220799824093E+03   -0.22734E-03   -0.22827E-05  3706   0.547E-03    0.118E-02
RMM:  40    -0.220799884454E+03   -0.60361E-04   -0.63947E-06  3114   0.295E-03    0.854E-03
RMM:  41    -0.220799933156E+03   -0.48701E-04   -0.35978E-06  2810   0.224E-03    0.657E-03
RMM:  42    -0.220799956619E+03   -0.23463E-04   -0.10144E-06  2392   0.139E-03    0.648E-03
RMM:  43    -0.220799982295E+03   -0.25676E-04   -0.60989E-07  2336   0.111E-03    0.552E-03
RMM:  44    -0.220799998833E+03   -0.16538E-04   -0.30469E-07  2286   0.815E-04    0.419E-03
RMM:  45    -0.220800024575E+03   -0.25742E-04   -0.36758E-07  2313   0.970E-04    0.302E-03
RMM:  46    -0.220800040347E+03   -0.15772E-04   -0.26376E-07  2295   0.793E-04    0.252E-03
RMM:  47    -0.220800053703E+03   -0.13356E-04   -0.26206E-07  2293   0.808E-04    0.182E-03
RMM:  48    -0.220800059121E+03   -0.54181E-05   -0.12834E-07  1491   0.514E-04    0.124E-03
RMM:  49    -0.220800060902E+03   -0.17803E-05   -0.49456E-08  1295   0.432E-04    0.757E-04
RMM:  50    -0.220800062355E+03   -0.14530E-05   -0.38977E-08  1224   0.389E-04    0.604E-04
RMM:  51    -0.220800062908E+03   -0.55376E-06   -0.14030E-08   747   0.308E-04
   1 F= -.22080006E+03 E0= -.22063461E+03  d E =-.220800E+03
       N       E                     dE             d eps       ncg     rms          rms(c)
DAV:   1    -0.223289799411E+03   -0.24897E+01   -0.10233E+03  4056   0.552E+01    0.743E+00
RMM:   2    -0.229602924853E+03   -0.63131E+01   -0.29206E+01  4045   0.902E+00    0.252E+01
RMM:   3    -0.225947675348E+03    0.36552E+01   -0.18494E+00  4052   0.211E+00    0.725E+00
RMM:   4    -0.226704613936E+03   -0.75694E+00   -0.13907E+00  4042   0.173E+00    0.136E+01
RMM:   5    -0.226339957149E+03    0.36466E+00   -0.41150E-01  4047   0.971E-01    0.117E+01
RMM:   6    -0.226077519082E+03    0.26244E+00   -0.30815E-01  4043   0.854E-01    0.101E+01
RMM:   7    -0.225720295359E+03    0.35722E+00   -0.23763E-01  4043   0.723E-01    0.692E+00
RMM:   8    -0.225550622757E+03    0.16967E+00   -0.20313E-01  4043   0.664E-01    0.393E+00
RMM:   9    -0.225451267063E+03    0.99356E-01   -0.79302E-02  4042   0.411E-01    0.148E+00
RMM:  10    -0.225450308507E+03    0.95856E-03   -0.19192E-02  4041   0.209E-01    0.135E+00
RMM:  11    -0.225443491446E+03    0.68171E-02   -0.64776E-03  4043   0.123E-01    0.827E-01
RMM:  12    -0.225445628928E+03   -0.21375E-02   -0.62036E-03  4041   0.118E-01    0.101E+00
RMM:  13    -0.225443037378E+03    0.25916E-02   -0.53443E-03  4046   0.110E-01    0.697E-01
RMM:  14    -0.225440536792E+03    0.25006E-02   -0.35297E-03  4042   0.897E-02    0.366E-01
RMM:  15    -0.225439933045E+03    0.60375E-03   -0.83641E-04  4042   0.429E-02    0.195E-01
RMM:  16    -0.225439939010E+03   -0.59654E-05   -0.20926E-04  4046   0.219E-02    0.136E-01
RMM:  17    -0.225439989476E+03   -0.50466E-04   -0.10305E-04  4039   0.158E-02    0.119E-01
RMM:  18    -0.225440094166E+03   -0.10469E-03   -0.77600E-05  4033   0.130E-02    0.107E-01
RMM:  19    -0.225440152536E+03   -0.58370E-04   -0.61713E-05  4033   0.117E-02    0.546E-02
RMM:  20    -0.225440229810E+03   -0.77274E-04   -0.30074E-05  4031   0.826E-03    0.278E-02
RMM:  21    -0.225440305839E+03   -0.76030E-04   -0.78236E-06  3640   0.413E-03    0.134E-02
RMM:  22    -0.225440381735E+03   -0.75895E-04   -0.38634E-06  2941   0.296E-03    0.866E-03
RMM:  23    -0.225440494682E+03   -0.11295E-03   -0.34043E-06  2749   0.264E-03    0.643E-03
RMM:  24    -0.225440560376E+03   -0.65694E-04   -0.19201E-06  2455   0.204E-03    0.492E-03
RMM:  25    -0.225440633010E+03   -0.72634E-04   -0.20793E-06  2490   0.197E-03    0.376E-03
RMM:  26    -0.225440691512E+03   -0.58502E-04   -0.17916E-06  2454   0.177E-03    0.413E-03
RMM:  27    -0.225440743038E+03   -0.51526E-04   -0.21464E-06  2549   0.176E-03    0.359E-03
RMM:  28    -0.225440762669E+03   -0.19631E-04   -0.84865E-07  2395   0.111E-03    0.230E-03
RMM:  29    -0.225440771301E+03   -0.86316E-05   -0.35451E-07  2183   0.728E-04    0.149E-03
RMM:  30    -0.225440776538E+03   -0.52373E-05   -0.10859E-07  1439   0.478E-04    0.117E-03
RMM:  31    -0.225440780801E+03   -0.42632E-05   -0.47824E-08  1350   0.450E-04    0.113E-03
RMM:  32    -0.225440786015E+03   -0.52140E-05   -0.52313E-08  1538   0.505E-04    0.917E-04
RMM:  33    -0.225440788332E+03   -0.23169E-05   -0.16133E-08  1104   0.373E-04    0.864E-04
RMM:  34    -0.225440790397E+03   -0.20645E-05   -0.27189E-08  1116   0.379E-04    0.810E-04
RMM:  35    -0.225440791503E+03   -0.11060E-05   -0.11922E-08   700   0.343E-04    0.699E-04
RMM:  36    -0.225440791887E+03   -0.38446E-06   -0.51000E-09   578   0.328E-04
   2 F= -.22544079E+03 E0= -.22529153E+03  d E =-.464073E+01
       N       E                     dE             d eps       ncg     rms          rms(c)
DAV:   1    -0.221648862266E+03    0.37919E+01   -0.30096E+03  4032   0.965E+01    0.182E+01
RMM:   2    -0.247549183089E+03   -0.25900E+02   -0.10250E+02  4035   0.163E+01    0.531E+01
RMM:   3    -0.233374954133E+03    0.14174E+02   -0.40299E+00  4039   0.318E+00    0.315E+01
RMM:   4    -0.243667201733E+03   -0.10292E+02   -0.67374E+00  4038   0.388E+00    0.505E+01
RMM:   5    -0.236047692136E+03    0.76195E+01   -0.83937E+00  4038   0.414E+00    0.333E+01
RMM:   6    -0.229853953177E+03    0.61937E+01   -0.41411E+00  4038   0.295E+00    0.120E+01
RMM:   7    -0.228974665985E+03    0.87929E+00   -0.21830E+00  4038   0.218E+00    0.843E+00
RMM:   8    -0.229020035675E+03   -0.45370E-01   -0.66930E-01  4038   0.119E+00    0.855E+00
RMM:   9    -0.228905744734E+03    0.11429E+00   -0.28838E-01  4038   0.838E-01    0.689E+00
RMM:  10    -0.228785799529E+03    0.11995E+00   -0.20500E-01  4038   0.672E-01    0.511E+00
RMM:  11    -0.228711611774E+03    0.74188E-01   -0.86559E-02  4040   0.441E-01    0.377E+00
RMM:  12    -0.228693718483E+03    0.17893E-01   -0.15050E-02  4039   0.186E-01    0.318E+00
RMM:  13    -0.228668926441E+03    0.24792E-01   -0.84381E-03  4040   0.143E-01    0.264E+00
RMM:  14    -0.228644807170E+03    0.24119E-01   -0.15609E-02  4038   0.185E-01    0.157E+00
RMM:  15    -0.228638951744E+03    0.58554E-02   -0.80543E-03  4039   0.132E-01    0.124E+00
RMM:  16    -0.228636358972E+03    0.25928E-02   -0.15505E-03  4043   0.574E-02    0.992E-01
RMM:  17    -0.228633015538E+03    0.33434E-02   -0.29661E-03  4038   0.764E-02    0.608E-01
RMM:  18    -0.228632009394E+03    0.10061E-02   -0.15395E-03  4039   0.555E-02    0.274E-01
RMM:  19    -0.228632165981E+03   -0.15659E-03   -0.85062E-04  4039   0.411E-02    0.213E-01
RMM:  20    -0.228632169328E+03   -0.33472E-05   -0.28625E-04  4041   0.258E-02    0.990E-02
RMM:  21    -0.228632241529E+03   -0.72201E-04   -0.13547E-04  4038   0.176E-02    0.625E-02
RMM:  22    -0.228632312142E+03   -0.70613E-04   -0.43607E-05  4035   0.976E-03    0.417E-02
RMM:  23    -0.228632389368E+03   -0.77226E-04   -0.14837E-05  4020   0.582E-03    0.301E-02
RMM:  24    -0.228632490838E+03   -0.10147E-03   -0.12697E-05  4019   0.520E-03    0.256E-02
RMM:  25    -0.228632639738E+03   -0.14890E-03   -0.89937E-06  3852   0.440E-03    0.160E-02
RMM:  26    -0.228632701063E+03   -0.61325E-04   -0.32947E-06  2776   0.281E-03    0.883E-03
RMM:  27    -0.228632728066E+03   -0.27004E-04   -0.10729E-06  2372   0.162E-03    0.553E-03
RMM:  28    -0.228632759932E+03   -0.31866E-04   -0.52294E-07  2306   0.112E-03    0.540E-03
RMM:  29    -0.228632818928E+03   -0.58996E-04   -0.90839E-07  2397   0.135E-03    0.347E-03
RMM:  30    -0.228632887305E+03   -0.68377E-04   -0.18168E-06  2492   0.174E-03    0.309E-03
RMM:  31    -0.228632921116E+03   -0.33811E-04   -0.11480E-06  2414   0.131E-03    0.229E-03
RMM:  32    -0.228632933755E+03   -0.12639E-04   -0.47606E-07  2363   0.815E-04    0.161E-03
RMM:  33    -0.228632940167E+03   -0.64124E-05   -0.23955E-07  1956   0.622E-04    0.153E-03
RMM:  34    -0.228632944020E+03   -0.38532E-05   -0.12497E-07  1627   0.510E-04    0.119E-03
RMM:  35    -0.228632945549E+03   -0.15288E-05   -0.28271E-08   942   0.366E-04    0.107E-03
RMM:  36    -0.228632946850E+03   -0.13006E-05   -0.15463E-08   880   0.342E-04    0.828E-04
RMM:  37    -0.228632947944E+03   -0.10949E-05   -0.12752E-08   745   0.322E-04    0.673E-04
RMM:  38    -0.228632948634E+03   -0.68993E-06   -0.94247E-09   648   0.310E-04
   3 F= -.22863295E+03 E0= -.22853224E+03  d E =-.783289E+01
       N       E                     dE             d eps       ncg     rms          rms(c)
DAV:   1    -0.228518930027E+03    0.11402E+00   -0.95240E+01  4104   0.172E+01    0.367E+00
RMM:   2    -0.229374053173E+03   -0.85512E+00   -0.29015E+00  4042   0.283E+00    0.855E+00
RMM:   3    -0.228829900529E+03    0.54415E+00   -0.15457E-01  4051   0.621E-01    0.470E+00
RMM:   4    -0.228883289075E+03   -0.53389E-01   -0.15106E-01  4044   0.591E-01    0.558E+00
RMM:   5    -0.228790701277E+03    0.92588E-01   -0.94810E-02  4041   0.464E-01    0.294E+00
RMM:   6    -0.228744521521E+03    0.46180E-01   -0.90851E-02  4040   0.436E-01    0.196E+00
RMM:   7    -0.228716579097E+03    0.27942E-01   -0.30810E-02  4039   0.270E-01    0.834E-01
RMM:   8    -0.228711969764E+03    0.46093E-02   -0.55167E-03  4039   0.115E-01    0.478E-01
RMM:   9    -0.228710591921E+03    0.13778E-02   -0.16975E-03  4042   0.632E-02    0.313E-01
RMM:  10    -0.228710454582E+03    0.13734E-03   -0.95528E-04  4044   0.469E-02    0.233E-01
RMM:  11    -0.228710302292E+03    0.15229E-03   -0.63781E-04  4041   0.377E-02    0.166E-01
RMM:  12    -0.228710219656E+03    0.82636E-04   -0.20441E-04  4045   0.221E-02    0.936E-02
RMM:  13    -0.228710250499E+03   -0.30843E-04   -0.83573E-05  4042   0.139E-02    0.655E-02
RMM:  14    -0.228710273024E+03   -0.22525E-04   -0.33173E-05  4033   0.877E-03    0.265E-02
RMM:  15    -0.228710300144E+03   -0.27120E-04   -0.10322E-05  3994   0.484E-03    0.137E-02
RMM:  16    -0.228710344088E+03   -0.43944E-04   -0.46509E-06  3064   0.310E-03    0.915E-03
RMM:  17    -0.228710378025E+03   -0.33937E-04   -0.24994E-06  2544   0.221E-03    0.696E-03
RMM:  18    -0.228710400170E+03   -0.22145E-04   -0.11265E-06  2396   0.140E-03    0.606E-03
RMM:  19    -0.228710421538E+03   -0.21368E-04   -0.93136E-07  2385   0.120E-03    0.361E-03
RMM:  20    -0.228710446595E+03   -0.25057E-04   -0.11428E-06  2425   0.120E-03    0.210E-03
RMM:  21    -0.228710467183E+03   -0.20588E-04   -0.10213E-06  2404   0.111E-03    0.191E-03
RMM:  22    -0.228710487896E+03   -0.20713E-04   -0.13758E-06  2459   0.122E-03    0.153E-03
RMM:  23    -0.228710500150E+03   -0.12254E-04   -0.93038E-07  2400   0.972E-04    0.116E-03
RMM:  24    -0.228710504272E+03   -0.41217E-05   -0.24923E-07  1490   0.531E-04    0.565E-04
RMM:  25    -0.228710507555E+03   -0.32827E-05   -0.12550E-07  1500   0.487E-04    0.481E-04
RMM:  26    -0.228710510808E+03   -0.32535E-05   -0.12156E-07  1645   0.476E-04    0.301E-04
RMM:  27    -0.228710512043E+03   -0.12346E-05   -0.20082E-08   727   0.316E-04    0.241E-04
RMM:  28    -0.228710513113E+03   -0.10699E-05   -0.13922E-08   806   0.361E-04    0.212E-04
RMM:  29    -0.228710514056E+03   -0.94329E-06   -0.36485E-08  1249   0.413E-04
   4 F= -.22871051E+03 E0= -.22860173E+03  d E =-.791045E+01
       N       E                     dE             d eps       ncg     rms          rms(c)
DAV:   1    -0.228710547766E+03   -0.34654E-04   -0.71583E+00  4104   0.474E+00    0.985E-01
RMM:   2    -0.228780174766E+03   -0.69627E-01   -0.22062E-01  4043   0.780E-01    0.284E+00
RMM:   3    -0.228735310159E+03    0.44865E-01   -0.10552E-02  4050   0.165E-01    0.146E+00
RMM:   4    -0.228749125268E+03   -0.13815E-01   -0.14432E-02  4041   0.189E-01    0.187E+00
RMM:   5    -0.228733748933E+03    0.15376E-01   -0.10487E-02  4040   0.157E-01    0.114E+00
RMM:   6    -0.228728974586E+03    0.47743E-02   -0.47431E-03  4039   0.103E-01    0.752E-01
RMM:   7    -0.228725121716E+03    0.38529E-02   -0.26094E-03  4039   0.766E-02    0.200E-01
RMM:   8    -0.228724909573E+03    0.21214E-03   -0.35162E-04  4039   0.287E-02    0.953E-02
RMM:   9    -0.228724915402E+03   -0.58291E-05   -0.63685E-05  4046   0.119E-02    0.708E-02
RMM:  10    -0.228724905997E+03    0.94053E-05   -0.73786E-05  4037   0.127E-02    0.644E-02
RMM:  11    -0.228724900701E+03    0.52957E-05   -0.51647E-05  4038   0.108E-02    0.427E-02
RMM:  12    -0.228724896727E+03    0.39733E-05   -0.17900E-05  4029   0.643E-03    0.210E-02
RMM:  13    -0.228724898208E+03   -0.14808E-05   -0.58332E-06  3506   0.380E-03    0.107E-02
RMM:  14    -0.228724900983E+03   -0.27749E-05   -0.14889E-06  2317   0.202E-03    0.544E-03
RMM:  15    -0.228724903852E+03   -0.28692E-05   -0.47518E-07  2225   0.119E-03    0.299E-03
RMM:  16    -0.228724907190E+03   -0.33382E-05   -0.24668E-07  2220   0.759E-04    0.303E-03
RMM:  17    -0.228724909458E+03   -0.22671E-05   -0.10075E-07  1558   0.532E-04    0.123E-03
RMM:  18    -0.228724911449E+03   -0.19915E-05   -0.57211E-08  1263   0.430E-04    0.897E-04
RMM:  19    -0.228724913700E+03   -0.22507E-05   -0.76979E-08  1266   0.421E-04    0.680E-04
RMM:  20    -0.228724916038E+03   -0.23385E-05   -0.92291E-08  1259   0.448E-04    0.496E-04
RMM:  21    -0.228724917641E+03   -0.16028E-05   -0.91496E-08  1316   0.421E-04    0.434E-04
RMM:  22    -0.228724919210E+03   -0.15693E-05   -0.74668E-08  1049   0.406E-04    0.441E-04
RMM:  23    -0.228724920492E+03   -0.12813E-05   -0.14231E-07  1522   0.463E-04    0.309E-04
RMM:  24    -0.228724920900E+03   -0.40860E-06   -0.21185E-08   731   0.308E-04
   5 F= -.22872492E+03 E0= -.22861846E+03  d E =-.792486E+01
       N       E                     dE             d eps       ncg     rms          rms(c)
DAV:   1    -0.229118448886E+03   -0.39353E+00   -0.63917E+02  4032   0.410E+01    0.503E+00
RMM:   2    -0.230228391794E+03   -0.11099E+01   -0.11254E+01  4046   0.618E+00    0.530E+00
RMM:   3    -0.230145496011E+03    0.82896E-01   -0.59962E-01  4047   0.127E+00    0.328E+00
RMM:   4    -0.230211206910E+03   -0.65711E-01   -0.25560E-01  4046   0.771E-01    0.480E+00
RMM:   5    -0.230148921280E+03    0.62286E-01   -0.16648E-01  4041   0.607E-01    0.366E+00
RMM:   6    -0.230150639076E+03   -0.17178E-02   -0.13979E-01  4040   0.522E-01    0.348E+00
RMM:   7    -0.230064636554E+03    0.86003E-01   -0.78926E-02  4039   0.420E-01    0.175E+00
RMM:   8    -0.230045264905E+03    0.19372E-01   -0.15670E-02  4039   0.194E-01    0.818E-01
RMM:   9    -0.230041793205E+03    0.34717E-02   -0.33919E-03  4044   0.885E-02    0.651E-01
RMM:  10    -0.230039211845E+03    0.25814E-02   -0.17086E-03  4039   0.626E-02    0.338E-01
RMM:  11    -0.230038405670E+03    0.80618E-03   -0.15369E-03  4040   0.579E-02    0.170E-01
RMM:  12    -0.230038373117E+03    0.32552E-04   -0.49350E-04  4042   0.324E-02    0.129E-01
RMM:  13    -0.230038297048E+03    0.76069E-04   -0.17369E-04  4040   0.204E-02    0.668E-02
RMM:  14    -0.230038276988E+03    0.20060E-04   -0.49805E-05  4040   0.110E-02    0.322E-02
RMM:  15    -0.230038280454E+03   -0.34659E-05   -0.15410E-05  4014   0.614E-03    0.154E-02
RMM:  16    -0.230038289908E+03   -0.94540E-05   -0.39813E-06  2943   0.319E-03    0.911E-03
RMM:  17    -0.230038297509E+03   -0.76012E-05   -0.11614E-06  2331   0.176E-03    0.602E-03
RMM:  18    -0.230038308864E+03   -0.11355E-04   -0.68735E-07  2315   0.131E-03    0.391E-03
RMM:  19    -0.230038316921E+03   -0.80575E-05   -0.43474E-07  2265   0.994E-04    0.239E-03
RMM:  20    -0.230038325356E+03   -0.84349E-05   -0.31487E-07  2294   0.798E-04    0.151E-03
RMM:  21    -0.230038334644E+03   -0.92878E-05   -0.27870E-07  2299   0.664E-04    0.140E-03
RMM:  22    -0.230038343978E+03   -0.93336E-05   -0.32747E-07  2329   0.662E-04    0.112E-03
RMM:  23    -0.230038350749E+03   -0.67712E-05   -0.26551E-07  1918   0.581E-04    0.804E-04
RMM:  24    -0.230038354991E+03   -0.42420E-05   -0.20530E-07  1727   0.550E-04    0.559E-04
RMM:  25    -0.230038357623E+03   -0.26318E-05   -0.14660E-07  1533   0.479E-04    0.461E-04
RMM:  26    -0.230038358846E+03   -0.12237E-05   -0.51230E-08   976   0.362E-04    0.353E-04
RMM:  27    -0.230038359729E+03   -0.88225E-06   -0.19979E-08   740   0.348E-04
   6 F= -.23003836E+03 E0= -.22993632E+03  d E =-.131344E+01
       N       E                     dE             d eps       ncg     rms          rms(c)
DAV:   1    -0.229903755517E+03    0.13460E+00   -0.24702E+02  4032   0.254E+01    0.327E+00
RMM:   2    -0.230328368407E+03   -0.42461E+00   -0.43516E+00  4043   0.384E+00    0.295E+00
RMM:   3    -0.230324890325E+03    0.34781E-02   -0.24779E-01  4047   0.808E-01    0.290E+00
RMM:   4    -0.230350928200E+03   -0.26038E-01   -0.99635E-02  4046   0.479E-01    0.291E+00
RMM:   5    -0.230339505081E+03    0.11423E-01   -0.11065E-01  4039   0.471E-01    0.294E+00
RMM:   6    -0.230274255471E+03    0.65250E-01   -0.45260E-02  4039   0.316E-01    0.134E+00
RMM:   7    -0.230265421406E+03    0.88341E-02   -0.24631E-02  4039   0.241E-01    0.839E-01
RMM:   8    -0.230261240153E+03    0.41813E-02   -0.57342E-03  4039   0.116E-01    0.439E-01
RMM:   9    -0.230259961882E+03    0.12783E-02   -0.10075E-03  4041   0.486E-02    0.297E-01
RMM:  10    -0.230259317730E+03    0.64415E-03   -0.59690E-04  4038   0.364E-02    0.133E-01
RMM:  11    -0.230259243621E+03    0.74109E-04   -0.37524E-04  4039   0.288E-02    0.857E-02
RMM:  12    -0.230259230300E+03    0.13321E-04   -0.11822E-04  4042   0.160E-02    0.622E-02
RMM:  13    -0.230259209556E+03    0.20744E-04   -0.35114E-05  4034   0.920E-03    0.290E-02
RMM:  14    -0.230259207613E+03    0.19431E-05   -0.94709E-06  4006   0.479E-03    0.136E-02
RMM:  15    -0.230259211019E+03   -0.34058E-05   -0.32227E-06  2733   0.288E-03    0.783E-03
RMM:  16    -0.230259214848E+03   -0.38288E-05   -0.99073E-07  2269   0.166E-03    0.385E-03
RMM:  17    -0.230259218157E+03   -0.33090E-05   -0.33935E-07  2221   0.961E-04    0.234E-03
RMM:  18    -0.230259222810E+03   -0.46530E-05   -0.21449E-07  2239   0.684E-04    0.205E-03
RMM:  19    -0.230259225845E+03   -0.30353E-05   -0.10170E-07  1588   0.506E-04    0.108E-03
RMM:  20    -0.230259229322E+03   -0.34774E-05   -0.12713E-07  1776   0.525E-04    0.780E-04
RMM:  21    -0.230259233515E+03   -0.41925E-05   -0.14936E-07  1595   0.516E-04    0.702E-04
RMM:  22    -0.230259236401E+03   -0.28863E-05   -0.10984E-07  1508   0.469E-04    0.476E-04
RMM:  23    -0.230259239001E+03   -0.26002E-05   -0.16089E-07  1571   0.459E-04    0.406E-04
RMM:  24    -0.230259240379E+03   -0.13781E-05   -0.48230E-08   906   0.394E-04    0.234E-04
RMM:  25    -0.230259240987E+03   -0.60715E-06   -0.60876E-08  1158   0.399E-04
   7 F= -.23025924E+03 E0= -.23015879E+03  d E =-.153432E+01
       N       E                     dE             d eps       ncg     rms          rms(c)
DAV:   1    -0.230213958016E+03    0.45282E-01   -0.25981E+02  4032   0.269E+01    0.439E+00
RMM:   2    -0.231193906645E+03   -0.97995E+00   -0.59720E+00  4039   0.422E+00    0.847E+00
RMM:   3    -0.230688968361E+03    0.50494E+00   -0.33833E-01  4050   0.925E-01    0.332E+00
RMM:   4    -0.231051640842E+03   -0.36267E+00   -0.23401E-01  4040   0.715E-01    0.606E+00
RMM:   5    -0.230755992265E+03    0.29565E+00   -0.22125E-01  4040   0.677E-01    0.410E+00
RMM:   6    -0.230699743854E+03    0.56248E-01   -0.11776E-01  4039   0.523E-01    0.226E+00
RMM:   7    -0.230657326950E+03    0.42417E-01   -0.54791E-02  4041   0.362E-01    0.899E-01
RMM:   8    -0.230651376234E+03    0.59507E-02   -0.81733E-03  4039   0.137E-01    0.435E-01
RMM:   9    -0.230649967728E+03    0.14085E-02   -0.15987E-03  4044   0.613E-02    0.229E-01
RMM:  10    -0.230649656875E+03    0.31085E-03   -0.96393E-04  4039   0.457E-02    0.177E-01
RMM:  11    -0.230649632194E+03    0.24681E-04   -0.88768E-04  4040   0.443E-02    0.158E-01
RMM:  12    -0.230649581273E+03    0.50921E-04   -0.38753E-04  4043   0.295E-02    0.823E-02
RMM:  13    -0.230649597106E+03   -0.15833E-04   -0.11565E-04  4042   0.167E-02    0.512E-02
RMM:  14    -0.230649597162E+03   -0.55894E-07   -0.33227E-05  4032   0.919E-03    0.203E-02
RMM:  15    -0.230649616293E+03   -0.19131E-04   -0.85918E-06  3989   0.459E-03    0.126E-02
RMM:  16    -0.230649648187E+03   -0.31894E-04   -0.34639E-06  2676   0.277E-03    0.934E-03
RMM:  17    -0.230649672350E+03   -0.24163E-04   -0.19431E-06  2451   0.207E-03    0.494E-03
RMM:  18    -0.230649695852E+03   -0.23502E-04   -0.13454E-06  2415   0.156E-03    0.351E-03
RMM:  19    -0.230649709473E+03   -0.13621E-04   -0.69569E-07  2356   0.108E-03    0.207E-03
RMM:  20    -0.230649725060E+03   -0.15587E-04   -0.63151E-07  2370   0.913E-04    0.150E-03
RMM:  21    -0.230649742931E+03   -0.17871E-04   -0.97333E-07  2412   0.107E-03    0.135E-03
RMM:  22    -0.230649759368E+03   -0.16437E-04   -0.13427E-06  2473   0.120E-03    0.110E-03
RMM:  23    -0.230649764135E+03   -0.47665E-05   -0.36578E-07  2002   0.631E-04    0.721E-04
RMM:  24    -0.230649767111E+03   -0.29762E-05   -0.19508E-07  1586   0.523E-04    0.573E-04
RMM:  25    -0.230649769206E+03   -0.20950E-05   -0.13004E-07  1598   0.486E-04    0.326E-04
RMM:  26    -0.230649770416E+03   -0.12099E-05   -0.52716E-08  1038   0.399E-04    0.213E-04
RMM:  27    -0.230649771184E+03   -0.76794E-06   -0.32566E-08  1075   0.403E-04
   8 F= -.23064977E+03 E0= -.23054396E+03  d E =-.390530E+00
       N       E                     dE             d eps       ncg     rms          rms(c)
DAV:   1    -0.230647988141E+03    0.17823E-02   -0.32413E+00  4104   0.301E+00    0.457E-01
RMM:   2    -0.230660454291E+03   -0.12466E-01   -0.74539E-02  4042   0.474E-01    0.985E-01
RMM:   3    -0.230653841473E+03    0.66128E-02   -0.42547E-03  4049   0.104E-01    0.360E-01
RMM:   4    -0.230658537498E+03   -0.46960E-02   -0.32728E-03  4040   0.854E-02    0.729E-01
RMM:   5    -0.230654438363E+03    0.40991E-02   -0.25368E-03  4040   0.733E-02    0.440E-01
RMM:   6    -0.230653901699E+03    0.53666E-03   -0.11843E-03  4039   0.532E-02    0.263E-01
RMM:   7    -0.230653452834E+03    0.44886E-03   -0.63888E-04  4042   0.388E-02    0.113E-01
RMM:   8    -0.230653372861E+03    0.79973E-04   -0.12756E-04  4039   0.171E-02    0.432E-02
RMM:   9    -0.230653361461E+03    0.11400E-04   -0.18754E-05  4034   0.672E-03    0.215E-02
RMM:  10    -0.230653359674E+03    0.17875E-05   -0.11809E-05  4020   0.514E-03    0.196E-02
RMM:  11    -0.230653359215E+03    0.45906E-06   -0.12359E-05  4026   0.517E-03    0.133E-02
RMM:  12    -0.230653359690E+03   -0.47555E-06   -0.36739E-06  2730   0.303E-03
   9 F= -.23065336E+03 E0= -.23054691E+03  d E =-.394119E+00
       N       E                     dE             d eps       ncg     rms          rms(c)
DAV:   1    -0.230660857163E+03   -0.74979E-02   -0.11692E+02  4032   0.177E+01    0.196E+00
RMM:   2    -0.230982527616E+03   -0.32167E+00   -0.22699E+00  4046   0.267E+00    0.384E+00
RMM:   3    -0.230879899403E+03    0.10263E+00   -0.15835E-01  4047   0.615E-01    0.190E+00
RMM:   4    -0.230859856245E+03    0.20043E-01   -0.46630E-02  4048   0.336E-01    0.153E+00
RMM:   5    -0.230855769896E+03    0.40863E-02   -0.25688E-02  4041   0.240E-01    0.139E+00
RMM:   6    -0.230847496382E+03    0.82735E-02   -0.18525E-02  4040   0.212E-01    0.878E-01
RMM:   7    -0.230844616059E+03    0.28803E-02   -0.10533E-02  4039   0.162E-01    0.533E-01
RMM:   8    -0.230842505082E+03    0.21110E-02   -0.29436E-03  4040   0.845E-02    0.228E-01
RMM:   9    -0.230842126713E+03    0.37837E-03   -0.59885E-04  4044   0.376E-02    0.130E-01
RMM:  10    -0.230841991319E+03    0.13539E-03   -0.26214E-04  4039   0.246E-02    0.856E-02
RMM:  11    -0.230841941749E+03    0.49570E-04   -0.31342E-04  4040   0.259E-02    0.691E-02
RMM:  12    -0.230841916553E+03    0.25196E-04   -0.83656E-05  4040   0.138E-02    0.373E-02
RMM:  13    -0.230841911007E+03    0.55459E-05   -0.18315E-05  4033   0.667E-03    0.193E-02
RMM:  14    -0.230841910753E+03    0.25416E-06   -0.47064E-06  3149   0.349E-03
  10 F= -.23084191E+03 E0= -.23073670E+03  d E =-.188551E+00
       N       E                     dE             d eps       ncg     rms          rms(c)
DAV:   1    -0.230797771092E+03    0.44140E-01   -0.49682E+01  4032   0.116E+01    0.128E+00
RMM:   2    -0.230932120550E+03   -0.13435E+00   -0.95244E-01  4046   0.173E+00    0.249E+00
RMM:   3    -0.230887137718E+03    0.44983E-01   -0.64266E-02  4048   0.394E-01    0.116E+00
RMM:   4    -0.230884004720E+03    0.31330E-02   -0.20030E-02  4048   0.220E-01    0.112E+00
RMM:   5    -0.230880771431E+03    0.32333E-02   -0.11720E-02  4042   0.163E-01    0.961E-01
RMM:   6    -0.230876662655E+03    0.41088E-02   -0.81014E-03  4039   0.140E-01    0.585E-01
RMM:   7    -0.230875310364E+03    0.13523E-02   -0.44755E-03  4039   0.105E-01    0.338E-01
RMM:   8    -0.230874481858E+03    0.82851E-03   -0.11854E-03  4041   0.535E-02    0.148E-01
RMM:   9    -0.230874322527E+03    0.15933E-03   -0.24183E-04  4041   0.239E-02    0.817E-02
RMM:  10    -0.230874268979E+03    0.53548E-04   -0.11974E-04  4038   0.166E-02    0.564E-02
RMM:  11    -0.230874251621E+03    0.17358E-04   -0.14511E-04  4040   0.176E-02    0.452E-02
RMM:  12    -0.230874243163E+03    0.84583E-05   -0.33036E-05  4040   0.872E-03    0.253E-02
RMM:  13    -0.230874241889E+03    0.12735E-05   -0.77047E-06  3887   0.435E-03    0.124E-02
RMM:  14    -0.230874243397E+03   -0.15071E-05   -0.19500E-06  2366   0.232E-03    0.429E-03
RMM:  15    -0.230874246209E+03   -0.28122E-05   -0.58307E-07  2225   0.131E-03    0.282E-03
RMM:  16    -0.230874249253E+03   -0.30446E-05   -0.22577E-07  2227   0.771E-04    0.191E-03
RMM:  17    -0.230874251042E+03   -0.17884E-05   -0.63559E-08  1322   0.473E-04    0.909E-04
RMM:  18    -0.230874253242E+03   -0.22002E-05   -0.66271E-08  1484   0.452E-04    0.826E-04
RMM:  19    -0.230874255662E+03   -0.24201E-05   -0.83024E-08  1351   0.427E-04    0.744E-04
RMM:  20    -0.230874257991E+03   -0.23294E-05   -0.77072E-08  1374   0.438E-04    0.566E-04
RMM:  21    -0.230874259594E+03   -0.16021E-05   -0.87655E-08  1304   0.408E-04    0.365E-04
RMM:  22    -0.230874260632E+03   -0.10388E-05   -0.37572E-08   858   0.347E-04    0.232E-04
RMM:  23    -0.230874261477E+03   -0.84491E-06   -0.43197E-08   972   0.384E-04
  11 F= -.23087426E+03 E0= -.23076974E+03  d E =-.220902E+00
       N       E                     dE             d eps       ncg     rms          rms(c)
DAV:   1    -0.230834152235E+03    0.40108E-01   -0.98348E+01  4032   0.175E+01    0.204E+00
RMM:   2    -0.231077311851E+03   -0.24316E+00   -0.24085E+00  4048   0.255E+00    0.178E+00
RMM:   3    -0.231180210065E+03   -0.10290E+00   -0.17873E-01  4048   0.639E-01    0.362E+00
RMM:   4    -0.231033546860E+03    0.14666E+00   -0.44200E-02  4060   0.317E-01    0.889E-01
RMM:   5    -0.231037271840E+03   -0.37250E-02   -0.18325E-02  4044   0.210E-01    0.111E+00
RMM:   6    -0.231031895559E+03    0.53763E-02   -0.13611E-02  4041   0.173E-01    0.671E-01
RMM:   7    -0.231029225532E+03    0.26700E-02   -0.76343E-03  4040   0.136E-01    0.309E-01
RMM:   8    -0.231028785940E+03    0.43959E-03   -0.15476E-03  4041   0.601E-02    0.186E-01
RMM:   9    -0.231028535360E+03    0.25058E-03   -0.27118E-04  4047   0.260E-02    0.829E-02
RMM:  10    -0.231028497098E+03    0.38262E-04   -0.13159E-04  4040   0.176E-02    0.646E-02
RMM:  11    -0.231028475998E+03    0.21100E-04   -0.13227E-04  4040   0.172E-02    0.451E-02
RMM:  12    -0.231028481758E+03   -0.57601E-05   -0.47354E-05  4038   0.104E-02    0.348E-02
RMM:  13    -0.231028480060E+03    0.16980E-05   -0.13735E-05  4020   0.571E-03    0.192E-02
RMM:  14    -0.231028481130E+03   -0.10698E-05   -0.40197E-06  2931   0.324E-03    0.708E-03
RMM:  15    -0.231028485768E+03   -0.46387E-05   -0.12507E-06  2295   0.186E-03    0.545E-03
RMM:  16    -0.231028490708E+03   -0.49402E-05   -0.51870E-07  2259   0.120E-03    0.238E-03
RMM:  17    -0.231028494175E+03   -0.34668E-05   -0.23090E-07  2236   0.718E-04    0.151E-03
RMM:  18    -0.231028497748E+03   -0.35728E-05   -0.11738E-07  1575   0.506E-04    0.129E-03
RMM:  19    -0.231028500755E+03   -0.30069E-05   -0.93035E-08  1407   0.454E-04    0.110E-03
RMM:  20    -0.231028503963E+03   -0.32078E-05   -0.16597E-07  1661   0.485E-04    0.852E-04
RMM:  21    -0.231028507618E+03   -0.36556E-05   -0.18256E-07  1761   0.515E-04    0.405E-04
RMM:  22    -0.231028509543E+03   -0.19249E-05   -0.11139E-07  1256   0.420E-04    0.422E-04
RMM:  23    -0.231028510660E+03   -0.11171E-05   -0.63908E-08  1008   0.369E-04    0.268E-04
RMM:  24    -0.231028511822E+03   -0.11614E-05   -0.84397E-08  1300   0.434E-04    0.200E-04
RMM:  25    -0.231028512380E+03   -0.55792E-06   -0.66120E-08  1171   0.368E-04
  12 F= -.23102851E+03 E0= -.23092354E+03  d E =-.154251E+00
       N       E                     dE             d eps       ncg     rms          rms(c)
DAV:   1    -0.229192606923E+03    0.18359E+01   -0.88660E+02  4032   0.526E+01    0.612E+00
RMM:   2    -0.231692331996E+03   -0.24997E+01   -0.23820E+01  4046   0.776E+00    0.663E+00
RMM:   3    -0.232411469949E+03   -0.71914E+00   -0.16777E+00  4046   0.194E+00    0.930E+00
RMM:   4    -0.231189199597E+03    0.12223E+01   -0.41398E-01  4056   0.971E-01    0.281E+00
RMM:   5    -0.231177001886E+03    0.12198E-01   -0.15966E-01  4044   0.625E-01    0.277E+00
RMM:   6    -0.231150372664E+03    0.26629E-01   -0.10116E-01  4041   0.472E-01    0.191E+00
RMM:   7    -0.231137893183E+03    0.12479E-01   -0.71905E-02  4041   0.411E-01    0.131E+00
RMM:   8    -0.231131172682E+03    0.67205E-02   -0.27098E-02  4040   0.253E-01    0.919E-01
RMM:   9    -0.231125480359E+03    0.56923E-02   -0.61729E-03  4040   0.124E-01    0.397E-01
RMM:  10    -0.231124281117E+03    0.11992E-02   -0.20942E-03  4039   0.706E-02    0.264E-01
RMM:  11    -0.231123917235E+03    0.36388E-03   -0.12919E-03  4041   0.553E-02    0.178E-01
RMM:  12    -0.231123786396E+03    0.13084E-03   -0.10115E-03  4039   0.480E-02    0.147E-01
RMM:  13    -0.231123701472E+03    0.84924E-04   -0.23217E-04  4039   0.233E-02    0.747E-02
RMM:  14    -0.231123697682E+03    0.37897E-05   -0.79209E-05  4042   0.141E-02    0.329E-02
RMM:  15    -0.231123721957E+03   -0.24275E-04   -0.20801E-05  4030   0.701E-03    0.190E-02
RMM:  16    -0.231123743749E+03   -0.21792E-04   -0.50725E-06  3239   0.349E-03    0.111E-02
RMM:  17    -0.231123764648E+03   -0.20899E-04   -0.23017E-06  2492   0.240E-03    0.692E-03
RMM:  18    -0.231123788982E+03   -0.24334E-04   -0.14672E-06  2414   0.176E-03    0.550E-03
RMM:  19    -0.231123804012E+03   -0.15030E-04   -0.66607E-07  2361   0.107E-03    0.398E-03
RMM:  20    -0.231123819600E+03   -0.15588E-04   -0.59490E-07  2370   0.916E-04    0.256E-03
RMM:  21    -0.231123841951E+03   -0.22351E-04   -0.12017E-06  2435   0.121E-03    0.190E-03
RMM:  22    -0.231123851262E+03   -0.93110E-05   -0.44954E-07  2313   0.737E-04    0.138E-03
RMM:  23    -0.231123861787E+03   -0.10525E-04   -0.52739E-07  2367   0.795E-04    0.964E-04
RMM:  24    -0.231123870292E+03   -0.85050E-05   -0.57753E-07  2370   0.815E-04    0.790E-04
RMM:  25    -0.231123873848E+03   -0.35569E-05   -0.22042E-07  1447   0.511E-04    0.587E-04
RMM:  26    -0.231123875353E+03   -0.15048E-05   -0.12172E-07  1582   0.470E-04    0.409E-04
RMM:  27    -0.231123876451E+03   -0.10978E-05   -0.48575E-08  1073   0.352E-04    0.290E-04
RMM:  28    -0.231123877090E+03   -0.63872E-06   -0.22694E-08   832   0.323E-04
  13 F= -.23112388E+03 E0= -.23101832E+03  d E =-.249616E+00
       N       E                     dE             d eps       ncg     rms          rms(c)
DAV:   1    -0.230984950075E+03    0.13893E+00   -0.86182E+01  4032   0.165E+01    0.179E+00
RMM:   2    -0.231180831572E+03   -0.19588E+00   -0.19787E+00  4049   0.237E+00    0.138E+00
RMM:   3    -0.231256779548E+03   -0.75948E-01   -0.13400E-01  4046   0.564E-01    0.339E+00
RMM:   4    -0.231161728964E+03    0.95051E-01   -0.36136E-02  4061   0.285E-01    0.103E+00
RMM:   5    -0.231157633885E+03    0.40951E-02   -0.16576E-02  4043   0.197E-01    0.934E-01
RMM:   6    -0.231154522846E+03    0.31110E-02   -0.10442E-02  4040   0.156E-01    0.612E-01
RMM:   7    -0.231152771735E+03    0.17511E-02   -0.69071E-03  4043   0.129E-01    0.405E-01
RMM:   8    -0.231151977050E+03    0.79469E-03   -0.20356E-03  4042   0.691E-02    0.232E-01
RMM:   9    -0.231151602122E+03    0.37493E-03   -0.37307E-04  4043   0.306E-02    0.897E-02
RMM:  10    -0.231151545641E+03    0.56481E-04   -0.12033E-04  4041   0.168E-02    0.653E-02
RMM:  11    -0.231151521936E+03    0.23705E-04   -0.93889E-05  4039   0.145E-02    0.498E-02
RMM:  12    -0.231151527470E+03   -0.55337E-05   -0.56312E-05  4040   0.112E-02    0.415E-02
RMM:  13    -0.231151523020E+03    0.44497E-05   -0.19777E-05  4032   0.676E-03    0.203E-02
RMM:  14    -0.231151523392E+03   -0.37197E-06   -0.38117E-06  2815   0.314E-03
  14 F= -.23115152E+03 E0= -.23104604E+03  d E =-.277262E+00
       N       E                     dE             d eps       ncg     rms          rms(c)
DAV:   1    -0.231011309963E+03    0.14021E+00   -0.14280E+02  4032   0.208E+01    0.255E+00
RMM:   2    -0.231388770477E+03   -0.37746E+00   -0.34514E+00  4048   0.310E+00    0.311E+00
RMM:   3    -0.231442465479E+03   -0.53695E-01   -0.26099E-01  4047   0.783E-01    0.365E+00
RMM:   4    -0.231306925949E+03    0.13554E+00   -0.80024E-02  4060   0.424E-01    0.149E+00
RMM:   5    -0.231307900359E+03   -0.97441E-03   -0.45415E-02  4044   0.323E-01    0.196E+00
RMM:   6    -0.231291850574E+03    0.16050E-01   -0.22377E-02  4041   0.229E-01    0.105E+00
RMM:   7    -0.231286722360E+03    0.51282E-02   -0.15797E-02  4039   0.194E-01    0.639E-01
RMM:   8    -0.231284427726E+03    0.22946E-02   -0.53693E-03  4040   0.113E-01    0.282E-01
RMM:   9    -0.231283927122E+03    0.50060E-03   -0.99404E-04  4045   0.489E-02    0.163E-01
RMM:  10    -0.231283733411E+03    0.19371E-03   -0.28311E-04  4040   0.257E-02    0.102E-01
RMM:  11    -0.231283677937E+03    0.55474E-04   -0.23581E-04  4039   0.229E-02    0.709E-02
RMM:  12    -0.231283664283E+03    0.13654E-04   -0.17307E-04  4043   0.191E-02    0.486E-02
RMM:  13    -0.231283659040E+03    0.52432E-05   -0.38658E-05  4034   0.966E-03    0.246E-02
RMM:  14    -0.231283664531E+03   -0.54915E-05   -0.91842E-06  3990   0.481E-03    0.134E-02
RMM:  15    -0.231283670021E+03   -0.54898E-05   -0.26412E-06  2496   0.267E-03    0.607E-03
RMM:  16    -0.231283679923E+03   -0.99016E-05   -0.11290E-06  2342   0.169E-03    0.385E-03
RMM:  17    -0.231283685899E+03   -0.59757E-05   -0.45483E-07  2284   0.105E-03    0.161E-03
RMM:  18    -0.231283692482E+03   -0.65836E-05   -0.28777E-07  2266   0.684E-04    0.146E-03
RMM:  19    -0.231283697880E+03   -0.53980E-05   -0.18572E-07  1664   0.537E-04    0.138E-03
RMM:  20    -0.231283702595E+03   -0.47152E-05   -0.21628E-07  1908   0.570E-04    0.991E-04
RMM:  21    -0.231283707358E+03   -0.47626E-05   -0.23799E-07  1768   0.562E-04    0.605E-04
RMM:  22    -0.231283710161E+03   -0.28026E-05   -0.14447E-07  1466   0.482E-04    0.472E-04
RMM:  23    -0.231283712039E+03   -0.18785E-05   -0.13460E-07  1521   0.434E-04    0.365E-04
RMM:  24    -0.231283713698E+03   -0.16586E-05   -0.70347E-08   977   0.400E-04    0.253E-04
RMM:  25    -0.231283714435E+03   -0.73688E-06   -0.70906E-08  1268   0.434E-04
  15 F= -.23128371E+03 E0= -.23117835E+03  d E =-.132191E+00
       N       E                     dE             d eps       ncg     rms          rms(c)
DAV:   1    -0.231080823588E+03    0.20289E+00   -0.12293E+02  4032   0.193E+01    0.229E+00
RMM:   2    -0.231403488244E+03   -0.32266E+00   -0.29525E+00  4048   0.287E+00    0.282E+00
RMM:   3    -0.231450743866E+03   -0.47256E-01   -0.22089E-01  4047   0.721E-01    0.338E+00
RMM:   4    -0.231333774626E+03    0.11697E+00   -0.66821E-02  4061   0.389E-01    0.134E+00
RMM:   5    -0.231332381065E+03    0.13936E-02   -0.35355E-02  4045   0.285E-01    0.166E+00
RMM:   6    -0.231321194993E+03    0.11186E-01   -0.17468E-02  4041   0.202E-01    0.910E-01
RMM:   7    -0.231317833943E+03    0.33611E-02   -0.12869E-02  4039   0.175E-01    0.588E-01
RMM:   8    -0.231315821511E+03    0.20124E-02   -0.44207E-03  4041   0.103E-01    0.249E-01
RMM:   9    -0.231315424940E+03    0.39657E-03   -0.79783E-04  4044   0.439E-02    0.144E-01
RMM:  10    -0.231315277922E+03    0.14702E-03   -0.22780E-04  4040   0.230E-02    0.943E-02
RMM:  11    -0.231315233589E+03    0.44333E-04   -0.19922E-04  4039   0.211E-02    0.673E-02
RMM:  12    -0.231315221809E+03    0.11781E-04   -0.15050E-04  4043   0.177E-02    0.461E-02
RMM:  13    -0.231315216383E+03    0.54257E-05   -0.32543E-05  4032   0.883E-03    0.229E-02
RMM:  14    -0.231315220973E+03   -0.45906E-05   -0.79435E-06  3926   0.450E-03    0.118E-02
RMM:  15    -0.231315225568E+03   -0.45942E-05   -0.21761E-06  2422   0.244E-03    0.546E-03
RMM:  16    -0.231315233572E+03   -0.80048E-05   -0.90334E-07  2322   0.150E-03    0.359E-03
RMM:  17    -0.231315238279E+03   -0.47064E-05   -0.35978E-07  2268   0.922E-04    0.153E-03
RMM:  18    -0.231315243348E+03   -0.50696E-05   -0.21563E-07  2126   0.599E-04    0.154E-03
RMM:  19    -0.231315247305E+03   -0.39564E-05   -0.11790E-07  1342   0.475E-04    0.140E-03
RMM:  20    -0.231315251363E+03   -0.40586E-05   -0.21372E-07  1996   0.562E-04    0.101E-03
RMM:  21    -0.231315255950E+03   -0.45869E-05   -0.21696E-07  1760   0.542E-04    0.469E-04
RMM:  22    -0.231315258526E+03   -0.25759E-05   -0.14893E-07  1446   0.475E-04    0.383E-04
RMM:  23    -0.231315260048E+03   -0.15217E-05   -0.10776E-07  1326   0.408E-04    0.310E-04
RMM:  24    -0.231315261434E+03   -0.13866E-05   -0.75739E-08  1092   0.409E-04    0.242E-04
RMM:  25    -0.231315262045E+03   -0.61057E-06   -0.53204E-08  1058   0.398E-04
  16 F= -.23131526E+03 E0= -.23121013E+03  d E =-.163739E+00
       N       E                     dE             d eps       ncg     rms          rms(c)
DAV:   1    -0.231208865721E+03    0.10640E+00   -0.10781E+02  4032   0.175E+01    0.192E+00
RMM:   2    -0.231538682166E+03   -0.32982E+00   -0.23309E+00  4047   0.264E+00    0.375E+00
RMM:   3    -0.231461608049E+03    0.77074E-01   -0.18289E-01  4051   0.655E-01    0.244E+00
RMM:   4    -0.231407914051E+03    0.53694E-01   -0.48085E-02  4048   0.344E-01    0.121E+00
RMM:   5    -0.231404216229E+03    0.36978E-02   -0.24837E-02  4044   0.244E-01    0.120E+00
RMM:   6    -0.231398691585E+03    0.55246E-02   -0.16400E-02  4041   0.195E-01    0.732E-01
RMM:   7    -0.231396661374E+03    0.20302E-02   -0.10019E-02  4040   0.156E-01    0.434E-01
RMM:   8    -0.231395701379E+03    0.96000E-03   -0.26696E-03  4040   0.799E-02    0.225E-01
RMM:   9    -0.231395301001E+03    0.40038E-03   -0.49190E-04  4043   0.348E-02    0.104E-01
RMM:  10    -0.231395223341E+03    0.77660E-04   -0.21024E-04  4039   0.218E-02    0.875E-02
RMM:  11    -0.231395190206E+03    0.33135E-04   -0.23999E-04  4041   0.229E-02    0.795E-02
RMM:  12    -0.231395155225E+03    0.34981E-04   -0.99647E-05  4041   0.150E-02    0.377E-02
RMM:  13    -0.231395151037E+03    0.41876E-05   -0.24578E-05  4020   0.779E-03    0.191E-02
RMM:  14    -0.231395151522E+03   -0.48440E-06   -0.53321E-06  3259   0.372E-03
  17 F= -.23139515E+03 E0= -.23129088E+03  d E =-.798895E-01
       N       E                     dE             d eps       ncg     rms          rms(c)
DAV:   1    -0.231311762283E+03    0.83389E-01   -0.59228E+01  4032   0.129E+01    0.142E+00
RMM:   2    -0.231489745945E+03   -0.17798E+00   -0.12682E+00  4048   0.195E+00    0.275E+00
RMM:   3    -0.231447415000E+03    0.42331E-01   -0.97991E-02  4052   0.481E-01    0.180E+00
RMM:   4    -0.231421478218E+03    0.25937E-01   -0.26802E-02  4048   0.257E-01    0.963E-01
RMM:   5    -0.231418278910E+03    0.31993E-02   -0.14165E-02  4042   0.185E-01    0.897E-01
RMM:   6    -0.231415464770E+03    0.28141E-02   -0.91782E-03  4041   0.146E-01    0.556E-01
RMM:   7    -0.231414264869E+03    0.11999E-02   -0.56694E-03  4039   0.118E-01    0.316E-01
RMM:   8    -0.231413747439E+03    0.51743E-03   -0.14268E-03  4039   0.585E-02    0.162E-01
RMM:   9    -0.231413542613E+03    0.20483E-03   -0.25287E-04  4043   0.248E-02    0.781E-02
RMM:  10    -0.231413500413E+03    0.42200E-04   -0.11859E-04  4039   0.164E-02    0.663E-02
RMM:  11    -0.231413483252E+03    0.17161E-04   -0.14115E-04  4040   0.175E-02    0.581E-02
RMM:  12    -0.231413469069E+03    0.14183E-04   -0.57548E-05  4041   0.113E-02    0.290E-02
RMM:  13    -0.231413467598E+03    0.14702E-05   -0.12943E-05  4007   0.570E-03    0.141E-02
RMM:  14    -0.231413469613E+03   -0.20149E-05   -0.26873E-06  2542   0.268E-03    0.549E-03
RMM:  15    -0.231413472953E+03   -0.33402E-05   -0.73877E-07  2246   0.144E-03    0.375E-03
RMM:  16    -0.231413476942E+03   -0.39887E-05   -0.32814E-07  2250   0.888E-04    0.230E-03
RMM:  17    -0.231413479786E+03   -0.28436E-05   -0.14068E-07  2005   0.571E-04    0.116E-03
RMM:  18    -0.231413482600E+03   -0.28143E-05   -0.60460E-08  1170   0.425E-04    0.884E-04
RMM:  19    -0.231413485489E+03   -0.28886E-05   -0.11297E-07  1572   0.465E-04    0.886E-04
RMM:  20    -0.231413488272E+03   -0.27835E-05   -0.92997E-08  1215   0.441E-04    0.613E-04
RMM:  21    -0.231413490738E+03   -0.24654E-05   -0.15975E-07  1783   0.481E-04    0.369E-04
RMM:  22    -0.231413492161E+03   -0.14233E-05   -0.45885E-08   836   0.342E-04    0.224E-04
RMM:  23    -0.231413493086E+03   -0.92464E-06   -0.57270E-08  1019   0.388E-04
  18 F= -.23141349E+03 E0= -.23130990E+03  d E =-.982310E-01
       N       E                     dE             d eps       ncg     rms          rms(c)
DAV:   1    -0.231379131481E+03    0.34361E-01   -0.38145E+01  4032   0.107E+01    0.142E+00
RMM:   2    -0.231473813543E+03   -0.94682E-01   -0.92757E-01  4045   0.163E+00    0.160E+00
RMM:   3    -0.231469086459E+03    0.47271E-02   -0.57488E-02  4047   0.383E-01    0.138E+00
RMM:   4    -0.231489620741E+03   -0.20534E-01   -0.28774E-02  4057   0.242E-01    0.191E+00
RMM:   5    -0.231463374848E+03    0.26246E-01   -0.22167E-02  4041   0.216E-01    0.126E+00
RMM:   6    -0.231454341617E+03    0.90332E-02   -0.84732E-03  4040   0.142E-01    0.593E-01
RMM:   7    -0.231453212231E+03    0.11294E-02   -0.56291E-03  4039   0.117E-01    0.382E-01
RMM:   8    -0.231452084183E+03    0.11280E-02   -0.16897E-03  4039   0.626E-02    0.163E-01
RMM:   9    -0.231451948432E+03    0.13575E-03   -0.26348E-04  4044   0.256E-02    0.881E-02
RMM:  10    -0.231451886401E+03    0.62031E-04   -0.78121E-05  4039   0.136E-02    0.521E-02
RMM:  11    -0.231451878981E+03    0.74195E-05   -0.80095E-05  4039   0.131E-02    0.407E-02
RMM:  12    -0.231451883364E+03   -0.43826E-05   -0.49321E-05  4039   0.103E-02    0.297E-02
RMM:  13    -0.231451883688E+03   -0.32416E-06   -0.10837E-05  4004   0.499E-03    0.164E-02
RMM:  14    -0.231451885372E+03   -0.16844E-05   -0.24959E-06  2467   0.256E-03    0.751E-03
RMM:  15    -0.231451888692E+03   -0.33190E-05   -0.86064E-07  2243   0.156E-03    0.348E-03
RMM:  16    -0.231451894340E+03   -0.56484E-05   -0.49707E-07  2270   0.107E-03    0.233E-03
RMM:  17    -0.231451898591E+03   -0.42511E-05   -0.26974E-07  2237   0.770E-04    0.117E-03
RMM:  18    -0.231451902350E+03   -0.37591E-05   -0.11741E-07  1433   0.487E-04    0.997E-04
RMM:  19    -0.231451906635E+03   -0.42849E-05   -0.20645E-07  1981   0.548E-04    0.651E-04
RMM:  20    -0.231451910288E+03   -0.36528E-05   -0.16965E-07  1424   0.497E-04    0.480E-04
RMM:  21    -0.231451912065E+03   -0.17769E-05   -0.11976E-07  1388   0.445E-04    0.301E-04
RMM:  22    -0.231451913583E+03   -0.15182E-05   -0.10614E-07  1298   0.408E-04    0.257E-04
RMM:  23    -0.231451914568E+03   -0.98567E-06   -0.64000E-08   965   0.380E-04
  19 F= -.23145191E+03 E0= -.23134718E+03  d E =-.384215E-01
       N       E                     dE             d eps       ncg     rms          rms(c)
DAV:   1    -0.231448570931E+03    0.33427E-02   -0.27389E+00  4104   0.287E+00    0.373E-01
RMM:   2    -0.231455181715E+03   -0.66108E-02   -0.65866E-02  4045   0.435E-01    0.422E-01
RMM:   3    -0.231454665777E+03    0.51594E-03   -0.40245E-03  4047   0.102E-01    0.337E-01
RMM:   4    -0.231456540065E+03   -0.18743E-02   -0.20076E-03  4056   0.641E-02    0.522E-01
RMM:   5    -0.231454441271E+03    0.20988E-02   -0.15044E-03  4041   0.558E-02    0.324E-01
RMM:   6    -0.231453884957E+03    0.55631E-03   -0.57421E-04  4040   0.372E-02    0.153E-01
RMM:   7    -0.231453838537E+03    0.46420E-04   -0.39698E-04  4039   0.311E-02    0.104E-01
RMM:   8    -0.231453753335E+03    0.85203E-04   -0.11745E-04  4039   0.165E-02    0.406E-02
RMM:   9    -0.231453745614E+03    0.77208E-05   -0.17968E-05  4032   0.670E-03    0.225E-02
RMM:  10    -0.231453741779E+03    0.38347E-05   -0.53154E-06  3496   0.359E-03    0.132E-02
RMM:  11    -0.231453741695E+03    0.84277E-07   -0.57517E-06  3819   0.356E-03
  20 F= -.23145374E+03 E0= -.23134870E+03  d E =-.402486E-01
       N       E                     dE             d eps       ncg     rms          rms(c)
DAV:   1    -0.231432408771E+03    0.21333E-01   -0.26696E+01  4032   0.876E+00    0.983E-01
RMM:   2    -0.231497530263E+03   -0.65121E-01   -0.57476E-01  4045   0.132E+00    0.143E+00
RMM:   3    -0.231493193953E+03    0.43363E-02   -0.38856E-02  4048   0.310E-01    0.121E+00
RMM:   4    -0.231489111061E+03    0.40829E-02   -0.14420E-02  4059   0.178E-01    0.103E+00
RMM:   5    -0.231481296904E+03    0.78142E-02   -0.79296E-03  4045   0.135E-01    0.680E-01
RMM:   6    -0.231480169619E+03    0.11273E-02   -0.41414E-03  4039   0.971E-02    0.477E-01
RMM:   7    -0.231479053437E+03    0.11162E-02   -0.33477E-03  4040   0.894E-02    0.210E-01
RMM:   8    -0.231478789181E+03    0.26426E-03   -0.73829E-04  4040   0.411E-02    0.108E-01
RMM:   9    -0.231478699527E+03    0.89655E-04   -0.12358E-04  4043   0.170E-02    0.589E-02
RMM:  10    -0.231478670556E+03    0.28971E-04   -0.49991E-05  4039   0.108E-02    0.413E-02
RMM:  11    -0.231478661832E+03    0.87235E-05   -0.74967E-05  4032   0.127E-02    0.341E-02
RMM:  12    -0.231478657031E+03    0.48018E-05   -0.28247E-05  4033   0.782E-03    0.195E-02
RMM:  13    -0.231478656136E+03    0.89499E-06   -0.52502E-06  3295   0.368E-03
  21 F= -.23147866E+03 E0= -.23137302E+03  d E =-.249144E-01
       N       E                     dE             d eps       ncg     rms          rms(c)
DAV:   1    -0.231469640452E+03    0.90166E-02   -0.71745E+00  4032   0.454E+00    0.505E-01
RMM:   2    -0.231486842072E+03   -0.17202E-01   -0.15306E-01  4045   0.683E-01    0.733E-01
RMM:   3    -0.231485634597E+03    0.12075E-02   -0.10329E-02  4049   0.160E-01    0.619E-01
RMM:   4    -0.231484890464E+03    0.74413E-03   -0.38750E-03  4059   0.921E-02    0.546E-01
RMM:   5    -0.231482601651E+03    0.22888E-02   -0.21105E-03  4045   0.694E-02    0.346E-01
RMM:   6    -0.231482364573E+03    0.23708E-03   -0.11171E-03  4039   0.504E-02    0.250E-01
RMM:   7    -0.231482072427E+03    0.29215E-03   -0.91787E-04  4039   0.468E-02    0.109E-01
RMM:   8    -0.231482003416E+03    0.69010E-04   -0.19516E-04  4039   0.210E-02    0.582E-02
RMM:   9    -0.231481980120E+03    0.23296E-04   -0.33587E-05  4043   0.885E-03    0.323E-02
RMM:  10    -0.231481972679E+03    0.74406E-05   -0.13700E-05  4026   0.564E-03    0.235E-02
RMM:  11    -0.231481971609E+03    0.10707E-05   -0.17481E-05  4020   0.616E-03    0.208E-02
RMM:  12    -0.231481970572E+03    0.10366E-05   -0.10117E-05  4026   0.468E-03    0.120E-02
RMM:  13    -0.231481970497E+03    0.75255E-07   -0.18470E-06  2364   0.227E-03
  22 F= -.23148197E+03 E0= -.23137603E+03  d E =-.282288E-01
       N       E                     dE             d eps       ncg     rms          rms(c)
DAV:   1    -0.231455131689E+03    0.26839E-01   -0.21189E+01  4032   0.804E+00    0.972E-01
RMM:   2    -0.231514891081E+03   -0.59759E-01   -0.52310E-01  4047   0.122E+00    0.135E+00
RMM:   3    -0.231513538401E+03    0.13527E-02   -0.36948E-02  4051   0.300E-01    0.132E+00
RMM:   4    -0.231504520379E+03    0.90180E-02   -0.12861E-02  4050   0.168E-01    0.901E-01
RMM:   5    -0.231499034745E+03    0.54856E-02   -0.72901E-03  4041   0.131E-01    0.595E-01
RMM:   6    -0.231498005831E+03    0.10289E-02   -0.41566E-03  4039   0.994E-02    0.465E-01
RMM:   7    -0.231497496205E+03    0.50963E-03   -0.29879E-03  4038   0.844E-02    0.315E-01
RMM:   8    -0.231496740618E+03    0.75559E-03   -0.95887E-04  4039   0.483E-02    0.913E-02
RMM:   9    -0.231496686939E+03    0.53679E-04   -0.12231E-04  4040   0.168E-02    0.539E-02
RMM:  10    -0.231496663427E+03    0.23512E-04   -0.38264E-05  4043   0.950E-03    0.361E-02
RMM:  11    -0.231496660791E+03    0.26356E-05   -0.44991E-05  4034   0.995E-03    0.316E-02
RMM:  12    -0.231496660425E+03    0.36672E-06   -0.24917E-05  4027   0.735E-03    0.213E-02
RMM:  13    -0.231496659222E+03    0.12029E-05   -0.52748E-06  3344   0.362E-03    0.823E-03
RMM:  14    -0.231496660226E+03   -0.10042E-05   -0.10873E-06  2229   0.182E-03    0.383E-03
RMM:  15    -0.231496661519E+03   -0.12933E-05   -0.31927E-07  2187   0.989E-04    0.226E-03
RMM:  16    -0.231496663453E+03   -0.19335E-05   -0.18273E-07  2214   0.659E-04    0.176E-03
RMM:  17    -0.231496665469E+03   -0.20159E-05   -0.11199E-07  1891   0.528E-04    0.724E-04
RMM:  18    -0.231496666829E+03   -0.13601E-05   -0.30755E-08   925   0.371E-04    0.511E-04
RMM:  19    -0.231496668375E+03   -0.15463E-05   -0.49654E-08  1006   0.393E-04    0.529E-04
RMM:  20    -0.231496669829E+03   -0.14543E-05   -0.99788E-08  1432   0.444E-04    0.440E-04
RMM:  21    -0.231496670987E+03   -0.11582E-05   -0.78229E-08  1167   0.383E-04    0.326E-04
RMM:  22    -0.231496671692E+03   -0.70476E-06   -0.33659E-08   803   0.349E-04
  23 F= -.23149667E+03 E0= -.23139096E+03  d E =-.147012E-01
       N       E                     dE             d eps       ncg     rms          rms(c)
DAV:   1    -0.231495063409E+03    0.16076E-02   -0.10555E+00  4104   0.179E+00    0.216E-01
RMM:   2    -0.231497974064E+03   -0.29107E-02   -0.25818E-02  4047   0.271E-01    0.297E-01
RMM:   3    -0.231497883699E+03    0.90365E-04   -0.18273E-03  4050   0.669E-02    0.294E-01
RMM:   4    -0.231497518700E+03    0.36500E-03   -0.64749E-04  4051   0.376E-02    0.210E-01
RMM:   5    -0.231497205850E+03    0.31285E-03   -0.37061E-04  4041   0.296E-02    0.130E-01
RMM:   6    -0.231497178503E+03    0.27346E-04   -0.20972E-04  4039   0.223E-02    0.106E-01
RMM:   7    -0.231497160962E+03    0.17541E-04   -0.15132E-04  4038   0.190E-02    0.709E-02
RMM:   8    -0.231497123670E+03    0.37293E-04   -0.47618E-05  4037   0.108E-02    0.203E-02
RMM:   9    -0.231497121432E+03    0.22377E-05   -0.57337E-06  3480   0.367E-03    0.122E-02
RMM:  10    -0.231497120304E+03    0.11285E-05   -0.18400E-06  2257   0.224E-03    0.831E-03
RMM:  11    -0.231497120308E+03   -0.49040E-08   -0.22726E-06  2275   0.249E-03
  24 F= -.23149712E+03 E0= -.23139146E+03  d E =-.151498E-01
       N       E                     dE             d eps       ncg     rms          rms(c)
DAV:   1    -0.231486000448E+03    0.11120E-01   -0.98055E+00  4032   0.539E+00    0.645E-01
RMM:   2    -0.231510614492E+03   -0.24614E-01   -0.22600E-01  4045   0.813E-01    0.814E-01
RMM:   3    -0.231512416611E+03   -0.18021E-02   -0.16018E-02  4049   0.198E-01    0.899E-01
RMM:   4    -0.231508981576E+03    0.34350E-02   -0.61031E-03  4050   0.115E-01    0.662E-01
RMM:   5    -0.231505711641E+03    0.32699E-02   -0.37160E-03  4041   0.918E-02    0.439E-01
RMM:   6    -0.231505146963E+03    0.56468E-03   -0.18292E-03  4039   0.669E-02    0.288E-01
RMM:   7    -0.231504777853E+03    0.36911E-03   -0.13121E-03  4039   0.559E-02    0.160E-01
RMM:   8    -0.231504612324E+03    0.16553E-03   -0.31745E-04  4039   0.274E-02    0.701E-02
RMM:   9    -0.231504579817E+03    0.32508E-04   -0.48907E-05  4043   0.110E-02    0.384E-02
RMM:  10    -0.231504568939E+03    0.10878E-04   -0.16308E-05  4026   0.617E-03    0.253E-02
RMM:  11    -0.231504565867E+03    0.30721E-05   -0.26952E-05  4029   0.763E-03    0.179E-02
RMM:  12    -0.231504565957E+03   -0.90688E-07   -0.11655E-05  4019   0.497E-03    0.131E-02
RMM:  13    -0.231504566289E+03   -0.33202E-06   -0.18079E-06  2373   0.224E-03
  25 F= -.23150457E+03 E0= -.23139919E+03  d E =-.744598E-02
       N       E                     dE             d eps       ncg     rms          rms(c)
DAV:   1    -0.231503103680E+03    0.14623E-02   -0.10263E+00  4032   0.174E+00    0.208E-01
RMM:   2    -0.231505636634E+03   -0.25330E-02   -0.23470E-02  4045   0.263E-01    0.263E-01
RMM:   3    -0.231505788635E+03   -0.15200E-03   -0.16595E-03  4048   0.637E-02    0.288E-01
RMM:   4    -0.231505493025E+03    0.29561E-03   -0.64165E-04  4052   0.373E-02    0.219E-01
RMM:   5    -0.231505123169E+03    0.36986E-03   -0.39354E-04  4040   0.299E-02    0.140E-01
RMM:   6    -0.231505087608E+03    0.35561E-04   -0.19468E-04  4039   0.218E-02    0.953E-02
RMM:   7    -0.231505054219E+03    0.33388E-04   -0.13917E-04  4039   0.182E-02    0.520E-02
RMM:   8    -0.231505038060E+03    0.16159E-04   -0.33103E-05  4032   0.887E-03    0.231E-02
RMM:   9    -0.231505034966E+03    0.30938E-05   -0.49673E-06  3327   0.356E-03    0.125E-02
RMM:  10    -0.231505034207E+03    0.75961E-06   -0.16418E-06  2213   0.210E-03
  26 F= -.23150503E+03 E0= -.23139975E+03  d E =-.791390E-02
       N       E                     dE             d eps       ncg     rms          rms(c)
DAV:   1    -0.231494637714E+03    0.10397E-01   -0.96055E+00  4032   0.526E+00    0.580E-01
RMM:   2    -0.231518436532E+03   -0.23799E-01   -0.20925E-01  4045   0.799E-01    0.840E-01
RMM:   3    -0.231517771193E+03    0.66534E-03   -0.15037E-02  4047   0.192E-01    0.796E-01
RMM:   4    -0.231514053713E+03    0.37175E-02   -0.46697E-03  4064   0.103E-01    0.507E-01
RMM:   5    -0.231512391935E+03    0.16618E-02   -0.25811E-03  4049   0.762E-02    0.392E-01
RMM:   6    -0.231511942678E+03    0.44926E-03   -0.13022E-03  4039   0.554E-02    0.247E-01
RMM:   7    -0.231511786141E+03    0.15654E-03   -0.12343E-03  4040   0.542E-02    0.141E-01
RMM:   8    -0.231511657606E+03    0.12854E-03   -0.30457E-04  4040   0.274E-02    0.693E-02
RMM:   9    -0.231511618707E+03    0.38899E-04   -0.49340E-05  4041   0.106E-02    0.388E-02
RMM:  10    -0.231511608061E+03    0.10645E-04   -0.14952E-05  4026   0.583E-03    0.273E-02
RMM:  11    -0.231511604807E+03    0.32546E-05   -0.20036E-05  4032   0.652E-03    0.228E-02
RMM:  12    -0.231511602489E+03    0.23177E-05   -0.17308E-05  4020   0.606E-03    0.133E-02
RMM:  13    -0.231511601909E+03    0.57988E-06   -0.26788E-06  2475   0.269E-03
  27 F= -.23151160E+03 E0= -.23140629E+03  d E =-.656770E-02
       N       E                     dE             d eps       ncg     rms          rms(c)
DAV:   1    -0.231498741063E+03    0.12861E-01   -0.79784E+00  4032   0.479E+00    0.527E-01
RMM:   2    -0.231518498988E+03   -0.19758E-01   -0.17340E-01  4045   0.728E-01    0.768E-01
RMM:   3    -0.231517943841E+03    0.55515E-03   -0.12501E-02  4047   0.175E-01    0.730E-01
RMM:   4    -0.231514744204E+03    0.31996E-02   -0.38747E-03  4064   0.937E-02    0.456E-01
RMM:   5    -0.231513411380E+03    0.13328E-02   -0.21193E-03  4049   0.692E-02    0.352E-01
RMM:   6    -0.231513065419E+03    0.34596E-03   -0.10880E-03  4039   0.506E-02    0.223E-01
RMM:   7    -0.231512940773E+03    0.12465E-03   -0.10247E-03  4040   0.495E-02    0.125E-01
RMM:   8    -0.231512839681E+03    0.10109E-03   -0.24444E-04  4040   0.245E-02    0.615E-02
RMM:   9    -0.231512808426E+03    0.31255E-04   -0.39256E-05  4041   0.949E-03    0.345E-02
RMM:  10    -0.231512800488E+03    0.79382E-05   -0.12256E-05  4026   0.527E-03    0.244E-02
RMM:  11    -0.231512798945E+03    0.15425E-05   -0.17261E-05  4032   0.606E-03    0.217E-02
RMM:  12    -0.231512797645E+03    0.13002E-05   -0.13759E-05  4014   0.543E-03    0.122E-02
RMM:  13    -0.231512797473E+03    0.17255E-06   -0.21367E-06  2411   0.241E-03
  28 F= -.23151280E+03 E0= -.23140744E+03  d E =-.776327E-02
       N       E                     dE             d eps       ncg     rms          rms(c)
DAV:   1    -0.231509067547E+03    0.37301E-02   -0.43864E+00  4032   0.358E+00    0.371E-01
RMM:   2    -0.231518826673E+03   -0.97591E-02   -0.94370E-02  4048   0.535E-01    0.398E-01
RMM:   3    -0.231520302756E+03   -0.14761E-02   -0.66880E-03  4047   0.128E-01    0.594E-01
RMM:   4    -0.231517628637E+03    0.26741E-02   -0.16320E-03  4068   0.609E-02    0.290E-01
RMM:   5    -0.231517156387E+03    0.47225E-03   -0.84861E-04  4048   0.441E-02    0.213E-01
RMM:   6    -0.231517014960E+03    0.14143E-03   -0.55734E-04  4039   0.359E-02    0.126E-01
RMM:   7    -0.231516982486E+03    0.32474E-04   -0.44209E-04  4041   0.317E-02    0.632E-02
RMM:   8    -0.231516953545E+03    0.28941E-04   -0.76933E-05  4040   0.135E-02    0.342E-02
RMM:   9    -0.231516945931E+03    0.76143E-05   -0.11433E-05  4021   0.533E-03    0.217E-02
RMM:  10    -0.231516942855E+03    0.30766E-05   -0.44421E-06  3149   0.331E-03    0.148E-02
RMM:  11    -0.231516942854E+03    0.66211E-09   -0.95412E-06  4005   0.458E-03
  29 F= -.23151694E+03 E0= -.23141145E+03  d E =-.414538E-02
       N       E                     dE             d eps       ncg     rms          rms(c)
DAV:   1    -0.231491970899E+03    0.24972E-01   -0.16252E+01  4032   0.689E+00    0.717E-01
RMM:   2    -0.231528732892E+03   -0.36762E-01   -0.35208E-01  4048   0.103E+00    0.778E-01
RMM:   3    -0.231534484373E+03   -0.57515E-02   -0.24996E-02  4047   0.247E-01    0.115E+00
RMM:   4    -0.231523993130E+03    0.10491E-01   -0.61051E-03  4068   0.118E-01    0.547E-01
RMM:   5    -0.231522309859E+03    0.16833E-02   -0.30861E-03  4049   0.841E-02    0.411E-01
RMM:   6    -0.231521661161E+03    0.64870E-03   -0.20507E-03  4039   0.687E-02    0.243E-01
RMM:   7    -0.231521491376E+03    0.16978E-03   -0.16451E-03  4041   0.610E-02    0.132E-01
RMM:   8    -0.231521376402E+03    0.11497E-03   -0.31710E-04  4040   0.275E-02    0.729E-02
RMM:   9    -0.231521339259E+03    0.37143E-04   -0.52095E-05  4044   0.113E-02    0.448E-02
RMM:  10    -0.231521325546E+03    0.13713E-04   -0.17127E-05  4024   0.641E-03    0.292E-02
RMM:  11    -0.231521324060E+03    0.14857E-05   -0.31220E-05  4029   0.816E-03    0.269E-02
RMM:  12    -0.231521323419E+03    0.64176E-06   -0.19341E-05  4026   0.641E-03    0.179E-02
RMM:  13    -0.231521322541E+03    0.87768E-06   -0.36413E-06  2813   0.306E-03
  30 F= -.23152132E+03 E0= -.23141569E+03  d E =-.852507E-02
       N       E                     dE             d eps       ncg     rms          rms(c)
DAV:   1    -0.231515881286E+03    0.54421E-02   -0.33127E+00  4056   0.311E+00    0.322E-01
RMM:   2    -0.231523237843E+03   -0.73566E-02   -0.71212E-02  4048   0.465E-01    0.343E-01
RMM:   3    -0.231524386472E+03   -0.11486E-02   -0.50537E-03  4047   0.111E-01    0.519E-01
RMM:   4    -0.231522328057E+03    0.20584E-02   -0.12312E-03  4068   0.530E-02    0.251E-01
RMM:   5    -0.231521979199E+03    0.34886E-03   -0.63471E-04  4049   0.382E-02    0.184E-01
RMM:   6    -0.231521881135E+03    0.98064E-04   -0.42082E-04  4039   0.312E-02    0.110E-01
RMM:   7    -0.231521856316E+03    0.24819E-04   -0.33682E-04  4041   0.277E-02    0.547E-02
RMM:   8    -0.231521834224E+03    0.22092E-04   -0.57254E-05  4040   0.116E-02    0.295E-02
RMM:   9    -0.231521828865E+03    0.53596E-05   -0.81356E-06  3969   0.452E-03    0.188E-02
RMM:  10    -0.231521826719E+03    0.21454E-05   -0.34708E-06  2666   0.295E-03    0.131E-02
RMM:  11    -0.231521827417E+03   -0.69755E-06   -0.70898E-06  3940   0.405E-03
  31 F= -.23152183E+03 E0= -.23141611E+03  d E =-.902994E-02
       N       E                     dE             d eps       ncg     rms          rms(c)
DAV:   1    -0.231516874470E+03    0.49522E-02   -0.58557E+00  4032   0.409E+00    0.478E-01
RMM:   2    -0.231531120316E+03   -0.14246E-01   -0.12541E-01  4045   0.622E-01    0.631E-01
RMM:   3    -0.231532180059E+03   -0.10597E-02   -0.93226E-03  4049   0.151E-01    0.700E-01
RMM:   4    -0.231528913667E+03    0.32664E-02   -0.33062E-03  4047   0.857E-02    0.439E-01
RMM:   5    -0.231527599503E+03    0.13142E-02   -0.17384E-03  4040   0.647E-02    0.278E-01
RMM:   6    -0.231527508101E+03    0.91402E-04   -0.11370E-03  4039   0.522E-02    0.206E-01
RMM:   7    -0.231527365590E+03    0.14251E-03   -0.67180E-04  4040   0.394E-02    0.140E-01
RMM:   8    -0.231527228071E+03    0.13752E-03   -0.19562E-04  4039   0.218E-02    0.478E-02
RMM:   9    -0.231527215518E+03    0.12553E-04   -0.25888E-05  4033   0.781E-03    0.308E-02
RMM:  10    -0.231527207932E+03    0.75856E-05   -0.10876E-05  4013   0.499E-03    0.201E-02
RMM:  11    -0.231527205939E+03    0.19932E-05   -0.14580E-05  4031   0.558E-03    0.153E-02
RMM:  12    -0.231527205341E+03    0.59832E-06   -0.81069E-06  3984   0.413E-03
  32 F= -.23152721E+03 E0= -.23142171E+03  d E =-.537792E-02
       N       E                     dE             d eps       ncg     rms          rms(c)
DAV:   1    -0.231522278279E+03    0.49277E-02   -0.36496E+00  4032   0.323E+00    0.379E-01
RMM:   2    -0.231531077709E+03   -0.87994E-02   -0.78014E-02  4045   0.491E-01    0.493E-01
RMM:   3    -0.231531762816E+03   -0.68511E-03   -0.57652E-03  4048   0.119E-01    0.550E-01
RMM:   4    -0.231529791968E+03    0.19708E-02   -0.20806E-03  4048   0.679E-02    0.352E-01
RMM:   5    -0.231528952490E+03    0.83948E-03   -0.11088E-03  4041   0.515E-02    0.224E-01
RMM:   6    -0.231528885009E+03    0.67481E-04   -0.71576E-04  4039   0.415E-02    0.159E-01
RMM:   7    -0.231528799840E+03    0.85170E-04   -0.41428E-04  4040   0.310E-02    0.107E-01
RMM:   8    -0.231528721010E+03    0.78830E-04   -0.11503E-04  4039   0.167E-02    0.381E-02
RMM:   9    -0.231528712994E+03    0.80160E-05   -0.15932E-05  4026   0.613E-03    0.247E-02
RMM:  10    -0.231528708364E+03    0.46297E-05   -0.68062E-06  3887   0.395E-03    0.158E-02
RMM:  11    -0.231528707570E+03    0.79460E-06   -0.94458E-06  4018   0.451E-03
  33 F= -.23152871E+03 E0= -.23142343E+03  d E =-.688015E-02
       N       E                     dE             d eps       ncg     rms          rms(c)
DAV:   1    -0.231526570703E+03    0.21377E-02   -0.37272E+00  4032   0.317E+00    0.312E-01
RMM:   2    -0.231533556607E+03   -0.69859E-02   -0.69979E-02  4039   0.480E-01    0.314E-01
RMM:   3    -0.231533397557E+03    0.15905E-03   -0.42255E-03  4048   0.104E-01    0.305E-01
RMM:   4    -0.231533804145E+03   -0.40659E-03   -0.11929E-03  4057   0.512E-02    0.368E-01
RMM:   5    -0.231532600368E+03    0.12038E-02   -0.65071E-04  4044   0.371E-02    0.175E-01
RMM:   6    -0.231532607491E+03   -0.71229E-05   -0.49688E-04  4039   0.339E-02    0.145E-01
RMM:   7    -0.231532508651E+03    0.98840E-04   -0.39255E-04  4040   0.303E-02    0.737E-02
RMM:   8    -0.231532476085E+03    0.32566E-04   -0.83344E-05  4040   0.143E-02    0.397E-02
RMM:   9    -0.231532463240E+03    0.12845E-04   -0.14056E-05  4032   0.586E-03    0.207E-02
RMM:  10    -0.231532459573E+03    0.36668E-05   -0.59069E-06  3767   0.374E-03    0.132E-02
RMM:  11    -0.231532460061E+03   -0.48804E-06   -0.76608E-06  4013   0.400E-03
  34 F= -.23153246E+03 E0= -.23142726E+03  d E =-.375249E-02
       N       E                     dE             d eps       ncg     rms          rms(c)
DAV:   1    -0.231529783581E+03    0.26760E-02   -0.26300E+00  4056   0.266E+00    0.261E-01
RMM:   2    -0.231534676618E+03   -0.48930E-02   -0.49304E-02  4039   0.403E-01    0.255E-01
RMM:   3    -0.231534658501E+03    0.18117E-04   -0.29705E-03  4048   0.873E-02    0.265E-01
RMM:   4    -0.231534854382E+03   -0.19588E-03   -0.85299E-04  4057   0.432E-02    0.304E-01
RMM:   5    -0.231534025958E+03    0.82842E-03   -0.45776E-04  4044   0.312E-02    0.145E-01
RMM:   6    -0.231534045741E+03   -0.19782E-04   -0.35475E-04  4039   0.287E-02    0.124E-01
RMM:   7    -0.231533977885E+03    0.67856E-04   -0.28611E-04  4040   0.258E-02    0.662E-02
RMM:   8    -0.231533950999E+03    0.26886E-04   -0.61059E-05  4040   0.122E-02    0.329E-02
RMM:   9    -0.231533942192E+03    0.88067E-05   -0.10127E-05  4027   0.498E-03    0.171E-02
RMM:  10    -0.231533939703E+03    0.24888E-05   -0.39921E-06  2928   0.315E-03    0.107E-02
RMM:  11    -0.231533940235E+03   -0.53177E-06   -0.66169E-06  3957   0.384E-03
  35 F= -.23153394E+03 E0= -.23142883E+03  d E =-.523267E-02
       N       E                     dE             d eps       ncg     rms          rms(c)
DAV:   1    -0.231533203950E+03    0.73575E-03   -0.56980E-01  4080   0.124E+00    0.122E-01
RMM:   2    -0.231534249479E+03   -0.10455E-02   -0.10664E-02  4039   0.188E-01    0.115E-01
RMM:   3    -0.231534232594E+03    0.16885E-04   -0.63229E-04  4049   0.403E-02    0.117E-01
RMM:   4    -0.231534290876E+03   -0.58282E-04   -0.17717E-04  4056   0.197E-02    0.140E-01
RMM:   5    -0.231534116675E+03    0.17420E-03   -0.95967E-05  4046   0.142E-02    0.680E-02
RMM:   6    -0.231534125571E+03   -0.88963E-05   -0.78757E-05  4039   0.135E-02    0.588E-02
RMM:   7    -0.231534111763E+03    0.13808E-04   -0.62173E-05  4037   0.120E-02    0.310E-02
RMM:   8    -0.231534105857E+03    0.59062E-05   -0.13023E-05  4028   0.564E-03    0.148E-02
RMM:   9    -0.231534104090E+03    0.17662E-05   -0.19245E-06  2350   0.228E-03    0.795E-03
RMM:  10    -0.231534103695E+03    0.39528E-06   -0.92550E-07  2149   0.166E-03
  36 F= -.23153410E+03 E0= -.23142906E+03  d E =-.539613E-02
       N       E                     dE             d eps       ncg     rms          rms(c)
DAV:   1    -0.231531263034E+03    0.28411E-02   -0.39902E+00  4032   0.324E+00    0.301E-01
RMM:   2    -0.231538368692E+03   -0.71057E-02   -0.71202E-02  4039   0.490E-01    0.319E-01
RMM:   3    -0.231538157644E+03    0.21105E-03   -0.42922E-03  4052   0.106E-01    0.295E-01
RMM:   4    -0.231538569527E+03   -0.41188E-03   -0.11581E-03  4051   0.508E-02    0.358E-01
RMM:   5    -0.231537432790E+03    0.11367E-02   -0.62810E-04  4042   0.365E-02    0.182E-01
RMM:   6    -0.231537406054E+03    0.26736E-04   -0.51453E-04  4039   0.350E-02    0.145E-01
RMM:   7    -0.231537348454E+03    0.57601E-04   -0.43659E-04  4040   0.320E-02    0.937E-02
RMM:   8    -0.231537289065E+03    0.59388E-04   -0.10018E-04  4040   0.157E-02    0.348E-02
RMM:   9    -0.231537280203E+03    0.88623E-05   -0.14093E-05  4020   0.587E-03    0.230E-02
RMM:  10    -0.231537276112E+03    0.40907E-05   -0.57240E-06  3674   0.366E-03    0.152E-02
RMM:  11    -0.231537276246E+03   -0.13341E-06   -0.10458E-05  4008   0.473E-03    0.155E-02
RMM:  12    -0.231537275863E+03    0.38249E-06   -0.52882E-06  3469   0.330E-03
  37 F= -.23153728E+03 E0= -.23143219E+03  d E =-.317217E-02
       N       E                     dE             d eps       ncg     rms          rms(c)
DAV:   1    -0.231521278437E+03    0.15998E-01   -0.12343E+01  4032   0.570E+00    0.530E-01
RMM:   2    -0.231543410507E+03   -0.22132E-01   -0.22032E-01  4039   0.861E-01    0.564E-01
RMM:   3    -0.231543119506E+03    0.29100E-03   -0.13368E-02  4050   0.187E-01    0.550E-01
RMM:   4    -0.231544004245E+03   -0.88474E-03   -0.37159E-03  4051   0.904E-02    0.636E-01
RMM:   5    -0.231540363723E+03    0.36405E-02   -0.19859E-03  4041   0.654E-02    0.307E-01
RMM:   6    -0.231540282135E+03    0.81588E-04   -0.16047E-03  4039   0.618E-02    0.252E-01
RMM:   7    -0.231540068833E+03    0.21330E-03   -0.13547E-03  4040   0.563E-02    0.160E-01
RMM:   8    -0.231539890708E+03    0.17812E-03   -0.29853E-04  4040   0.270E-02    0.613E-02
RMM:   9    -0.231539862856E+03    0.27852E-04   -0.44226E-05  4044   0.104E-02    0.411E-02
RMM:  10    -0.231539849502E+03    0.13354E-04   -0.18171E-05  4026   0.648E-03    0.268E-02
RMM:  11    -0.231539849774E+03   -0.27185E-06   -0.31756E-05  4036   0.816E-03    0.271E-02
RMM:  12    -0.231539848462E+03    0.13115E-05   -0.16640E-05  4020   0.575E-03    0.113E-02
RMM:  13    -0.231539848783E+03   -0.32113E-06   -0.22170E-06  2430   0.247E-03
  38 F= -.23153985E+03 E0= -.23143475E+03  d E =-.574509E-02
       N       E                     dE             d eps       ncg     rms          rms(c)
DAV:   1    -0.231533742913E+03    0.61055E-02   -0.72477E+00  4032   0.435E+00    0.416E-01
RMM:   2    -0.231546814853E+03   -0.13072E-01   -0.12738E-01  4040   0.656E-01    0.470E-01
RMM:   3    -0.231547142317E+03   -0.32746E-03   -0.79421E-03  4054   0.144E-01    0.494E-01
RMM:   4    -0.231546802185E+03    0.34013E-03   -0.24677E-03  4048   0.732E-02    0.483E-01
RMM:   5    -0.231544851944E+03    0.19502E-02   -0.13849E-03  4042   0.559E-02    0.268E-01
RMM:   6    -0.231544738101E+03    0.11384E-03   -0.10329E-03  4039   0.486E-02    0.206E-01
RMM:   7    -0.231544543364E+03    0.19474E-03   -0.78719E-04  4040   0.426E-02    0.105E-01
RMM:   8    -0.231544476558E+03    0.66807E-04   -0.16472E-04  4040   0.198E-02    0.563E-02
RMM:   9    -0.231544453614E+03    0.22944E-04   -0.26750E-05  4036   0.811E-03    0.276E-02
RMM:  10    -0.231544447370E+03    0.62443E-05   -0.12468E-05  4008   0.527E-03    0.205E-02
RMM:  11    -0.231544445753E+03    0.16168E-05   -0.18800E-05  4014   0.622E-03    0.174E-02
RMM:  12    -0.231544445600E+03    0.15232E-06   -0.80184E-06  3977   0.421E-03
  39 F= -.23154445E+03 E0= -.23143942E+03  d E =-.459682E-02
       N       E                     dE             d eps       ncg     rms          rms(c)
DAV:   1    -0.231523549335E+03    0.20896E-01   -0.15868E+01  4032   0.644E+00    0.618E-01
RMM:   2    -0.231552419630E+03   -0.28870E-01   -0.27961E-01  4040   0.971E-01    0.708E-01
RMM:   3    -0.231553130646E+03   -0.71102E-03   -0.17481E-02  4053   0.213E-01    0.735E-01
RMM:   4    -0.231552204342E+03    0.92630E-03   -0.54512E-03  4048   0.109E-01    0.713E-01
RMM:   5    -0.231547938646E+03    0.42657E-02   -0.30477E-03  4042   0.831E-02    0.393E-01
RMM:   6    -0.231547685610E+03    0.25304E-03   -0.22924E-03  4039   0.723E-02    0.307E-01
RMM:   7    -0.231547214441E+03    0.47117E-03   -0.17205E-03  4040   0.630E-02    0.153E-01
RMM:   8    -0.231547067872E+03    0.14657E-03   -0.35167E-04  4040   0.289E-02    0.825E-02
RMM:   9    -0.231547017584E+03    0.50288E-04   -0.57985E-05  4043   0.119E-02    0.409E-02
RMM:  10    -0.231547003443E+03    0.14141E-04   -0.27384E-05  4035   0.781E-03    0.303E-02
RMM:  11    -0.231546999367E+03    0.40764E-05   -0.41875E-05  4038   0.927E-03    0.258E-02
RMM:  12    -0.231546998381E+03    0.98594E-06   -0.17248E-05  4032   0.618E-03    0.138E-02
RMM:  13    -0.231546997623E+03    0.75819E-06   -0.25176E-06  2452   0.265E-03
  40 F= -.23154700E+03 E0= -.23144218E+03  d E =-.714884E-02
       N       E                     dE             d eps       ncg     rms          rms(c)
DAV:   1    -0.231545842632E+03    0.11557E-02   -0.27284E+00  4056   0.265E+00    0.229E-01
RMM:   2    -0.231550337567E+03   -0.44949E-02   -0.45235E-02  4039   0.395E-01    0.215E-01
RMM:   3    -0.231550599886E+03   -0.26232E-03   -0.27085E-03  4053   0.837E-02    0.295E-01
RMM:   4    -0.231550084300E+03    0.51559E-03   -0.56864E-04  4053   0.362E-02    0.200E-01
RMM:   5    -0.231549790704E+03    0.29360E-03   -0.29366E-04  4044   0.257E-02    0.125E-01
RMM:   6    -0.231549777926E+03    0.12778E-04   -0.32833E-04  4039   0.273E-02    0.106E-01
RMM:   7    -0.231549735538E+03    0.42388E-04   -0.26343E-04  4040   0.240E-02    0.558E-02
RMM:   8    -0.231549715463E+03    0.20075E-04   -0.46885E-05  4040   0.108E-02    0.261E-02
RMM:   9    -0.231549710342E+03    0.51205E-05   -0.73938E-06  3942   0.422E-03    0.167E-02
RMM:  10    -0.231549708528E+03    0.18140E-05   -0.33360E-06  2582   0.289E-03    0.118E-02
RMM:  11    -0.231549708892E+03   -0.36387E-06   -0.55347E-06  3656   0.360E-03
  41 F= -.23154971E+03 E0= -.23144501E+03  d E =-.271127E-02
       N       E                     dE             d eps       ncg     rms          rms(c)
DAV:   1    -0.231522206565E+03    0.27502E-01   -0.24580E+01  4032   0.795E+00    0.695E-01
RMM:   2    -0.231563448380E+03   -0.41242E-01   -0.41073E-01  4039   0.119E+00    0.663E-01
RMM:   3    -0.231566576618E+03   -0.31282E-02   -0.24805E-02  4051   0.253E-01    0.925E-01
RMM:   4    -0.231560594773E+03    0.59818E-02   -0.52187E-03  4055   0.110E-01    0.579E-01
RMM:   5    -0.231558198167E+03    0.23966E-02   -0.25840E-03  4043   0.767E-02    0.371E-01
RMM:   6    -0.231557931503E+03    0.26666E-03   -0.29474E-03  4039   0.815E-02    0.322E-01
RMM:   7    -0.231557432702E+03    0.49880E-03   -0.23758E-03  4040   0.719E-02    0.167E-01
RMM:   8    -0.231557242175E+03    0.19053E-03   -0.41586E-04  4040   0.321E-02    0.758E-02
RMM:   9    -0.231557196102E+03    0.46073E-04   -0.65605E-05  4044   0.126E-02    0.491E-02
RMM:  10    -0.231557178157E+03    0.17944E-04   -0.33356E-05  4035   0.871E-03    0.352E-02
RMM:  11    -0.231557178418E+03   -0.26124E-06   -0.46891E-05  4037   0.988E-03    0.342E-02
RMM:  12    -0.231557177645E+03    0.77345E-06   -0.25875E-05  4029   0.736E-03    0.172E-02
RMM:  13    -0.231557177039E+03    0.60623E-06   -0.42244E-06  3024   0.332E-03
  42 F= -.23155718E+03 E0= -.23145292E+03  d E =-.101794E-01
       N       E                     dE             d eps       ncg     rms          rms(c)
DAV:   1    -0.231427996147E+03    0.12918E+00   -0.98718E+01  4032   0.159E+01    0.142E+00
RMM:   2    -0.231597497327E+03   -0.16950E+00   -0.16747E+00  4039   0.239E+00    0.137E+00
RMM:   3    -0.231613913491E+03   -0.16416E-01   -0.10252E-01  4050   0.511E-01    0.195E+00
RMM:   4    -0.231582254524E+03    0.31659E-01   -0.21320E-02  4055   0.222E-01    0.109E+00
RMM:   5    -0.231574424683E+03    0.78298E-02   -0.98752E-03  4045   0.151E-01    0.744E-01
RMM:   6    -0.231572959802E+03    0.14649E-02   -0.11497E-02  4040   0.161E-01    0.656E-01
RMM:   7    -0.231570699295E+03    0.22605E-02   -0.95614E-03  4040   0.144E-01    0.326E-01
RMM:   8    -0.231569927824E+03    0.77147E-03   -0.16419E-03  4040   0.634E-02    0.142E-01
RMM:   9    -0.231569760706E+03    0.16712E-03   -0.25302E-04  4043   0.247E-02    0.920E-02
RMM:  10    -0.231569687399E+03    0.73307E-04   -0.15000E-04  4040   0.181E-02    0.619E-02
RMM:  11    -0.231569691016E+03   -0.36175E-05   -0.20660E-04  4037   0.206E-02    0.500E-02
RMM:  12    -0.231569688750E+03    0.22664E-05   -0.64758E-05  4036   0.119E-02    0.246E-02
RMM:  13    -0.231569689191E+03   -0.44153E-06   -0.91196E-06  3980   0.481E-03
  43 F= -.23156969E+03 E0= -.23146652E+03  d E =-.226916E-01
       N       E                     dE             d eps       ncg     rms          rms(c)
DAV:   1    -0.230979554369E+03    0.59013E+00   -0.40085E+02  4032   0.321E+01    0.299E+00
RMM:   2    -0.231702591149E+03   -0.72304E+00   -0.70713E+00  4039   0.488E+00    0.293E+00
RMM:   3    -0.231794674361E+03   -0.92083E-01   -0.44036E-01  4049   0.105E+00    0.408E+00
RMM:   4    -0.231616042600E+03    0.17863E+00   -0.90551E-02  4054   0.456E-01    0.194E+00
RMM:   5    -0.231597035653E+03    0.19007E-01   -0.36805E-02  4045   0.295E-01    0.155E+00
RMM:   6    -0.231588142497E+03    0.88932E-02   -0.43263E-02  4040   0.311E-01    0.134E+00
RMM:   7    -0.231578741807E+03    0.94007E-02   -0.37402E-02  4040   0.283E-01    0.705E-01
RMM:   8    -0.231575195703E+03    0.35461E-02   -0.78866E-03  4039   0.137E-01    0.320E-01
RMM:   9    -0.231574471474E+03    0.72423E-03   -0.13766E-03  4043   0.577E-02    0.211E-01
RMM:  10    -0.231574149411E+03    0.32206E-03   -0.64159E-04  4039   0.382E-02    0.141E-01
RMM:  11    -0.231574156535E+03   -0.71241E-05   -0.71722E-04  4040   0.397E-02    0.140E-01
RMM:  12    -0.231574081815E+03    0.74720E-04   -0.34334E-04  4038   0.270E-02    0.738E-02
RMM:  13    -0.231574073277E+03    0.85384E-05   -0.86192E-05  4040   0.143E-02    0.373E-02
RMM:  14    -0.231574077983E+03   -0.47063E-05   -0.15000E-05  4023   0.608E-03    0.152E-02
RMM:  15    -0.231574090633E+03   -0.12650E-04   -0.54406E-06  3336   0.357E-03    0.978E-03
RMM:  16    -0.231574107847E+03   -0.17214E-04   -0.28007E-06  2497   0.258E-03    0.755E-03
[...]
 228 F= -.23307234E+03 E0= -.23298277E+03  d E =-.105235E-02
       N       E                     dE             d eps       ncg     rms          rms(c)
DAV:   1    -0.233065693091E+03    0.66519E-02   -0.39937E+00  4032   0.359E+00    0.406E-01
RMM:   2    -0.233074723783E+03   -0.90307E-02   -0.91254E-02  4047   0.459E-01    0.356E-01
RMM:   3    -0.233076941378E+03   -0.22176E-02   -0.52113E-03  4044   0.107E-01    0.708E-01
RMM:   4    -0.233074647412E+03    0.22940E-02   -0.19366E-03  4043   0.636E-02    0.384E-01
RMM:   5    -0.233073393511E+03    0.12539E-02   -0.82121E-04  4038   0.435E-02    0.142E-01
RMM:   6    -0.233073452680E+03   -0.59169E-04   -0.44479E-04  4038   0.325E-02    0.155E-01
RMM:   7    -0.233073315660E+03    0.13702E-03   -0.30956E-04  4038   0.273E-02    0.611E-02
RMM:   8    -0.233073291217E+03    0.24443E-04   -0.67773E-05  4037   0.129E-02    0.291E-02
RMM:   9    -0.233073285640E+03    0.55765E-05   -0.11014E-05  3999   0.522E-03    0.169E-02
RMM:  10    -0.233073283692E+03    0.19483E-05   -0.40140E-06  3007   0.315E-03    0.104E-02
RMM:  11    -0.233073284344E+03   -0.65169E-06   -0.34677E-06  2674   0.298E-03
 229 F= -.23307328E+03 E0= -.23298362E+03  d E =-.940043E-03
       N       E                     dE             d eps       ncg     rms          rms(c)
DAV:   1    -0.233072133111E+03    0.11506E-02   -0.66918E-01  4032   0.147E+00    0.165E-01
RMM:   2    -0.233073613834E+03   -0.14807E-02   -0.15149E-02  4046   0.188E-01    0.137E-01
RMM:   3    -0.233074006794E+03   -0.39296E-03   -0.86485E-04  4044   0.437E-02    0.283E-01
RMM:   4    -0.233073601418E+03    0.40538E-03   -0.31203E-04  4045   0.256E-02    0.150E-01
RMM:   5    -0.233073415188E+03    0.18623E-03   -0.13394E-04  4038   0.175E-02    0.586E-02
RMM:   6    -0.233073427252E+03   -0.12064E-04   -0.75585E-05  4032   0.134E-02    0.647E-02
RMM:   7    -0.233073404123E+03    0.23130E-04   -0.53306E-05  4032   0.113E-02    0.250E-02
RMM:   8    -0.233073400293E+03    0.38295E-05   -0.10504E-05  3993   0.508E-03    0.104E-02
RMM:   9    -0.233073399949E+03    0.34407E-06   -0.14575E-06  2217   0.200E-03
 230 F= -.23307340E+03 E0= -.23298369E+03  d E =-.105565E-02
       N       E                     dE             d eps       ncg     rms          rms(c)
DAV:   1    -0.233070879762E+03    0.25205E-02   -0.15960E+00  4032   0.227E+00    0.254E-01
RMM:   2    -0.233074608270E+03   -0.37285E-02   -0.35668E-02  4042   0.290E-01    0.289E-01
RMM:   3    -0.233075454213E+03   -0.84594E-03   -0.20939E-03  4044   0.678E-02    0.436E-01
RMM:   4    -0.233074655941E+03    0.79827E-03   -0.10213E-03  4039   0.457E-02    0.288E-01
RMM:   5    -0.233073862571E+03    0.79337E-03   -0.38184E-04  4038   0.299E-02    0.955E-02
RMM:   6    -0.233073902524E+03   -0.39954E-04   -0.18502E-04  4038   0.210E-02    0.909E-02
RMM:   7    -0.233073857022E+03    0.45503E-04   -0.12503E-04  4033   0.175E-02    0.412E-02
RMM:   8    -0.233073843889E+03    0.13133E-04   -0.25119E-05  4032   0.779E-03    0.155E-02
RMM:   9    -0.233073842610E+03    0.12785E-05   -0.37491E-06  2899   0.309E-03    0.975E-03
RMM:  10    -0.233073842184E+03    0.42597E-06   -0.16797E-06  2216   0.215E-03
 231 F= -.23307384E+03 E0= -.23298405E+03  d E =-.442235E-03
       N       E                     dE             d eps       ncg     rms          rms(c)
DAV:   1    -0.233073366256E+03    0.47635E-03   -0.29952E-01  4032   0.983E-01    0.110E-01
RMM:   2    -0.233074059775E+03   -0.69352E-03   -0.66786E-03  4044   0.126E-01    0.122E-01
RMM:   3    -0.233074251073E+03   -0.19130E-03   -0.40099E-04  4044   0.297E-02    0.194E-01
RMM:   4    -0.233074062990E+03    0.18808E-03   -0.19312E-04  4039   0.199E-02    0.121E-01
RMM:   5    -0.233073925818E+03    0.13717E-03   -0.70352E-05  4033   0.129E-02    0.394E-02
RMM:   6    -0.233073935684E+03   -0.98669E-05   -0.35050E-05  4032   0.914E-03    0.391E-02
RMM:   7    -0.233073927897E+03    0.77872E-05   -0.23381E-05  4031   0.754E-03    0.183E-02
RMM:   8    -0.233073925467E+03    0.24298E-05   -0.44193E-06  3073   0.335E-03    0.668E-03
RMM:   9    -0.233073925391E+03    0.76674E-07   -0.71670E-07  2168   0.144E-03
 232 F= -.23307393E+03 E0= -.23298411E+03  d E =-.525442E-03
       N       E                     dE             d eps       ncg     rms          rms(c)
DAV:   1    -0.233071688173E+03    0.22373E-02   -0.11976E+00  4032   0.197E+00    0.219E-01
RMM:   2    -0.233074465130E+03   -0.27770E-02   -0.26696E-02  4042   0.251E-01    0.246E-01
RMM:   3    -0.233075122545E+03   -0.65742E-03   -0.15717E-03  4044   0.588E-02    0.378E-01
RMM:   4    -0.233074501976E+03    0.62057E-03   -0.75548E-04  4039   0.393E-02    0.247E-01
RMM:   5    -0.233073918802E+03    0.58317E-03   -0.28170E-04  4038   0.257E-02    0.798E-02
RMM:   6    -0.233073953263E+03   -0.34462E-04   -0.13883E-04  4038   0.182E-02    0.789E-02
RMM:   7    -0.233073917739E+03    0.35525E-04   -0.93865E-05  4032   0.151E-02    0.349E-02
RMM:   8    -0.233073908252E+03    0.94861E-05   -0.18345E-05  4019   0.664E-03    0.131E-02
RMM:   9    -0.233073907210E+03    0.10429E-05   -0.26563E-06  2501   0.264E-03    0.835E-03
RMM:  10    -0.233073906829E+03    0.38081E-06   -0.13060E-06  2178   0.195E-03
 233 F= -.23307391E+03 E0= -.23298403E+03  d E =-.506880E-03
       N       E                     dE             d eps       ncg     rms          rms(c)
DAV:   1    -0.233073047375E+03    0.85983E-03   -0.48961E-01  4032   0.126E+00    0.138E-01
RMM:   2    -0.233074146661E+03   -0.10993E-02   -0.10759E-02  4044   0.160E-01    0.149E-01
RMM:   3    -0.233074429227E+03   -0.28257E-03   -0.64046E-04  4044   0.375E-02    0.234E-01
RMM:   4    -0.233074184542E+03    0.24469E-03   -0.29628E-04  4039   0.246E-02    0.155E-01
RMM:   5    -0.233073946146E+03    0.23840E-03   -0.11225E-04  4037   0.161E-02    0.456E-02
RMM:   6    -0.233073965029E+03   -0.18883E-04   -0.54998E-05  4033   0.115E-02    0.496E-02
RMM:   7    -0.233073951666E+03    0.13363E-04   -0.37491E-05  4032   0.954E-03    0.237E-02
RMM:   8    -0.233073947100E+03    0.45660E-05   -0.78434E-06  3797   0.433E-03    0.893E-03
RMM:   9    -0.233073946566E+03    0.53395E-06   -0.11506E-06  2184   0.177E-03
 234 F= -.23307395E+03 E0= -.23298411E+03  d E =-.546617E-03
       N       E                     dE             d eps       ncg     rms          rms(c)
DAV:   1    -0.233070751778E+03    0.31953E-02   -0.20376E+00  4032   0.256E+00    0.280E-01
RMM:   2    -0.233075172711E+03   -0.44209E-02   -0.44309E-02  4044   0.325E-01    0.257E-01
RMM:   3    -0.233076265418E+03   -0.10927E-02   -0.24584E-03  4044   0.751E-02    0.492E-01
RMM:   4    -0.233075152250E+03    0.11132E-02   -0.94928E-04  4041   0.444E-02    0.275E-01
RMM:   5    -0.233074497360E+03    0.65489E-03   -0.41443E-04  4039   0.309E-02    0.992E-02
RMM:   6    -0.233074525250E+03   -0.27890E-04   -0.21873E-04  4038   0.220E-02    0.962E-02
RMM:   7    -0.233074472101E+03    0.53149E-04   -0.14782E-04  4034   0.186E-02    0.452E-02
RMM:   8    -0.233074456309E+03    0.15792E-04   -0.29239E-05  4026   0.842E-03    0.175E-02
RMM:   9    -0.233074453997E+03    0.23118E-05   -0.45054E-06  3157   0.333E-03    0.101E-02
RMM:  10    -0.233074453264E+03    0.73383E-06   -0.18373E-06  2205   0.224E-03
 235 F= -.23307445E+03 E0= -.23298446E+03  d E =-.506698E-03
       N       E                     dE             d eps       ncg     rms          rms(c)
DAV:   1    -0.233073391184E+03    0.10628E-02   -0.65188E-01  4032   0.145E+00    0.160E-01
RMM:   2    -0.233074787423E+03   -0.13962E-02   -0.14187E-02  4044   0.184E-01    0.137E-01
RMM:   3    -0.233075171292E+03   -0.38387E-03   -0.78681E-04  4044   0.425E-02    0.280E-01
RMM:   4    -0.233074778857E+03    0.39243E-03   -0.29747E-04  4041   0.249E-02    0.149E-01
RMM:   5    -0.233074593690E+03    0.18517E-03   -0.12658E-04  4039   0.171E-02    0.569E-02
RMM:   6    -0.233074602004E+03   -0.83148E-05   -0.69658E-05  4034   0.125E-02    0.535E-02
RMM:   7    -0.233074586390E+03    0.15614E-04   -0.46802E-05  4032   0.105E-02    0.254E-02
RMM:   8    -0.233074581746E+03    0.46449E-05   -0.83371E-06  3831   0.450E-03    0.924E-03
RMM:   9    -0.233074581398E+03    0.34706E-06   -0.12255E-06  2177   0.182E-03
 236 F= -.23307458E+03 E0= -.23298450E+03  d E =-.634833E-03
       N       E                     dE             d eps       ncg     rms          rms(c)
DAV:   1    -0.233072537401E+03    0.20443E-02   -0.14178E+00  4032   0.211E+00    0.226E-01
RMM:   2    -0.233075603607E+03   -0.30662E-02   -0.30269E-02  4042   0.271E-01    0.233E-01
RMM:   3    -0.233076393680E+03   -0.79007E-03   -0.17250E-03  4045   0.613E-02    0.405E-01
RMM:   4    -0.233075638600E+03    0.75508E-03   -0.73966E-04  4039   0.393E-02    0.241E-01
RMM:   5    -0.233075086365E+03    0.55224E-03   -0.28262E-04  4038   0.256E-02    0.754E-02
RMM:   6    -0.233075130108E+03   -0.43743E-04   -0.15917E-04  4038   0.192E-02    0.777E-02
RMM:   7    -0.233075083946E+03    0.46162E-04   -0.87634E-05  4034   0.144E-02    0.245E-02
RMM:   8    -0.233075081545E+03    0.24010E-05   -0.13928E-05  4010   0.580E-03    0.156E-02
RMM:   9    -0.233075079540E+03    0.20056E-05   -0.25336E-06  2492   0.258E-03    0.848E-03
RMM:  10    -0.233075079207E+03    0.33206E-06   -0.13233E-06  2175   0.196E-03
 237 F= -.23307508E+03 E0= -.23298485E+03  d E =-.497809E-03
       N       E                     dE             d eps       ncg     rms          rms(c)
DAV:   1    -0.233074447662E+03    0.63188E-03   -0.42410E-01  4032   0.116E+00    0.124E-01
RMM:   2    -0.233075359759E+03   -0.91210E-03   -0.90332E-03  4042   0.148E-01    0.126E-01
RMM:   3    -0.233075619762E+03   -0.26000E-03   -0.52196E-04  4045   0.337E-02    0.224E-01
RMM:   4    -0.233075361909E+03    0.25785E-03   -0.22194E-04  4039   0.216E-02    0.128E-01
RMM:   5    -0.233075208018E+03    0.15389E-03   -0.83704E-05  4036   0.140E-02    0.405E-02
RMM:   6    -0.233075223005E+03   -0.14986E-04   -0.48427E-05  4032   0.106E-02    0.425E-02
RMM:   7    -0.233075209311E+03    0.13694E-04   -0.27155E-05  4026   0.804E-03    0.139E-02
RMM:   8    -0.233075208657E+03    0.65383E-06   -0.40065E-06  2971   0.316E-03
 238 F= -.23307521E+03 E0= -.23298489E+03  d E =-.627258E-03
       N       E                     dE             d eps       ncg     rms          rms(c)
DAV:   1    -0.233072137860E+03    0.30715E-02   -0.16957E+00  4032   0.231E+00    0.248E-01
RMM:   2    -0.233075814851E+03   -0.36770E-02   -0.36263E-02  4042   0.296E-01    0.256E-01
RMM:   3    -0.233076710760E+03   -0.89591E-03   -0.20634E-03  4045   0.671E-02    0.439E-01
RMM:   4    -0.233075871627E+03    0.83913E-03   -0.87762E-04  4039   0.428E-02    0.266E-01
RMM:   5    -0.233075188266E+03    0.68336E-03   -0.33999E-04  4038   0.280E-02    0.817E-02
RMM:   6    -0.233075239319E+03   -0.51053E-04   -0.18716E-04  4038   0.209E-02    0.839E-02
RMM:   7    -0.233075187999E+03    0.51319E-04   -0.10428E-04  4035   0.157E-02    0.300E-02
RMM:   8    -0.233075183065E+03    0.49345E-05   -0.18893E-05  4018   0.674E-03    0.169E-02
RMM:   9    -0.233075180727E+03    0.23382E-05   -0.31862E-06  2713   0.285E-03    0.952E-03
RMM:  10    -0.233075180151E+03    0.57580E-06   -0.15659E-06  2183   0.212E-03
 239 F= -.23307518E+03 E0= -.23298472E+03  d E =-.598752E-03
       N       E                     dE             d eps       ncg     rms          rms(c)
DAV:   1    -0.233074202288E+03    0.97844E-03   -0.58798E-01  4032   0.136E+00    0.144E-01
RMM:   2    -0.233075431180E+03   -0.12289E-02   -0.12336E-02  4043   0.173E-01    0.139E-01
RMM:   3    -0.233075744693E+03   -0.31351E-03   -0.70527E-04  4045   0.393E-02    0.245E-01
RMM:   4    -0.233075473055E+03    0.27164E-03   -0.28030E-04  4040   0.242E-02    0.151E-01
RMM:   5    -0.233075248118E+03    0.22494E-03   -0.11183E-04  4038   0.159E-02    0.452E-02
RMM:   6    -0.233075269919E+03   -0.21801E-04   -0.64297E-05  4033   0.121E-02    0.502E-02
RMM:   7    -0.233075250515E+03    0.19404E-04   -0.36486E-05  4032   0.928E-03    0.165E-02
RMM:   8    -0.233075249046E+03    0.14693E-05   -0.57109E-06  3355   0.377E-03    0.955E-03
RMM:   9    -0.233075248300E+03    0.74577E-06   -0.10639E-06  2176   0.172E-03
 240 F= -.23307525E+03 E0= -.23298487E+03  d E =-.666902E-03
       N       E                     dE             d eps       ncg     rms          rms(c)
DAV:   1    -0.233073335839E+03    0.19132E-02   -0.12779E+00  4032   0.200E+00    0.211E-01
RMM:   2    -0.233075916348E+03   -0.25805E-02   -0.26576E-02  4041   0.254E-01    0.162E-01
RMM:   3    -0.233077227809E+03   -0.13115E-02   -0.15188E-03  4045   0.573E-02    0.451E-01
RMM:   4    -0.233075695079E+03    0.15327E-02   -0.54877E-04  4040   0.344E-02    0.148E-01
RMM:   5    -0.233075596419E+03    0.98660E-04   -0.14392E-04  4039   0.189E-02    0.636E-02
RMM:   6    -0.233075628815E+03   -0.32395E-04   -0.13408E-04  4038   0.174E-02    0.705E-02
RMM:   7    -0.233075591176E+03    0.37639E-04   -0.66847E-05  4032   0.126E-02    0.220E-02
RMM:   8    -0.233075589388E+03    0.17881E-05   -0.96449E-06  3909   0.484E-03    0.124E-02
RMM:   9    -0.233075587972E+03    0.14158E-05   -0.19540E-06  2334   0.227E-03    0.769E-03
RMM:  10    -0.233075587600E+03    0.37235E-06   -0.11101E-06  2162   0.180E-03
 241 F= -.23307559E+03 E0= -.23298508E+03  d E =-.339300E-03
       N       E                     dE             d eps       ncg     rms          rms(c)
DAV:   1    -0.233074155228E+03    0.14327E-02   -0.87657E-01  4032   0.166E+00    0.176E-01
RMM:   2    -0.233075924514E+03   -0.17693E-02   -0.18304E-02  4041   0.211E-01    0.132E-01
RMM:   3    -0.233076891063E+03   -0.96655E-03   -0.10590E-03  4045   0.478E-02    0.381E-01
RMM:   4    -0.233075765455E+03    0.11256E-02   -0.38158E-04  4040   0.287E-02    0.119E-01
RMM:   5    -0.233075711831E+03    0.53624E-04   -0.96093E-05  4039   0.155E-02    0.533E-02
RMM:   6    -0.233075735879E+03   -0.24049E-04   -0.93854E-05  4035   0.146E-02    0.588E-02
RMM:   7    -0.233075709517E+03    0.26362E-04   -0.47604E-05  4032   0.107E-02    0.181E-02
RMM:   8    -0.233075708886E+03    0.63176E-06   -0.64412E-06  3499   0.401E-03
 242 F= -.23307571E+03 E0= -.23298510E+03  d E =-.460585E-03
       N       E                     dE             d eps       ncg     rms          rms(c)
DAV:   1    -0.233075553069E+03    0.15645E-03   -0.91863E-02  4104   0.537E-01    0.590E-02
RMM:   2    -0.233075738111E+03   -0.18504E-03   -0.19411E-03  4041   0.686E-02    0.412E-02
RMM:   3    -0.233075820386E+03   -0.82276E-04   -0.11144E-04  4044   0.157E-02    0.115E-01
RMM:   4    -0.233075730310E+03    0.90076E-04   -0.38268E-05  4017   0.905E-03    0.442E-02
RMM:   5    -0.233075718498E+03    0.11813E-04   -0.11206E-05  3987   0.525E-03    0.173E-02
RMM:   6    -0.233075722135E+03   -0.36369E-05   -0.87324E-06  3897   0.452E-03    0.199E-02
RMM:   7    -0.233075719791E+03    0.23436E-05   -0.47908E-06  3223   0.346E-03    0.766E-03
RMM:   8    -0.233075719723E+03    0.68023E-07   -0.10953E-06  2181   0.179E-03
 243 F= -.23307572E+03 E0= -.23298508E+03  d E =-.471423E-03
       N       E                     dE             d eps       ncg     rms          rms(c)
DAV:   1    -0.233075349651E+03    0.37014E-03   -0.35173E-01  4032   0.107E+00    0.123E-01
RMM:   2    -0.233076180547E+03   -0.83090E-03   -0.81161E-03  4039   0.143E-01    0.128E-01
RMM:   3    -0.233076501006E+03   -0.32046E-03   -0.50167E-04  4044   0.339E-02    0.226E-01
RMM:   4    -0.233076132278E+03    0.36873E-03   -0.23914E-04  4041   0.221E-02    0.115E-01
RMM:   5    -0.233076036873E+03    0.95405E-04   -0.10007E-04  4037   0.157E-02    0.588E-02
RMM:   6    -0.233076035966E+03    0.90737E-06   -0.43873E-05  4032   0.979E-03    0.494E-02
RMM:   7    -0.233076024685E+03    0.11280E-04   -0.32354E-05  4032   0.878E-03    0.245E-02
RMM:   8    -0.233076019665E+03    0.50200E-05   -0.75832E-06  3771   0.432E-03    0.786E-03
RMM:   9    -0.233076019333E+03    0.33213E-06   -0.99721E-07  2193   0.157E-03
 244 F= -.23307602E+03 E0= -.23298535E+03  d E =-.299610E-03
       N       E                     dE             d eps       ncg     rms          rms(c)
DAV:   1    -0.233074794261E+03    0.12254E-02   -0.73162E-01  4032   0.154E+00    0.177E-01
RMM:   2    -0.233076530212E+03   -0.17360E-02   -0.16912E-02  4039   0.206E-01    0.187E-01
RMM:   3    -0.233077184158E+03   -0.65395E-03   -0.10414E-03  4045   0.488E-02    0.326E-01
RMM:   4    -0.233076430673E+03    0.75349E-03   -0.49766E-04  4040   0.319E-02    0.167E-01
RMM:   5    -0.233076226164E+03    0.20451E-03   -0.20863E-04  4038   0.226E-02    0.847E-02
RMM:   6    -0.233076225430E+03    0.73380E-06   -0.92550E-05  4038   0.142E-02    0.724E-02
RMM:   7    -0.233076199415E+03    0.26015E-04   -0.67298E-05  4032   0.127E-02    0.349E-02
RMM:   8    -0.233076189225E+03    0.10190E-04   -0.15743E-05  4006   0.620E-03    0.113E-02
RMM:   9    -0.233076188433E+03    0.79170E-06   -0.19976E-06  2389   0.218E-03
 245 F= -.23307619E+03 E0= -.23298549E+03  d E =-.468710E-03
       N       E                     dE             d eps       ncg     rms          rms(c)
DAV:   1    -0.233075570081E+03    0.61914E-03   -0.45297E-01  4032   0.119E+00    0.128E-01
RMM:   2    -0.233076515230E+03   -0.94515E-03   -0.99814E-03  4041   0.160E-01    0.916E-02
RMM:   3    -0.233076571065E+03   -0.55835E-04   -0.48446E-04  4045   0.340E-02    0.146E-01
RMM:   4    -0.233076514584E+03    0.56481E-04   -0.14130E-04  4048   0.174E-02    0.110E-01
RMM:   5    -0.233076457226E+03    0.57358E-04   -0.77065E-05  4038   0.128E-02    0.721E-02
RMM:   6    -0.233076426532E+03    0.30694E-04   -0.46974E-05  4032   0.104E-02    0.439E-02
RMM:   7    -0.233076420057E+03    0.64750E-05   -0.35562E-05  4032   0.926E-03    0.234E-02
RMM:   8    -0.233076415701E+03    0.43562E-05   -0.88932E-06  3920   0.463E-03    0.845E-03
RMM:   9    -0.233076415298E+03    0.40348E-06   -0.10730E-06  2171   0.171E-03
 246 F= -.23307642E+03 E0= -.23298564E+03  d E =-.226865E-03
       N       E                     dE             d eps       ncg     rms          rms(c)
DAV:   1    -0.233076234967E+03    0.18073E-03   -0.11230E-01  4032   0.594E-01    0.643E-02
RMM:   2    -0.233076469894E+03   -0.23493E-03   -0.24823E-03  4042   0.799E-02    0.466E-02
RMM:   3    -0.233076487409E+03   -0.17516E-04   -0.12367E-04  4045   0.171E-02    0.763E-02
RMM:   4    -0.233076473021E+03    0.14388E-04   -0.37271E-05  4029   0.889E-03    0.572E-02
RMM:   5    -0.233076454329E+03    0.18692E-04   -0.20090E-05  4014   0.656E-03    0.347E-02
RMM:   6    -0.233076448492E+03    0.58372E-05   -0.11623E-05  4012   0.516E-03    0.226E-02
RMM:   7    -0.233076446680E+03    0.18127E-05   -0.87034E-06  3959   0.459E-03    0.113E-02
RMM:   8    -0.233076445698E+03    0.98108E-06   -0.20559E-06  2341   0.233E-03
 247 F= -.23307645E+03 E0= -.23298562E+03  d E =-.257266E-03
       N       E                     dE             d eps       ncg     rms          rms(c)
DAV:   1    -0.233075862382E+03    0.58430E-03   -0.39288E-01  4032   0.111E+00    0.121E-01
RMM:   2    -0.233076698746E+03   -0.83636E-03   -0.88060E-03  4039   0.152E-01    0.870E-02
RMM:   3    -0.233076950606E+03   -0.25186E-03   -0.47824E-04  4045   0.341E-02    0.180E-01
RMM:   4    -0.233076750619E+03    0.19999E-03   -0.21547E-04  4043   0.210E-02    0.130E-01
RMM:   5    -0.233076616950E+03    0.13367E-03   -0.70528E-05  4038   0.131E-02    0.544E-02
RMM:   6    -0.233076618242E+03   -0.12921E-05   -0.46100E-05  4034   0.106E-02    0.389E-02
RMM:   7    -0.233076608154E+03    0.10088E-04   -0.27090E-05  4026   0.804E-03    0.183E-02
RMM:   8    -0.233076606561E+03    0.15924E-05   -0.54447E-06  3352   0.361E-03    0.108E-02
RMM:   9    -0.233076605671E+03    0.89011E-06   -0.11063E-06  2191   0.178E-03
 248 F= -.23307661E+03 E0= -.23298569E+03  d E =-.159973E-03
