  48  48   0   0
  0.5349325E+02  0.1100258E-08  0.1100258E-08  0.2449179E-08  0.3500000E-15
  1.000000000000000E-004
  CAR 
 unknown system                          
      6.36223820     -9.79669863  301     -1.07713928      1.00000000
     -9.797  0.0000E+00  0.0000E+00
     -9.743  0.0000E+00  0.0000E+00
     -9.689  0.0000E+00  0.0000E+00
     -9.635  0.0000E+00  0.0000E+00
     -9.581  0.0000E+00  0.0000E+00
     -9.527  0.0000E+00  0.0000E+00
     -9.474  0.0000E+00  0.0000E+00
     -9.420  0.0000E+00  0.0000E+00
     -9.366  0.8932E-17  0.4811E-18
     -9.312  0.3393E-14  0.1832E-15
     -9.258  0.7574E-12  0.4098E-13
     -9.204  0.9588E-10  0.5205E-11
     -9.150  0.6895E-08  0.3766E-09
     -9.096  0.2822E-06  0.1557E-07
     -9.043  0.6587E-05  0.3704E-06
     -8.989  0.8792E-04  0.5106E-05
     -8.935  0.6726E-03  0.4133E-04
     -8.881  0.2956E-02  0.2006E-03
     -8.827  0.7491E-02  0.6040E-03
     -8.773  0.1107E-01  0.1200E-02
     -8.719  0.1023E-01  0.1751E-02
     -8.666  0.8380E-02  0.2203E-02
     -8.612  0.9701E-02  0.2725E-02
     -8.558  0.1091E-01  0.3313E-02
     -8.504  0.8067E-02  0.3748E-02
     -8.450  0.3681E-02  0.3946E-02
     -8.396  0.1523E-02  0.4028E-02
     -8.342  0.2204E-02  0.4147E-02
     -8.289  0.4727E-02  0.4401E-02
     -8.235  0.7682E-02  0.4815E-02
     -8.181  0.1007E-01  0.5358E-02
     -8.127  0.1163E-01  0.5984E-02
     -8.073  0.1234E-01  0.6649E-02
     -8.019  0.1250E-01  0.7322E-02
     -7.965  0.1292E-01  0.8018E-02
     -7.911  0.1385E-01  0.8764E-02
     -7.858  0.1404E-01  0.9520E-02
     -7.804  0.1255E-01  0.1020E-01
     -7.750  0.1121E-01  0.1080E-01
     -7.696  0.1297E-01  0.1150E-01
     -7.642  0.1763E-01  0.1245E-01
     -7.588  0.2128E-01  0.1359E-01
     -7.534  0.2002E-01  0.1467E-01
     -7.481  0.1461E-01  0.1546E-01
     -7.427  0.1027E-01  0.1601E-01
     -7.373  0.1134E-01  0.1662E-01
     -7.319  0.1840E-01  0.1761E-01
     -7.265  0.2825E-01  0.1914E-01
     -7.211  0.3736E-01  0.2115E-01
     -7.157  0.4623E-01  0.2364E-01
     -7.104  0.5558E-01  0.2663E-01
     -7.050  0.6136E-01  0.2994E-01
     -6.996  0.6156E-01  0.3325E-01
     -6.942  0.5986E-01  0.3648E-01
     -6.888  0.6205E-01  0.3982E-01
     -6.834  0.7106E-01  0.4365E-01
     -6.780  0.8086E-01  0.4800E-01
     -6.727  0.8281E-01  0.5246E-01
     -6.673  0.7829E-01  0.5668E-01
     -6.619  0.7670E-01  0.6081E-01
     -6.565  0.8219E-01  0.6524E-01
     -6.511  0.8981E-01  0.7008E-01
     -6.457  0.9587E-01  0.7524E-01
     -6.403  0.1045E+00  0.8087E-01
     -6.349  0.1197E+00  0.8732E-01
     -6.296  0.1371E+00  0.9470E-01
     -6.242  0.1494E+00  0.1027E+00
     -6.188  0.1546E+00  0.1111E+00
     -6.134  0.1551E+00  0.1194E+00
     -6.080  0.1539E+00  0.1277E+00
     -6.026  0.1525E+00  0.1359E+00
     -5.972  0.1517E+00  0.1441E+00
     -5.919  0.1513E+00  0.1523E+00
     -5.865  0.1510E+00  0.1604E+00
     -5.811  0.1474E+00  0.1683E+00
     -5.757  0.1393E+00  0.1758E+00
     -5.703  0.1312E+00  0.1829E+00
     -5.649  0.1251E+00  0.1896E+00
     -5.595  0.1207E+00  0.1961E+00
     -5.542  0.1206E+00  0.2026E+00
     -5.488  0.1283E+00  0.2095E+00
     -5.434  0.1410E+00  0.2171E+00
     -5.380  0.1529E+00  0.2254E+00
     -5.326  0.1631E+00  0.2342E+00
     -5.272  0.1713E+00  0.2434E+00
     -5.218  0.1718E+00  0.2526E+00
     -5.164  0.1641E+00  0.2615E+00
     -5.111  0.1581E+00  0.2700E+00
     -5.057  0.1619E+00  0.2787E+00
     -5.003  0.1719E+00  0.2880E+00
     -4.949  0.1786E+00  0.2976E+00
     -4.895  0.1813E+00  0.3073E+00
     -4.841  0.1849E+00  0.3173E+00
     -4.787  0.1890E+00  0.3275E+00
     -4.734  0.1909E+00  0.3378E+00
     -4.680  0.1891E+00  0.3480E+00
     -4.626  0.1818E+00  0.3577E+00
     -4.572  0.1730E+00  0.3671E+00
     -4.518  0.1681E+00  0.3761E+00
     -4.464  0.1677E+00  0.3852E+00
     -4.410  0.1700E+00  0.3943E+00
     -4.357  0.1715E+00  0.4036E+00
     -4.303  0.1697E+00  0.4127E+00
     -4.249  0.1694E+00  0.4218E+00
     -4.195  0.1752E+00  0.4313E+00
     -4.141  0.1813E+00  0.4410E+00
     -4.087  0.1824E+00  0.4508E+00
     -4.033  0.1815E+00  0.4606E+00
     -3.979  0.1811E+00  0.4704E+00
     -3.926  0.1826E+00  0.4802E+00
     -3.872  0.1877E+00  0.4903E+00
     -3.818  0.1929E+00  0.5007E+00
     -3.764  0.1956E+00  0.5113E+00
     -3.710  0.1974E+00  0.5219E+00
     -3.656  0.1994E+00  0.5326E+00
     -3.602  0.2004E+00  0.5434E+00
     -3.549  0.2004E+00  0.5542E+00
     -3.495  0.2002E+00  0.5650E+00
     -3.441  0.1978E+00  0.5757E+00
     -3.387  0.1919E+00  0.5860E+00
     -3.333  0.1860E+00  0.5960E+00
     -3.279  0.1857E+00  0.6060E+00
     -3.225  0.1894E+00  0.6162E+00
     -3.172  0.1901E+00  0.6265E+00
     -3.118  0.1850E+00  0.6364E+00
     -3.064  0.1793E+00  0.6461E+00
     -3.010  0.1795E+00  0.6557E+00
     -2.956  0.1828E+00  0.6656E+00
     -2.902  0.1822E+00  0.6754E+00
     -2.848  0.1769E+00  0.6849E+00
     -2.794  0.1747E+00  0.6943E+00
     -2.741  0.1810E+00  0.7041E+00
     -2.687  0.1896E+00  0.7143E+00
     -2.633  0.1923E+00  0.7247E+00
     -2.579  0.1889E+00  0.7348E+00
     -2.525  0.1853E+00  0.7448E+00
     -2.471  0.1859E+00  0.7548E+00
     -2.417  0.1880E+00  0.7649E+00
     -2.364  0.1871E+00  0.7750E+00
     -2.310  0.1843E+00  0.7850E+00
     -2.256  0.1818E+00  0.7947E+00
     -2.202  0.1787E+00  0.8044E+00
     -2.148  0.1749E+00  0.8138E+00
     -2.094  0.1716E+00  0.8230E+00
     -2.040  0.1715E+00  0.8323E+00
     -1.987  0.1773E+00  0.8418E+00
     -1.933  0.1866E+00  0.8519E+00
     -1.879  0.1960E+00  0.8624E+00
     -1.825  0.2040E+00  0.8734E+00
     -1.771  0.2087E+00  0.8847E+00
     -1.717  0.2073E+00  0.8958E+00
     -1.663  0.1990E+00  0.9065E+00
     -1.610  0.1887E+00  0.9167E+00
     -1.556  0.1831E+00  0.9266E+00
     -1.502  0.1852E+00  0.9365E+00
     -1.448  0.1907E+00  0.9468E+00
     -1.394  0.1935E+00  0.9572E+00
     -1.340  0.1930E+00  0.9676E+00
     -1.286  0.1890E+00  0.9778E+00
     -1.232  0.1778E+00  0.9874E+00
     -1.179  0.1580E+00  0.9959E+00
     -1.125  0.1318E+00  0.1003E+01
     -1.071  0.1034E+00  0.1009E+01
     -1.017  0.7945E-01  0.1013E+01
     -0.963  0.6097E-01  0.1016E+01
     -0.909  0.4197E-01  0.1018E+01
     -0.855  0.2388E-01  0.1020E+01
     -0.802  0.1526E-01  0.1021E+01
     -0.748  0.1659E-01  0.1021E+01
     -0.694  0.2113E-01  0.1023E+01
     -0.640  0.2591E-01  0.1024E+01
     -0.586  0.3153E-01  0.1026E+01
     -0.532  0.3754E-01  0.1028E+01
     -0.478  0.4222E-01  0.1030E+01
     -0.425  0.4296E-01  0.1032E+01
     -0.371  0.3914E-01  0.1034E+01
     -0.317  0.3579E-01  0.1036E+01
     -0.263  0.3790E-01  0.1038E+01
     -0.209  0.4146E-01  0.1041E+01
     -0.155  0.3934E-01  0.1043E+01
     -0.101  0.3227E-01  0.1044E+01
     -0.047  0.2413E-01  0.1046E+01
      0.006  0.1763E-01  0.1047E+01
      0.060  0.1716E-01  0.1048E+01
      0.114  0.2427E-01  0.1049E+01
      0.168  0.3451E-01  0.1051E+01
      0.222  0.4062E-01  0.1053E+01
      0.276  0.3904E-01  0.1055E+01
      0.330  0.3493E-01  0.1057E+01
      0.383  0.3473E-01  0.1059E+01
      0.437  0.3747E-01  0.1061E+01
      0.491  0.3917E-01  0.1063E+01
      0.545  0.4022E-01  0.1065E+01
      0.599  0.4352E-01  0.1067E+01
      0.653  0.4740E-01  0.1070E+01
      0.707  0.4623E-01  0.1072E+01
      0.760  0.3926E-01  0.1075E+01
      0.814  0.3072E-01  0.1076E+01
      0.868  0.2355E-01  0.1078E+01
      0.922  0.2090E-01  0.1079E+01
      0.976  0.2332E-01  0.1080E+01
      1.030  0.2471E-01  0.1081E+01
      1.084  0.2238E-01  0.1082E+01
      1.138  0.1982E-01  0.1083E+01
      1.191  0.1787E-01  0.1084E+01
      1.245  0.1592E-01  0.1085E+01
      1.299  0.1463E-01  0.1086E+01
      1.353  0.1350E-01  0.1087E+01
      1.407  0.1400E-01  0.1088E+01
      1.461  0.1971E-01  0.1089E+01
      1.515  0.2827E-01  0.1090E+01
      1.568  0.3186E-01  0.1092E+01
      1.622  0.2968E-01  0.1093E+01
      1.676  0.2870E-01  0.1095E+01
      1.730  0.3256E-01  0.1097E+01
      1.784  0.3867E-01  0.1099E+01
      1.838  0.4045E-01  0.1101E+01
      1.892  0.3244E-01  0.1103E+01
      1.945  0.2034E-01  0.1104E+01
      1.999  0.1538E-01  0.1105E+01
      2.053  0.1867E-01  0.1106E+01
      2.107  0.2432E-01  0.1107E+01
      2.161  0.3000E-01  0.1109E+01
      2.215  0.3605E-01  0.1111E+01
      2.269  0.4125E-01  0.1113E+01
      2.323  0.4356E-01  0.1115E+01
      2.376  0.4291E-01  0.1117E+01
      2.430  0.4025E-01  0.1120E+01
      2.484  0.3687E-01  0.1122E+01
      2.538  0.3671E-01  0.1124E+01
      2.592  0.4230E-01  0.1126E+01
      2.646  0.4919E-01  0.1129E+01
      2.700  0.5182E-01  0.1131E+01
      2.753  0.4735E-01  0.1134E+01
      2.807  0.3606E-01  0.1136E+01
      2.861  0.2438E-01  0.1137E+01
      2.915  0.1791E-01  0.1138E+01
      2.969  0.1538E-01  0.1139E+01
      3.023  0.1318E-01  0.1140E+01
      3.077  0.1233E-01  0.1140E+01
      3.130  0.1628E-01  0.1141E+01
      3.184  0.2232E-01  0.1142E+01
      3.238  0.2495E-01  0.1144E+01
      3.292  0.2251E-01  0.1145E+01
      3.346  0.1708E-01  0.1146E+01
      3.400  0.1321E-01  0.1147E+01
      3.454  0.1332E-01  0.1147E+01
      3.507  0.1697E-01  0.1148E+01
      3.561  0.2466E-01  0.1150E+01
      3.615  0.3564E-01  0.1151E+01
      3.669  0.4453E-01  0.1154E+01
      3.723  0.4513E-01  0.1156E+01
      3.777  0.3756E-01  0.1158E+01
      3.831  0.2906E-01  0.1160E+01
      3.885  0.2487E-01  0.1161E+01
      3.938  0.2451E-01  0.1163E+01
      3.992  0.2589E-01  0.1164E+01
      4.046  0.2651E-01  0.1165E+01
      4.100  0.2518E-01  0.1167E+01
      4.154  0.2349E-01  0.1168E+01
      4.208  0.2272E-01  0.1169E+01
      4.262  0.2171E-01  0.1170E+01
      4.315  0.1938E-01  0.1171E+01
      4.369  0.1825E-01  0.1172E+01
      4.423  0.2147E-01  0.1174E+01
      4.477  0.2761E-01  0.1175E+01
      4.531  0.3602E-01  0.1177E+01
      4.585  0.4817E-01  0.1180E+01
      4.639  0.5870E-01  0.1183E+01
      4.692  0.5943E-01  0.1186E+01
      4.746  0.5266E-01  0.1189E+01
      4.800  0.4787E-01  0.1191E+01
      4.854  0.4851E-01  0.1194E+01
      4.908  0.5127E-01  0.1197E+01
      4.962  0.5502E-01  0.1200E+01
      5.016  0.6079E-01  0.1203E+01
      5.070  0.6469E-01  0.1206E+01
      5.123  0.6254E-01  0.1210E+01
      5.177  0.5952E-01  0.1213E+01
      5.231  0.6132E-01  0.1216E+01
      5.285  0.5910E-01  0.1219E+01
      5.339  0.4450E-01  0.1222E+01
      5.393  0.2500E-01  0.1223E+01
      5.447  0.1040E-01  0.1224E+01
      5.500  0.3046E-02  0.1224E+01
      5.554  0.5833E-03  0.1224E+01
      5.608  0.6887E-04  0.1224E+01
      5.662  0.4848E-05  0.1224E+01
      5.716  0.1998E-06  0.1224E+01
      5.770  0.4770E-08  0.1224E+01
      5.824  0.6557E-10  0.1224E+01
      5.877  0.5165E-12  0.1224E+01
      5.931  0.2324E-14  0.1224E+01
      5.985  0.5497E-17  0.1224E+01
      6.039  0.0000E+00  0.1224E+01
      6.093  0.0000E+00  0.1224E+01
      6.147  0.0000E+00  0.1224E+01
      6.201  0.0000E+00  0.1224E+01
      6.255  0.0000E+00  0.1224E+01
      6.308  0.0000E+00  0.1224E+01
      6.362  0.0000E+00  0.1224E+01
