  48  48   0   0
  0.5349325E+02  0.1100258E-08  0.1100258E-08  0.2449179E-08  0.3500000E-15
  1.000000000000000E-004
  CAR 
 unknown system                          
      6.33598179     -9.97313637  301     -1.08776768      1.00000000
     -9.973  0.0000E+00  0.0000E+00
     -9.919  0.0000E+00  0.0000E+00
     -9.864  0.0000E+00  0.0000E+00
     -9.810  0.0000E+00  0.0000E+00
     -9.756  0.0000E+00  0.0000E+00
     -9.701  0.0000E+00  0.0000E+00
     -9.647  0.0000E+00  0.0000E+00
     -9.593  0.0000E+00  0.0000E+00
     -9.538  0.1225E-16  0.6661E-18
     -9.484  0.4927E-14  0.2685E-15
     -9.429  0.1101E-11  0.6015E-13
     -9.375  0.1383E-09  0.7581E-11
     -9.321  0.9784E-08  0.5395E-09
     -9.266  0.3904E-06  0.2177E-07
     -9.212  0.8814E-05  0.5009E-06
     -9.158  0.1129E-03  0.6637E-05
     -9.103  0.8219E-03  0.5132E-04
     -9.049  0.3414E-02  0.2369E-03
     -8.995  0.8139E-02  0.6794E-03
     -8.940  0.1141E-01  0.1300E-02
     -8.886  0.1068E-01  0.1880E-02
     -8.831  0.9928E-02  0.2420E-02
     -8.777  0.1113E-01  0.3025E-02
     -8.723  0.1000E-01  0.3569E-02
     -8.668  0.5632E-02  0.3875E-02
     -8.614  0.1882E-02  0.3978E-02
     -8.560  0.3830E-03  0.3998E-02
     -8.505  0.1748E-03  0.4008E-02
     -8.451  0.7217E-03  0.4047E-02
     -8.397  0.2329E-02  0.4174E-02
     -8.342  0.4855E-02  0.4438E-02
     -8.288  0.7339E-02  0.4837E-02
     -8.233  0.8914E-02  0.5321E-02
     -8.179  0.9306E-02  0.5827E-02
     -8.125  0.1003E-01  0.6373E-02
     -8.070  0.1269E-01  0.7062E-02
     -8.016  0.1588E-01  0.7926E-02
     -7.962  0.1688E-01  0.8843E-02
     -7.907  0.1484E-01  0.9650E-02
     -7.853  0.1268E-01  0.1034E-01
     -7.799  0.1306E-01  0.1105E-01
     -7.744  0.1465E-01  0.1185E-01
     -7.690  0.1577E-01  0.1270E-01
     -7.635  0.1679E-01  0.1362E-01
     -7.581  0.1850E-01  0.1462E-01
     -7.527  0.2027E-01  0.1572E-01
     -7.472  0.1960E-01  0.1679E-01
     -7.418  0.1639E-01  0.1768E-01
     -7.364  0.1688E-01  0.1860E-01
     -7.309  0.2659E-01  0.2004E-01
     -7.255  0.4044E-01  0.2224E-01
     -7.201  0.4974E-01  0.2495E-01
     -7.146  0.5266E-01  0.2781E-01
     -7.092  0.5292E-01  0.3069E-01
     -7.037  0.5485E-01  0.3367E-01
     -6.983  0.5861E-01  0.3685E-01
     -6.929  0.6331E-01  0.4030E-01
     -6.874  0.7156E-01  0.4419E-01
     -6.820  0.8215E-01  0.4865E-01
     -6.766  0.8842E-01  0.5346E-01
     -6.711  0.8725E-01  0.5820E-01
     -6.657  0.8177E-01  0.6265E-01
     -6.603  0.7854E-01  0.6692E-01
     -6.548  0.8373E-01  0.7147E-01
     -6.494  0.9678E-01  0.7673E-01
     -6.439  0.1110E+00  0.8276E-01
     -6.385  0.1212E+00  0.8935E-01
     -6.331  0.1293E+00  0.9638E-01
     -6.276  0.1375E+00  0.1039E+00
     -6.222  0.1431E+00  0.1116E+00
     -6.168  0.1464E+00  0.1196E+00
     -6.113  0.1511E+00  0.1278E+00
     -6.059  0.1579E+00  0.1364E+00
     -6.005  0.1628E+00  0.1452E+00
     -5.950  0.1613E+00  0.1540E+00
     -5.896  0.1558E+00  0.1625E+00
     -5.841  0.1513E+00  0.1707E+00
     -5.787  0.1471E+00  0.1787E+00
     -5.733  0.1408E+00  0.1864E+00
     -5.678  0.1322E+00  0.1935E+00
     -5.624  0.1256E+00  0.2004E+00
     -5.570  0.1259E+00  0.2072E+00
     -5.515  0.1298E+00  0.2143E+00
     -5.461  0.1331E+00  0.2215E+00
     -5.407  0.1391E+00  0.2291E+00
     -5.352  0.1485E+00  0.2371E+00
     -5.298  0.1543E+00  0.2455E+00
     -5.243  0.1546E+00  0.2539E+00
     -5.189  0.1550E+00  0.2624E+00
     -5.135  0.1579E+00  0.2709E+00
     -5.080  0.1620E+00  0.2798E+00
     -5.026  0.1644E+00  0.2887E+00
     -4.972  0.1627E+00  0.2975E+00
     -4.917  0.1589E+00  0.3062E+00
     -4.863  0.1575E+00  0.3147E+00
     -4.809  0.1616E+00  0.3235E+00
     -4.754  0.1677E+00  0.3326E+00
     -4.700  0.1688E+00  0.3418E+00
     -4.645  0.1660E+00  0.3508E+00
     -4.591  0.1652E+00  0.3598E+00
     -4.537  0.1676E+00  0.3689E+00
     -4.482  0.1701E+00  0.3782E+00
     -4.428  0.1706E+00  0.3875E+00
     -4.374  0.1703E+00  0.3967E+00
     -4.319  0.1701E+00  0.4060E+00
     -4.265  0.1692E+00  0.4152E+00
     -4.211  0.1685E+00  0.4243E+00
     -4.156  0.1690E+00  0.4335E+00
     -4.102  0.1691E+00  0.4427E+00
     -4.047  0.1702E+00  0.4520E+00
     -3.993  0.1749E+00  0.4615E+00
     -3.939  0.1827E+00  0.4714E+00
     -3.884  0.1912E+00  0.4818E+00
     -3.830  0.1983E+00  0.4926E+00
     -3.776  0.2022E+00  0.5036E+00
     -3.721  0.2027E+00  0.5146E+00
     -3.667  0.2034E+00  0.5256E+00
     -3.613  0.2069E+00  0.5369E+00
     -3.558  0.2098E+00  0.5483E+00
     -3.504  0.2098E+00  0.5597E+00
     -3.449  0.2097E+00  0.5711E+00
     -3.395  0.2102E+00  0.5825E+00
     -3.341  0.2074E+00  0.5938E+00
     -3.286  0.2001E+00  0.6047E+00
     -3.232  0.1905E+00  0.6150E+00
     -3.178  0.1811E+00  0.6249E+00
     -3.123  0.1749E+00  0.6344E+00
     -3.069  0.1730E+00  0.6438E+00
     -3.015  0.1745E+00  0.6533E+00
     -2.960  0.1763E+00  0.6629E+00
     -2.906  0.1760E+00  0.6724E+00
     -2.851  0.1772E+00  0.6821E+00
     -2.797  0.1824E+00  0.6920E+00
     -2.743  0.1876E+00  0.7022E+00
     -2.688  0.1904E+00  0.7125E+00
     -2.634  0.1921E+00  0.7230E+00
     -2.580  0.1947E+00  0.7336E+00
     -2.525  0.1963E+00  0.7442E+00
     -2.471  0.1932E+00  0.7547E+00
     -2.417  0.1875E+00  0.7649E+00
     -2.362  0.1844E+00  0.7750E+00
     -2.308  0.1847E+00  0.7850E+00
     -2.253  0.1840E+00  0.7950E+00
     -2.199  0.1784E+00  0.8047E+00
     -2.145  0.1714E+00  0.8140E+00
     -2.090  0.1714E+00  0.8233E+00
     -2.036  0.1785E+00  0.8330E+00
     -1.982  0.1867E+00  0.8432E+00
     -1.927  0.1936E+00  0.8537E+00
     -1.873  0.1991E+00  0.8645E+00
     -1.819  0.2018E+00  0.8755E+00
     -1.764  0.2009E+00  0.8864E+00
     -1.710  0.1982E+00  0.8972E+00
     -1.655  0.1963E+00  0.9079E+00
     -1.601  0.1965E+00  0.9186E+00
     -1.547  0.2006E+00  0.9295E+00
     -1.492  0.2081E+00  0.9408E+00
     -1.438  0.2110E+00  0.9522E+00
     -1.384  0.2034E+00  0.9633E+00
     -1.329  0.1880E+00  0.9735E+00
     -1.275  0.1720E+00  0.9829E+00
     -1.221  0.1581E+00  0.9915E+00
     -1.166  0.1419E+00  0.9992E+00
     -1.112  0.1187E+00  0.1006E+01
     -1.057  0.9001E-01  0.1011E+01
     -1.003  0.6301E-01  0.1014E+01
     -0.949  0.4402E-01  0.1016E+01
     -0.894  0.3254E-01  0.1018E+01
     -0.840  0.2479E-01  0.1019E+01
     -0.786  0.2017E-01  0.1021E+01
     -0.731  0.2023E-01  0.1022E+01
     -0.677  0.2560E-01  0.1023E+01
     -0.623  0.3552E-01  0.1025E+01
     -0.568  0.4542E-01  0.1027E+01
     -0.514  0.4919E-01  0.1030E+01
     -0.459  0.4448E-01  0.1033E+01
     -0.405  0.3474E-01  0.1034E+01
     -0.351  0.2832E-01  0.1036E+01
     -0.296  0.3117E-01  0.1038E+01
     -0.242  0.3935E-01  0.1040E+01
     -0.188  0.4227E-01  0.1042E+01
     -0.133  0.3514E-01  0.1044E+01
     -0.079  0.2384E-01  0.1045E+01
     -0.025  0.1603E-01  0.1046E+01
      0.030  0.1453E-01  0.1047E+01
      0.084  0.1896E-01  0.1048E+01
      0.139  0.2611E-01  0.1049E+01
      0.193  0.3140E-01  0.1051E+01
      0.247  0.3343E-01  0.1053E+01
      0.302  0.3487E-01  0.1055E+01
      0.356  0.3679E-01  0.1057E+01
      0.410  0.3799E-01  0.1059E+01
      0.465  0.4009E-01  0.1061E+01
      0.519  0.4553E-01  0.1064E+01
      0.573  0.5299E-01  0.1066E+01
      0.628  0.5553E-01  0.1069E+01
      0.682  0.4815E-01  0.1072E+01
      0.737  0.3755E-01  0.1074E+01
      0.791  0.3219E-01  0.1076E+01
      0.845  0.3057E-01  0.1078E+01
      0.900  0.2948E-01  0.1079E+01
      0.954  0.2766E-01  0.1081E+01
      1.008  0.2381E-01  0.1082E+01
      1.063  0.2023E-01  0.1083E+01
      1.117  0.1833E-01  0.1084E+01
      1.171  0.1744E-01  0.1085E+01
      1.226  0.1754E-01  0.1086E+01
      1.280  0.1605E-01  0.1087E+01
      1.335  0.1191E-01  0.1087E+01
      1.389  0.9101E-02  0.1088E+01
      1.443  0.1213E-01  0.1089E+01
      1.498  0.2219E-01  0.1090E+01
      1.552  0.3319E-01  0.1092E+01
      1.606  0.3608E-01  0.1094E+01
      1.661  0.3102E-01  0.1095E+01
      1.715  0.2752E-01  0.1097E+01
      1.769  0.3109E-01  0.1098E+01
      1.824  0.3568E-01  0.1100E+01
      1.878  0.3417E-01  0.1102E+01
      1.933  0.2894E-01  0.1104E+01
      1.987  0.2530E-01  0.1105E+01
      2.041  0.2442E-01  0.1107E+01
      2.096  0.2729E-01  0.1108E+01
      2.150  0.3526E-01  0.1110E+01
      2.204  0.4460E-01  0.1112E+01
      2.259  0.4853E-01  0.1115E+01
      2.313  0.4534E-01  0.1117E+01
      2.367  0.4011E-01  0.1120E+01
      2.422  0.3633E-01  0.1122E+01
      2.476  0.3298E-01  0.1123E+01
      2.531  0.3226E-01  0.1125E+01
      2.585  0.3716E-01  0.1127E+01
      2.639  0.4535E-01  0.1130E+01
      2.694  0.5043E-01  0.1132E+01
      2.748  0.4606E-01  0.1135E+01
      2.802  0.3293E-01  0.1137E+01
      2.857  0.1915E-01  0.1138E+01
      2.911  0.1247E-01  0.1138E+01
      2.965  0.1210E-01  0.1139E+01
      3.020  0.1121E-01  0.1140E+01
      3.074  0.9333E-02  0.1140E+01
      3.129  0.1075E-01  0.1141E+01
      3.183  0.1431E-01  0.1142E+01
      3.237  0.1768E-01  0.1142E+01
      3.292  0.2173E-01  0.1144E+01
      3.346  0.2418E-01  0.1145E+01
      3.400  0.2288E-01  0.1146E+01
      3.455  0.2189E-01  0.1147E+01
      3.509  0.2465E-01  0.1149E+01
      3.563  0.3136E-01  0.1150E+01
      3.618  0.3999E-01  0.1153E+01
      3.672  0.4455E-01  0.1155E+01
      3.727  0.4146E-01  0.1157E+01
      3.781  0.3496E-01  0.1159E+01
      3.835  0.2959E-01  0.1161E+01
      3.890  0.2561E-01  0.1162E+01
      3.944  0.2399E-01  0.1164E+01
      3.998  0.2563E-01  0.1165E+01
      4.053  0.2682E-01  0.1166E+01
      4.107  0.2427E-01  0.1168E+01
      4.161  0.2114E-01  0.1169E+01
      4.216  0.1996E-01  0.1170E+01
      4.270  0.1861E-01  0.1171E+01
      4.325  0.1650E-01  0.1172E+01
      4.379  0.1794E-01  0.1173E+01
      4.433  0.2388E-01  0.1174E+01
      4.488  0.2966E-01  0.1176E+01
      4.542  0.3836E-01  0.1178E+01
      4.596  0.5331E-01  0.1181E+01
      4.651  0.6303E-01  0.1184E+01
      4.705  0.6006E-01  0.1187E+01
      4.759  0.5373E-01  0.1190E+01
      4.814  0.5083E-01  0.1193E+01
      4.868  0.4824E-01  0.1196E+01
      4.923  0.4663E-01  0.1198E+01
      4.977  0.5203E-01  0.1201E+01
      5.031  0.6396E-01  0.1205E+01
      5.086  0.7229E-01  0.1208E+01
      5.140  0.7036E-01  0.1212E+01
      5.194  0.6364E-01  0.1216E+01
      5.249  0.5673E-01  0.1219E+01
      5.303  0.4576E-01  0.1221E+01
      5.357  0.2960E-01  0.1223E+01
      5.412  0.1400E-01  0.1224E+01
      5.466  0.4463E-02  0.1224E+01
      5.521  0.8983E-03  0.1224E+01
      5.575  0.1095E-03  0.1224E+01
      5.629  0.7875E-05  0.1224E+01
      5.684  0.3296E-06  0.1224E+01
      5.738  0.7953E-08  0.1224E+01
      5.792  0.1098E-09  0.1224E+01
      5.847  0.8630E-12  0.1224E+01
      5.901  0.3845E-14  0.1224E+01
      5.955  0.8169E-17  0.1224E+01
      6.010  0.0000E+00  0.1224E+01
      6.064  0.0000E+00  0.1224E+01
      6.119  0.0000E+00  0.1224E+01
      6.173  0.0000E+00  0.1224E+01
      6.227  0.0000E+00  0.1224E+01
      6.282  0.0000E+00  0.1224E+01
      6.336  0.0000E+00  0.1224E+01
