unknown system                          
           1
    11.002582    0.000000    0.000000
     5.501291    9.528515    0.000000
     0.000000    0.000000   24.491785
   Au   Pd
  24  24
Direct configuration=     1
   0.08333333  0.08333333  0.40830017
   0.00000000  0.75000000  0.59169983
   0.08333333  0.58333333  0.40830017
   0.91666667  0.91666667  0.50000000
   0.25000000  0.00000000  0.59169983
   0.00000000  0.00000000  0.59169983
   0.08333333  0.33333333  0.40830017
   0.91666667  0.41666667  0.50000000
   0.75000000  0.75000000  0.59169983
   0.25000000  0.75000000  0.59169983
   0.33333333  0.58333333  0.40830017
   0.16666667  0.66666667  0.50000000
   0.16666667  0.16666667  0.50000000
   0.16666667  0.91666667  0.50000000
   0.41666667  0.16666667  0.50000000
   0.41666667  0.41666667  0.50000000
   0.41666667  0.66666667  0.50000000
   0.50000000  0.50000000  0.59169983
   0.41666667  0.91666667  0.50000000
   0.50000000  0.75000000  0.59169983
   0.83333333  0.08333333  0.40830017
   0.66666667  0.16666667  0.50000000
   0.75000000  0.50000000  0.59169983
   0.25000000  0.50000000  0.59169983
   0.58333333  0.33333333  0.40830017
   0.50000000  0.00000000  0.59169983
   0.08333333  0.83333333  0.40830017
   0.58333333  0.08333333  0.40830017
   0.16666667  0.41666667  0.50000000
   0.33333333  0.83333333  0.40830017
   0.33333333  0.08333333  0.40830017
   0.25000000  0.25000000  0.59169983
   0.00000000  0.50000000  0.59169983
   0.66666667  0.91666667  0.50000000
   0.50000000  0.25000000  0.59169983
   0.00000000  0.25000000  0.59169983
   0.33333333  0.33333333  0.40830017
   0.75000000  0.25000000  0.59169983
   0.83333333  0.58333333  0.40830017
   0.83333333  0.83333333  0.40830017
   0.91666667  0.16666667  0.50000000
   0.75000000  0.00000000  0.59169983
   0.83333333  0.33333333  0.40830017
   0.66666667  0.41666667  0.50000000
   0.66666667  0.66666667  0.50000000
   0.58333333  0.83333333  0.40830017
   0.58333333  0.58333333  0.40830017
   0.91666667  0.66666667  0.50000000
Direct configuration=     2
   0.08333333  0.08333333  0.40830017
  -0.00123322  0.74968874  0.59397440
   0.08333333  0.58333333  0.40830017
   0.91512204  0.91649490  0.49962856
   0.24988581  0.00163819  0.59430940
  -0.00182176  0.00218475  0.59394347
   0.08333333  0.33333333  0.40830017
   0.91566399  0.41753270  0.50006079
   0.74995109  0.75089193  0.59326899
   0.24987036  0.75004354  0.59443464
   0.33333333  0.58333333  0.40830017
   0.16516335  0.66651718  0.49945668
   0.16617027  0.16811092  0.50037968
   0.16608305  0.91702698  0.49912263
   0.41681566  0.16663094  0.49998760
   0.41771517  0.41472286  0.49962347
   0.41912018  0.66611398  0.49901553
   0.50145559  0.49802549  0.59395434
   0.41897599  0.91627554  0.49919138
   0.50077778  0.75058752  0.59399040
   0.83333333  0.08333333  0.40830017
   0.66676511  0.16700032  0.50032112
   0.75103822  0.49871256  0.59348899
   0.24967676  0.49815658  0.59393017
   0.58333333  0.33333333  0.40830017
   0.50026972  0.00069648  0.59286229
   0.08333333  0.83333333  0.40830017
   0.58333333  0.08333333  0.40830017
   0.16620604  0.41671234  0.50029577
   0.33333333  0.83333333  0.40830017
   0.33333333  0.08333333  0.40830017
   0.24992144  0.25031044  0.59288557
   0.00070200  0.49925105  0.59266074
   0.66704339  0.91572477  0.49970379
   0.50037846  0.24909482  0.59301046
  -0.00016250  0.25029022  0.59289140
   0.33333333  0.33333333  0.40830017
   0.75011125  0.24973217  0.59265296
   0.83333333  0.58333333  0.40830017
   0.83333333  0.83333333  0.40830017
   0.91554175  0.16821139  0.50025391
   0.74907468  0.00066898  0.59281861
   0.83333333  0.33333333  0.40830017
   0.66754104  0.41635195  0.49947627
   0.66736912  0.66662468  0.49918597
   0.58333333  0.83333333  0.40830017
   0.58333333  0.58333333  0.40830017
   0.91578465  0.66643821  0.49969802
Direct configuration=     3
   0.08333333  0.08333333  0.40830017
  -0.00419773  0.74894052  0.59944217
   0.08333333  0.58333333  0.40830017
   0.91140895  0.91608198  0.49873566
   0.24961130  0.00557620  0.60058249
  -0.00620105  0.00743661  0.59933688
   0.08333333  0.33333333  0.40830017
   0.91325368  0.41961454  0.50020694
   0.74983351  0.75303603  0.59704104
   0.24955872  0.75014819  0.60100876
   0.33333333  0.58333333  0.40830017
   0.16154956  0.66615783  0.49815062
   0.16497698  0.17158271  0.50129239
   0.16468011  0.91789313  0.49701355
   0.41717381  0.16654506  0.49995779
   0.42023563  0.41005019  0.49871834
   0.42501810  0.66478540  0.49664899
   0.50495463  0.49327903  0.59937389
   0.42452731  0.91533531  0.49724755
   0.50264747  0.75199984  0.59949665
   0.83333333  0.08333333  0.40830017
   0.66700174  0.16780240  0.50109305
   0.75353398  0.49561773  0.59778990
   0.24889974  0.49372522  0.59929162
   0.58333333  0.33333333  0.40830017
   0.50091810  0.00237072  0.59565671
   0.08333333  0.83333333  0.40830017
   0.58333333  0.08333333  0.40830017
   0.16509876  0.41682212  0.50100678
   0.33333333  0.83333333  0.40830017
   0.33333333  0.08333333  0.40830017
   0.24973259  0.25105668  0.59573594
   0.00238952  0.49745068  0.59497064
   0.66794899  0.91346057  0.49899175
   0.50128822  0.24691888  0.59616104
  -0.00055314  0.25098788  0.59575578
   0.33333333  0.33333333  0.40830017
   0.75037868  0.24908835  0.59494417
   0.83333333  0.58333333  0.40830017
   0.83333333  0.83333333  0.40830017
   0.91283758  0.17192471  0.50086428
   0.74685032  0.00227711  0.59550800
   0.83333333  0.33333333  0.40830017
   0.66964293  0.41559542  0.49821730
   0.66905773  0.66652374  0.49722913
   0.58333333  0.83333333  0.40830017
   0.58333333  0.58333333  0.40830017
   0.91366439  0.66588903  0.49897210
Direct configuration=     4
   0.08333333  0.08333333  0.40830017
  -0.00382660  0.74921818  0.60249618
   0.08333333  0.58333333  0.40830017
   0.91126162  0.91585162  0.50079021
   0.24983035  0.00581829  0.60385207
  -0.00628340  0.00727732  0.60217122
   0.08333333  0.33333333  0.40830017
   0.91213670  0.42072681  0.50163854
   0.74934090  0.75304604  0.59929304
   0.24939596  0.75008589  0.60408730
   0.33333333  0.58333333  0.40830017
   0.16218179  0.66606099  0.50078827
   0.16544342  0.17038062  0.50330954
   0.16515544  0.91754361  0.49947081
   0.41747928  0.16572779  0.50118834
   0.41942778  0.41178255  0.50064385
   0.42525479  0.66438895  0.49905557
   0.50456300  0.49295420  0.60214060
   0.42375331  0.91567940  0.49904954
   0.50252278  0.75227358  0.60233994
   0.83333333  0.08333333  0.40830017
   0.66774567  0.16691947  0.50251797
   0.75393330  0.49565403  0.60039371
   0.24969433  0.49350479  0.60228597
   0.58333333  0.33333333  0.40830017
   0.50056112  0.00329836  0.59723583
   0.08333333  0.83333333  0.40830017
   0.58333333  0.08333333  0.40830017
   0.16492518  0.41771612  0.50244182
   0.33333333  0.83333333  0.40830017
   0.33333333  0.08333333  0.40830017
   0.25020939  0.25046957  0.59774122
   0.00198305  0.49685748  0.59646041
   0.66875424  0.91280222  0.49982958
   0.50132594  0.24620005  0.59823897
  -0.00036161  0.25148182  0.59771094
   0.33333333  0.33333333  0.40830017
   0.74996977  0.24907045  0.59660244
   0.83333333  0.58333333  0.40830017
   0.83333333  0.83333333  0.40830017
   0.91314435  0.17178724  0.50232913
   0.74639249  0.00290145  0.59717714
   0.83333333  0.33333333  0.40830017
   0.66929451  0.41645112  0.49916173
   0.67028855  0.66602050  0.49831057
   0.58333333  0.83333333  0.40830017
   0.58333333  0.58333333  0.40830017
   0.91265752  0.66581029  0.50021527
Direct configuration=     5
   0.08333333  0.08333333  0.40830017
  -0.00295328  0.74987153  0.60968276
   0.08333333  0.58333333  0.40830017
   0.91091491  0.91530953  0.50562490
   0.25034581  0.00638799  0.61154593
  -0.00647719  0.00690246  0.60884086
   0.08333333  0.33333333  0.40830017
   0.90950825  0.42334414  0.50500732
   0.74818169  0.75306958  0.60459235
   0.24901298  0.74993929  0.61133160
   0.33333333  0.58333333  0.40830017
   0.16366952  0.66583309  0.50699508
   0.16654101  0.16755191  0.50805621
   0.16627398  0.91672113  0.50525314
   0.41819809  0.16380461  0.50408401
   0.41752678  0.41585907  0.50517489
   0.42581174  0.66345605  0.50471862
   0.50364142  0.49218982  0.60865111
   0.42193197  0.91648908  0.50328988
   0.50222938  0.75291775  0.60903065
   0.83333333  0.08333333  0.40830017
   0.66949626  0.16484180  0.50587101
   0.75487295  0.49573944  0.60652088
   0.25156414  0.49298607  0.60933214
   0.58333333  0.33333333  0.40830017
   0.49972110  0.00548124  0.60095176
   0.08333333  0.83333333  0.40830017
   0.58333333  0.08333333  0.40830017
   0.16451670  0.41981984  0.50581870
   0.33333333  0.83333333  0.40830017
   0.33333333  0.08333333  0.40830017
   0.25133138  0.24908800  0.60245994
   0.00102655  0.49546158  0.59996606
   0.67064914  0.91125303  0.50180115
   0.50141469  0.24450854  0.60312864
   0.00008908  0.25264412  0.60231172
   0.33333333  0.33333333  0.40830017
   0.74900753  0.24902833  0.60050460
   0.83333333  0.58333333  0.40830017
   0.83333333  0.83333333  0.40830017
   0.91386624  0.17146376  0.50577613
   0.74531515  0.00437062  0.60110488
   0.83333333  0.33333333  0.40830017
   0.66847461  0.41846473  0.50138411
   0.67318487  0.66483630  0.50085536
   0.58333333  0.83333333  0.40830017
   0.58333333  0.58333333  0.40830017
   0.91028821  0.66562501  0.50314064
Direct configuration=     6
   0.08333333  0.08333333  0.40830017
  -0.00270624  0.75005636  0.61171571
   0.08333333  0.58333333  0.40830017
   0.91081684  0.91515618  0.50699255
   0.25049163  0.00654915  0.61372238
  -0.00653201  0.00679642  0.61072759
   0.08333333  0.33333333  0.40830017
   0.90876471  0.42408454  0.50596029
   0.74785377  0.75307624  0.60609143
   0.24890464  0.74989782  0.61338088
   0.33333333  0.58333333  0.40830017
   0.16409038  0.66576863  0.50875088
   0.16685151  0.16675171  0.50939896
   0.16659039  0.91648846  0.50688886
   0.41840143  0.16326057  0.50490315
   0.41698902  0.41701225  0.50645665
   0.42596929  0.66319215  0.50632059
   0.50338072  0.49197359  0.61049282
   0.42141674  0.91671813  0.50448940
   0.50214638  0.75309997  0.61092334
   0.83333333  0.08333333  0.40830017
   0.66999147  0.16425407  0.50681953
   0.75513877  0.49576360  0.60825415
   0.25209307  0.49283934  0.61132538
   0.58333333  0.33333333  0.40830017
   0.49948347  0.00609874  0.60200293
   0.08333333  0.83333333  0.40830017
   0.58333333  0.08333333  0.40830017
   0.16440115  0.42041494  0.50677396
   0.33333333  0.83333333  0.40830017
   0.33333333  0.08333333  0.40830017
   0.25164877  0.24869718  0.60379478
   0.00075597  0.49506671  0.60095775
   0.67118517  0.91081479  0.50235887
   0.50143979  0.24403004  0.60451184
   0.00021658  0.25297292  0.60361320
   0.33333333  0.33333333  0.40830017
   0.74873533  0.24901641  0.60160846
   0.83333333  0.58333333  0.40830017
   0.83333333  0.83333333  0.40830017
   0.91407044  0.17137226  0.50675123
   0.74501038  0.00478623  0.60221597
   0.83333333  0.33333333  0.40830017
   0.66824267  0.41903434  0.50201279
   0.67400419  0.66450131  0.50157524
   0.58333333  0.83333333  0.40830017
   0.58333333  0.58333333  0.40830017
   0.90961797  0.66557259  0.50396817
Direct configuration=     7
   0.08333333  0.08333333  0.40830017
  -0.00266495  0.74939970  0.61287566
   0.08333333  0.58333333  0.40830017
   0.91708551  0.91280276  0.50807958
   0.25014118  0.00370431  0.61517081
  -0.00410876  0.00528453  0.61172433
   0.08333333  0.33333333  0.40830017
   0.91502594  0.41666830  0.50673991
   0.74893240  0.75295967  0.60674040
   0.24971072  0.75058588  0.61471164
   0.33333333  0.58333333  0.40830017
   0.16325133  0.66795416  0.51018516
   0.16515254  0.16846851  0.50994338
   0.16637011  0.91529188  0.50843547
   0.41797504  0.16733190  0.50538188
   0.41831153  0.41488410  0.50776928
   0.42314664  0.66627396  0.50801870
   0.50315051  0.49457463  0.61156576
   0.42148451  0.91296399  0.50588920
   0.50063722  0.75214864  0.61185614
   0.83333333  0.08333333  0.40830017
   0.66603123  0.16830848  0.50688129
   0.75120979  0.49749047  0.60936264
   0.25061518  0.49435707  0.61251522
   0.58333333  0.33333333  0.40830017
   0.49975205  0.00280497  0.60291018
   0.08333333  0.83333333  0.40830017
   0.58333333  0.08333333  0.40830017
   0.16520761  0.41836781  0.50769616
   0.33333333  0.83333333  0.40830017
   0.33333333  0.08333333  0.40830017
   0.25122262  0.25021755  0.60477961
   0.00183628  0.49794208  0.60212291
   0.66838489  0.91223754  0.50377524
   0.50041711  0.24674457  0.60529356
   0.00027340  0.25080671  0.60478254
   0.33333333  0.33333333  0.40830017
   0.74889978  0.25047645  0.60249453
   0.83333333  0.58333333  0.40830017
   0.83333333  0.83333333  0.40830017
   0.91612127  0.16901125  0.50773943
   0.74735386  0.00192471  0.60368203
   0.83333333  0.33333333  0.40830017
   0.66712584  0.41754590  0.50381118
   0.66613545  0.66854680  0.50348803
   0.58333333  0.83333333  0.40830017
   0.58333333  0.58333333  0.40830017
   0.91548969  0.66677328  0.50557714
Direct configuration=     8
   0.08333333  0.08333333  0.40830017
  -0.00267256  0.74952072  0.61266188
   0.08333333  0.58333333  0.40830017
   0.91593019  0.91323650  0.50787924
   0.25020577  0.00422861  0.61490386
  -0.00455537  0.00556318  0.61154063
   0.08333333  0.33333333  0.40830017
   0.91387198  0.41803512  0.50659622
   0.74873361  0.75298115  0.60662079
   0.24956216  0.75045907  0.61446638
   0.33333333  0.58333333  0.40830017
   0.16340597  0.66755137  0.50992082
   0.16546566  0.16815211  0.50984304
   0.16641071  0.91551241  0.50815043
   0.41805363  0.16658155  0.50529365
   0.41806779  0.41527632  0.50752736
   0.42366686  0.66570598  0.50770574
   0.50319294  0.49409526  0.61136802
   0.42147202  0.91365588  0.50563121
   0.50091536  0.75232397  0.61168422
   0.83333333  0.08333333  0.40830017
   0.66676111  0.16756124  0.50686990
   0.75193391  0.49717220  0.60915835
   0.25088756  0.49407735  0.61229593
   0.58333333  0.33333333  0.40830017
   0.49970255  0.00341202  0.60274297
   0.08333333  0.83333333  0.40830017
   0.58333333  0.08333333  0.40830017
   0.16505898  0.41874510  0.50752620
   0.33333333  0.83333333  0.40830017
   0.33333333  0.08333333  0.40830017
   0.25130116  0.24993734  0.60459811
   0.00163717  0.49741214  0.60190817
   0.66890099  0.91197533  0.50351420
   0.50060559  0.24624428  0.60514949
   0.00026293  0.25120595  0.60456703
   0.33333333  0.33333333  0.40830017
   0.74886947  0.25020737  0.60233122
   0.83333333  0.58333333  0.40830017
   0.83333333  0.83333333  0.40830017
   0.91574330  0.16944639  0.50755730
   0.74692196  0.00245209  0.60341183
   0.83333333  0.33333333  0.40830017
   0.66733168  0.41782022  0.50347973
   0.66758567  0.66780121  0.50313550
   0.58333333  0.83333333  0.40830017
   0.58333333  0.58333333  0.40830017
   0.91440752  0.66655199  0.50528061
Direct configuration=     9
   0.08333333  0.08333333  0.40830017
  -0.00225318  0.74935507  0.61311487
   0.08333333  0.58333333  0.40830017
   0.91576665  0.91527006  0.50810358
   0.25000914  0.00333635  0.61522882
  -0.00371259  0.00469269  0.61173135
   0.08333333  0.33333333  0.40830017
   0.91399926  0.41804582  0.50685933
   0.74923658  0.75214394  0.60648791
   0.24972877  0.75035087  0.61508104
   0.33333333  0.58333333  0.40830017
   0.16570406  0.66585452  0.51023715
   0.16717430  0.16688966  0.50975657
   0.16666430  0.91610846  0.50850582
   0.41676580  0.16697813  0.50546286
   0.41706135  0.41669695  0.50795935
   0.42098542  0.66548442  0.50812312
   0.50230915  0.49585756  0.61158869
   0.41941233  0.91554425  0.50613834
   0.50055778  0.75165470  0.61200637
   0.83333333  0.08333333  0.40830017
   0.66769092  0.16694071  0.50682990
   0.75099166  0.49820786  0.60909775
   0.25016365  0.49570550  0.61257634
   0.58333333  0.33333333  0.40830017
   0.49951134  0.00183245  0.60294727
   0.08333333  0.83333333  0.40830017
   0.58333333  0.08333333  0.40830017
   0.16604283  0.41802476  0.50782138
   0.33333333  0.83333333  0.40830017
   0.33333333  0.08333333  0.40830017
   0.25102271  0.25001527  0.60491258
   0.00120459  0.49897769  0.60248961
   0.66844662  0.91330239  0.50446028
   0.50050704  0.24738896  0.60539078
  -0.00007606  0.25073503  0.60526342
   0.33333333  0.33333333  0.40830017
   0.74936339  0.25024830  0.60261295
   0.83333333  0.58333333  0.40830017
   0.83333333  0.83333333  0.40830017
   0.91617977  0.16701659  0.50792989
   0.74818872  0.00149219  0.60380831
   0.83333333  0.33333333  0.40830017
   0.66730039  0.41768124  0.50464803
   0.66805697  0.66664658  0.50437660
   0.58333333  0.83333333  0.40830017
   0.58333333  0.58333333  0.40830017
   0.91582901  0.66623451  0.50608396
Direct configuration=    10
   0.08333333  0.08333333  0.40830017
  -0.00226714  0.74936059  0.61309979
   0.08333333  0.58333333  0.40830017
   0.91577209  0.91520237  0.50809611
   0.25001569  0.00336605  0.61521800
  -0.00374064  0.00472166  0.61172501
   0.08333333  0.33333333  0.40830017
   0.91399502  0.41804547  0.50685057
   0.74921984  0.75217181  0.60649233
   0.24972322  0.75035447  0.61506059
   0.33333333  0.58333333  0.40830017
   0.16562758  0.66591099  0.51022663
   0.16711743  0.16693168  0.50975945
   0.16665586  0.91608862  0.50849399
   0.41680866  0.16696493  0.50545723
   0.41709485  0.41664967  0.50794497
   0.42107466  0.66549179  0.50810923
   0.50233857  0.49579891  0.61158135
   0.41948089  0.91548140  0.50612147
   0.50056968  0.75167698  0.61199565
   0.83333333  0.08333333  0.40830017
   0.66765997  0.16696136  0.50683123
   0.75102302  0.49817339  0.60909976
   0.25018775  0.49565131  0.61256701
   0.58333333  0.33333333  0.40830017
   0.49951771  0.00188502  0.60294047
   0.08333333  0.83333333  0.40830017
   0.58333333  0.08333333  0.40830017
   0.16601008  0.41804874  0.50781156
   0.33333333  0.83333333  0.40830017
   0.33333333  0.08333333  0.40830017
   0.25103197  0.25001267  0.60490212
   0.00121899  0.49892559  0.60247026
   0.66846175  0.91325822  0.50442879
   0.50051032  0.24735086  0.60538275
  -0.00006478  0.25075071  0.60524024
   0.33333333  0.33333333  0.40830017
   0.74934695  0.25024694  0.60260357
   0.83333333  0.58333333  0.40830017
   0.83333333  0.83333333  0.40830017
   0.91616524  0.16709746  0.50791749
   0.74814656  0.00152414  0.60379511
   0.83333333  0.33333333  0.40830017
   0.66730143  0.41768586  0.50460915
   0.66804128  0.66668501  0.50433530
   0.58333333  0.83333333  0.40830017
   0.58333333  0.58333333  0.40830017
   0.91578170  0.66624508  0.50605722
Direct configuration=    11
   0.08333333  0.08333333  0.40830017
  -0.00212421  0.74975190  0.61335458
   0.08333333  0.58333333  0.40830017
   0.91574847  0.91499784  0.50805413
   0.24982719  0.00360149  0.61534522
  -0.00369890  0.00435729  0.61184778
   0.08333333  0.33333333  0.40830017
   0.91374425  0.41832462  0.50699801
   0.74917950  0.75193245  0.60635746
   0.24935530  0.75037789  0.61559178
   0.33333333  0.58333333  0.40830017
   0.16539653  0.66598816  0.51017605
   0.16671145  0.16704016  0.50977795
   0.16673174  0.91619897  0.50846493
   0.41711208  0.16693856  0.50559970
   0.41758180  0.41599076  0.50803464
   0.42090442  0.66557194  0.50798188
   0.50204687  0.49598548  0.61171943
   0.41981000  0.91530906  0.50613877
   0.50059872  0.75168372  0.61215411
   0.83333333  0.08333333  0.40830017
   0.66727823  0.16693096  0.50689998
   0.75162497  0.49812152  0.60891242
   0.25015429  0.49594242  0.61273503
   0.58333333  0.33333333  0.40830017
   0.49946651  0.00183607  0.60300441
   0.08333333  0.83333333  0.40830017
   0.58333333  0.08333333  0.40830017
   0.16606975  0.41790304  0.50795741
   0.33333333  0.83333333  0.40830017
   0.33333333  0.08333333  0.40830017
   0.25085513  0.24992046  0.60505777
   0.00090733  0.49877202  0.60278508
   0.66866498  0.91330517  0.50487106
   0.50072935  0.24724338  0.60534378
  -0.00023825  0.25124937  0.60547331
   0.33333333  0.33333333  0.40830017
   0.74938214  0.25009988  0.60277653
   0.83333333  0.58333333  0.40830017
   0.83333333  0.83333333  0.40830017
   0.91649613  0.16695457  0.50807476
   0.74817636  0.00166243  0.60395986
   0.83333333  0.33333333  0.40830017
   0.66744030  0.41778897  0.50517365
   0.66861408  0.66619739  0.50495969
   0.58333333  0.83333333  0.40830017
   0.58333333  0.58333333  0.40830017
   0.91557102  0.66645441  0.50633906
Direct configuration=    12
   0.08333333  0.08333333  0.40830017
  -0.00204419  0.74997096  0.61349721
   0.08333333  0.58333333  0.40830017
   0.91573525  0.91488334  0.50803063
   0.24972167  0.00373329  0.61541644
  -0.00367553  0.00415332  0.61191651
   0.08333333  0.33333333  0.40830017
   0.91360386  0.41848089  0.50708055
   0.74915691  0.75179846  0.60628196
   0.24914934  0.75039101  0.61588915
   0.33333333  0.58333333  0.40830017
   0.16526718  0.66603135  0.51014774
   0.16648419  0.16710089  0.50978830
   0.16677421  0.91626074  0.50844867
   0.41728193  0.16692380  0.50567945
   0.41785439  0.41562190  0.50808484
   0.42080912  0.66561681  0.50791059
   0.50188357  0.49608992  0.61179673
   0.41999424  0.91521258  0.50614846
   0.50061497  0.75168750  0.61224283
   0.83333333  0.08333333  0.40830017
   0.66706452  0.16691394  0.50693847
   0.75196194  0.49809249  0.60880755
   0.25013555  0.49610538  0.61282910
   0.58333333  0.33333333  0.40830017
   0.49943786  0.00180866  0.60304021
   0.08333333  0.83333333  0.40830017
   0.58333333  0.08333333  0.40830017
   0.16610316  0.41782149  0.50803906
   0.33333333  0.83333333  0.40830017
   0.33333333  0.08333333  0.40830017
   0.25075614  0.24986883  0.60514491
   0.00073285  0.49868606  0.60296132
   0.66877875  0.91333146  0.50511865
   0.50085196  0.24718321  0.60532197
  -0.00033537  0.25152853  0.60560378
   0.33333333  0.33333333  0.40830017
   0.74940184  0.25001756  0.60287335
   0.83333333  0.58333333  0.40830017
   0.83333333  0.83333333  0.40830017
   0.91668136  0.16687459  0.50816279
   0.74819305  0.00173984  0.60405208
   0.83333333  0.33333333  0.40830017
   0.66751804  0.41784669  0.50548965
   0.66893473  0.66592442  0.50530923
   0.58333333  0.83333333  0.40830017
   0.58333333  0.58333333  0.40830017
   0.91545308  0.66657160  0.50649683
Direct configuration=    13
   0.08333333  0.08333333  0.40830017
  -0.00238379  0.75006860  0.61378998
   0.08333333  0.58333333  0.40830017
   0.91573326  0.91474272  0.50796139
   0.24949461  0.00392972  0.61553262
  -0.00378719  0.00447577  0.61205580
   0.08333333  0.33333333  0.40830017
   0.91397680  0.41833895  0.50707488
   0.74927309  0.75211659  0.60628933
   0.24919057  0.75055271  0.61653084
   0.33333333  0.58333333  0.40830017
   0.16511074  0.66600913  0.51008193
   0.16636643  0.16738771  0.50988106
   0.16691671  0.91601312  0.50842026
   0.41712063  0.16650999  0.50579148
   0.41794472  0.41568027  0.50810738
   0.42120295  0.66551561  0.50772406
   0.50202533  0.49609304  0.61195457
   0.42072687  0.91478133  0.50607505
   0.50027649  0.75177976  0.61243284
   0.83333333  0.08333333  0.40830017
   0.66761843  0.16668249  0.50696693
   0.75195524  0.49782378  0.60875545
   0.24995890  0.49587414  0.61298208
   0.58333333  0.33333333  0.40830017
   0.49930819  0.00210109  0.60316892
   0.08333333  0.83333333  0.40830017
   0.58333333  0.08333333  0.40830017
   0.16592702  0.41789253  0.50823225
   0.33333333  0.83333333  0.40830017
   0.33333333  0.08333333  0.40830017
   0.25072441  0.25001933  0.60528746
   0.00113316  0.49848474  0.60331189
   0.66895497  0.91300248  0.50539132
   0.50082655  0.24702380  0.60535715
  -0.00028435  0.25153804  0.60584912
   0.33333333  0.33333333  0.40830017
   0.74941535  0.24992329  0.60311221
   0.83333333  0.58333333  0.40830017
   0.83333333  0.83333333  0.40830017
   0.91640954  0.16715414  0.50834612
   0.74806542  0.00183223  0.60423867
   0.83333333  0.33333333  0.40830017
   0.66750574  0.41776617  0.50591524
   0.66871517  0.66611471  0.50575011
   0.58333333  0.83333333  0.40830017
   0.58333333  0.58333333  0.40830017
   0.91539312  0.66656589  0.50666294
Direct configuration=    14
   0.08333333  0.08333333  0.40830017
  -0.00247141  0.75009379  0.61386553
   0.08333333  0.58333333  0.40830017
   0.91573275  0.91470644  0.50794353
   0.24943602  0.00398040  0.61556260
  -0.00381601  0.00455897  0.61209174
   0.08333333  0.33333333  0.40830017
   0.91407302  0.41830233  0.50707342
   0.74930306  0.75219868  0.60629123
   0.24920121  0.75059444  0.61669641
   0.33333333  0.58333333  0.40830017
   0.16507038  0.66600340  0.51006495
   0.16633605  0.16746172  0.50990499
   0.16695348  0.91594922  0.50841294
   0.41707901  0.16640321  0.50582038
   0.41796803  0.41569533  0.50811319
   0.42130457  0.66548950  0.50767593
   0.50206191  0.49609384  0.61199530
   0.42091591  0.91467006  0.50605611
   0.50018916  0.75180357  0.61248187
   0.83333333  0.08333333  0.40830017
   0.66776135  0.16662277  0.50697428
   0.75195351  0.49775445  0.60874201
   0.24991332  0.49581448  0.61302156
   0.58333333  0.33333333  0.40830017
   0.49927473  0.00217655  0.60320213
   0.08333333  0.83333333  0.40830017
   0.58333333  0.08333333  0.40830017
   0.16588157  0.41791086  0.50828210
   0.33333333  0.83333333  0.40830017
   0.33333333  0.08333333  0.40830017
   0.25071623  0.25005816  0.60532424
   0.00123645  0.49843279  0.60340235
   0.66900044  0.91291759  0.50546168
   0.50081999  0.24698267  0.60536623
  -0.00027119  0.25154049  0.60591243
   0.33333333  0.33333333  0.40830017
   0.74941883  0.24989897  0.60317385
   0.83333333  0.58333333  0.40830017
   0.83333333  0.83333333  0.40830017
   0.91633941  0.16722627  0.50839342
   0.74803249  0.00185607  0.60428681
   0.83333333  0.33333333  0.40830017
   0.66750257  0.41774540  0.50602505
   0.66865851  0.66616380  0.50586387
   0.58333333  0.83333333  0.40830017
   0.58333333  0.58333333  0.40830017
   0.91537765  0.66656442  0.50670580
Direct configuration=    15
   0.08333333  0.08333333  0.40830017
  -0.00243348  0.75003361  0.61406547
   0.08333333  0.58333333  0.40830017
   0.91589090  0.91468804  0.50797741
   0.24943244  0.00402005  0.61560301
  -0.00387151  0.00473345  0.61217009
   0.08333333  0.33333333  0.40830017
   0.91409233  0.41835959  0.50702537
   0.74915542  0.75230804  0.60646557
   0.24910308  0.75059529  0.61711031
   0.33333333  0.58333333  0.40830017
   0.16532678  0.66589658  0.51014877
   0.16664128  0.16703281  0.51001074
   0.16714679  0.91580704  0.50846023
   0.41711692  0.16638831  0.50581996
   0.41778587  0.41576306  0.50811945
   0.42135905  0.66537899  0.50763519
   0.50196291  0.49600301  0.61211183
   0.42069048  0.91469510  0.50601645
   0.50009591  0.75199053  0.61260019
   0.83333333  0.08333333  0.40830017
   0.66785679  0.16655312  0.50700170
   0.75173214  0.49787072  0.60882700
   0.25003943  0.49584748  0.61311645
   0.58333333  0.33333333  0.40830017
   0.49907011  0.00232136  0.60336383
   0.08333333  0.83333333  0.40830017
   0.58333333  0.08333333  0.40830017
   0.16594597  0.41809550  0.50840210
   0.33333333  0.83333333  0.40830017
   0.33333333  0.08333333  0.40830017
   0.25080069  0.25004755  0.60543215
   0.00140420  0.49838786  0.60362251
   0.66917355  0.91284142  0.50543581
   0.50065915  0.24708593  0.60539867
  -0.00012378  0.25136622  0.60605717
   0.33333333  0.33333333  0.40830017
   0.74932795  0.24982843  0.60341021
   0.83333333  0.58333333  0.40830017
   0.83333333  0.83333333  0.40830017
   0.91630974  0.16734706  0.50851604
   0.74799393  0.00199844  0.60439446
   0.83333333  0.33333333  0.40830017
   0.66757663  0.41762327  0.50609946
   0.66864725  0.66606248  0.50592032
   0.58333333  0.83333333  0.40830017
   0.58333333  0.58333333  0.40830017
   0.91552746  0.66627283  0.50670380
Direct configuration=    16
   0.08333333  0.08333333  0.40830017
  -0.00241160  0.74999889  0.61418081
   0.08333333  0.58333333  0.40830017
   0.91598214  0.91467742  0.50799696
   0.24943038  0.00404293  0.61562632
  -0.00390353  0.00483411  0.61221529
   0.08333333  0.33333333  0.40830017
   0.91410347  0.41839262  0.50699764
   0.74907024  0.75237113  0.60656615
   0.24904647  0.75059578  0.61734908
   0.33333333  0.58333333  0.40830017
   0.16547469  0.66583496  0.51019713
   0.16681736  0.16678539  0.51007174
   0.16725831  0.91572502  0.50848751
   0.41713878  0.16637971  0.50581971
   0.41768079  0.41580213  0.50812305
   0.42139048  0.66531524  0.50761168
   0.50190580  0.49595061  0.61217906
   0.42056044  0.91470954  0.50599357
   0.50004211  0.75209838  0.61266845
   0.83333333  0.08333333  0.40830017
   0.66791184  0.16651294  0.50701752
   0.75160444  0.49793780  0.60887603
   0.25011219  0.49586651  0.61317119
   0.58333333  0.33333333  0.40830017
   0.49895207  0.00240490  0.60345711
   0.08333333  0.83333333  0.40830017
   0.58333333  0.08333333  0.40830017
   0.16598313  0.41820202  0.50847133
   0.33333333  0.83333333  0.40830017
   0.33333333  0.08333333  0.40830017
   0.25084941  0.25004143  0.60549440
   0.00150097  0.49836195  0.60374952
   0.66927342  0.91279748  0.50542089
   0.50056637  0.24714550  0.60541739
  -0.00003874  0.25126569  0.60614067
   0.33333333  0.33333333  0.40830017
   0.74927551  0.24978773  0.60354655
   0.83333333  0.58333333  0.40830017
   0.83333333  0.83333333  0.40830017
   0.91629262  0.16741675  0.50858677
   0.74797168  0.00208057  0.60445656
   0.83333333  0.33333333  0.40830017
   0.66761936  0.41755282  0.50614239
   0.66864076  0.66600404  0.50595288
   0.58333333  0.83333333  0.40830017
   0.58333333  0.58333333  0.40830017
   0.91561388  0.66610461  0.50670264
Direct configuration=    17
   0.08333333  0.08333333  0.40830017
  -0.00243337  0.75006771  0.61437987
   0.08333333  0.58333333  0.40830017
   0.91630117  0.91449903  0.50813318