  48  48   0   0
  0.5349325E+02  0.1100258E-08  0.1100258E-08  0.2449179E-08  0.3500000E-15
  1.000000000000000E-004
  CAR 
 unknown system                          
      6.36683730     -9.58886667  301     -1.08987146      1.00000000
     -9.589  0.0000E+00  0.0000E+00
     -9.536  0.0000E+00  0.0000E+00
     -9.482  0.0000E+00  0.0000E+00
     -9.429  0.0000E+00  0.0000E+00
     -9.376  0.0000E+00  0.0000E+00
     -9.323  0.0000E+00  0.0000E+00
     -9.270  0.0000E+00  0.0000E+00
     -9.217  0.0000E+00  0.0000E+00
     -9.163  0.6958E-17  0.3701E-18
     -9.110  0.2546E-14  0.1358E-15
     -9.057  0.5545E-12  0.2963E-13
     -9.004  0.6927E-10  0.3714E-11
     -8.951  0.4974E-08  0.2683E-09
     -8.897  0.2056E-06  0.1120E-07
     -8.844  0.4905E-05  0.2721E-06
     -8.791  0.6765E-04  0.3870E-05
     -8.738  0.5408E-03  0.3263E-04
     -8.685  0.2511E-02  0.1662E-03
     -8.632  0.6792E-02  0.5274E-03
     -8.578  0.1079E-01  0.1101E-02
     -8.525  0.1057E-01  0.1663E-02
     -8.472  0.8438E-02  0.2112E-02
     -8.419  0.9377E-02  0.2611E-02
     -8.366  0.1125E-01  0.3209E-02
     -8.312  0.9072E-02  0.3692E-02
     -8.259  0.4357E-02  0.3923E-02
     -8.206  0.1230E-02  0.3989E-02
     -8.153  0.2829E-03  0.4004E-02
     -8.100  0.6228E-03  0.4037E-02
     -8.046  0.2770E-02  0.4184E-02
     -7.993  0.8237E-02  0.4622E-02
     -7.940  0.1624E-01  0.5486E-02
     -7.887  0.2185E-01  0.6648E-02
     -7.834  0.2167E-01  0.7801E-02
     -7.781  0.1879E-01  0.8800E-02
     -7.727  0.1778E-01  0.9746E-02
     -7.674  0.1985E-01  0.1080E-01
     -7.621  0.2195E-01  0.1197E-01
     -7.568  0.1969E-01  0.1302E-01
     -7.515  0.1429E-01  0.1378E-01
     -7.461  0.1157E-01  0.1439E-01
     -7.408  0.1348E-01  0.1511E-01
     -7.355  0.1681E-01  0.1600E-01
     -7.302  0.1917E-01  0.1702E-01
     -7.249  0.2075E-01  0.1813E-01
     -7.196  0.2231E-01  0.1931E-01
     -7.142  0.2576E-01  0.2068E-01
     -7.089  0.3357E-01  0.2247E-01
     -7.036  0.4360E-01  0.2479E-01
     -6.983  0.5063E-01  0.2748E-01
     -6.930  0.5391E-01  0.3035E-01
     -6.876  0.5683E-01  0.3337E-01
     -6.823  0.6296E-01  0.3672E-01
     -6.770  0.7241E-01  0.4057E-01
     -6.717  0.8070E-01  0.4486E-01
     -6.664  0.8543E-01  0.4940E-01
     -6.610  0.8866E-01  0.5412E-01
     -6.557  0.9301E-01  0.5907E-01
     -6.504  0.9937E-01  0.6435E-01
     -6.451  0.1062E+00  0.7000E-01
     -6.398  0.1108E+00  0.7589E-01
     -6.345  0.1127E+00  0.8189E-01
     -6.291  0.1154E+00  0.8803E-01
     -6.238  0.1238E+00  0.9461E-01
     -6.185  0.1373E+00  0.1019E+00
     -6.132  0.1488E+00  0.1098E+00
     -6.079  0.1554E+00  0.1181E+00
     -6.025  0.1597E+00  0.1266E+00
     -5.972  0.1635E+00  0.1353E+00
     -5.919  0.1670E+00  0.1442E+00
     -5.866  0.1690E+00  0.1532E+00
     -5.813  0.1671E+00  0.1620E+00
     -5.759  0.1611E+00  0.1706E+00
     -5.706  0.1545E+00  0.1788E+00
     -5.653  0.1488E+00  0.1867E+00
     -5.600  0.1456E+00  0.1945E+00
     -5.547  0.1463E+00  0.2023E+00
     -5.494  0.1511E+00  0.2103E+00
     -5.440  0.1585E+00  0.2187E+00
     -5.387  0.1642E+00  0.2275E+00
     -5.334  0.1646E+00  0.2362E+00
     -5.281  0.1603E+00  0.2448E+00
     -5.228  0.1561E+00  0.2531E+00
     -5.174  0.1563E+00  0.2614E+00
     -5.121  0.1606E+00  0.2699E+00
     -5.068  0.1647E+00  0.2787E+00
     -5.015  0.1655E+00  0.2875E+00
     -4.962  0.1656E+00  0.2963E+00
     -4.909  0.1690E+00  0.3053E+00
     -4.855  0.1741E+00  0.3145E+00
     -4.802  0.1762E+00  0.3239E+00
     -4.749  0.1751E+00  0.3332E+00
     -4.696  0.1753E+00  0.3425E+00
     -4.643  0.1783E+00  0.3520E+00
     -4.589  0.1797E+00  0.3616E+00
     -4.536  0.1770E+00  0.3710E+00
     -4.483  0.1751E+00  0.3803E+00
     -4.430  0.1783E+00  0.3898E+00
     -4.377  0.1822E+00  0.3995E+00
     -4.323  0.1834E+00  0.4092E+00
     -4.270  0.1850E+00  0.4191E+00
     -4.217  0.1885E+00  0.4291E+00
     -4.164  0.1896E+00  0.4392E+00
     -4.111  0.1853E+00  0.4490E+00
     -4.058  0.1793E+00  0.4586E+00
     -4.004  0.1774E+00  0.4680E+00
     -3.951  0.1815E+00  0.4777E+00
     -3.898  0.1878E+00  0.4876E+00
     -3.845  0.1913E+00  0.4978E+00
     -3.792  0.1924E+00  0.5081E+00
     -3.738  0.1958E+00  0.5185E+00
     -3.685  0.2016E+00  0.5292E+00
     -3.632  0.2049E+00  0.5401E+00
     -3.579  0.2038E+00  0.5509E+00
     -3.526  0.2022E+00  0.5617E+00
     -3.473  0.2033E+00  0.5725E+00
     -3.419  0.2044E+00  0.5834E+00
     -3.366  0.2040E+00  0.5942E+00
     -3.313  0.2023E+00  0.6050E+00
     -3.260  0.1984E+00  0.6155E+00
     -3.207  0.1933E+00  0.6258E+00
     -3.153  0.1892E+00  0.6359E+00
     -3.100  0.1862E+00  0.6458E+00
     -3.047  0.1839E+00  0.6556E+00
     -2.994  0.1828E+00  0.6653E+00
     -2.941  0.1821E+00  0.6750E+00
     -2.887  0.1804E+00  0.6846E+00
     -2.834  0.1767E+00  0.6940E+00
     -2.781  0.1718E+00  0.7031E+00
     -2.728  0.1651E+00  0.7119E+00
     -2.675  0.1566E+00  0.7202E+00
     -2.622  0.1509E+00  0.7282E+00
     -2.568  0.1538E+00  0.7364E+00
     -2.515  0.1639E+00  0.7451E+00
     -2.462  0.1738E+00  0.7544E+00
     -2.409  0.1795E+00  0.7639E+00
     -2.356  0.1827E+00  0.7736E+00
     -2.302  0.1856E+00  0.7835E+00
     -2.249  0.1865E+00  0.7934E+00
     -2.196  0.1845E+00  0.8032E+00
     -2.143  0.1823E+00  0.8129E+00
     -2.090  0.1820E+00  0.8226E+00
     -2.037  0.1839E+00  0.8324E+00
     -1.983  0.1879E+00  0.8424E+00
     -1.930  0.1927E+00  0.8526E+00
     -1.877  0.1971E+00  0.8631E+00
     -1.824  0.2006E+00  0.8738E+00
     -1.771  0.2022E+00  0.8845E+00
     -1.717  0.2024E+00  0.8953E+00
     -1.664  0.2040E+00  0.9061E+00
     -1.611  0.2071E+00  0.9172E+00
     -1.558  0.2079E+00  0.9282E+00
     -1.505  0.2054E+00  0.9391E+00
     -1.451  0.2017E+00  0.9499E+00
     -1.398  0.1955E+00  0.9603E+00
     -1.345  0.1855E+00  0.9701E+00
     -1.292  0.1748E+00  0.9794E+00
     -1.239  0.1656E+00  0.9882E+00
     -1.186  0.1530E+00  0.9964E+00
     -1.132  0.1322E+00  0.1003E+01
     -1.079  0.1056E+00  0.1009E+01
     -1.026  0.7914E-01  0.1013E+01
     -0.973  0.5737E-01  0.1016E+01
     -0.920  0.4098E-01  0.1018E+01
     -0.866  0.2956E-01  0.1020E+01
     -0.813  0.2315E-01  0.1021E+01
     -0.760  0.1922E-01  0.1022E+01
     -0.707  0.1569E-01  0.1023E+01
     -0.654  0.1351E-01  0.1024E+01
     -0.600  0.1475E-01  0.1025E+01
     -0.547  0.2024E-01  0.1026E+01
     -0.494  0.2927E-01  0.1027E+01
     -0.441  0.3991E-01  0.1029E+01
     -0.388  0.4630E-01  0.1032E+01
     -0.335  0.4293E-01  0.1034E+01
     -0.281  0.3484E-01  0.1036E+01
     -0.228  0.3318E-01  0.1038E+01
     -0.175  0.3779E-01  0.1040E+01
     -0.122  0.3874E-01  0.1042E+01
     -0.069  0.3463E-01  0.1044E+01
     -0.015  0.3303E-01  0.1045E+01
      0.038  0.3551E-01  0.1047E+01
      0.091  0.3812E-01  0.1049E+01
      0.144  0.4032E-01  0.1051E+01
      0.197  0.4126E-01  0.1054E+01
      0.250  0.3922E-01  0.1056E+01
      0.304  0.3631E-01  0.1058E+01
      0.357  0.3393E-01  0.1059E+01
      0.410  0.3154E-01  0.1061E+01
      0.463  0.3098E-01  0.1063E+01
      0.516  0.3228E-01  0.1065E+01
      0.570  0.3238E-01  0.1066E+01
      0.623  0.3241E-01  0.1068E+01
      0.676  0.3609E-01  0.1070E+01
      0.729  0.4204E-01  0.1072E+01
      0.782  0.4364E-01  0.1074E+01
      0.836  0.3680E-01  0.1076E+01
      0.889  0.2607E-01  0.1078E+01
      0.942  0.1982E-01  0.1079E+01
      0.995  0.1959E-01  0.1080E+01
      1.048  0.2078E-01  0.1081E+01
      1.101  0.2046E-01  0.1082E+01
      1.155  0.1852E-01  0.1083E+01
      1.208  0.1554E-01  0.1084E+01
      1.261  0.1317E-01  0.1085E+01
      1.314  0.1381E-01  0.1085E+01
      1.367  0.1837E-01  0.1086E+01
      1.421  0.2521E-01  0.1088E+01
      1.474  0.3073E-01  0.1089E+01
      1.527  0.3246E-01  0.1091E+01
      1.580  0.3161E-01  0.1093E+01
      1.633  0.3179E-01  0.1094E+01
      1.686  0.3558E-01  0.1096E+01
      1.740  0.4031E-01  0.1098E+01
      1.793  0.3947E-01  0.1101E+01
      1.846  0.3138E-01  0.1102E+01
      1.899  0.2060E-01  0.1103E+01
      1.952  0.1240E-01  0.1104E+01
      2.006  0.1026E-01  0.1104E+01
      2.059  0.1247E-01  0.1105E+01
      2.112  0.1452E-01  0.1106E+01
      2.165  0.1756E-01  0.1107E+01
      2.218  0.2498E-01  0.1108E+01
      2.272  0.3499E-01  0.1110E+01
      2.325  0.4347E-01  0.1112E+01
      2.378  0.4840E-01  0.1115E+01
      2.431  0.4979E-01  0.1118E+01
      2.484  0.4795E-01  0.1120E+01
      2.537  0.4500E-01  0.1123E+01
      2.591  0.4542E-01  0.1125E+01
      2.644  0.4983E-01  0.1128E+01
      2.697  0.5443E-01  0.1130E+01
      2.750  0.5445E-01  0.1133E+01
      2.803  0.4529E-01  0.1136E+01
      2.857  0.2986E-01  0.1137E+01
      2.910  0.1857E-01  0.1138E+01
      2.963  0.1547E-01  0.1139E+01
      3.016  0.1613E-01  0.1140E+01
      3.069  0.1902E-01  0.1141E+01
      3.123  0.2438E-01  0.1142E+01
      3.176  0.2766E-01  0.1144E+01
      3.229  0.2438E-01  0.1145E+01
      3.282  0.1675E-01  0.1146E+01
      3.335  0.1059E-01  0.1147E+01
      3.388  0.8558E-02  0.1147E+01
      3.442  0.9842E-02  0.1148E+01
      3.495  0.1316E-01  0.1148E+01
      3.548  0.1735E-01  0.1149E+01
      3.601  0.2233E-01  0.1150E+01
      3.654  0.2970E-01  0.1152E+01
      3.708  0.3808E-01  0.1154E+01
      3.761  0.4273E-01  0.1156E+01
      3.814  0.4049E-01  0.1158E+01
      3.867  0.3235E-01  0.1160E+01
      3.920  0.2404E-01  0.1161E+01
      3.973  0.2195E-01  0.1163E+01
      4.027  0.2680E-01  0.1164E+01
      4.080  0.3077E-01  0.1166E+01
      4.133  0.2839E-01  0.1167E+01
      4.186  0.2452E-01  0.1168E+01
      4.239  0.2368E-01  0.1170E+01
      4.293  0.2278E-01  0.1171E+01
      4.346  0.2001E-01  0.1172E+01
      4.399  0.1969E-01  0.1173E+01
      4.452  0.2378E-01  0.1174E+01
      4.505  0.3025E-01  0.1176E+01
      4.559  0.3918E-01  0.1178E+01
      4.612  0.5043E-01  0.1181E+01
      4.665  0.5808E-01  0.1184E+01
      4.718  0.5583E-01  0.1187E+01
      4.771  0.4751E-01  0.1189E+01
      4.824  0.4229E-01  0.1191E+01
      4.878  0.4371E-01  0.1194E+01
      4.931  0.5058E-01  0.1197E+01
      4.984  0.6072E-01  0.1200E+01
      5.037  0.7074E-01  0.1203E+01
      5.090  0.7504E-01  0.1207E+01
      5.144  0.7076E-01  0.1211E+01
      5.197  0.6381E-01  0.1215E+01
      5.250  0.5841E-01  0.1218E+01
      5.303  0.4978E-01  0.1220E+01
      5.356  0.3554E-01  0.1222E+01
      5.409  0.2026E-01  0.1223E+01
      5.463  0.8721E-02  0.1224E+01
      5.516  0.2594E-02  0.1224E+01
      5.569  0.4929E-03  0.1224E+01
      5.622  0.5697E-04  0.1224E+01
      5.675  0.3904E-05  0.1224E+01
      5.729  0.1565E-06  0.1224E+01
      5.782  0.3646E-08  0.1224E+01
      5.835  0.4914E-10  0.1224E+01
      5.888  0.3820E-12  0.1224E+01
      5.941  0.1710E-14  0.1224E+01
      5.995  0.2783E-17  0.1224E+01
      6.048  0.0000E+00  0.1224E+01
      6.101  0.0000E+00  0.1224E+01
      6.154  0.0000E+00  0.1224E+01
      6.207  0.0000E+00  0.1224E+01
      6.260  0.0000E+00  0.1224E+01
      6.314  0.0000E+00  0.1224E+01
      6.367  0.0000E+00  0.1224E+01
