<?xml version="1.0" encoding="ISO-8859-1"?>
<modeling>
 <generator>
  <i name="program" type="string">vasp </i>
  <i name="version" type="string">5.4.1  </i>
  <i name="subversion" type="string">24Jun15 (build Mar 14 2019 10:18:33) complex                          parallel </i>
  <i name="platform" type="string">INTEL-19.0.2+OPENMPI-3.1.3 </i>
  <i name="date" type="string">2022 07 16 </i>
  <i name="time" type="string">14:59:53 </i>
 </generator>
 <incar>
  <i type="int" name="ISTART">     0</i>
  <i type="string" name="PREC">normal</i>
  <i type="string" name="ALGO"> Fast</i>
  <i type="int" name="NELM">   500</i>
  <i type="int" name="IBRION">     2</i>
  <i type="int" name="NFREE">     2</i>
  <i name="EDIFF">      0.00000100</i>
  <i name="EDIFFG">     -0.02000000</i>
  <i type="int" name="NSW">   500</i>
  <i type="int" name="ISIF">     0</i>
  <i type="int" name="ISYM">     2</i>
  <i name="ENCUT">    400.00000000</i>
  <i name="POTIM">      0.35000000</i>
  <i type="string" name="LREAL"> Auto</i>
  <i type="logical" name="LPLANE"> T  </i>
  <i type="int" name="ISMEAR">     0</i>
  <i name="SIGMA">      0.10000000</i>
  <i type="int" name="NWRITE">     1</i>
  <i type="logical" name="LWAVE"> F  </i>
  <i type="logical" name="LCHARG"> F  </i>
  <i type="logical" name="LVTOT"> F  </i>
  <i type="logical" name="LORBIT"> F  </i>
  <i type="logical" name="LAECHG"> F  </i>
  <v type="int" name="KPOINT_BSE">    -1     0     0     0</v>
  <i type="int" name="NELM">   500</i>
  <i type="string" name="GGA"> PE          ! optPBE-vdW XC-functional</i>
  <i type="int" name="VOSKOWN">     1</i>
  <i type="logical" name="LDIPOL"> T  </i>
  <i type="logical" name="LMONO"> F  </i>
  <i type="int" name="IDIPOL">     3</i>
  <v name="DIPOL">      0.00000000      0.00000000      0.50000000</v>
 </incar>
 <kpoints>
  <generation param="Monkhorst-Pack">
   <v type="int" name="divisions">       2        2        1 </v>
   <v name="usershift">      0.00000000       0.00000000       0.00000000 </v>
   <v name="genvec1">      0.50000000      -0.00000000       0.00000000 </v>
   <v name="genvec2">      0.00000000       0.50000000       0.00000000 </v>
   <v name="genvec3">      0.00000000       0.00000000       1.00000000 </v>
   <v name="shift">      0.50000000       0.50000000       0.00000000 </v>
  </generation>
  <varray name="kpointlist" >
   <v>       0.25000000       0.25000000       0.00000000 </v>
   <v>       0.00000000       0.25000000       0.00000000 </v>
   <v>      -0.25000000       0.00000000       0.00000000 </v>
   <v>      -0.25000000       0.25000000       0.00000000 </v>
   <v>       0.50000000      -0.25000000       0.00000000 </v>
   <v>      -0.25000000       0.50000000       0.00000000 </v>
  </varray>
  <varray name="weights" >
   <v>       0.16666667 </v>
   <v>       0.16666667 </v>
   <v>       0.16666667 </v>
   <v>       0.16666667 </v>
   <v>       0.16666667 </v>
   <v>       0.16666667 </v>
  </varray>
 </kpoints>
 <parameters>
  <separator name="general" >
   <i type="string" name="SYSTEM">unknown system</i>
   <i type="logical" name="LCOMPAT"> F  </i>
  </separator>
  <separator name="electronic" >
   <i type="string" name="PREC">normal</i>
   <i name="ENMAX">    400.00000000</i>
   <i name="ENAUG">    416.23000000</i>
   <i name="EDIFF">      0.00000100</i>
   <i type="int" name="IALGO">    68</i>
   <i type="int" name="IWAVPR">    11</i>
   <i type="int" name="NBANDS">   306</i>
   <i name="NELECT">    504.00000000</i>
   <i type="int" name="TURBO">     0</i>
   <i type="int" name="IRESTART">     0</i>
   <i type="int" name="NREBOOT">     0</i>
   <i type="int" name="NMIN">     0</i>
   <i name="EREF">      0.00000000</i>
   <separator name="electronic smearing" >
    <i type="int" name="ISMEAR">     0</i>
    <i name="SIGMA">      0.10000000</i>
    <i name="KSPACING">      0.50000000</i>
    <i type="logical" name="KGAMMA"> T  </i>
   </separator>
   <separator name="electronic projectors" >
    <i type="logical" name="LREAL"> T  </i>
    <v name="ROPT">     -0.00050000     -0.00050000</v>
    <i type="int" name="LMAXPAW">  -100</i>
    <i type="int" name="LMAXMIX">     2</i>
    <i type="logical" name="NLSPLINE"> F  </i>
   </separator>
   <separator name="electronic startup" >
    <i type="int" name="ISTART">     0</i>
    <i type="int" name="ICHARG">     2</i>
    <i type="int" name="INIWAV">     1</i>
   </separator>
   <separator name="electronic spin" >
    <i type="int" name="ISPIN">     1</i>
    <i type="logical" name="LNONCOLLINEAR"> F  </i>
    <v name="MAGMOM">      1.00000000      1.00000000      1.00000000      1.00000000      1.00000000      1.00000000      1.00000000      1.00000000      1.00000000      1.00000000      1.00000000      1.00000000      1.00000000      1.00000000      1.00000000      1.00000000      1.00000000      1.00000000      1.00000000      1.00000000
      1.00000000      1.00000000      1.00000000      1.00000000      1.00000000      1.00000000      1.00000000      1.00000000      1.00000000      1.00000000      1.00000000      1.00000000      1.00000000      1.00000000      1.00000000      1.00000000      1.00000000      1.00000000      1.00000000      1.00000000
      1.00000000      1.00000000      1.00000000      1.00000000      1.00000000      1.00000000      1.00000000      1.00000000</v>
    <i name="NUPDOWN">     -1.00000000</i>
    <i type="logical" name="LSORBIT"> F  </i>
    <v name="SAXIS">      0.00000000      0.00000000      1.00000000</v>
    <i type="logical" name="LSPIRAL"> F  </i>
    <v name="QSPIRAL">      0.00000000      0.00000000      0.00000000</v>
    <i type="logical" name="LZEROZ"> F  </i>
   </separator>
   <separator name="electronic exchange-correlation" >
    <i type="logical" name="LASPH"> F  </i>
    <i type="logical" name="LMETAGGA"> F  </i>
   </separator>
   <separator name="electronic convergence" >
    <i type="int" name="NELM">   500</i>
    <i type="int" name="NELMDL">    -5</i>
    <i type="int" name="NELMIN">     2</i>
    <i name="ENINI">    400.00000000</i>
    <separator name="electronic convergence detail" >
     <i type="logical" name="LDIAG"> T  </i>
     <i type="logical" name="LSUBROT"> F  </i>
     <i name="WEIMIN">      0.00100000</i>
     <i name="EBREAK">      0.00000000</i>
     <i name="DEPER">      0.30000000</i>
     <i type="int" name="NRMM">     4</i>
     <i name="TIME">      0.40000000</i>
    </separator>
   </separator>
   <separator name="electronic mixer" >
    <i name="AMIX">      0.40000000</i>
    <i name="BMIX">      1.00000000</i>
    <i name="AMIN">      0.10000000</i>
    <i name="AMIX_MAG">      1.60000000</i>
    <i name="BMIX_MAG">      1.00000000</i>
    <separator name="electronic mixer details" >
     <i type="int" name="IMIX">     4</i>
     <i type="logical" name="MIXFIRST"> F  </i>
     <i type="int" name="MAXMIX">   -45</i>
     <i name="WC">    100.00000000</i>
     <i type="int" name="INIMIX">     1</i>
     <i type="int" name="MIXPRE">     1</i>
     <i type="int" name="MREMOVE">     5</i>
    </separator>
   </separator>
   <separator name="electronic dipolcorrection" >
    <i type="logical" name="LDIPOL"> T  </i>
    <i type="logical" name="LMONO"> F  </i>
    <i type="int" name="IDIPOL">     3</i>
    <i name="EPSILON">      1.00000000</i>
    <v name="DIPOL">      0.00000000      0.00000000      0.50000000</v>
    <i name="EFIELD">      0.00000000</i>
   </separator>
  </separator>
  <separator name="grids" >
   <i type="int" name="NGX">    54</i>
   <i type="int" name="NGY">    54</i>
   <i type="int" name="NGZ">   120</i>
   <i type="int" name="NGXF">   108</i>
   <i type="int" name="NGYF">   108</i>
   <i type="int" name="NGZF">   240</i>
   <i type="logical" name="ADDGRID"> F  </i>
  </separator>
  <separator name="ionic" >
   <i type="int" name="NSW">   500</i>
   <i type="int" name="IBRION">     2</i>
   <i type="int" name="ISIF">     0</i>
   <i name="PSTRESS">      0.00000000</i>
   <i name="EDIFFG">     -0.02000000</i>
   <i type="int" name="NFREE">     2</i>
   <i name="POTIM">      0.35000000</i>
   <i name="SMASS">     -3.00000000</i>
   <i name="SCALEE">      1.00000000</i>
  </separator>
  <separator name="ionic md" >
   <i name="TEBEG">      0.00010000</i>
   <i name="TEEND">      0.00010000</i>
   <i type="int" name="NBLOCK">     1</i>
   <i type="int" name="KBLOCK">   500</i>
   <i type="int" name="NPACO">   256</i>
   <i name="APACO">     16.00000000</i>
  </separator>
  <separator name="symmetry" >
   <i type="int" name="ISYM">     2</i>
   <i name="SYMPREC">      0.00001000</i>
  </separator>
  <separator name="dos" >
   <i type="logical" name="LORBIT"> F  </i>
   <v name="RWIGS">     -1.00000000     -1.00000000</v>
   <i type="int" name="NEDOS">   301</i>
   <i name="EMIN">     10.00000000</i>
   <i name="EMAX">    -10.00000000</i>
   <i name="EFERMI">      0.00000000</i>
  </separator>
  <separator name="writing" >
   <i type="int" name="NWRITE">     1</i>
   <i type="logical" name="LWAVE"> F  </i>
   <i type="logical" name="LCHARG"> F  </i>
   <i type="logical" name="LPARD"> F  </i>
   <i type="logical" name="LVTOT"> F  </i>
   <i type="logical" name="LVHAR"> F  </i>
   <i type="logical" name="LELF"> F  </i>
   <i type="logical" name="LOPTICS"> F  </i>
   <v name="STM">      0.00000000      0.00000000      0.00000000      0.00000000      0.00000000      0.00000000      0.00000000</v>
  </separator>
  <separator name="performance" >
   <i type="int" name="NPAR">     6</i>
   <i type="int" name="NSIM">     4</i>
   <i type="int" name="NBLK">    -1</i>
   <i type="logical" name="LPLANE"> T  </i>
   <i type="logical" name="LSCALAPACK"> T  </i>
   <i type="logical" name="LSCAAWARE"> F  </i>
   <i type="logical" name="LSCALU"> F  </i>
   <i type="logical" name="LASYNC"> F  </i>
   <i type="logical" name="LORBITALREAL"> F  </i>
  </separator>
  <separator name="miscellaneous" >
   <i type="int" name="IDIOT">     3</i>
   <i type="logical" name="LMUSIC"> F  </i>
   <v name="POMASS">    196.96600000    106.42000000</v>
   <v name="DARWINR">      0.00000000      0.00000000</v>
   <v name="DARWINV">      1.00000000      1.00000000</v>
   <i type="logical" name="LCORR"> T  </i>
  </separator>
  <i type="logical" name="GGA_COMPAT"> T  </i>
  <i type="logical" name="LBERRY"> F  </i>
  <i type="int" name="ICORELEVEL">     0</i>
  <i type="logical" name="LDAU"> F  </i>
  <i type="int" name="I_CONSTRAINED_M">     0</i>
  <separator name="electronic exchange-correlation" >
   <i type="string" name="GGA">PE</i>
   <i type="int" name="VOSKOWN">     1</i>
   <i type="logical" name="LHFCALC"> F  </i>
   <i type="string" name="PRECFOCK"></i>
   <i type="logical" name="LSYMGRAD"> F  </i>
   <i type="logical" name="LHFONE"> F  </i>
   <i type="logical" name="LRHFCALC"> F  </i>
   <i type="logical" name="LTHOMAS"> F  </i>
   <i type="logical" name="LMODELHF"> F  </i>
   <i name="ENCUT4O">     -1.00000000</i>
   <i type="int" name="EXXOEP">     0</i>
   <i type="int" name="FOURORBIT">     0</i>
   <i name="AEXX">      0.00000000</i>
   <i name="HFALPHA">      0.00000000</i>
   <i name="MCALPHA">      0.00000000</i>
   <i name="ALDAX">      1.00000000</i>
   <i name="AGGAX">      1.00000000</i>
   <i name="ALDAC">      1.00000000</i>
   <i name="AGGAC">      1.00000000</i>
   <i type="int" name="NKREDX">     1</i>
   <i type="int" name="NKREDY">     1</i>
   <i type="int" name="NKREDZ">     1</i>
   <i type="logical" name="SHIFTRED"> F  </i>
   <i type="logical" name="ODDONLY"> F  </i>
   <i type="logical" name="EVENONLY"> F  </i>
   <i type="int" name="LMAXFOCK">     0</i>
   <i type="int" name="NMAXFOCKAE">     0</i>
   <i type="logical" name="LFOCKAEDFT"> F  </i>
   <i name="HFSCREEN">      0.00000000</i>
   <i name="HFSCREENC">      0.00000000</i>
   <i type="int" name="NBANDSGWLOW">     0</i>
  </separator>
  <separator name="vdW DFT" >
   <i type="logical" name="LUSE_VDW"> F  </i>
   <i name="Zab_VDW">     -0.84910000</i>
   <i name="PARAM1">      0.12340000</i>
   <i name="PARAM2">      1.00000000</i>
   <i name="PARAM3">      0.00000000</i>
  </separator>
  <separator name="model GW" >
   <i type="int" name="MODEL_GW">     0</i>
   <i name="MODEL_EPS0">     32.09595293</i>
   <i name="MODEL_ALPHA">      1.00000000</i>
  </separator>
  <separator name="linear response parameters" >
   <i type="logical" name="LEPSILON"> F  </i>
   <i type="logical" name="LRPA"> F  </i>
   <i type="logical" name="LNABLA"> F  </i>
   <i type="logical" name="LVEL"> F  </i>
   <i type="int" name="KINTER">     0</i>
   <i name="CSHIFT">      0.10000000</i>
   <i name="OMEGAMAX">     -1.00000000</i>
   <i name="DEG_THRESHOLD">      0.00200000</i>
  </separator>
  <separator name="orbital magnetization" >
   <i type="logical" name="NUCIND"> F  </i>
   <v name="MAGPOS">      0.00000000      0.00000000      0.00000000</v>
   <i type="logical" name="LNICSALL"> T  </i>
   <i type="logical" name="ORBITALMAG"> F  </i>
   <i type="logical" name="LMAGBLOCH"> F  </i>
   <i type="logical" name="LCHIMAG"> F  </i>
   <i type="logical" name="LGAUGE"> T  </i>
   <i type="int" name="MAGATOM">     0</i>
   <v name="MAGDIPOL">      0.00000000      0.00000000      0.00000000</v>
   <v name="AVECCONST">      0.00000000      0.00000000      0.00000000</v>
  </separator>
  <separator name="response functions" >
   <i type="logical" name="LADDER"> F  </i>
   <i type="logical" name="LFXC"> F  </i>
   <i type="logical" name="LHARTREE"> T  </i>
   <i type="int" name="IBSE">     0</i>
   <v type="int" name="KPOINT">    -1     0     0     0</v>
   <i type="logical" name="LTCTE"> F  </i>
   <i type="logical" name="LTETE"> F  </i>
   <i type="logical" name="LTRIPLET"> F  </i>
   <i type="logical" name="LFXCEPS"> F  </i>
   <i type="logical" name="LFXHEG"> F  </i>
   <i type="int" name="NATURALO">     0</i>
   <i type="logical" name="L2ORDER"> F  </i>
   <i type="logical" name="LUSEW"> F  </i>
   <i name="ENCUTGW">     -2.00000000</i>
   <i name="ENCUTGWSOFT">     -2.00000000</i>
   <i name="ENCUTLF">     -1.00000000</i>
   <i type="int" name="LMAXMP2">    -1</i>
   <i name="SCISSOR">      0.00000000</i>
   <i type="int" name="NOMEGA">     0</i>
   <i type="int" name="NOMEGAR">     0</i>
   <i type="int" name="NBANDSGW">    -1</i>
   <i type="int" name="NBANDSO">    -1</i>
   <i type="int" name="NBANDSV">    -1</i>
   <i type="int" name="NELM">   500</i>
   <i type="int" name="NELMHF">     1</i>
   <i type="int" name="DIM">     3</i>
   <i type="int" name="ANTIRES">     0</i>
   <i name="OMEGAMAX">    -30.00000000</i>
   <i name="OMEGAMIN">    -30.00000000</i>
   <i name="OMEGATL">   -200.00000000</i>
   <i type="int" name="OMEGAGRID">     0</i>
   <i name="CSHIFT">     -0.10000000</i>
   <i type="logical" name="SELFENERGY"> F  </i>
   <i type="logical" name="LSPECTRAL"> F  </i>
   <i type="logical" name="LSPECTRALGW"> F  </i>
   <i type="logical" name="LSINGLES"> F  </i>
   <i type="logical" name="LFERMIGW"> F  </i>
   <i type="logical" name="ODDONLYGW"> F  </i>
   <i type="logical" name="EVENONLYGW"> F  </i>
   <i type="int" name="NKREDLFX">     1</i>
   <i type="int" name="NKREDLFY">     1</i>
   <i type="int" name="NKREDLFZ">     1</i>
   <i type="int" name="MAXMEM">  1800</i>
   <i type="int" name="TELESCOPE">     0</i>
   <i type="int" name="TAUPAR">     1</i>
   <i type="int" name="OMEGAPAR">    -1</i>
   <i name="LAMBDA">      1.00000000</i>
  </separator>
  <separator name="External order field" >
   <i name="OFIELD_KAPPA">      0.00000000</i>
   <v name="OFIELD_K">      0.00000000      0.00000000      0.00000000</v>
   <i name="OFIELD_Q6_NEAR">      0.00000000</i>
   <i name="OFIELD_Q6_FAR">      0.00000000</i>
   <i name="OFIELD_A">      0.00000000</i>
  </separator>
 </parameters>
 <atominfo>
  <atoms>      48 </atoms>
  <types>       2 </types>
  <array name="atoms" >
   <dimension dim="1">ion</dimension>
   <field type="string">element</field>
   <field type="int">atomtype</field>
   <set>
    <rc><c>Au</c><c>   1</c></rc>
    <rc><c>Au</c><c>   1</c></rc>
    <rc><c>Au</c><c>   1</c></rc>
    <rc><c>Au</c><c>   1</c></rc>
    <rc><c>Au</c><c>   1</c></rc>
    <rc><c>Au</c><c>   1</c></rc>
    <rc><c>Au</c><c>   1</c></rc>
    <rc><c>Au</c><c>   1</c></rc>
    <rc><c>Au</c><c>   1</c></rc>
    <rc><c>Au</c><c>   1</c></rc>
    <rc><c>Au</c><c>   1</c></rc>
    <rc><c>Au</c><c>   1</c></rc>
    <rc><c>Au</c><c>   1</c></rc>
    <rc><c>Au</c><c>   1</c></rc>
    <rc><c>Au</c><c>   1</c></rc>
    <rc><c>Au</c><c>   1</c></rc>
    <rc><c>Au</c><c>   1</c></rc>
    <rc><c>Au</c><c>   1</c></rc>
    <rc><c>Au</c><c>   1</c></rc>
    <rc><c>Au</c><c>   1</c></rc>
    <rc><c>Au</c><c>   1</c></rc>
    <rc><c>Au</c><c>   1</c></rc>
    <rc><c>Au</c><c>   1</c></rc>
    <rc><c>Au</c><c>   1</c></rc>
    <rc><c>Pd</c><c>   2</c></rc>
    <rc><c>Pd</c><c>   2</c></rc>
    <rc><c>Pd</c><c>   2</c></rc>
    <rc><c>Pd</c><c>   2</c></rc>
    <rc><c>Pd</c><c>   2</c></rc>
    <rc><c>Pd</c><c>   2</c></rc>
    <rc><c>Pd</c><c>   2</c></rc>
    <rc><c>Pd</c><c>   2</c></rc>
    <rc><c>Pd</c><c>   2</c></rc>
    <rc><c>Pd</c><c>   2</c></rc>
    <rc><c>Pd</c><c>   2</c></rc>
    <rc><c>Pd</c><c>   2</c></rc>
    <rc><c>Pd</c><c>   2</c></rc>
    <rc><c>Pd</c><c>   2</c></rc>
    <rc><c>Pd</c><c>   2</c></rc>
    <rc><c>Pd</c><c>   2</c></rc>
    <rc><c>Pd</c><c>   2</c></rc>
    <rc><c>Pd</c><c>   2</c></rc>
    <rc><c>Pd</c><c>   2</c></rc>
    <rc><c>Pd</c><c>   2</c></rc>
    <rc><c>Pd</c><c>   2</c></rc>
    <rc><c>Pd</c><c>   2</c></rc>
    <rc><c>Pd</c><c>   2</c></rc>
    <rc><c>Pd</c><c>   2</c></rc>
   </set>
  </array>
  <array name="atomtypes" >
   <dimension dim="1">type</dimension>
   <field type="int">atomspertype</field>
   <field type="string">element</field>
   <field>mass</field>
   <field>valence</field>
   <field type="string">pseudopotential</field>
   <set>
    <rc><c>  24</c><c>Au</c><c>    196.96600000</c><c>     11.00000000</c><c>  PAW_PBE Au 04Oct2007                  </c></rc>
    <rc><c>  24</c><c>Pd</c><c>    106.42000000</c><c>     10.00000000</c><c>  PAW_PBE Pd 04Jan2005                  </c></rc>
   </set>
  </array>
 </atominfo>
 <structure name="initialpos" >
  <crystal>
   <varray name="basis" >
    <v>      11.00258152       0.00000000       0.00000000 </v>
    <v>       5.50129076       9.52851510       0.00000000 </v>
    <v>       0.00000000       0.00000000      24.49178509 </v>
   </varray>
   <i name="volume">   2567.67623402 </i>
   <varray name="rec_basis" >
    <v>       0.09088776      -0.05247407       0.00000000 </v>
    <v>       0.00000000       0.10494815       0.00000000 </v>
    <v>       0.00000000       0.00000000       0.04083002 </v>
   </varray>
  </crystal>
  <varray name="positions" >
   <v>       0.74704118       0.75187439       0.60233047 </v>
   <v>       0.50176616       0.24851527       0.60027731 </v>
   <v>       0.58647897       0.33264459       0.39921899 </v>
   <v>       0.58355666       0.08340231       0.39923486 </v>
   <v>       0.74924983       0.00134973       0.60256403 </v>
   <v>       0.33474854       0.83343321       0.39842655 </v>
   <v>       0.25062921       0.50028204       0.60233047 </v>
   <v>       0.16763524       0.66592903       0.49972232 </v>
   <v>       0.33625919       0.58125906       0.39721375 </v>
   <v>       0.25058647       0.24732108       0.60260729 </v>
   <v>       0.25087338       0.99646843       0.60141110 </v>
   <v>       0.16705638       0.16828287       0.49986358 </v>
   <v>       0.50021782       0.50152975       0.60055440 </v>
   <v>       0.00066233       0.75170512       0.60457968 </v>
   <v>       0.91434803       0.16902163       0.49964272 </v>
   <v>       0.83269481       0.83325143       0.39841233 </v>
   <v>       0.75081722       0.49747156       0.60223884 </v>
   <v>       0.33222675       0.08448316       0.39767234 </v>
   <v>       0.83335317       0.58014722       0.39861105 </v>
   <v>       0.08507224       0.57971031       0.39804241 </v>
   <v>       0.66521118       0.66819501       0.50034984 </v>
   <v>       0.99998499       0.49843415       0.60046708 </v>
   <v>       0.08319342       0.83575569       0.39463652 </v>
   <v>       0.91485253       0.91777606       0.50008280 </v>
   <v>       0.66366833       0.16832608       0.49970858 </v>
   <v>       0.83582020       0.33124312       0.40314258 </v>
   <v>       0.83470971       0.08356919       0.40240696 </v>
   <v>       0.49851475       0.75074474       0.59593374 </v>
   <v>       0.58380786       0.83223066       0.40368142 </v>
   <v>       0.41514750       0.91825069       0.49903644 </v>
   <v>       0.75247004       0.24856851       0.59638711 </v>
   <v>       0.66394459       0.41788047       0.50022231 </v>
   <v>       0.08134933       0.08525710       0.40243701 </v>
   <v>       0.58551688       0.58181061       0.40371028 </v>
   <v>       0.41735388       0.41616144       0.50000561 </v>
   <v>       0.49917973       0.99938401       0.59573195 </v>
   <v>       0.41721609       0.16745312       0.49980013 </v>
   <v>       0.66411758       0.91926848       0.50013582 </v>
   <v>       0.16849750       0.91624755       0.49909224 </v>
   <v>       0.16627798       0.41770941       0.50056841 </v>
   <v>       0.33370806       0.33277253       0.40444702 </v>
   <v>       0.91590976       0.66705614       0.49991503 </v>
   <v>       0.99949110       0.24761160       0.59719433 </v>
   <v>       0.91521716       0.41882712       0.50027510 </v>
   <v>       0.08376857       0.33260161       0.40352520 </v>
   <v>       0.00012607       0.00070506       0.59697360 </v>
   <v>       0.41583866       0.66721524       0.49920805 </v>
   <v>       0.24983297       0.75086244       0.59597034 </v>
  </varray>
 </structure>
 <calculation>
  <scstep>
   <time name="dav">    9.48    9.53</time>
   <time name="total">    9.55    9.60</time>
   <dipole>
    <v name="dipole">      0.00000000       0.00000000      -0.00000014 </v>
    <i name="Tr[quadrupol]"> -10270.66914530 </i>
    <i name="Echarged">      0.00000000 </i>
    <i name="Edipol_quadrupol">      0.00000000 </i>
    <i name="Eion">      0.00000000 </i>
   </dipole>
   <energy>
    <i name="alphaZ">    805.86936431 </i>
    <i name="ewald"> 185481.70526362 </i>
    <i name="hartreedc">-227980.05791271 </i>
    <i name="XCdc">   -337.43024433 </i>
    <i name="pawpsdc">  40340.05962942 </i>
    <i name="pawaedc"> -38292.62782345 </i>
    <i name="eentropy">     -0.14197293 </i>
    <i name="bandstr">   1450.34711296 </i>
    <i name="atom">  41659.78587232 </i>
    <i name="e_fr_energy">   3127.50928922 </i>
    <i name="e_wo_entrp">   3127.65126215 </i>
    <i name="e_0_energy">   3127.58027569 </i>
   </energy>
  </scstep>
  <scstep>
   <time name="dav">   11.16   11.25</time>
   <time name="total">   11.17   11.26</time>
   <dipole>
    <v name="dipole">      0.00000000       0.00000000      -0.00000014 </v>
    <i name="Tr[quadrupol]"> -10270.66914530 </i>
    <i name="Echarged">      0.00000000 </i>
    <i name="Edipol_quadrupol">      0.00000000 </i>
    <i name="Eion">      0.00000000 </i>
   </dipole>
   <energy>
    <i name="e_fr_energy">      8.49845490 </i>
    <i name="e_wo_entrp">      8.62021227 </i>
    <i name="e_0_energy">      8.55933359 </i>
   </energy>
  </scstep>
  <scstep>
   <time name="dav">   10.92   10.92</time>
   <time name="total">   10.92   10.93</time>
   <dipole>
    <v name="dipole">      0.00000000       0.00000000      -0.00000014 </v>
    <i name="Tr[quadrupol]"> -10270.66914530 </i>
    <i name="Echarged">      0.00000000 </i>
    <i name="Edipol_quadrupol">      0.00000000 </i>
    <i name="Eion">      0.00000000 </i>
   </dipole>
   <energy>
    <i name="e_fr_energy">   -204.61417076 </i>
    <i name="e_wo_entrp">   -204.46778956 </i>
    <i name="e_0_energy">   -204.54098016 </i>
   </energy>
  </scstep>
  <scstep>
   <time name="dav">   11.12   11.14</time>
   <time name="total">   11.13   11.15</time>
   <dipole>
    <v name="dipole">      0.00000000       0.00000000      -0.00000014 </v>
    <i name="Tr[quadrupol]"> -10270.66914530 </i>
    <i name="Echarged">      0.00000000 </i>
    <i name="Edipol_quadrupol">      0.00000000 </i>
    <i name="Eion">      0.00000000 </i>
   </dipole>
   <energy>
    <i name="e_fr_energy">   -210.46436505 </i>
    <i name="e_wo_entrp">   -210.31581859 </i>
    <i name="e_0_energy">   -210.39009182 </i>
   </energy>
  </scstep>
  <scstep>
   <time name="dav">   11.21   11.80</time>
   <time name="total">   11.53   12.12</time>
   <dipole>
    <v name="dipole">      0.00000000       0.00000000      -0.00000014 </v>
    <i name="Tr[quadrupol]"> -10270.66914530 </i>
    <i name="Echarged">      0.00000000 </i>
    <i name="Edipol_quadrupol">      0.00000000 </i>
    <i name="Eion">      0.00000000 </i>
   </dipole>
   <energy>
    <i name="e_fr_energy">   -210.66000223 </i>
    <i name="e_wo_entrp">   -210.51183361 </i>
    <i name="e_0_energy">   -210.58591792 </i>
   </energy>
  </scstep>
  <scstep>
   <time name="diag">    1.67    1.69</time>
   <time name="diis">    4.68    4.83</time>
   <time name="orth">    0.42    0.42</time>
   <time name="total">    7.14    7.32</time>
   <dipole>
    <v name="dipole">      0.00000000       0.00000000      -0.35918742 </v>
    <i name="Tr[quadrupol]"> -10275.10343951 </i>
    <i name="Echarged">      0.00000000 </i>
    <i name="Edipol_quadrupol">      0.00000000 </i>
    <i name="Eion">      0.00000000 </i>
   </dipole>
   <energy>
    <i name="e_fr_energy">   -206.62092155 </i>
    <i name="e_wo_entrp">   -206.39463123 </i>
    <i name="e_0_energy">   -206.50777639 </i>
   </energy>
  </scstep>
  <scstep>
   <time name="diag">    1.71    1.74</time>
   <time name="diis">    4.79    4.79</time>
   <time name="orth">    0.42    0.42</time>
   <time name="total">    7.28    7.32</time>
   <dipole>
    <v name="dipole">      0.00000000       0.00000000       0.29027713 </v>
    <i name="Tr[quadrupol]"> -10270.71176496 </i>
    <i name="Echarged">      0.00000000 </i>
    <i name="Edipol_quadrupol">      0.00000000 </i>
    <i name="Eion">      0.00000000 </i>
   </dipole>
   <energy>
    <i name="e_fr_energy">   -202.71561371 </i>
    <i name="e_wo_entrp">   -202.51983168 </i>
    <i name="e_0_energy">   -202.61772270 </i>
   </energy>
  </scstep>
  <scstep>
   <time name="diag">    1.68    1.68</time>
   <time name="diis">    4.76    4.76</time>
   <time name="orth">    0.42    0.42</time>
   <time name="total">    7.23    7.23</time>
   <dipole>
    <v name="dipole">      0.00000000       0.00000000      -1.21482167 </v>
    <i name="Tr[quadrupol]"> -10273.02208443 </i>
    <i name="Echarged">      0.00000000 </i>
    <i name="Edipol_quadrupol">      0.00000000 </i>
    <i name="Eion">      0.00000000 </i>
   </dipole>
   <energy>
    <i name="e_fr_energy">   -210.85156274 </i>
    <i name="e_wo_entrp">   -210.64454612 </i>
    <i name="e_0_energy">   -210.74805443 </i>
   </energy>
  </scstep>
  <scstep>
   <time name="diag">    1.69    1.69</time>
   <time name="diis">    4.50    4.50</time>
   <time name="orth">    0.42    0.42</time>
   <time name="total">    6.97    6.98</time>
   <dipole>
    <v name="dipole">      0.00000000       0.00000000       1.05537199 </v>
    <i name="Tr[quadrupol]"> -10274.57343604 </i>
    <i name="Echarged">      0.00000000 </i>
    <i name="Edipol_quadrupol">      0.00000000 </i>
    <i name="Eion">      0.00000000 </i>
   </dipole>
   <energy>
    <i name="e_fr_energy">   -209.35227711 </i>
    <i name="e_wo_entrp">   -209.18244584 </i>
    <i name="e_0_energy">   -209.26736147 </i>
   </energy>
  </scstep>
  <scstep>
   <time name="diag">    1.69    1.69</time>
   <time name="diis">    4.58    4.59</time>
   <time name="orth">    0.41    0.41</time>
   <time name="total">    7.04    7.06</time>
   <dipole>
    <v name="dipole">      0.00000000       0.00000000      -0.39256062 </v>
    <i name="Tr[quadrupol]"> -10273.86314409 </i>
    <i name="Echarged">      0.00000000 </i>
    <i name="Edipol_quadrupol">      0.00000000 </i>
    <i name="Eion">      0.00000000 </i>
   </dipole>
   <energy>
    <i name="e_fr_energy">   -196.37606527 </i>
    <i name="e_wo_entrp">   -196.17482630 </i>
    <i name="e_0_energy">   -196.27544579 </i>
   </energy>
  </scstep>
  <scstep>
   <time name="diag">    1.69    1.69</time>
   <time name="diis">    4.46    4.51</time>
   <time name="orth">    0.40    0.42</time>
   <time name="total">    6.91    6.99</time>
   <dipole>
    <v name="dipole">      0.00000000       0.00000000      -0.10691472 </v>
    <i name="Tr[quadrupol]"> -10274.15247122 </i>
    <i name="Echarged">      0.00000000 </i>
    <i name="Edipol_quadrupol">      0.00000000 </i>
    <i name="Eion">      0.00000000 </i>
   </dipole>
   <energy>
    <i name="e_fr_energy">   -194.79531768 </i>
    <i name="e_wo_entrp">   -194.58216726 </i>
    <i name="e_0_energy">   -194.68874247 </i>
   </energy>
  </scstep>
  <scstep>
   <time name="diag">    1.67    1.67</time>
   <time name="diis">    4.11    4.89</time>
   <time name="orth">    0.41    0.41</time>
   <time name="total">    6.55    7.33</time>
   <dipole>
    <v name="dipole">      0.00000000       0.00000000       0.01749681 </v>
    <i name="Tr[quadrupol]"> -10274.58719108 </i>
    <i name="Echarged">      0.00000000 </i>
    <i name="Edipol_quadrupol">      0.00000000 </i>
    <i name="Eion">      0.00000000 </i>
   </dipole>
   <energy>
    <i name="e_fr_energy">   -193.53057180 </i>
    <i name="e_wo_entrp">   -193.29989996 </i>
    <i name="e_0_energy">   -193.41523588 </i>
   </energy>
  </scstep>
  <scstep>
   <time name="diag">    1.67    1.67</time>
   <time name="diis">    4.80    4.81</time>
   <time name="orth">    0.41    0.41</time>
   <time name="total">    7.25    7.25</time>
   <dipole>
    <v name="dipole">      0.00000000       0.00000000      -0.00189173 </v>
    <i name="Tr[quadrupol]"> -10274.88025366 </i>
    <i name="Echarged">      0.00000000 </i>
    <i name="Edipol_quadrupol">      0.00000000 </i>
    <i name="Eion">      0.00000000 </i>
   </dipole>
   <energy>
    <i name="e_fr_energy">   -193.47778747 </i>
    <i name="e_wo_entrp">   -193.24657867 </i>
    <i name="e_0_energy">   -193.36218307 </i>
   </energy>
  </scstep>
  <scstep>
   <time name="diag">    1.67    1.67</time>
   <time name="diis">    4.62    4.62</time>
   <time name="orth">    0.41    0.41</time>
   <time name="total">    7.06    7.07</time>
   <dipole>
    <v name="dipole">      0.00000000       0.00000000      -0.01935691 </v>
    <i name="Tr[quadrupol]"> -10275.08044631 </i>
    <i name="Echarged">      0.00000000 </i>
    <i name="Edipol_quadrupol">      0.00000000 </i>
    <i name="Eion">      0.00000000 </i>
   </dipole>
   <energy>
    <i name="e_fr_energy">   -193.43812463 </i>
    <i name="e_wo_entrp">   -193.21308977 </i>
    <i name="e_0_energy">   -193.32560720 </i>
   </energy>
  </scstep>
  <scstep>
   <time name="diag">    1.69    1.69</time>
   <time name="diis">    4.79    4.79</time>
   <time name="orth">    0.41    0.41</time>
   <time name="total">    7.25    7.26</time>
   <dipole>
    <v name="dipole">      0.00000000       0.00000000      -0.02168801 </v>
    <i name="Tr[quadrupol]"> -10275.24033451 </i>
    <i name="Echarged">      0.00000000 </i>
    <i name="Edipol_quadrupol">      0.00000000 </i>
    <i name="Eion">      0.00000000 </i>
   </dipole>
   <energy>
    <i name="e_fr_energy">   -193.37257971 </i>
    <i name="e_wo_entrp">   -193.14147613 </i>
    <i name="e_0_energy">   -193.25702792 </i>
   </energy>
  </scstep>
  <scstep>
   <time name="diag">    1.68    1.68</time>
   <time name="diis">    4.55    4.55</time>
   <time name="orth">    0.42    0.42</time>
   <time name="total">    7.01    7.02</time>
   <dipole>
    <v name="dipole">      0.00000000       0.00000000      -0.03312180 </v>
    <i name="Tr[quadrupol]"> -10275.43592618 </i>
    <i name="Echarged">      0.00000000 </i>
    <i name="Edipol_quadrupol">      0.00000000 </i>
    <i name="Eion">      0.00000000 </i>
   </dipole>
   <energy>
    <i name="e_fr_energy">   -193.28962454 </i>
    <i name="e_wo_entrp">   -193.04969093 </i>
    <i name="e_0_energy">   -193.16965774 </i>
   </energy>
  </scstep>
  <scstep>
   <time name="diag">    1.69    1.69</time>
   <time name="diis">    4.70    4.78</time>
   <time name="orth">    0.42    0.42</time>
   <time name="total">    7.18    7.26</time>
   <dipole>
    <v name="dipole">      0.00000000       0.00000000      -0.03296845 </v>
    <i name="Tr[quadrupol]"> -10275.59569825 </i>
    <i name="Echarged">      0.00000000 </i>
    <i name="Edipol_quadrupol">      0.00000000 </i>
    <i name="Eion">      0.00000000 </i>
   </dipole>
   <energy>
    <i name="e_fr_energy">   -193.27273150 </i>
    <i name="e_wo_entrp">   -193.03127707 </i>
    <i name="e_0_energy">   -193.15200429 </i>
   </energy>
  </scstep>
  <scstep>
   <time name="diag">    1.68    1.68</time>
   <time name="diis">    4.79    4.79</time>
   <time name="orth">    0.41    0.41</time>
   <time name="total">    7.24    7.25</time>
   <dipole>
    <v name="dipole">      0.00000000       0.00000000      -0.01292651 </v>
    <i name="Tr[quadrupol]"> -10275.70782014 </i>
    <i name="Echarged">      0.00000000 </i>
    <i name="Edipol_quadrupol">      0.00000000 </i>
    <i name="Eion">      0.00000000 </i>
   </dipole>
   <energy>
    <i name="e_fr_energy">   -193.26574299 </i>
    <i name="e_wo_entrp">   -193.02493676 </i>
    <i name="e_0_energy">   -193.14533987 </i>
   </energy>
  </scstep>
  <scstep>
   <time name="diag">    1.69    1.69</time>
   <time name="diis">    4.54    4.54</time>
   <time name="orth">    0.41    0.41</time>
   <time name="total">    7.01    7.02</time>
   <dipole>
    <v name="dipole">      0.00000000       0.00000000      -0.00962007 </v>
    <i name="Tr[quadrupol]"> -10275.78689187 </i>
    <i name="Echarged">      0.00000000 </i>
    <i name="Edipol_quadrupol">      0.00000000 </i>
    <i name="Eion">      0.00000000 </i>
   </dipole>
   <energy>
    <i name="e_fr_energy">   -193.26354546 </i>
    <i name="e_wo_entrp">   -193.02148060 </i>
    <i name="e_0_energy">   -193.14251303 </i>
   </energy>
  </scstep>
  <scstep>
   <time name="diag">    1.67    1.67</time>
   <time name="diis">    4.55    4.56</time>
   <time name="orth">    0.41    0.41</time>
   <time name="total">    7.00    7.17</time>
   <dipole>
    <v name="dipole">      0.00000000       0.00000000      -0.01014177 </v>
    <i name="Tr[quadrupol]"> -10275.86019527 </i>
    <i name="Echarged">      0.00000000 </i>
    <i name="Edipol_quadrupol">      0.00000000 </i>
    <i name="Eion">      0.00000000 </i>
   </dipole>
   <energy>
    <i name="e_fr_energy">   -193.26242156 </i>
    <i name="e_wo_entrp">   -193.02050341 </i>
    <i name="e_0_energy">   -193.14146249 </i>
   </energy>
  </scstep>
  <scstep>
   <time name="diag">    1.44    2.03</time>
   <time name="diis">    4.61    4.80</time>
   <time name="orth">    0.41    0.41</time>
   <time name="total">    6.83    7.62</time>
   <dipole>
    <v name="dipole">      0.00000000       0.00000000      -0.01279350 </v>
    <i name="Tr[quadrupol]"> -10275.93316616 </i>
    <i name="Echarged">      0.00000000 </i>
    <i name="Edipol_quadrupol">      0.00000000 </i>
    <i name="Eion">      0.00000000 </i>
   </dipole>
   <energy>
    <i name="e_fr_energy">   -193.26175748 </i>
    <i name="e_wo_entrp">   -193.01919966 </i>
    <i name="e_0_energy">   -193.14047857 </i>
   </energy>
  </scstep>
  <scstep>
   <time name="diag">    1.68    1.68</time>
   <time name="diis">    4.66    4.66</time>
   <time name="orth">    0.40    0.43</time>
   <time name="total">    7.09    7.15</time>
   <dipole>
    <v name="dipole">      0.00000000       0.00000000      -0.01304222 </v>
    <i name="Tr[quadrupol]"> -10276.01432753 </i>
    <i name="Echarged">      0.00000000 </i>
    <i name="Edipol_quadrupol">      0.00000000 </i>
    <i name="Eion">      0.00000000 </i>
   </dipole>
   <energy>
    <i name="e_fr_energy">   -193.26172248 </i>
    <i name="e_wo_entrp">   -193.01918067 </i>
    <i name="e_0_energy">   -193.14045157 </i>
   </energy>
  </scstep>
  <scstep>
   <time name="diag">    1.68    1.69</time>
   <time name="diis">    4.80    4.81</time>
   <time name="orth">    0.41    0.41</time>
   <time name="total">    7.26    7.28</time>
   <dipole>
    <v name="dipole">      0.00000000       0.00000000      -0.01159766 </v>
    <i name="Tr[quadrupol]"> -10276.08759707 </i>
    <i name="Echarged">      0.00000000 </i>
    <i name="Edipol_quadrupol">      0.00000000 </i>
    <i name="Eion">      0.00000000 </i>
   </dipole>
   <energy>
    <i name="e_fr_energy">   -193.26173676 </i>
    <i name="e_wo_entrp">   -193.01909405 </i>
    <i name="e_0_energy">   -193.14041541 </i>
   </energy>
  </scstep>
  <scstep>
   <time name="diag">    1.67    1.67</time>
   <time name="diis">    4.42    4.42</time>
   <time name="orth">    0.41    0.41</time>
   <time name="total">    6.86    6.87</time>
   <dipole>
    <v name="dipole">      0.00000000       0.00000000      -0.01024842 </v>
    <i name="Tr[quadrupol]"> -10276.16391860 </i>
    <i name="Echarged">      0.00000000 </i>
    <i name="Edipol_quadrupol">      0.00000000 </i>
    <i name="Eion">      0.00000000 </i>
   </dipole>
   <energy>
    <i name="e_fr_energy">   -193.26205951 </i>
    <i name="e_wo_entrp">   -193.01924411 </i>
    <i name="e_0_energy">   -193.14065181 </i>
   </energy>
  </scstep>
  <scstep>
   <time name="diag">    1.68    1.68</time>
   <time name="diis">    4.80    4.80</time>
   <time name="orth">    0.41    0.41</time>
   <time name="total">    7.26    7.26</time>
   <dipole>
    <v name="dipole">      0.00000000       0.00000000      -0.00982409 </v>
    <i name="Tr[quadrupol]"> -10276.21877070 </i>
    <i name="Echarged">      0.00000000 </i>
    <i name="Edipol_quadrupol">      0.00000000 </i>
    <i name="Eion">      0.00000000 </i>
   </dipole>
   <energy>
    <i name="e_fr_energy">   -193.26240954 </i>
    <i name="e_wo_entrp">   -193.01952156 </i>
    <i name="e_0_energy">   -193.14096555 </i>
   </energy>
  </scstep>
  <scstep>
   <time name="diag">    1.67    1.67</time>
   <time name="diis">    4.80    4.80</time>
   <time name="orth">    0.41    0.41</time>
   <time name="total">    7.25    7.25</time>
   <dipole>
    <v name="dipole">      0.00000000       0.00000000      -0.00954890 </v>
    <i name="Tr[quadrupol]"> -10276.27307293 </i>
    <i name="Echarged">      0.00000000 </i>
    <i name="Edipol_quadrupol">      0.00000000 </i>
    <i name="Eion">      0.00000000 </i>
   </dipole>
   <energy>
    <i name="e_fr_energy">   -193.26287267 </i>
    <i name="e_wo_entrp">   -193.02007529 </i>
    <i name="e_0_energy">   -193.14147398 </i>
   </energy>
  </scstep>
  <scstep>
   <time name="diag">    1.69    1.69</time>
   <time name="diis">    4.80    4.80</time>
   <time name="orth">    0.41    0.41</time>
   <time name="total">    7.26    7.27</time>
   <dipole>
    <v name="dipole">      0.00000000       0.00000000      -0.00868189 </v>
    <i name="Tr[quadrupol]"> -10276.33190140 </i>
    <i name="Echarged">      0.00000000 </i>
    <i name="Edipol_quadrupol">      0.00000000 </i>
    <i name="Eion">      0.00000000 </i>
   </dipole>
   <energy>
    <i name="e_fr_energy">   -193.26340672 </i>
    <i name="e_wo_entrp">   -193.02054108 </i>
    <i name="e_0_energy">   -193.14197390 </i>
   </energy>
  </scstep>
  <scstep>
   <time name="diag">    1.67    1.67</time>
   <time name="diis">    4.03    4.10</time>
   <time name="orth">    0.41    0.41</time>
   <time name="total">    6.47    6.55</time>
   <dipole>
    <v name="dipole">      0.00000000       0.00000000      -0.00823894 </v>
    <i name="Tr[quadrupol]"> -10276.36411158 </i>
    <i name="Echarged">      0.00000000 </i>
    <i name="Edipol_quadrupol">      0.00000000 </i>
    <i name="Eion">      0.00000000 </i>
   </dipole>
   <energy>
    <i name="e_fr_energy">   -193.26379596 </i>
    <i name="e_wo_entrp">   -193.02087464 </i>
    <i name="e_0_energy">   -193.14233530 </i>
   </energy>
  </scstep>
  <scstep>
   <time name="diag">    1.68    1.68</time>
   <time name="diis">    3.69    4.43</time>
   <time name="orth">    0.41    0.41</time>
   <time name="total">    6.15    6.89</time>
   <dipole>
    <v name="dipole">      0.00000000       0.00000000      -0.00764468 </v>
    <i name="Tr[quadrupol]"> -10276.39674454 </i>
    <i name="Echarged">      0.00000000 </i>
    <i name="Edipol_quadrupol">      0.00000000 </i>
    <i name="Eion">      0.00000000 </i>
   </dipole>
   <energy>
    <i name="e_fr_energy">   -193.26416784 </i>
    <i name="e_wo_entrp">   -193.02129117 </i>
    <i name="e_0_energy">   -193.14272950 </i>
   </energy>
  </scstep>
  <scstep>
   <time name="diag">    1.66    1.66</time>
   <time name="diis">    3.83    3.83</time>
   <time name="orth">    0.41    0.41</time>
   <time name="total">    6.27    6.28</time>
   <dipole>
    <v name="dipole">      0.00000000       0.00000000      -0.00704875 </v>
    <i name="Tr[quadrupol]"> -10276.41972647 </i>
    <i name="Echarged">      0.00000000 </i>
    <i name="Edipol_quadrupol">      0.00000000 </i>
    <i name="Eion">      0.00000000 </i>
   </dipole>
   <energy>
    <i name="e_fr_energy">   -193.26443874 </i>
    <i name="e_wo_entrp">   -193.02154955 </i>
    <i name="e_0_energy">   -193.14299414 </i>
   </energy>
  </scstep>
  <scstep>
   <time name="diag">    1.69    1.69</time>
   <time name="diis">    3.22    3.22</time>
   <time name="orth">    0.41    0.41</time>
   <time name="total">    5.69    5.69</time>
   <dipole>
    <v name="dipole">      0.00000000       0.00000000      -0.00684232 </v>
    <i name="Tr[quadrupol]"> -10276.42859687 </i>
    <i name="Echarged">      0.00000000 </i>
    <i name="Edipol_quadrupol">      0.00000000 </i>
    <i name="Eion">      0.00000000 </i>
   </dipole>
   <energy>
    <i name="e_fr_energy">   -193.26452879 </i>
    <i name="e_wo_entrp">   -193.02165897 </i>
    <i name="e_0_energy">   -193.14309388 </i>
   </energy>
  </scstep>
  <scstep>
   <time name="diag">    1.67    1.67</time>
   <time name="diis">    2.89    2.90</time>
   <time name="orth">    0.41    0.41</time>
   <time name="total">    5.34    5.34</time>
   <dipole>
    <v name="dipole">      0.00000000       0.00000000      -0.00664915 </v>
    <i name="Tr[quadrupol]"> -10276.43551898 </i>
    <i name="Echarged">      0.00000000 </i>
    <i name="Edipol_quadrupol">      0.00000000 </i>
    <i name="Eion">      0.00000000 </i>
   </dipole>
   <energy>
    <i name="e_fr_energy">   -193.26461158 </i>
    <i name="e_wo_entrp">   -193.02174178 </i>
    <i name="e_0_energy">   -193.14317668 </i>
   </energy>
  </scstep>
  <scstep>
   <time name="diag">    1.69    1.69</time>
   <time name="diis">    2.80    2.80</time>
   <time name="orth">    0.41    0.41</time>
   <time name="total">    5.27    5.27</time>
   <dipole>
    <v name="dipole">      0.00000000       0.00000000      -0.00652792 </v>
    <i name="Tr[quadrupol]"> -10276.43976425 </i>
    <i name="Echarged">      0.00000000 </i>
    <i name="Edipol_quadrupol">      0.00000000 </i>
    <i name="Eion">      0.00000000 </i>
   </dipole>
   <energy>
    <i name="e_fr_energy">   -193.26465847 </i>
    <i name="e_wo_entrp">   -193.02178865 </i>
    <i name="e_0_energy">   -193.14322356 </i>
   </energy>
  </scstep>
  <scstep>
   <time name="diag">    1.67    1.67</time>
   <time name="diis">    2.82    2.83</time>
   <time name="orth">    0.41    0.41</time>
   <time name="total">    5.27    5.28</time>
   <dipole>
    <v name="dipole">      0.00000000       0.00000000      -0.00636084 </v>
    <i name="Tr[quadrupol]"> -10276.44480292 </i>
    <i name="Echarged">      0.00000000 </i>
    <i name="Edipol_quadrupol">      0.00000000 </i>
    <i name="Eion">      0.00000000 </i>
   </dipole>
   <energy>
    <i name="e_fr_energy">   -193.26470508 </i>
    <i name="e_wo_entrp">   -193.02182890 </i>
    <i name="e_0_energy">   -193.14326699 </i>
   </energy>
  </scstep>
  <scstep>
   <time name="diag">    1.68    1.68</time>
   <time name="diis">    2.56    2.63</time>
   <time name="orth">    0.40    0.41</time>
   <time name="total">    5.02    5.10</time>
   <dipole>
    <v name="dipole">      0.00000000       0.00000000      -0.00628857 </v>
    <i name="Tr[quadrupol]"> -10276.44688726 </i>
    <i name="Echarged">      0.00000000 </i>
    <i name="Edipol_quadrupol">      0.00000000 </i>
    <i name="Eion">      0.00000000 </i>
   </dipole>
   <energy>
    <i name="e_fr_energy">   -193.26471791 </i>
    <i name="e_wo_entrp">   -193.02184063 </i>
    <i name="e_0_energy">   -193.14327927 </i>
   </energy>
  </scstep>
  <scstep>
   <time name="diag">    1.67    1.68</time>
   <time name="diis">    2.72    2.72</time>
   <time name="orth">    0.40    0.40</time>
   <time name="total">    5.16    5.17</time>
   <dipole>
    <v name="dipole">      0.00000000       0.00000000      -0.00619022 </v>
    <i name="Tr[quadrupol]"> -10276.45015580 </i>
    <i name="Echarged">      0.00000000 </i>
    <i name="Edipol_quadrupol">      0.00000000 </i>
    <i name="Eion">      0.00000000 </i>
   </dipole>
   <energy>
    <i name="e_fr_energy">   -193.26472981 </i>
    <i name="e_wo_entrp">   -193.02185220 </i>
    <i name="e_0_energy">   -193.14329101 </i>
   </energy>
  </scstep>
  <scstep>
   <time name="diag">    1.69    1.69</time>
   <time name="diis">    2.14    2.14</time>
   <time name="orth">    0.40    0.40</time>
   <time name="total">    4.59    4.60</time>
   <dipole>
    <v name="dipole">      0.00000000       0.00000000      -0.00615778 </v>
    <i name="Tr[quadrupol]"> -10276.45156346 </i>
    <i name="Echarged">      0.00000000 </i>
    <i name="Edipol_quadrupol">      0.00000000 </i>
    <i name="Eion">      0.00000000 </i>
   </dipole>
   <energy>
    <i name="e_fr_energy">   -193.26473175 </i>
    <i name="e_wo_entrp">   -193.02185508 </i>
    <i name="e_0_energy">   -193.14329341 </i>
   </energy>
  </scstep>
  <scstep>
   <time name="diag">    1.66    1.67</time>
   <time name="diis">    2.17    2.17</time>
   <time name="orth">    0.40    0.40</time>
   <time name="total">    4.60    4.61</time>
   <dipole>
    <v name="dipole">      0.00000000       0.00000000      -0.00612233 </v>
    <i name="Tr[quadrupol]"> -10276.45357979 </i>
    <i name="Echarged">      0.00000000 </i>
    <i name="Edipol_quadrupol">      0.00000000 </i>
    <i name="Eion">      0.00000000 </i>
   </dipole>
   <energy>
    <i name="e_fr_energy">   -193.26473298 </i>
    <i name="e_wo_entrp">   -193.02185652 </i>
    <i name="e_0_energy">   -193.14329475 </i>
   </energy>
  </scstep>
  <scstep>
   <time name="diag">    1.68    1.68</time>
   <time name="diis">    1.96    1.96</time>
   <time name="orth">    0.41    0.41</time>
   <time name="total">    4.11    4.11</time>
   <dipole>
    <v name="dipole">      0.00000000       0.00000000      -0.00610209 </v>
    <i name="Tr[quadrupol]"> -10276.45473195 </i>
    <i name="Echarged">      0.00000000 </i>
    <i name="Edipol_quadrupol">      0.00000000 </i>
    <i name="Eion">      0.00000000 </i>
   </dipole>
   <energy>
    <i name="alphaZ">    805.87042139 </i>
    <i name="ewald"> 185481.70526362 </i>
    <i name="hartreedc">-227756.25292051 </i>
    <i name="XCdc">   -353.51628655 </i>
    <i name="pawpsdc">  47453.65145435 </i>
    <i name="pawaedc"> -45517.65418234 </i>
    <i name="eentropy">     -0.24287593 </i>
    <i name="bandstr">  -1966.61147971 </i>
    <i name="atom">  41659.78587232 </i>
    <i name="e_fr_energy">   -193.26473337 </i>
    <i name="e_wo_entrp">   -193.02185744 </i>
    <i name="e_0_energy">   -193.14329541 </i>
   </energy>
  </scstep>
  <structure>
   <crystal>
    <varray name="basis" >
     <v>      11.00258152       0.00000000       0.00000000 </v>
     <v>       5.50129076       9.52851510       0.00000000 </v>
     <v>       0.00000000       0.00000000      24.49178509 </v>
    </varray>
    <i name="volume">   2567.67623402 </i>
    <varray name="rec_basis" >
     <v>       0.09088776      -0.05247407       0.00000000 </v>
     <v>       0.00000000       0.10494815       0.00000000 </v>
     <v>       0.00000000       0.00000000       0.04083002 </v>
    </varray>
   </crystal>
   <varray name="positions" >
    <v>       0.74704118       0.75187439       0.60233047 </v>
    <v>       0.50176616       0.24851527       0.60027731 </v>
    <v>       0.58647897       0.33264459       0.39921899 </v>
    <v>       0.58355666       0.08340231       0.39923486 </v>
    <v>       0.74924983       0.00134973       0.60256403 </v>
    <v>       0.33474854       0.83343321       0.39842655 </v>
    <v>       0.25062921       0.50028204       0.60233047 </v>
    <v>       0.16763524       0.66592903       0.49972232 </v>
    <v>       0.33625919       0.58125906       0.39721375 </v>
    <v>       0.25058647       0.24732108       0.60260729 </v>
    <v>       0.25087338       0.99646843       0.60141110 </v>
    <v>       0.16705638       0.16828287       0.49986358 </v>
    <v>       0.50021782       0.50152975       0.60055440 </v>
    <v>       0.00066233       0.75170512       0.60457968 </v>
    <v>       0.91434803       0.16902163       0.49964272 </v>
    <v>       0.83269481       0.83325143       0.39841233 </v>
    <v>       0.75081722       0.49747156       0.60223884 </v>
    <v>       0.33222675       0.08448316       0.39767234 </v>
    <v>       0.83335317       0.58014722       0.39861105 </v>
    <v>       0.08507224       0.57971031       0.39804241 </v>
    <v>       0.66521118       0.66819501       0.50034984 </v>
    <v>       0.99998499       0.49843415       0.60046708 </v>
    <v>       0.08319342       0.83575569       0.39463652 </v>
    <v>       0.91485253       0.91777606       0.50008280 </v>
    <v>       0.66366833       0.16832608       0.49970858 </v>
    <v>       0.83582020       0.33124312       0.40314258 </v>
    <v>       0.83470971       0.08356919       0.40240696 </v>
    <v>       0.49851475       0.75074474       0.59593374 </v>
    <v>       0.58380786       0.83223066       0.40368142 </v>
    <v>       0.41514750       0.91825069       0.49903644 </v>
    <v>       0.75247004       0.24856851       0.59638711 </v>
    <v>       0.66394459       0.41788047       0.50022231 </v>
    <v>       0.08134933       0.08525710       0.40243701 </v>
    <v>       0.58551688       0.58181061       0.40371028 </v>
    <v>       0.41735388       0.41616144       0.50000561 </v>
    <v>       0.49917973       0.99938401       0.59573195 </v>
    <v>       0.41721609       0.16745312       0.49980013 </v>
    <v>       0.66411758       0.91926848       0.50013582 </v>
    <v>       0.16849750       0.91624755       0.49909224 </v>
    <v>       0.16627798       0.41770941       0.50056841 </v>
    <v>       0.33370806       0.33277253       0.40444702 </v>
    <v>       0.91590976       0.66705614       0.49991503 </v>
    <v>       0.99949110       0.24761160       0.59719433 </v>
    <v>       0.91521716       0.41882712       0.50027510 </v>
    <v>       0.08376857       0.33260161       0.40352520 </v>
    <v>       0.00012607       0.00070506       0.59697360 </v>
    <v>       0.41583866       0.66721524       0.49920805 </v>
    <v>       0.24983297       0.75086244       0.59597034 </v>
   </varray>
  </structure>
  <varray name="forces" >
   <v>      -0.01056512      -0.00235135      -0.00277403 </v>
   <v>       0.00259138       0.01112682      -0.00430141 </v>
   <v>       0.00651215       0.01638117       0.02062452 </v>
   <v>      -0.00925853      -0.00945253       0.01558754 </v>
   <v>       0.01038723      -0.00421196      -0.01092815 </v>
   <v>       0.01803838      -0.00394882      -0.00247648 </v>
   <v>       0.01386789      -0.00073753      -0.00284765 </v>
   <v>       0.00624484       0.02176669      -0.01449927 </v>
   <v>       0.00985868      -0.01434544      -0.00180848 </v>
   <v>      -0.00014236      -0.00543974       0.00646398 </v>
   <v>      -0.01148479      -0.00419983      -0.02524875 </v>
   <v>       0.00058796      -0.01401860      -0.00789228 </v>
   <v>      -0.00404072       0.00098865      -0.01713388 </v>
   <v>       0.00257329       0.01416561      -0.02156995 </v>
   <v>       0.00275603       0.01282133      -0.00435701 </v>
   <v>      -0.00441889      -0.00590714       0.00896248 </v>
   <v>      -0.02473907       0.01602864       0.00277411 </v>
   <v>       0.00610796       0.00737856       0.01639398 </v>
   <v>      -0.00048032      -0.00738438       0.02760412 </v>
   <v>      -0.00796697      -0.01399680       0.01683206 </v>
   <v>      -0.00442832      -0.00780037      -0.00401386 </v>
   <v>      -0.00099928       0.01676120       0.01859446 </v>
   <v>      -0.00441377      -0.00171496      -0.01308235 </v>
   <v>       0.02018691      -0.00678275       0.00379401 </v>
   <v>      -0.00517625       0.01608402       0.00521875 </v>
   <v>      -0.00030418       0.01029212       0.00999066 </v>
   <v>       0.00032832       0.00682554      -0.01055927 </v>
   <v>       0.00280701      -0.00753268       0.00152956 </v>
   <v>       0.00544905      -0.00230835      -0.01722099 </v>
   <v>      -0.01023302       0.00387789      -0.00790344 </v>
   <v>      -0.00873778      -0.00109649       0.00688373 </v>
   <v>       0.00976857      -0.00202242      -0.00098595 </v>
   <v>       0.01821606       0.01210487      -0.01098596 </v>
   <v>       0.00827612      -0.00129314      -0.00808056 </v>
   <v>       0.01421388      -0.00666891       0.00465782 </v>
   <v>      -0.00211328      -0.01188701      -0.00221523 </v>
   <v>       0.00131264      -0.00153070      -0.00551285 </v>
   <v>      -0.00596054      -0.00336751      -0.00409412 </v>
   <v>      -0.00710980      -0.00358428      -0.02183147 </v>
   <v>      -0.01157889      -0.01010155      -0.00287195 </v>
   <v>      -0.01115290      -0.00545749       0.01966993 </v>
   <v>      -0.00996913      -0.00673358       0.01907385 </v>
   <v>      -0.00404447      -0.01020765       0.02250846 </v>
   <v>      -0.00844246       0.00417631       0.00380394 </v>
   <v>       0.01437263       0.00732946       0.00897555 </v>
   <v>      -0.01240037      -0.00956364      -0.00078511 </v>
   <v>       0.00299883       0.00136907      -0.00496121 </v>
   <v>       0.00270541       0.00616967      -0.00900187 </v>
  </varray>
  <energy>
   <i name="e_fr_energy">   -193.26473337 </i>
   <i name="e_wo_entrp">   -193.14329541 </i>
   <i name="e_0_energy">     -0.24287593 </i>
  </energy>
  <time name="totalsc">  277.23  281.24</time>
 </calculation>
 <calculation>
  <scstep>
   <time name="dav">    9.72   10.50</time>
   <time name="total">   10.08   10.88</time>
   <dipole>
    <v name="dipole">      0.00000000       0.00000000      -0.00607922 </v>
    <i name="Tr[quadrupol]"> -10277.07648753 </i>
    <i name="Echarged">      0.00000000 </i>
    <i name="Edipol_quadrupol">      0.00000000 </i>
    <i name="Eion">      0.00000000 </i>
   </dipole>
   <energy>
    <i name="alphaZ">    805.87041750 </i>
    <i name="ewald"> 185490.81349930 </i>
    <i name="hartreedc">-227765.34837479 </i>
    <i name="XCdc">   -353.51092281 </i>
    <i name="pawpsdc">  47453.64734299 </i>
    <i name="pawaedc"> -45517.65007725 </i>
    <i name="eentropy">     -0.24287870 </i>
    <i name="bandstr">  -1966.62995659 </i>
    <i name="atom">  41659.78587232 </i>
    <i name="e_fr_energy">   -193.26507803 </i>
    <i name="e_wo_entrp">   -193.02219933 </i>
    <i name="e_0_energy">   -193.14363868 </i>
   </energy>
  </scstep>
  <scstep>
   <time name="diag">    1.66    1.66</time>
   <time name="diis">    4.40    4.47</time>
   <time name="orth">    0.41    0.41</time>
   <time name="total">    6.83    6.91</time>
   <dipole>
    <v name="dipole">      0.00000000       0.00000000      -0.00580877 </v>
    <i name="Tr[quadrupol]"> -10277.07699290 </i>
    <i name="Echarged">      0.00000000 </i>
    <i name="Edipol_quadrupol">      0.00000000 </i>
    <i name="Eion">      0.00000000 </i>
   </dipole>
   <energy>
    <i name="e_fr_energy">   -193.26519984 </i>
    <i name="e_wo_entrp">   -193.02234347 </i>
    <i name="e_0_energy">   -193.14377165 </i>
   </energy>
  </scstep>
  <scstep>
   <time name="diag">    1.66    1.67</time>
   <time name="diis">    4.82    4.82</time>
   <time name="orth">    0.41    0.41</time>
   <time name="total">    7.25    7.26</time>
   <dipole>
    <v name="dipole">      0.00000000       0.00000000      -0.00654532 </v>
    <i name="Tr[quadrupol]"> -10277.07675080 </i>
    <i name="Echarged">      0.00000000 </i>
    <i name="Edipol_quadrupol">      0.00000000 </i>
    <i name="Eion">      0.00000000 </i>
   </dipole>
   <energy>
    <i name="e_fr_energy">   -193.26520604 </i>
    <i name="e_wo_entrp">   -193.02231388 </i>
    <i name="e_0_energy">   -193.14375996 </i>
   </energy>
  </scstep>
  <scstep>
   <time name="diag">    1.66    1.66</time>
   <time name="diis">    4.55    4.55</time>
   <time name="orth">    0.40    0.40</time>
   <time name="total">    6.97    6.98</time>
   <dipole>
    <v name="dipole">      0.00000000       0.00000000      -0.00532474 </v>
    <i name="Tr[quadrupol]"> -10277.07682343 </i>
    <i name="Echarged">      0.00000000 </i>
    <i name="Edipol_quadrupol">      0.00000000 </i>
    <i name="Eion">      0.00000000 </i>
   </dipole>
   <energy>
    <i name="e_fr_energy">   -193.26520096 </i>
    <i name="e_wo_entrp">   -193.02233074 </i>
    <i name="e_0_energy">   -193.14376585 </i>
   </energy>
  </scstep>
  <scstep>
   <time name="diag">    1.66    1.66</time>
   <time name="diis">    4.32    4.33</time>
   <time name="orth">    0.41    0.41</time>
   <time name="total">    6.75    6.76</time>
   <dipole>
    <v name="dipole">      0.00000000       0.00000000      -0.00643804 </v>
    <i name="Tr[quadrupol]"> -10277.07684365 </i>
    <i name="Echarged">      0.00000000 </i>
    <i name="Edipol_quadrupol">      0.00000000 </i>
    <i name="Eion">      0.00000000 </i>
   </dipole>
   <energy>
    <i name="e_fr_energy">   -193.26519679 </i>
    <i name="e_wo_entrp">   -193.02233419 </i>
    <i name="e_0_energy">   -193.14376549 </i>
   </energy>
  </scstep>
  <scstep>
   <time name="diag">    1.67    1.67</time>
   <time name="diis">    4.54    4.54</time>
   <time name="orth">    0.40    0.40</time>
   <time name="total">    6.97    6.98</time>
   <dipole>
    <v name="dipole">      0.00000000       0.00000000      -0.00586049 </v>
    <i name="Tr[quadrupol]"> -10277.07838040 </i>
    <i name="Echarged">      0.00000000 </i>
    <i name="Edipol_quadrupol">      0.00000000 </i>
    <i name="Eion">      0.00000000 </i>
   </dipole>
   <energy>
    <i name="e_fr_energy">   -193.26519742 </i>
    <i name="e_wo_entrp">   -193.02235661 </i>
    <i name="e_0_energy">   -193.14377701 </i>
   </energy>
  </scstep>
  <scstep>
   <time name="diag">    1.66    1.66</time>
   <time name="diis">    4.03    4.03</time>
   <time name="orth">    0.41    0.41</time>
   <time name="total">    6.46    6.47</time>
   <dipole>
    <v name="dipole">      0.00000000       0.00000000      -0.00594385 </v>
    <i name="Tr[quadrupol]"> -10277.07822906 </i>
    <i name="Echarged">      0.00000000 </i>
    <i name="Edipol_quadrupol">      0.00000000 </i>
    <i name="Eion">      0.00000000 </i>
   </dipole>
   <energy>
    <i name="e_fr_energy">   -193.26519358 </i>
    <i name="e_wo_entrp">   -193.02229855 </i>
    <i name="e_0_energy">   -193.14374606 </i>
   </energy>
  </scstep>
  <scstep>
   <time name="diag">    1.66    1.66</time>
   <time name="diis">    2.50    2.56</time>
   <time name="orth">    0.40    0.40</time>
   <time name="total">    4.62    4.69</time>
   <dipole>
    <v name="dipole">      0.00000000       0.00000000      -0.00602888 </v>
    <i name="Tr[quadrupol]"> -10277.07883820 </i>
    <i name="Echarged">      0.00000000 </i>
    <i name="Edipol_quadrupol">      0.00000000 </i>
    <i name="Eion">      0.00000000 </i>
   </dipole>
   <energy>
    <i name="alphaZ">    805.87040879 </i>
    <i name="ewald"> 185490.81349930 </i>
    <i name="hartreedc">-227765.35852821 </i>
    <i name="XCdc">   -353.51109056 </i>
    <i name="pawpsdc">  47454.43590859 </i>
    <i name="pawaedc"> -45518.44591324 </i>
    <i name="eentropy">     -0.24285943 </i>
    <i name="bandstr">  -1966.61249102 </i>
    <i name="atom">  41659.78587232 </i>
    <i name="e_fr_energy">   -193.26519345 </i>
    <i name="e_wo_entrp">   -193.02233402 </i>
    <i name="e_0_energy">   -193.14376374 </i>
   </energy>
  </scstep>
  <structure>
   <crystal>
    <varray name="basis" >
     <v>      11.00258152       0.00000000       0.00000000 </v>
     <v>       5.50129076       9.52851510       0.00000000 </v>
     <v>       0.00000000       0.00000000      24.49178509 </v>
    </varray>
    <i name="volume">   2567.67623402 </i>
    <varray name="rec_basis" >
     <v>       0.09088776      -0.05247407       0.00000000 </v>
     <v>       0.00000000       0.10494815       0.00000000 </v>
     <v>       0.00000000       0.00000000       0.04083002 </v>
    </varray>
   </crystal>
   <varray name="positions" >
    <v>       0.74701292       0.75186605       0.60232664 </v>
    <v>       0.50175440       0.24855471       0.60027138 </v>
    <v>       0.58646993       0.33270264       0.39924743 </v>
    <v>       0.58354499       0.08336881       0.39925635 </v>
    <v>       0.74928918       0.00133480       0.60254896 </v>
    <v>       0.33481091       0.83341922       0.39842313 </v>
    <v>       0.25067308       0.50027942       0.60232654 </v>
    <v>       0.16761583       0.66600617       0.49970233 </v>
    <v>       0.33631487       0.58120822       0.39721125 </v>
    <v>       0.25059567       0.24730180       0.60261621 </v>
    <v>       0.25084558       0.99645355       0.60137628 </v>
    <v>       0.16708303       0.16823319       0.49985270 </v>
    <v>       0.50020367       0.50153325       0.60053077 </v>
    <v>       0.00064512       0.75175533       0.60454994 </v>
    <v>       0.91433377       0.16906707       0.49963671 </v>
    <v>       0.83269172       0.83323050       0.39842469 </v>
    <v>       0.75071288       0.49752836       0.60224267 </v>
    <v>       0.33223243       0.08450931       0.39769495 </v>
    <v>       0.83336478       0.58012105       0.39864911 </v>
    <v>       0.08507259       0.57966071       0.39806562 </v>
    <v>       0.66521141       0.66816737       0.50034431 </v>
    <v>       0.99995222       0.49849356       0.60049271 </v>
    <v>       0.08318291       0.83574961       0.39461848 </v>
    <v>       0.91492651       0.91775202       0.50008803 </v>
    <v>       0.66362394       0.16838308       0.49971578 </v>
    <v>       0.83580103       0.33127959       0.40315636 </v>
    <v>       0.83469862       0.08359338       0.40239240 </v>
    <v>       0.49853672       0.75071805       0.59593585 </v>
    <v>       0.58382868       0.83222248       0.40365768 </v>
    <v>       0.41510922       0.91826444       0.49902554 </v>
    <v>       0.75244516       0.24856462       0.59639660 </v>
    <v>       0.66397816       0.41787330       0.50022095 </v>
    <v>       0.08138379       0.08530000       0.40242186 </v>
    <v>       0.58554457       0.58180602       0.40369913 </v>
    <v>       0.41740932       0.41613780       0.50001203 </v>
    <v>       0.49919430       0.99934188       0.59572889 </v>
    <v>       0.41722283       0.16744769       0.49979253 </v>
    <v>       0.66410525       0.91925654       0.50013017 </v>
    <v>       0.16848203       0.91623485       0.49906214 </v>
    <v>       0.16626034       0.41767361       0.50056445 </v>
    <v>       0.33368350       0.33275318       0.40447414 </v>
    <v>       0.91589109       0.66703228       0.49994133 </v>
    <v>       0.99949678       0.24757543       0.59722537 </v>
    <v>       0.91518385       0.41884192       0.50028035 </v>
    <v>       0.08379970       0.33262758       0.40353758 </v>
    <v>       0.00010495       0.00067116       0.59697252 </v>
    <v>       0.41584543       0.66722009       0.49920121 </v>
    <v>       0.24983034       0.75088430       0.59595793 </v>
   </varray>
  </structure>
  <varray name="forces" >
   <v>      -0.00764620       0.00018172      -0.00202365 </v>
   <v>       0.00056928       0.00419459      -0.00339998 </v>
   <v>       0.00225204       0.00750746       0.01734878 </v>
   <v>      -0.00244836      -0.00479184       0.01237249 </v>
   <v>       0.00361324      -0.00202688      -0.01027899 </v>
   <v>       0.01266197      -0.00380714      -0.00372564 </v>
   <v>       0.00710586       0.00178724      -0.00440052 </v>
   <v>       0.00460060       0.00967033      -0.01467297 </v>
   <v>       0.00387294      -0.00708835      -0.00091527 </v>
   <v>      -0.00128691      -0.00158208       0.00535003 </v>
   <v>      -0.00959175      -0.00430172      -0.02289401 </v>
   <v>      -0.00239208      -0.00940486      -0.00457815 </v>
   <v>      -0.00451972       0.00196858      -0.01492645 </v>
   <v>       0.00268852       0.00691553      -0.01934246 </v>
   <v>       0.00205312       0.00826200      -0.00263166 </v>
   <v>      -0.00062441      -0.00430763       0.00694583 </v>
   <v>      -0.01679923       0.00762847       0.00272386 </v>
   <v>       0.00504968       0.00423426       0.01393433 </v>
   <v>       0.00108714      -0.00430789       0.02617230 </v>
   <v>      -0.00376212      -0.00848331       0.01655600 </v>
   <v>      -0.00569030      -0.00276629      -0.00437365 </v>
   <v>      -0.00197974       0.00862777       0.01715774 </v>
   <v>      -0.00101772      -0.00154991      -0.01340811 </v>
   <v>       0.01109354       0.00046497      -0.00082301 </v>
   <v>      -0.00229803       0.00750829       0.00478326 </v>
   <v>       0.00197095       0.00615941       0.00677604 </v>
   <v>       0.00041315       0.00565021      -0.00829311 </v>
   <v>      -0.00011085      -0.00415800       0.00096324 </v>
   <v>       0.00573959      -0.00265365      -0.01564979 </v>
   <v>      -0.00608136       0.00056633      -0.00674923 </v>
   <v>      -0.00587347      -0.00064413       0.00664638 </v>
   <v>       0.00755598      -0.00077998      -0.00063489 </v>
   <v>       0.01350577       0.00848057      -0.01027987 </v>
   <v>       0.00672123       0.00011268      -0.00817664 </v>
   <v>       0.00855420      -0.00145814       0.00423533 </v>
   <v>      -0.00155603      -0.00825768      -0.00275831 </v>
   <v>       0.00096357      -0.00197874      -0.00183315 </v>
   <v>      -0.00345923      -0.00300959      -0.00338047 </v>
   <v>      -0.00244172       0.00105082      -0.01990826 </v>
   <v>      -0.00764727      -0.00612405       0.00286325 </v>
   <v>      -0.00575073      -0.00290654       0.01756399 </v>
   <v>      -0.00501941      -0.00549287       0.01849657 </v>
   <v>      -0.00470820      -0.00470401       0.02010674 </v>
   <v>      -0.00442300       0.00061505       0.00723041 </v>
   <v>       0.00846475       0.00588162       0.00780247 </v>
   <v>      -0.00866517      -0.00522288      -0.00145052 </v>
   <v>       0.00321033      -0.00000462      -0.00519108 </v>
   <v>       0.00204555       0.00434484      -0.00932919 </v>
  </varray>
  <energy>
   <i name="e_fr_energy">   -193.26519345 </i>
   <i name="e_wo_entrp">   -193.14376374 </i>
   <i name="e_0_energy">     -0.24285943 </i>
  </energy>
  <time name="totalsc">   59.04   60.03</time>
 </calculation>
 <calculation>
  <scstep>
   <time name="dav">    9.58   10.20</time>
   <time name="total">    9.95   10.57</time>
   <dipole>
    <v name="dipole">      0.00000000       0.00000000      -0.00600808 </v>
    <i name="Tr[quadrupol]"> -10278.73720868 </i>
    <i name="Echarged">      0.00000000 </i>
    <i name="Edipol_quadrupol">      0.00000000 </i>
    <i name="Eion">      0.00000000 </i>
   </dipole>
   <energy>
    <i name="alphaZ">    805.87040537 </i>
    <i name="ewald"> 185515.14957106 </i>
    <i name="hartreedc">-227789.62270662 </i>
    <i name="XCdc">   -353.49648870 </i>
    <i name="pawpsdc">  47454.43443928 </i>
    <i name="pawaedc"> -45518.44467170 </i>
    <i name="eentropy">     -0.24287894 </i>
    <i name="bandstr">  -1966.69840684 </i>
    <i name="atom">  41659.78587232 </i>
    <i name="e_fr_energy">   -193.26486477 </i>
    <i name="e_wo_entrp">   -193.02198583 </i>
    <i name="e_0_energy">   -193.14342530 </i>
   </energy>
  </scstep>
  <scstep>
   <time name="diag">    1.65    1.65</time>
   <time name="diis">    4.47    4.47</time>
   <time name="orth">    0.41    0.41</time>
   <time name="total">    6.89    6.89</time>
   <dipole>
    <v name="dipole">      0.00000000       0.00000000      -0.00524688 </v>
    <i name="Tr[quadrupol]"> -10278.73791214 </i>
    <i name="Echarged">      0.00000000 </i>
    <i name="Edipol_quadrupol">      0.00000000 </i>
    <i name="Eion">      0.00000000 </i>
   </dipole>
   <energy>
    <i name="e_fr_energy">   -193.26573423 </i>
    <i name="e_wo_entrp">   -193.02291597 </i>
    <i name="e_0_energy">   -193.14432510 </i>
   </energy>
  </scstep>
  <scstep>
   <time name="diag">    1.66    1.67</time>
   <time name="diis">    4.81    4.82</time>
   <time name="orth">    0.40    0.40</time>
   <time name="total">    7.23    7.25</time>
   <dipole>
    <v name="dipole">      0.00000000       0.00000000      -0.00742081 </v>
    <i name="Tr[quadrupol]"> -10278.73600882 </i>
    <i name="Echarged">      0.00000000 </i>
    <i name="Edipol_quadrupol">      0.00000000 </i>
    <i name="Eion">      0.00000000 </i>
   </dipole>
   <energy>
    <i name="e_fr_energy">   -193.26578983 </i>
    <i name="e_wo_entrp">   -193.02286944 </i>
    <i name="e_0_energy">   -193.14432963 </i>
   </energy>
  </scstep>
  <scstep>
   <time name="diag">    1.66    1.66</time>
   <time name="diis">    4.43    4.44</time>
   <time name="orth">    0.40    0.40</time>
   <time name="total">    6.86    6.87</time>
   <dipole>
    <v name="dipole">      0.00000000       0.00000000      -0.00399928 </v>
    <i name="Tr[quadrupol]"> -10278.73617980 </i>
    <i name="Echarged">      0.00000000 </i>
    <i name="Edipol_quadrupol">      0.00000000 </i>
    <i name="Eion">      0.00000000 </i>
   </dipole>
   <energy>
    <i name="e_fr_energy">   -193.26574349 </i>
    <i name="e_wo_entrp">   -193.02289061 </i>
    <i name="e_0_energy">   -193.14431705 </i>
   </energy>
  </scstep>
  <scstep>
   <time name="diag">    1.66    1.66</time>
   <time name="diis">    4.38    4.45</time>
   <time name="orth">    0.40    0.40</time>
   <time name="total">    6.80    6.88</time>
   <dipole>
    <v name="dipole">      0.00000000       0.00000000      -0.00692030 </v>
    <i name="Tr[quadrupol]"> -10278.73591818 </i>
    <i name="Echarged">      0.00000000 </i>
    <i name="Edipol_quadrupol">      0.00000000 </i>
    <i name="Eion">      0.00000000 </i>
   </dipole>
   <energy>
    <i name="e_fr_energy">   -193.26570946 </i>
    <i name="e_wo_entrp">   -193.02287695 </i>
    <i name="e_0_energy">   -193.14429320 </i>
   </energy>
  </scstep>
  <scstep>
   <time name="diag">    1.66    1.67</time>
   <time name="diis">    4.58    4.58</time>
   <time name="orth">    0.40    0.40</time>
   <time name="total">    7.01    7.02</time>
   <dipole>
    <v name="dipole">      0.00000000       0.00000000      -0.00549435 </v>
    <i name="Tr[quadrupol]"> -10278.73817357 </i>
    <i name="Echarged">      0.00000000 </i>
    <i name="Edipol_quadrupol">      0.00000000 </i>
    <i name="Eion">      0.00000000 </i>
   </dipole>
   <energy>
    <i name="e_fr_energy">   -193.26570859 </i>
    <i name="e_wo_entrp">   -193.02291077 </i>
    <i name="e_0_energy">   -193.14430968 </i>
   </energy>
  </scstep>
  <scstep>
   <time name="diag">    1.66    1.66</time>
   <time name="diis">    4.39    4.39</time>
   <time name="orth">    0.40    0.40</time>
   <time name="total">    6.81    6.82</time>
   <dipole>
    <v name="dipole">      0.00000000       0.00000000      -0.00572614 </v>
    <i name="Tr[quadrupol]"> -10278.73739468 </i>
    <i name="Echarged">      0.00000000 </i>
    <i name="Edipol_quadrupol">      0.00000000 </i>
    <i name="Eion">      0.00000000 </i>
   </dipole>
   <energy>
    <i name="e_fr_energy">   -193.26568434 </i>
    <i name="e_wo_entrp">   -193.02275932 </i>
    <i name="e_0_energy">   -193.14422183 </i>
   </energy>
  </scstep>
  <scstep>
   <time name="diag">    1.66    1.66</time>
   <time name="diis">    3.83    3.83</time>
   <time name="orth">    0.40    0.40</time>
   <time name="total">    6.26    6.26</time>
   <dipole>
    <v name="dipole">      0.00000000       0.00000000      -0.00594966 </v>
    <i name="Tr[quadrupol]"> -10278.73844427 </i>
    <i name="Echarged">      0.00000000 </i>
    <i name="Edipol_quadrupol">      0.00000000 </i>
    <i name="Eion">      0.00000000 </i>
   </dipole>
   <energy>
    <i name="e_fr_energy">   -193.26568311 </i>
    <i name="e_wo_entrp">   -193.02285600 </i>
    <i name="e_0_energy">   -193.14426955 </i>
   </energy>
  </scstep>
  <scstep>
   <time name="diag">    1.66    1.66</time>
   <time name="diis">    2.84    3.56</time>
   <time name="orth">    0.41    0.41</time>
   <time name="total">    5.27    5.99</time>
   <dipole>
    <v name="dipole">      0.00000000       0.00000000      -0.00588809 </v>
    <i name="Tr[quadrupol]"> -10278.73766696 </i>
    <i name="Echarged">      0.00000000 </i>
    <i name="Edipol_quadrupol">      0.00000000 </i>
    <i name="Eion">      0.00000000 </i>
   </dipole>
   <energy>
    <i name="e_fr_energy">   -193.26568031 </i>
    <i name="e_wo_entrp">   -193.02281757 </i>
    <i name="e_0_energy">   -193.14424894 </i>
   </energy>
  </scstep>
  <scstep>
   <time name="diag">    1.65    1.65</time>
   <time name="diis">    2.52    2.52</time>
   <time name="orth">    0.40    0.40</time>
   <time name="total">    4.62    4.63</time>
   <dipole>
    <v name="dipole">      0.00000000       0.00000000      -0.00590597 </v>
    <i name="Tr[quadrupol]"> -10278.73833946 </i>
    <i name="Echarged">      0.00000000 </i>
    <i name="Edipol_quadrupol">      0.00000000 </i>
    <i name="Eion">      0.00000000 </i>
   </dipole>
   <energy>
    <i name="alphaZ">    805.87038770 </i>
    <i name="ewald"> 185515.14957106 </i>
    <i name="hartreedc">-227789.60211679 </i>
    <i name="XCdc">   -353.49702410 </i>
    <i name="pawpsdc">  47456.62627361 </i>
    <i name="pawaedc"> -45520.65665305 </i>
    <i name="eentropy">     -0.24286890 </i>
    <i name="bandstr">  -1966.69912138 </i>
    <i name="atom">  41659.78587232 </i>
    <i name="e_fr_energy">   -193.26567953 </i>
    <i name="e_wo_entrp">   -193.02281063 </i>
    <i name="e_0_energy">   -193.14424508 </i>
   </energy>
  </scstep>
  <structure>
   <crystal>
    <varray name="basis" >
     <v>      11.00258152       0.00000000       0.00000000 </v>
     <v>       5.50129076       9.52851510       0.00000000 </v>
     <v>       0.00000000       0.00000000      24.49178509 </v>
    </varray>
    <i name="volume">   2567.67623402 </i>
    <varray name="rec_basis" >
     <v>       0.09088776      -0.05247407       0.00000000 </v>
     <v>       0.00000000       0.10494815       0.00000000 </v>
     <v>       0.00000000       0.00000000       0.04083002 </v>
    </varray>
   </crystal>
   <varray name="positions" >
    <v>       0.74693743       0.75184379       0.60231643 </v>
    <v>       0.50172298       0.24866004       0.60025553 </v>
    <v>       0.58644578       0.33285771       0.39932338 </v>
    <v>       0.58351383       0.08327933       0.39931376 </v>
    <v>       0.74939427       0.00129493       0.60250872 </v>
    <v>       0.33497748       0.83338184       0.39841401 </v>
    <v>       0.25079026       0.50027244       0.60231606 </v>
    <v>       0.16756400       0.66621222       0.49964893 </v>
    <v>       0.33646360       0.58107242       0.39720459 </v>
    <v>       0.25062025       0.24725030       0.60264001 </v>
    <v>       0.25077130       0.99641379       0.60128329 </v>
    <v>       0.16715420       0.16810048       0.49982363 </v>
    <v>       0.50016586       0.50154261       0.60046767 </v>
    <v>       0.00059917       0.75188942       0.60447050 </v>
    <v>       0.91429568       0.16918844       0.49962067 </v>
    <v>       0.83268345       0.83317458       0.39845770 </v>
    <v>       0.75043420       0.49768010       0.60225289 </v>
    <v>       0.33224758       0.08457916       0.39775532 </v>
    <v>       0.83339579       0.58005114       0.39875077 </v>
    <v>       0.08507352       0.57952821       0.39812761 </v>
    <v>       0.66521203       0.66809352       0.50032953 </v>
    <v>       0.99986470       0.49865222       0.60056120 </v>
    <v>       0.08315484       0.83573338       0.39457030 </v>
    <v>       0.91512411       0.91768781       0.50010201 </v>
    <v>       0.66350538       0.16853534       0.49973500 </v>
    <v>       0.83574982       0.33137702       0.40319315 </v>
    <v>       0.83466900       0.08365799       0.40235351 </v>
    <v>       0.49859538       0.75064674       0.59594148 </v>
    <v>       0.58388428       0.83220062       0.40359426 </v>
    <v>       0.41500697       0.91830115       0.49899644 </v>
    <v>       0.75237872       0.24855424       0.59642196 </v>
    <v>       0.66406782       0.41785416       0.50021732 </v>
    <v>       0.08147583       0.08541459       0.40238140 </v>
    <v>       0.58561854       0.58179378       0.40366938 </v>
    <v>       0.41755741       0.41607467       0.50002918 </v>
    <v>       0.49923324       0.99922935       0.59572074 </v>
    <v>       0.41724084       0.16743320       0.49977223 </v>
    <v>       0.66407233       0.91922466       0.50011509 </v>
    <v>       0.16844071       0.91620092       0.49898174 </v>
    <v>       0.16621323       0.41757798       0.50055387 </v>
    <v>       0.33361790       0.33270152       0.40454658 </v>
    <v>       0.91584124       0.66696854       0.50001158 </v>
    <v>       0.99951194       0.24747880       0.59730826 </v>
    <v>       0.91509487       0.41888146       0.50029436 </v>
    <v>       0.08388284       0.33269697       0.40357064 </v>
    <v>       0.00004856       0.00058063       0.59696962 </v>
    <v>       0.41586354       0.66723305       0.49918294 </v>
    <v>       0.24982332       0.75094271       0.59592478 </v>
   </varray>
  </structure>
  <varray name="forces" >
   <v>       0.00125556       0.00460179       0.00209024 </v>
   <v>      -0.00429770      -0.01599733      -0.00124281 </v>
   <v>      -0.00517273      -0.01617850       0.00903956 </v>
   <v>       0.01406348       0.00734102       0.00846239 </v>
   <v>      -0.01656844       0.00646965      -0.00844730 </v>
   <v>      -0.00371325      -0.00243372      -0.00781163 </v>
   <v>      -0.01197278       0.00904951      -0.00895132 </v>
   <v>       0.00069470      -0.02573355      -0.01274013 </v>
   <v>      -0.00742422       0.00801227      -0.00110715 </v>
   <v>      -0.00450385       0.00426913       0.00232432 </v>
   <v>      -0.00170256      -0.00329402      -0.01926636 </v>
   <v>      -0.01152776       0.00770548       0.00658720 </v>
   <v>      -0.00232700       0.00677602      -0.00732925 </v>
   <v>       0.00111347      -0.01480854      -0.01377823 </v>
   <v>       0.00033586      -0.00515576       0.00209803 </v>
[...]
       <r>    2.3723    0.0000 </r>
       <r>    2.4177    0.0000 </r>
       <r>    2.4802    0.0000 </r>
       <r>    2.6347    0.0000 </r>
       <r>    2.7326    0.0000 </r>
       <r>    2.9585    0.0000 </r>
       <r>    3.1056    0.0000 </r>
       <r>    3.1672    0.0000 </r>
       <r>    3.5471    0.0000 </r>
       <r>    3.6504    0.0000 </r>
       <r>    3.8085    0.0000 </r>
       <r>    4.0267    0.0000 </r>
       <r>    4.1088    0.0000 </r>
       <r>    4.2099    0.0000 </r>
       <r>    4.5128    0.0000 </r>
       <r>    4.5468    0.0000 </r>
       <r>    4.6094    0.0000 </r>
       <r>    4.6321    0.0000 </r>
       <r>    4.7063    0.0000 </r>
       <r>    4.7807    0.0000 </r>
       <r>    4.8544    0.0000 </r>
       <r>    4.9374    0.0000 </r>
       <r>    4.9677    0.0000 </r>
       <r>    5.0338    0.0000 </r>
       <r>    5.0684    0.0000 </r>
       <r>    5.0787    0.0000 </r>
       <r>    5.1707    0.0000 </r>
       <r>    5.2515    0.0000 </r>
      </set>
     </set>
    </set>
   </array>
  </eigenvalues>
  <separator name="orbital magnetization" >
   <v name="MAGDIPOLOUT">      0.00000000      0.00000000      0.00000000</v>
  </separator>
  <dos>
   <i name="efermi">     -1.08987146 </i>
   <total>
    <array>
     <dimension dim="1">gridpoints</dimension>
     <dimension dim="2">spin</dimension>
     <field>energy</field>
     <field>total</field>
     <field>integrated</field>
     <set>
      <set comment="spin 1">
       <r>    -9.5889     0.0000     0.0000 </r>
       <r>    -9.5357     0.0000     0.0000 </r>
       <r>    -9.4825     0.0000     0.0000 </r>
       <r>    -9.4293     0.0000     0.0000 </r>
       <r>    -9.3761     0.0000     0.0000 </r>
       <r>    -9.3229     0.0000     0.0000 </r>
       <r>    -9.2698     0.0000     0.0000 </r>
       <r>    -9.2166     0.0000     0.0000 </r>
       <r>    -9.1634     0.0000     0.0000 </r>
       <r>    -9.1102     0.0000     0.0000 </r>
       <r>    -9.0570     0.0000     0.0000 </r>
       <r>    -9.0038     0.0000     0.0000 </r>
       <r>    -8.9506     0.0000     0.0000 </r>
       <r>    -8.8975     0.0001     0.0000 </r>
       <r>    -8.8443     0.0025     0.0001 </r>
       <r>    -8.7911     0.0338     0.0019 </r>
       <r>    -8.7379     0.2704     0.0163 </r>
       <r>    -8.6847     1.2556     0.0831 </r>
       <r>    -8.6315     3.3961     0.2637 </r>
       <r>    -8.5783     5.3935     0.5506 </r>
       <r>    -8.5252     5.2852     0.8317 </r>
       <r>    -8.4720     4.2192     1.0561 </r>
       <r>    -8.4188     4.6884     1.3054 </r>
       <r>    -8.3656     5.6240     1.6045 </r>
       <r>    -8.3124     4.5362     1.8458 </r>
       <r>    -8.2592     2.1784     1.9617 </r>
       <r>    -8.2060     0.6148     1.9944 </r>
       <r>    -8.1529     0.1415     2.0019 </r>
       <r>    -8.0997     0.3114     2.0184 </r>
       <r>    -8.0465     1.3851     2.0921 </r>
       <r>    -7.9933     4.1185     2.3112 </r>
       <r>    -7.9401     8.1189     2.7430 </r>
       <r>    -7.8869    10.9260     3.3241 </r>
       <r>    -7.8337    10.8366     3.9004 </r>
       <r>    -7.7806     9.3953     4.4001 </r>
       <r>    -7.7274     8.8914     4.8730 </r>
       <r>    -7.6742     9.9230     5.4008 </r>
       <r>    -7.6210    10.9764     5.9846 </r>
       <r>    -7.5678     9.8446     6.5082 </r>
       <r>    -7.5146     7.1438     6.8881 </r>
       <r>    -7.4614     5.7867     7.1959 </r>
       <r>    -7.4083     6.7385     7.5543 </r>
       <r>    -7.3551     8.4043     8.0013 </r>
       <r>    -7.3019     9.5849     8.5110 </r>
       <r>    -7.2487    10.3733     9.0627 </r>
       <r>    -7.1955    11.1540     9.6560 </r>
       <r>    -7.1423    12.8825    10.3411 </r>
       <r>    -7.0891    16.7828    11.2337 </r>
       <r>    -7.0360    21.8011    12.3933 </r>
       <r>    -6.9828    25.3162    13.7397 </r>
       <r>    -6.9296    26.9566    15.1734 </r>
       <r>    -6.8764    28.4144    16.6847 </r>
       <r>    -6.8232    31.4778    18.3588 </r>
       <r>    -6.7700    36.2031    20.2843 </r>
       <r>    -6.7168    40.3489    22.4303 </r>
       <r>    -6.6637    42.7166    24.7022 </r>
       <r>    -6.6105    44.3315    27.0600 </r>
       <r>    -6.5573    46.5037    29.5333 </r>
       <r>    -6.5041    49.6826    32.1757 </r>
       <r>    -6.4509    53.0986    34.9998 </r>
       <r>    -6.3977    55.4171    37.9472 </r>
       <r>    -6.3445    56.3580    40.9447 </r>
       <r>    -6.2914    57.6849    44.0127 </r>
       <r>    -6.2382    61.9182    47.3058 </r>
       <r>    -6.1850    68.6337    50.9562 </r>
       <r>    -6.1318    74.3786    54.9120 </r>
       <r>    -6.0786    77.6962    59.0444 </r>
       <r>    -6.0254    79.8612    63.2918 </r>
       <r>    -5.9722    81.7744    67.6411 </r>
       <r>    -5.9191    83.5193    72.0831 </r>
       <r>    -5.8659    84.5231    76.5785 </r>
       <r>    -5.8127    83.5271    81.0210 </r>
       <r>    -5.7595    80.5732    85.3063 </r>
       <r>    -5.7063    77.2397    89.4144 </r>
       <r>    -5.6531    74.4130    93.3721 </r>
       <r>    -5.5999    72.7837    97.2431 </r>
       <r>    -5.5468    73.1318   101.1327 </r>
       <r>    -5.4936    75.5692   105.1519 </r>
       <r>    -5.4404    79.2670   109.3677 </r>
       <r>    -5.3872    82.1083   113.7347 </r>
       <r>    -5.3340    82.2988   118.1119 </r>
       <r>    -5.2808    80.1706   122.3758 </r>
       <r>    -5.2276    78.0672   126.5278 </r>
       <r>    -5.1745    78.1438   130.6840 </r>
       <r>    -5.1213    80.3040   134.9550 </r>
       <r>    -5.0681    82.3630   139.3355 </r>
       <r>    -5.0149    82.7363   143.7359 </r>
       <r>    -4.9617    82.8095   148.1402 </r>
       <r>    -4.9085    84.4993   152.6343 </r>
       <r>    -4.8553    87.0290   157.2630 </r>
       <r>    -4.8022    88.1226   161.9499 </r>
       <r>    -4.7490    87.5521   166.6064 </r>
       <r>    -4.6958    87.6579   171.2686 </r>
       <r>    -4.6426    89.1469   176.0099 </r>
       <r>    -4.5894    89.8252   180.7873 </r>
       <r>    -4.5362    88.4896   185.4937 </r>
       <r>    -4.4830    87.5696   190.1512 </r>
       <r>    -4.4299    89.1356   194.8919 </r>
       <r>    -4.3767    91.1131   199.7378 </r>
       <r>    -4.3235    91.7070   204.6153 </r>
       <r>    -4.2703    92.5079   209.5354 </r>
       <r>    -4.2171    94.2600   214.5487 </r>
       <r>    -4.1639    94.7909   219.5902 </r>
       <r>    -4.1107    92.6537   224.5180 </r>
       <r>    -4.0576    89.6401   229.2856 </r>
       <r>    -4.0044    88.7180   234.0041 </r>
       <r>    -3.9512    90.7434   238.8304 </r>
       <r>    -3.8980    93.8912   243.8241 </r>
       <r>    -3.8448    95.6737   248.9125 </r>
       <r>    -3.7916    96.2210   254.0301 </r>
       <r>    -3.7384    97.9187   259.2380 </r>
       <r>    -3.6853   100.8085   264.5995 </r>
       <r>    -3.6321   102.4677   270.0494 </r>
       <r>    -3.5789   101.8829   275.4681 </r>
       <r>    -3.5257   101.0949   280.8449 </r>
       <r>    -3.4725   101.6334   286.2503 </r>
       <r>    -3.4193   102.1797   291.6848 </r>
       <r>    -3.3661   101.9790   297.1086 </r>
       <r>    -3.3130   101.1473   302.4882 </r>
       <r>    -3.2598    99.1884   307.7636 </r>
       <r>    -3.2066    96.6313   312.9030 </r>
       <r>    -3.1534    94.6130   317.9351 </r>
       <r>    -3.1002    93.0976   322.8865 </r>
       <r>    -3.0470    91.9545   327.7772 </r>
       <r>    -2.9938    91.3804   332.6373 </r>
       <r>    -2.9407    91.0651   337.4807 </r>
       <r>    -2.8875    90.1902   342.2775 </r>
       <r>    -2.8343    88.3517   346.9766 </r>
       <r>    -2.7811    85.8989   351.5452 </r>
       <r>    -2.7279    82.5369   355.9349 </r>
       <r>    -2.6747    78.2771   360.0982 </r>
       <r>    -2.6215    75.4624   364.1117 </r>
       <r>    -2.5684    76.8848   368.2008 </r>
       <r>    -2.5152    81.9405   372.5589 </r>
       <r>    -2.4620    86.9172   377.1817 </r>
       <r>    -2.4088    89.7373   381.9544 </r>
       <r>    -2.3556    91.3634   386.8136 </r>
       <r>    -2.3024    92.7955   391.7490 </r>
       <r>    -2.2492    93.2487   396.7085 </r>
       <r>    -2.1961    92.2487   401.6148 </r>
       <r>    -2.1429    91.1571   406.4631 </r>
       <r>    -2.0897    91.0023   411.3031 </r>
       <r>    -2.0365    91.9348   416.1927 </r>
       <r>    -1.9833    93.9299   421.1884 </r>
       <r>    -1.9301    96.3354   426.3121 </r>
       <r>    -1.8769    98.5437   431.5532 </r>
       <r>    -1.8238   100.2836   436.8869 </r>
       <r>    -1.7706   101.0809   442.2629 </r>
       <r>    -1.7174   101.1990   447.6452 </r>
       <r>    -1.6642   102.0114   453.0708 </r>
       <r>    -1.6110   103.5563   458.5785 </r>
       <r>    -1.5578   103.9403   464.1066 </r>
       <r>    -1.5046   102.6919   469.5684 </r>
       <r>    -1.4515   100.8366   474.9314 </r>
       <r>    -1.3983    97.7590   480.1308 </r>
       <r>    -1.3451    92.7294   485.0627 </r>
       <r>    -1.2919    87.4043   489.7114 </r>
       <r>    -1.2387    82.8095   494.1156 </r>
       <r>    -1.1855    76.4779   498.1832 </r>
       <r>    -1.1323    66.0866   501.6980 </r>
       <r>    -1.0792    52.8102   504.5068 </r>
       <r>    -1.0260    39.5706   506.6114 </r>
       <r>    -0.9728    28.6843   508.1370 </r>
       <r>    -0.9196    20.4892   509.2267 </r>
       <r>    -0.8664    14.7823   510.0129 </r>
       <r>    -0.8132    11.5762   510.6286 </r>
       <r>    -0.7600     9.6106   511.1397 </r>
       <r>    -0.7069     7.8440   511.5569 </r>
       <r>    -0.6537     6.7559   511.9162 </r>
       <r>    -0.6005     7.3756   512.3085 </r>
       <r>    -0.5473    10.1191   512.8467 </r>
       <r>    -0.4941    14.6340   513.6250 </r>
       <r>    -0.4409    19.9530   514.6862 </r>
       <r>    -0.3877    23.1491   515.9174 </r>
       <r>    -0.3346    21.4659   517.0591 </r>
       <r>    -0.2814    17.4214   517.9857 </r>
       <r>    -0.2282    16.5883   518.8680 </r>
       <r>    -0.1750    18.8964   519.8730 </r>
       <r>    -0.1218    19.3704   520.9032 </r>
       <r>    -0.0686    17.3163   521.8242 </r>
       <r>    -0.0154    16.5138   522.7025 </r>
       <r>     0.0377    17.7553   523.6468 </r>
       <r>     0.0909    19.0589   524.6605 </r>
       <r>     0.1441    20.1623   525.7328 </r>
       <r>     0.1973    20.6292   526.8300 </r>
       <r>     0.2505    19.6122   527.8731 </r>
       <r>     0.3037    18.1567   528.8388 </r>
       <r>     0.3569    16.9638   529.7410 </r>
       <r>     0.4100    15.7697   530.5797 </r>
       <r>     0.4632    15.4894   531.4035 </r>
       <r>     0.5164    16.1401   532.2619 </r>
       <r>     0.5696    16.1914   533.1231 </r>
       <r>     0.6228    16.2054   533.9850 </r>
       <r>     0.6760    18.0471   534.9448 </r>
       <r>     0.7292    21.0223   536.0629 </r>
       <r>     0.7823    21.8207   537.2235 </r>
       <r>     0.8355    18.4017   538.2022 </r>
       <r>     0.8887    13.0354   538.8955 </r>
       <r>     0.9419     9.9082   539.4225 </r>
       <r>     0.9951     9.7952   539.9434 </r>
       <r>     1.0483    10.3921   540.4961 </r>
       <r>     1.1015    10.2313   541.0403 </r>
       <r>     1.1546     9.2579   541.5327 </r>
       <r>     1.2078     7.7697   541.9459 </r>
       <r>     1.2610     6.5851   542.2961 </r>
       <r>     1.3142     6.9069   542.6635 </r>
       <r>     1.3674     9.1833   543.1519 </r>
       <r>     1.4206    12.6029   543.8222 </r>
       <r>     1.4738    15.3638   544.6393 </r>
       <r>     1.5269    16.2307   545.5026 </r>
       <r>     1.5801    15.8041   546.3431 </r>
       <r>     1.6333    15.8948   547.1885 </r>
       <r>     1.6865    17.7918   548.1348 </r>
       <r>     1.7397    20.1538   549.2067 </r>
       <r>     1.7929    19.7361   550.2563 </r>
       <r>     1.8461    15.6881   551.0907 </r>
       <r>     1.8992    10.3025   551.6387 </r>
       <r>     1.9524     6.1994   551.9684 </r>
       <r>     2.0056     5.1288   552.2412 </r>
       <r>     2.0588     6.2369   552.5729 </r>
       <r>     2.1120     7.2616   552.9591 </r>
       <r>     2.1652     8.7816   553.4261 </r>
       <r>     2.2184    12.4924   554.0906 </r>
       <r>     2.2715    17.4961   555.0211 </r>
       <r>     2.3247    21.7356   556.1771 </r>
       <r>     2.3779    24.1988   557.4641 </r>
       <r>     2.4311    24.8964   558.7883 </r>
       <r>     2.4843    23.9734   560.0633 </r>
       <r>     2.5375    22.5007   561.2600 </r>
       <r>     2.5907    22.7079   562.4678 </r>
       <r>     2.6438    24.9173   563.7930 </r>
       <r>     2.6970    27.2164   565.2405 </r>
       <r>     2.7502    27.2269   566.6886 </r>
       <r>     2.8034    22.6463   567.8931 </r>
       <r>     2.8566    14.9288   568.6871 </r>
       <r>     2.9098     9.2857   569.1809 </r>
       <r>     2.9630     7.7330   569.5922 </r>
       <r>     3.0161     8.0667   570.0213 </r>
       <r>     3.0693     9.5117   570.5272 </r>
       <r>     3.1225    12.1896   571.1755 </r>
       <r>     3.1757    13.8275   571.9109 </r>
       <r>     3.2289    12.1925   572.5594 </r>
       <r>     3.2821     8.3758   573.0048 </r>
       <r>     3.3353     5.2948   573.2864 </r>
       <r>     3.3884     4.2791   573.5140 </r>
       <r>     3.4416     4.9211   573.7758 </r>
       <r>     3.4948     6.5816   574.1258 </r>
       <r>     3.5480     8.6745   574.5872 </r>
       <r>     3.6012    11.1627   575.1809 </r>
       <r>     3.6544    14.8511   575.9707 </r>
       <r>     3.7076    19.0378   576.9833 </r>
       <r>     3.7607    21.3666   578.1197 </r>
       <r>     3.8139    20.2425   579.1963 </r>
       <r>     3.8671    16.1754   580.0566 </r>
       <r>     3.9203    12.0182   580.6958 </r>
       <r>     3.9735    10.9744   581.2795 </r>
       <r>     4.0267    13.4000   581.9921 </r>
       <r>     4.0799    15.3845   582.8104 </r>
       <r>     4.1330    14.1969   583.5654 </r>
       <r>     4.1862    12.2618   584.2176 </r>
       <r>     4.2394    11.8379   584.8472 </r>
       <r>     4.2926    11.3891   585.4529 </r>
       <r>     4.3458    10.0026   585.9849 </r>
       <r>     4.3990     9.8469   586.5087 </r>
       <r>     4.4522    11.8887   587.1410 </r>
       <r>     4.5053    15.1273   587.9455 </r>
       <r>     4.5585    19.5915   588.9875 </r>
       <r>     4.6117    25.2126   590.3285 </r>
       <r>     4.6649    29.0418   591.8731 </r>
       <r>     4.7181    27.9135   593.3577 </r>
       <r>     4.7713    23.7543   594.6211 </r>
       <r>     4.8245    21.1462   595.7457 </r>
       <r>     4.8776    21.8560   596.9082 </r>
       <r>     4.9308    25.2899   598.2532 </r>
       <r>     4.9840    30.3577   599.8678 </r>
       <r>     5.0372    35.3700   601.7490 </r>
       <r>     5.0904    37.5176   603.7444 </r>
       <r>     5.1436    35.3808   605.6261 </r>
       <r>     5.1968    31.9074   607.3232 </r>
       <r>     5.2499    29.2075   608.8766 </r>
       <r>     5.3031    24.8909   610.2004 </r>
       <r>     5.3563    17.7694   611.1455 </r>
       <r>     5.4095    10.1317   611.6844 </r>
       <r>     5.4627     4.3605   611.9163 </r>
       <r>     5.5159     1.2972   611.9853 </r>
       <r>     5.5691     0.2465   611.9984 </r>
       <r>     5.6222     0.0285   611.9999 </r>
       <r>     5.6754     0.0020   612.0000 </r>
       <r>     5.7286     0.0001   612.0000 </r>
       <r>     5.7818     0.0000   612.0000 </r>
       <r>     5.8350     0.0000   612.0000 </r>
       <r>     5.8882     0.0000   612.0000 </r>
       <r>     5.9414     0.0000   612.0000 </r>
       <r>     5.9945     0.0000   612.0000 </r>
       <r>     6.0477     0.0000   612.0000 </r>
       <r>     6.1009     0.0000   612.0000 </r>
       <r>     6.1541     0.0000   612.0000 </r>
       <r>     6.2073     0.0000   612.0000 </r>
       <r>     6.2605     0.0000   612.0000 </r>
       <r>     6.3137     0.0000   612.0000 </r>
       <r>     6.3668     0.0000   612.0000 </r>
      </set>
     </set>
    </array>
   </total>
  </dos>
 </calculation>
 <structure name="finalpos" >
  <crystal>
   <varray name="basis" >
    <v>      11.00258152       0.00000000       0.00000000 </v>
    <v>       5.50129076       9.52851510       0.00000000 </v>
    <v>       0.00000000       0.00000000      24.49178509 </v>
   </varray>
   <i name="volume">   2567.67623402 </i>
   <varray name="rec_basis" >
    <v>       0.09088776      -0.05247407       0.00000000 </v>
    <v>       0.00000000       0.10494815       0.00000000 </v>
    <v>       0.00000000       0.00000000       0.04083002 </v>
   </varray>
  </crystal>
  <varray name="positions" >
   <v>       0.74668787       0.75184949       0.60235351 </v>
   <v>       0.50151506       0.24852330       0.60021736 </v>
   <v>       0.58658111       0.33276425       0.39972032 </v>
   <v>       0.58386693       0.08326663       0.39961176 </v>
   <v>       0.74908617       0.00125277       0.60224810 </v>
   <v>       0.33531132       0.83324835       0.39814523 </v>
   <v>       0.25049747       0.50041702       0.60213103 </v>
   <v>       0.16762984       0.66608036       0.49926003 </v>
   <v>       0.33661568       0.58106303       0.39710481 </v>
   <v>       0.25038347       0.24727060       0.60277349 </v>
   <v>       0.25049665       0.99644066       0.60060331 </v>
   <v>       0.16687580       0.16810861       0.49990717 </v>
   <v>       0.49983466       0.50165384       0.60015418 </v>
   <v>       0.00058956       0.75181770       0.60394757 </v>
   <v>       0.91430450       0.16924348       0.49964555 </v>
   <v>       0.83307813       0.83303798       0.39867511 </v>
   <v>       0.75020184       0.49761727       0.60237262 </v>
   <v>       0.33260209       0.08449649       0.39803387 </v>
   <v>       0.83377559       0.57997812       0.39938131 </v>
   <v>       0.08527325       0.57961967       0.39855361 </v>
   <v>       0.66494875       0.66828068       0.50023943 </v>
   <v>       0.99965210       0.49859606       0.60107614 </v>
   <v>       0.08336587       0.83590680       0.39416564 </v>
   <v>       0.91492654       0.91797284       0.49986854 </v>
   <v>       0.66365032       0.16849114       0.49986296 </v>
   <v>       0.83605474       0.33133473       0.40326430 </v>
   <v>       0.83490638       0.08374113       0.40220231 </v>
   <v>       0.49835879       0.75070755       0.59592641 </v>
   <v>       0.58426421       0.83208389       0.40323396 </v>
   <v>       0.41514014       0.91803858       0.49878455 </v>
   <v>       0.75221759       0.24853042       0.59659562 </v>
   <v>       0.66425336       0.41793986       0.50024901 </v>
   <v>       0.08164728       0.08553201       0.40202966 </v>
   <v>       0.58587352       0.58177459       0.40341419 </v>
   <v>       0.41746042       0.41627851       0.50012982 </v>
   <v>       0.49900961       0.99911636       0.59563220 </v>
   <v>       0.41718958       0.16734947       0.49996620 </v>
   <v>       0.66410971       0.91906289       0.50005859 </v>
   <v>       0.16826226       0.91631307       0.49839291 </v>
   <v>       0.16611001       0.41746287       0.50093335 </v>
   <v>       0.33376965       0.33275399       0.40494807 </v>
   <v>       0.91590842       0.66689471       0.50057380 </v>
   <v>       0.99910405       0.24762248       0.59773765 </v>
   <v>       0.91525336       0.41874647       0.50076591 </v>
   <v>       0.08407742       0.33268776       0.40378020 </v>
   <v>      -0.00019921       0.00066843       0.59683367 </v>
   <v>       0.41586473       0.66729455       0.49896821 </v>
   <v>       0.24961341       0.75106851       0.59552678 </v>
  </varray>
 </structure>
</modeling>
