unknown system                          
           1
    11.002582    0.000000    0.000000
     5.501291    9.528515    0.000000
     0.000000    0.000000   24.491785
   Au   Pd
  24  24
Direct configuration=     1
   0.74704118  0.75187439  0.60233047
   0.50176616  0.24851527  0.60027731
   0.58647897  0.33264459  0.39921899
   0.58355666  0.08340231  0.39923486
   0.74924983  0.00134973  0.60256403
   0.33474854  0.83343321  0.39842655
   0.25062921  0.50028204  0.60233047
   0.16763524  0.66592903  0.49972232
   0.33625919  0.58125906  0.39721375
   0.25058647  0.24732108  0.60260729
   0.25087338  0.99646843  0.60141110
   0.16705638  0.16828287  0.49986358
   0.50021782  0.50152975  0.60055440
   0.00066233  0.75170512  0.60457968
   0.91434803  0.16902163  0.49964272
   0.83269481  0.83325143  0.39841233
   0.75081722  0.49747156  0.60223884
   0.33222675  0.08448316  0.39767234
   0.83335317  0.58014722  0.39861105
   0.08507224  0.57971031  0.39804241
   0.66521118  0.66819501  0.50034984
   0.99998499  0.49843415  0.60046708
   0.08319342  0.83575569  0.39463652
   0.91485253  0.91777606  0.50008280
   0.66366833  0.16832608  0.49970858
   0.83582020  0.33124312  0.40314258
   0.83470971  0.08356919  0.40240696
   0.49851475  0.75074474  0.59593374
   0.58380786  0.83223066  0.40368142
   0.41514750  0.91825069  0.49903644
   0.75247004  0.24856851  0.59638711
   0.66394459  0.41788047  0.50022231
   0.08134933  0.08525710  0.40243701
   0.58551688  0.58181061  0.40371028
   0.41735388  0.41616144  0.50000561
   0.49917973  0.99938401  0.59573195
   0.41721609  0.16745312  0.49980013
   0.66411758  0.91926848  0.50013582
   0.16849750  0.91624755  0.49909224
   0.16627798  0.41770941  0.50056841
   0.33370806  0.33277253  0.40444702
   0.91590976  0.66705614  0.49991503
   0.99949110  0.24761160  0.59719433
   0.91521716  0.41882712  0.50027510
   0.08376857  0.33260161  0.40352520
   0.00012607  0.00070506  0.59697360
   0.41583866  0.66721524  0.49920805
   0.24983297  0.75086244  0.59597034
Direct configuration=     2
   0.74701292  0.75186605  0.60232664
   0.50175440  0.24855471  0.60027138
   0.58646993  0.33270264  0.39924743
   0.58354499  0.08336881  0.39925635
   0.74928918  0.00133480  0.60254896
   0.33481091  0.83341922  0.39842313
   0.25067308  0.50027942  0.60232654
   0.16761583  0.66600617  0.49970233
   0.33631487  0.58120822  0.39721125
   0.25059567  0.24730180  0.60261621
   0.25084558  0.99645355  0.60137628
   0.16708303  0.16823319  0.49985270
   0.50020367  0.50153325  0.60053077
   0.00064512  0.75175533  0.60454994
   0.91433377  0.16906707  0.49963671
   0.83269172  0.83323050  0.39842469
   0.75071288  0.49752836  0.60224267
   0.33223243  0.08450931  0.39769495
   0.83336478  0.58012105  0.39864911
   0.08507259  0.57966071  0.39806562
   0.66521141  0.66816737  0.50034431
   0.99995222  0.49849356  0.60049271
   0.08318291  0.83574961  0.39461848
   0.91492651  0.91775202  0.50008803
   0.66362394  0.16838308  0.49971578
   0.83580103  0.33127959  0.40315636
   0.83469862  0.08359338  0.40239240
   0.49853672  0.75071805  0.59593585
   0.58382868  0.83222248  0.40365768
   0.41510922  0.91826444  0.49902554
   0.75244516  0.24856462  0.59639660
   0.66397816  0.41787330  0.50022095
   0.08138379  0.08530000  0.40242186
   0.58554457  0.58180602  0.40369913
   0.41740932  0.41613780  0.50001203
   0.49919430  0.99934188  0.59572889
   0.41722283  0.16744769  0.49979253
   0.66410525  0.91925654  0.50013017
   0.16848203  0.91623485  0.49906214
   0.16626034  0.41767361  0.50056445
   0.33368350  0.33275318  0.40447414
   0.91589109  0.66703228  0.49994133
   0.99949678  0.24757543  0.59722537
   0.91518385  0.41884192  0.50028035
   0.08379970  0.33262758  0.40353758
   0.00010495  0.00067116  0.59697252
   0.41584543  0.66722009  0.49920121
   0.24983034  0.75088430  0.59595793
Direct configuration=     3
   0.74693743  0.75184379  0.60231643
   0.50172298  0.24866004  0.60025553
   0.58644578  0.33285771  0.39932338
   0.58351383  0.08327933  0.39931376
   0.74939427  0.00129493  0.60250872
   0.33497748  0.83338184  0.39841401
   0.25079026  0.50027244  0.60231606
   0.16756400  0.66621222  0.49964893
   0.33646360  0.58107242  0.39720459
   0.25062025  0.24725030  0.60264001
   0.25077130  0.99641379  0.60128329
   0.16715420  0.16810048  0.49982363
   0.50016586  0.50154261  0.60046767
   0.00059917  0.75188942  0.60447050
   0.91429568  0.16918844  0.49962067
   0.83268345  0.83317458  0.39845770
   0.75043420  0.49768010  0.60225289
   0.33224758  0.08457916  0.39775532
   0.83339579  0.58005114  0.39875077
   0.08507352  0.57952821  0.39812761
   0.66521203  0.66809352  0.50032953
   0.99986470  0.49865222  0.60056120
   0.08315484  0.83573338  0.39457030
   0.91512411  0.91768781  0.50010201
   0.66350538  0.16853534  0.49973500
   0.83574982  0.33137702  0.40319315
   0.83466900  0.08365799  0.40235351
   0.49859538  0.75064674  0.59594148
   0.58388428  0.83220062  0.40359426
   0.41500697  0.91830115  0.49899644
   0.75237872  0.24855424  0.59642196
   0.66406782  0.41785416  0.50021732
   0.08147583  0.08541459  0.40238140
   0.58561854  0.58179378  0.40366938
   0.41755741  0.41607467  0.50002918
   0.49923324  0.99922935  0.59572074
   0.41724084  0.16743320  0.49977223
   0.66407233  0.91922466  0.50011509
   0.16844071  0.91620092  0.49898174
   0.16621323  0.41757798  0.50055387
   0.33361790  0.33270152  0.40454658
   0.91584124  0.66696854  0.50001158
   0.99951194  0.24747880  0.59730826
   0.91509487  0.41888146  0.50029436
   0.08388284  0.33269697  0.40357064
   0.00004856  0.00058063  0.59696962
   0.41586354  0.66723305  0.49918294
   0.24982332  0.75094271  0.59592478
Direct configuration=     4
   0.74690245  0.75185921  0.60231676
   0.50173323  0.24861706  0.60024700
   0.58645533  0.33283270  0.39937050
   0.58354614  0.08328341  0.39935266
   0.74934297  0.00131334  0.60247637
   0.33503041  0.83335500  0.39839478
   0.25075751  0.50031675  0.60229400
   0.16761419  0.66615700  0.49960292
   0.33646597  0.58106238  0.39719983
   0.25059827  0.24725288  0.60265375
   0.25074397  0.99638159  0.60120906
   0.16710945  0.16809003  0.49982588
   0.50012346  0.50158133  0.60042889
   0.00062513  0.75186355  0.60441249
   0.91429608  0.16920782  0.49961881
   0.83271958  0.83314131  0.39848447
   0.75039043  0.49766404  0.60226185
   0.33228028  0.08457517  0.39778997
   0.83341746  0.58004366  0.39882147
   0.08509977  0.57952468  0.39817600
   0.66514909  0.66813395  0.50031413
   0.99984049  0.49866663  0.60061204
   0.08318320  0.83572663  0.39453079
   0.91507533  0.91776028  0.50008232
   0.66353184  0.16851831  0.49974631
   0.83577642  0.33137953  0.40320314
   0.83466289  0.08368856  0.40233577
   0.49856680  0.75064785  0.59594216
   0.58392798  0.83217886  0.40355189
   0.41502164  0.91825372  0.49897669
   0.75236292  0.24855318  0.59644363
   0.66411036  0.41786246  0.50022186
   0.08150561  0.08544441  0.40234572
   0.58565609  0.58181689  0.40363992
   0.41753210  0.41612328  0.50003739
   0.49924173  0.99920281  0.59571262
   0.41724569  0.16742123  0.49978486
   0.66408574  0.91920632  0.50010653
   0.16842187  0.91623303  0.49891764
   0.16619297  0.41756940  0.50058291
   0.33362127  0.33270699  0.40459170
   0.91583943  0.66693958  0.50007159
   0.99946163  0.24750511  0.59736068
   0.91511449  0.41884945  0.50033641
   0.08390312  0.33270606  0.40359173
   0.00001977  0.00058190  0.59696156
   0.41587347  0.66723934  0.49916767
   0.24982398  0.75096130  0.59589289
Direct configuration=     5
   0.74685525  0.75188002  0.60231722
   0.50174705  0.24855908  0.60023550
   0.58646822  0.33279895  0.39943407
   0.58358973  0.08328892  0.39940514
   0.74927376  0.00133819  0.60243272
   0.33510183  0.83331880  0.39836883
   0.25071333  0.50037652  0.60226424
   0.16768190  0.66608251  0.49954084
   0.33646917  0.58104884  0.39719339
   0.25056863  0.24725637  0.60267229
   0.25070709  0.99633814  0.60110891
   0.16704909  0.16807593  0.49982892
   0.50006625  0.50163357  0.60037658
   0.00066015  0.75182864  0.60433423
   0.91429664  0.16923395  0.49961629
   0.83276833  0.83309643  0.39852058
   0.75033137  0.49764238  0.60227395
   0.33232440  0.08456979  0.39783671
   0.83344668  0.58003356  0.39891684
   0.08513519  0.57951993  0.39824127
   0.66506418  0.66818849  0.50029336
   0.99980783  0.49868607  0.60068064
   0.08322147  0.83571752  0.39447748
   0.91500954  0.91785804  0.50005575
   0.66356754  0.16849534  0.49976157
   0.83581230  0.33138291  0.40321662
   0.83465465  0.08372980  0.40231184
   0.49852823  0.75064936  0.59594308
   0.58398694  0.83214949  0.40349474
   0.41504142  0.91818973  0.49895005
   0.75234160  0.24855175  0.59647287
   0.66416776  0.41787366  0.50022799
   0.08154579  0.08548464  0.40229758
   0.58570674  0.58184807  0.40360018
   0.41749796  0.41618886  0.50004845
   0.49925318  0.99916700  0.59570167
   0.41725223  0.16740508  0.49980191
   0.66410384  0.91918158  0.50009499
   0.16839645  0.91627634  0.49883116
   0.16616565  0.41755783  0.50062208
   0.33362581  0.33271438  0.40465256
   0.91583699  0.66690052  0.50015255
   0.99939377  0.24754061  0.59743139
   0.91514096  0.41880626  0.50039314
   0.08393047  0.33271833  0.40362018
  -0.00001908  0.00058362  0.59695069
   0.41588687  0.66724782  0.49914707
   0.24982486  0.75098637  0.59584987
Direct configuration=     6
   0.74676085  0.75192162  0.60231813
   0.50177471  0.24844311  0.60021248
   0.58649399  0.33273146  0.39956120
   0.58367690  0.08329994  0.39951011
   0.74913535  0.00138788  0.60234544
   0.33524465  0.83324639  0.39831692
   0.25062498  0.50049606  0.60220473
   0.16781732  0.66593352  0.49941669
   0.33647557  0.58102177  0.39718053
   0.25050934  0.24726333  0.60270936
   0.25063334  0.99625125  0.60090861
   0.16692836  0.16804773  0.49983499
   0.49995183  0.50173803  0.60027194
   0.00073020  0.75175882  0.60417772
   0.91429774  0.16928623  0.49961126
   0.83286582  0.83300667  0.39859280
   0.75021325  0.49759906  0.60229813
   0.33241264  0.08455902  0.39793020
   0.83350514  0.58001337  0.39910758
   0.08520601  0.57951042  0.39837183
   0.66489435  0.66829758  0.50025183
   0.99974253  0.49872495  0.60081782
   0.08329799  0.83569931  0.39437087
   0.91487794  0.91805355  0.50000263
   0.66363894  0.16844940  0.49979209
   0.83588406  0.33138968  0.40324357
   0.83463816  0.08381228  0.40226398
   0.49845110  0.75065237  0.59594492
   0.58410486  0.83209076  0.40338043
   0.41508098  0.91806177  0.49889677
   0.75229898  0.24854889  0.59653134
   0.66428255  0.41789605  0.50024025
   0.08162615  0.08556510  0.40220130
   0.58580804  0.58191043  0.40352071
   0.41742968  0.41632001  0.50007059
   0.49927607  0.99909539  0.59567977
   0.41726532  0.16737277  0.49983599
   0.66414003  0.91913209  0.50007189
   0.16834562  0.91636297  0.49865821
   0.16611099  0.41753469  0.50070043
   0.33363490  0.33272914  0.40477430
   0.91583211  0.66682240  0.50031448
   0.99925805  0.24761161  0.59757282
   0.91519389  0.41871990  0.50050661
   0.08398519  0.33274287  0.40367709
  -0.00009677  0.00058705  0.59692894
   0.41591367  0.66726479  0.49910588
   0.24982663  0.75103653  0.59576384
Direct configuration=     7
   0.74674791  0.75190865  0.60232250
   0.50172111  0.24845901  0.60020907
   0.58650570  0.33273637  0.39959861
   0.58371679  0.08329227  0.39953671
   0.74912516  0.00135829  0.60232214
   0.33525937  0.83323943  0.39828454
   0.25060690  0.50048159  0.60218631
   0.16778688  0.66595320  0.49938044
   0.33650508  0.58102665  0.39716724
   0.25048872  0.24726303  0.60272009
   0.25061068  0.99628519  0.60084024
   0.16691195  0.16806321  0.49985058
   0.49991773  0.50172577  0.60024261
   0.00070684  0.75176820  0.60412473
   0.91429827  0.16927824  0.49961755
   0.83291391  0.83300541  0.39861464
   0.75021808  0.49759392  0.60231159
   0.33245651  0.08454275  0.39795531
   0.83356144  0.58000758  0.39916913
   0.08521626  0.57953381  0.39841416
   0.66488970  0.66830956  0.50024678
   0.99971548  0.49870313  0.60086990
   0.08330875  0.83574564  0.39433100
   0.91487880  0.91804769  0.49997504
   0.66364542  0.16845503  0.49980589
   0.83591996  0.33137800  0.40324705
   0.83468980  0.08379866  0.40224939
   0.49843062  0.75066873  0.59594379
   0.58413790  0.83209339  0.40334475
   0.41509641  0.91805045  0.49887573
   0.75228566  0.24854631  0.59654811
   0.66428208  0.41790396  0.50024231
   0.08162973  0.08556009  0.40216292
   0.58581945  0.58188749  0.40349526
   0.41743571  0.41631789  0.50008281
   0.49922574  0.99909614  0.59566948
   0.41724627  0.16736930  0.49986118
   0.66414205  0.91911139  0.50006724
   0.16832544  0.91635754  0.49859967
   0.16610628  0.41751144  0.50074743
   0.33366124  0.33273365  0.40481153
   0.91584280  0.66683386  0.50037239
   0.99921958  0.24762452  0.59761202
   0.91521344  0.41871818  0.50056084
   0.08399997  0.33273722  0.40369728
  -0.00012174  0.00060338  0.59691253
   0.41590730  0.66727063  0.49908045
   0.24979088  0.75104413  0.59571905
Direct configuration=     8
   0.74670909  0.75186976  0.60233564
   0.50156032  0.24850671  0.60019883
   0.58654081  0.33275110  0.39971084
   0.58383644  0.08326925  0.39961651
   0.74909462  0.00126951  0.60225226
   0.33530353  0.83321857  0.39818741
   0.25055267  0.50043821  0.60213106
   0.16769557  0.66601223  0.49927170
   0.33659362  0.58104129  0.39712736
   0.25042684  0.24726211  0.60275227
   0.25054271  0.99638701  0.60063516
   0.16686274  0.16810966  0.49989733
   0.49981542  0.50168898  0.60015460
   0.00063676  0.75179636  0.60396576
   0.91429988  0.16925427  0.49963640
   0.83305817  0.83300166  0.39868015
   0.75023260  0.49757852  0.60235195
   0.33258811  0.08449394  0.39803065
   0.83373036  0.57999021  0.39935377
   0.08524699  0.57960397  0.39854116
   0.66487572  0.66834549  0.50023165
   0.99963436  0.49863769  0.60102614
   0.08334102  0.83588461  0.39421136
   0.91488138  0.91803008  0.49989227
   0.66366487  0.16847190  0.49984729
   0.83602765  0.33134297  0.40325747
   0.83484470  0.08375781  0.40220560
   0.49836918  0.75071783  0.59594039
   0.58423701  0.83210128  0.40323771
   0.41514269  0.91801651  0.49881263
   0.75224572  0.24853854  0.59659843
   0.66428067  0.41792766  0.50024850
   0.08164045  0.08554504  0.40204780
   0.58585366  0.58181867  0.40341892
   0.41745382  0.41631154  0.50011946
   0.49907476  0.99909839  0.59563862
   0.41718911  0.16735888  0.49993672
   0.66414808  0.91904927  0.50005331
   0.16826490  0.91634127  0.49842405
   0.16609216  0.41744168  0.50088840
   0.33374027  0.33274719  0.40492325
   0.91587487  0.66686824  0.50054611
   0.99910416  0.24766325  0.59772964
   0.91527207  0.41871303  0.50072352
   0.08404430  0.33272030  0.40375783
  -0.00019664  0.00065238  0.59686327
   0.41588818  0.66728815  0.49900417
   0.24968362  0.75106695  0.59558468
Direct configuration=     9
   0.74670247  0.75186313  0.60233788
   0.50153290  0.24851485  0.60019709
   0.58654680  0.33275361  0.39972998
   0.58385685  0.08326533  0.39963012
   0.74908941  0.00125436  0.60224034
   0.33531105  0.83321501  0.39817084
   0.25054342  0.50043081  0.60212163
   0.16767999  0.66602230  0.49925316
   0.33660872  0.58104378  0.39712055
   0.25041629  0.24726196  0.60275776
   0.25053112  0.99640438  0.60060018
   0.16685435  0.16811758  0.49990530
   0.49979797  0.50168271  0.60013959
   0.00062480  0.75180117  0.60393866
   0.91430016  0.16925019  0.49963961
   0.83308277  0.83300101  0.39869133
   0.75023507  0.49757589  0.60235883
   0.33261055  0.08448562  0.39804349
   0.83375917  0.57998725  0.39938525
   0.08525223  0.57961594  0.39856281
   0.66487334  0.66835162  0.50022907
   0.99962052  0.49862653  0.60105278
   0.08334653  0.83590831  0.39419096
   0.91488182  0.91802708  0.49987816
   0.66366818  0.16847478  0.49985435
   0.83604602  0.33133700  0.40325924
   0.83487112  0.08375084  0.40219814
   0.49835870  0.75072621  0.59593980
   0.58425391  0.83210263  0.40321945
   0.41515059  0.91801072  0.49880187
   0.75223890  0.24853722  0.59660701
   0.66428043  0.41793171  0.50024955
   0.08164228  0.08554248  0.40202817
   0.58585950  0.58180694  0.40340590
   0.41745691  0.41631046  0.50012571
   0.49904901  0.99909878  0.59563336
   0.41717937  0.16735710  0.49994960
   0.66414911  0.91903868  0.50005093
   0.16825457  0.91633850  0.49839410
   0.16608975  0.41742979  0.50091245
   0.33375375  0.33274950  0.40494230
   0.91588034  0.66687411  0.50057574
   0.99908448  0.24766985  0.59774970
   0.91528207  0.41871216  0.50075126
   0.08405186  0.33271741  0.40376816
  -0.00020942  0.00066074  0.59685487
   0.41588492  0.66729114  0.49899116
   0.24966533  0.75107084  0.59556177
Direct configuration=    10
   0.74668787  0.75184949  0.60235351
   0.50151506  0.24852330  0.60021736
   0.58658111  0.33276425  0.39972032
   0.58386693  0.08326663  0.39961176
   0.74908617  0.00125277  0.60224810
   0.33531132  0.83324835  0.39814523
   0.25049747  0.50041702  0.60213103
   0.16762984  0.66608036  0.49926003
   0.33661568  0.58106303  0.39710481
   0.25038347  0.24727060  0.60277349
   0.25049665  0.99644066  0.60060331
   0.16687580  0.16810861  0.49990717
   0.49983466  0.50165384  0.60015418
   0.00058956  0.75181770  0.60394757
   0.91430450  0.16924348  0.49964555
   0.83307813  0.83303798  0.39867511
   0.75020184  0.49761727  0.60237262
   0.33260209  0.08449649  0.39803387
   0.83377559  0.57997812  0.39938131
   0.08527325  0.57961967  0.39855361
   0.66494875  0.66828068  0.50023943
   0.99965210  0.49859606  0.60107614
   0.08336587  0.83590680  0.39416564
   0.91492654  0.91797284  0.49986854
   0.66365032  0.16849114  0.49986296
   0.83605474  0.33133473  0.40326430
   0.83490638  0.08374113  0.40220231
   0.49835879  0.75070755  0.59592641
   0.58426421  0.83208389  0.40323396
   0.41514014  0.91803858  0.49878455
   0.75221759  0.24853042  0.59659562
   0.66425336  0.41793986  0.50024901
   0.08164728  0.08553201  0.40202966
   0.58587352  0.58177459  0.40341419
   0.41746042  0.41627851  0.50012982
   0.49900961  0.99911636  0.59563220
   0.41718958  0.16734947  0.49996620
   0.66410971  0.91906289  0.50005859
   0.16826226  0.91631307  0.49839291
   0.16611001  0.41746287  0.50093335
   0.33376965  0.33275399  0.40494807
   0.91590842  0.66689471  0.50057380
   0.99910405  0.24762248  0.59773765
   0.91525336  0.41874647  0.50076591
   0.08407742  0.33268776  0.40378020
  -0.00019921  0.00066843  0.59683367
   0.41586473  0.66729455  0.49896821
   0.24961341  0.75106851  0.59552678
