  48  48   0   0
  0.5349325E+02  0.1100258E-08  0.1100258E-08  0.2449179E-08  0.3500000E-15
  1.000000000000000E-004
  CAR 
 unknown system                          
      6.33637227     -9.71054109  301     -1.08958002      1.00000000
     -9.711  0.0000E+00  0.0000E+00
     -9.657  0.0000E+00  0.0000E+00
     -9.604  0.0000E+00  0.0000E+00
     -9.550  0.0000E+00  0.0000E+00
     -9.497  0.0000E+00  0.0000E+00
     -9.443  0.0000E+00  0.0000E+00
     -9.390  0.0000E+00  0.0000E+00
     -9.336  0.0000E+00  0.0000E+00
     -9.283  0.6227E-17  0.3331E-18
     -9.229  0.2374E-14  0.1273E-15
     -9.176  0.5298E-12  0.2847E-13
     -9.122  0.6758E-10  0.3643E-11
     -9.069  0.4934E-08  0.2676E-09
     -9.015  0.2066E-06  0.1132E-07
     -8.962  0.4973E-05  0.2773E-06
     -8.908  0.6894E-04  0.3965E-05
     -8.855  0.5519E-03  0.3349E-04
     -8.801  0.2557E-02  0.1702E-03
     -8.748  0.6868E-02  0.5376E-03
     -8.694  0.1075E-01  0.1113E-02
     -8.641  0.1011E-01  0.1653E-02
     -8.587  0.7149E-02  0.2036E-02
     -8.534  0.7475E-02  0.2436E-02
     -8.480  0.1034E-01  0.2989E-02
     -8.427  0.1017E-01  0.3533E-02
     -8.373  0.6067E-02  0.3857E-02
     -8.320  0.2180E-02  0.3974E-02
     -8.266  0.7011E-03  0.4012E-02
     -8.213  0.1405E-02  0.4087E-02
     -8.159  0.4496E-02  0.4327E-02
     -8.106  0.9640E-02  0.4843E-02
     -8.052  0.1491E-01  0.5641E-02
     -7.999  0.1954E-01  0.6686E-02
     -7.945  0.2273E-01  0.7902E-02
     -7.892  0.2061E-01  0.9004E-02
     -7.838  0.1321E-01  0.9711E-02
     -7.785  0.7463E-02  0.1011E-01
     -7.731  0.7199E-02  0.1049E-01
     -7.678  0.8929E-02  0.1097E-01
     -7.624  0.9049E-02  0.1146E-01
     -7.571  0.8939E-02  0.1193E-01
     -7.517  0.1182E-01  0.1257E-01
     -7.464  0.1788E-01  0.1352E-01
     -7.410  0.2294E-01  0.1475E-01
     -7.357  0.2356E-01  0.1601E-01
     -7.304  0.2109E-01  0.1714E-01
     -7.250  0.2046E-01  0.1823E-01
     -7.197  0.2629E-01  0.1964E-01
     -7.143  0.3610E-01  0.2157E-01
     -7.090  0.4267E-01  0.2385E-01
     -7.036  0.4626E-01  0.2633E-01
     -6.983  0.5316E-01  0.2917E-01
     -6.929  0.6382E-01  0.3259E-01
     -6.876  0.7191E-01  0.3643E-01
     -6.822  0.7516E-01  0.4045E-01
     -6.769  0.7820E-01  0.4463E-01
     -6.715  0.8288E-01  0.4907E-01
     -6.662  0.8535E-01  0.5363E-01
     -6.608  0.8361E-01  0.5810E-01
     -6.555  0.8123E-01  0.6245E-01
     -6.501  0.8244E-01  0.6686E-01
     -6.448  0.8765E-01  0.7155E-01
     -6.394  0.9604E-01  0.7669E-01
     -6.341  0.1088E+00  0.8251E-01
     -6.287  0.1247E+00  0.8917E-01
     -6.234  0.1388E+00  0.9660E-01
     -6.180  0.1491E+00  0.1046E+00
     -6.127  0.1567E+00  0.1130E+00
     -6.073  0.1626E+00  0.1216E+00
     -6.020  0.1661E+00  0.1305E+00
     -5.966  0.1648E+00  0.1393E+00
     -5.913  0.1609E+00  0.1480E+00
     -5.859  0.1596E+00  0.1565E+00
     -5.806  0.1589E+00  0.1650E+00
     -5.752  0.1527E+00  0.1732E+00
     -5.699  0.1443E+00  0.1809E+00
     -5.645  0.1411E+00  0.1884E+00
     -5.592  0.1423E+00  0.1960E+00
     -5.538  0.1438E+00  0.2037E+00
     -5.485  0.1442E+00  0.2114E+00
     -5.431  0.1440E+00  0.2191E+00
     -5.378  0.1463E+00  0.2270E+00
     -5.324  0.1519E+00  0.2351E+00
     -5.271  0.1587E+00  0.2436E+00
     -5.217  0.1650E+00  0.2524E+00
     -5.164  0.1703E+00  0.2615E+00
     -5.110  0.1742E+00  0.2708E+00
     -5.057  0.1763E+00  0.2803E+00
     -5.003  0.1763E+00  0.2897E+00
     -4.950  0.1766E+00  0.2991E+00
     -4.896  0.1783E+00  0.3087E+00
     -4.843  0.1812E+00  0.3184E+00
     -4.789  0.1846E+00  0.3282E+00
     -4.736  0.1873E+00  0.3383E+00
     -4.683  0.1869E+00  0.3483E+00
     -4.629  0.1833E+00  0.3581E+00
     -4.576  0.1807E+00  0.3677E+00
     -4.522  0.1803E+00  0.3774E+00
     -4.469  0.1810E+00  0.3870E+00
     -4.415  0.1817E+00  0.3968E+00
     -4.362  0.1797E+00  0.4064E+00
     -4.308  0.1760E+00  0.4158E+00
     -4.255  0.1741E+00  0.4251E+00
     -4.201  0.1753E+00  0.4345E+00
     -4.148  0.1772E+00  0.4440E+00
     -4.094  0.1769E+00  0.4534E+00
     -4.041  0.1742E+00  0.4627E+00
     -3.987  0.1713E+00  0.4719E+00
     -3.934  0.1720E+00  0.4811E+00
     -3.880  0.1781E+00  0.4906E+00
     -3.827  0.1845E+00  0.5005E+00
     -3.773  0.1866E+00  0.5105E+00
     -3.720  0.1895E+00  0.5206E+00
     -3.666  0.1958E+00  0.5311E+00
     -3.613  0.1996E+00  0.5418E+00
     -3.559  0.1997E+00  0.5524E+00
     -3.506  0.2002E+00  0.5631E+00
     -3.452  0.2006E+00  0.5739E+00
     -3.399  0.1951E+00  0.5843E+00
     -3.345  0.1833E+00  0.5941E+00
     -3.292  0.1731E+00  0.6034E+00
     -3.238  0.1698E+00  0.6125E+00
     -3.185  0.1707E+00  0.6216E+00
     -3.131  0.1724E+00  0.6308E+00
     -3.078  0.1730E+00  0.6401E+00
     -3.024  0.1712E+00  0.6492E+00
     -2.971  0.1693E+00  0.6583E+00
     -2.917  0.1699E+00  0.6674E+00
     -2.864  0.1752E+00  0.6767E+00
     -2.810  0.1840E+00  0.6866E+00
     -2.757  0.1905E+00  0.6968E+00
     -2.703  0.1934E+00  0.7071E+00
     -2.650  0.1973E+00  0.7177E+00
     -2.596  0.2033E+00  0.7285E+00
     -2.543  0.2079E+00  0.7397E+00
     -2.489  0.2085E+00  0.7508E+00
     -2.436  0.2052E+00  0.7618E+00
     -2.382  0.2012E+00  0.7726E+00
     -2.329  0.1990E+00  0.7832E+00
     -2.275  0.1963E+00  0.7937E+00
     -2.222  0.1916E+00  0.8040E+00
     -2.168  0.1856E+00  0.8139E+00
     -2.115  0.1795E+00  0.8235E+00
     -2.062  0.1760E+00  0.8329E+00
     -2.008  0.1770E+00  0.8424E+00
     -1.955  0.1815E+00  0.8521E+00
     -1.901  0.1874E+00  0.8621E+00
     -1.848  0.1931E+00  0.8724E+00
     -1.794  0.1988E+00  0.8831E+00
     -1.741  0.2027E+00  0.8939E+00
     -1.687  0.2038E+00  0.9048E+00
     -1.634  0.2053E+00  0.9158E+00
     -1.580  0.2075E+00  0.9269E+00
     -1.527  0.2063E+00  0.9379E+00
     -1.473  0.2012E+00  0.9487E+00
     -1.420  0.1960E+00  0.9592E+00
     -1.366  0.1914E+00  0.9694E+00
     -1.313  0.1832E+00  0.9792E+00
     -1.259  0.1676E+00  0.9882E+00
     -1.206  0.1444E+00  0.9959E+00
     -1.152  0.1183E+00  0.1002E+01
     -1.099  0.9421E-01  0.1007E+01
     -1.045  0.7471E-01  0.1011E+01
     -0.992  0.6086E-01  0.1015E+01
     -0.938  0.5044E-01  0.1017E+01
     -0.885  0.3978E-01  0.1019E+01
     -0.831  0.2934E-01  0.1021E+01
     -0.778  0.2186E-01  0.1022E+01
     -0.724  0.1737E-01  0.1023E+01
     -0.671  0.1411E-01  0.1024E+01
     -0.617  0.1408E-01  0.1025E+01
     -0.564  0.2134E-01  0.1026E+01
     -0.510  0.3412E-01  0.1027E+01
     -0.457  0.4481E-01  0.1030E+01
     -0.403  0.4852E-01  0.1032E+01
     -0.350  0.4815E-01  0.1035E+01
     -0.296  0.4839E-01  0.1038E+01
     -0.243  0.4730E-01  0.1040E+01
     -0.189  0.3933E-01  0.1042E+01
     -0.136  0.2672E-01  0.1044E+01
     -0.082  0.1844E-01  0.1045E+01
     -0.029  0.1701E-01  0.1046E+01
      0.025  0.1858E-01  0.1047E+01
      0.078  0.2170E-01  0.1048E+01
      0.132  0.2732E-01  0.1049E+01
      0.185  0.3408E-01  0.1051E+01
      0.239  0.3871E-01  0.1053E+01
      0.292  0.4153E-01  0.1055E+01
      0.346  0.4280E-01  0.1058E+01
      0.399  0.4087E-01  0.1060E+01
      0.453  0.3817E-01  0.1062E+01
      0.506  0.3865E-01  0.1064E+01
      0.559  0.4090E-01  0.1066E+01
      0.613  0.4201E-01  0.1068E+01
      0.666  0.4233E-01  0.1071E+01
      0.720  0.4260E-01  0.1073E+01
      0.773  0.4221E-01  0.1075E+01
      0.827  0.3886E-01  0.1077E+01
      0.880  0.3031E-01  0.1079E+01
      0.934  0.2082E-01  0.1080E+01
      0.987  0.1759E-01  0.1081E+01
      1.041  0.1959E-01  0.1082E+01
      1.094  0.2006E-01  0.1083E+01
      1.148  0.1653E-01  0.1084E+01
      1.201  0.1216E-01  0.1085E+01
      1.255  0.1097E-01  0.1085E+01
      1.308  0.1301E-01  0.1086E+01
      1.362  0.1536E-01  0.1087E+01
      1.415  0.1824E-01  0.1088E+01
      1.469  0.2488E-01  0.1089E+01
      1.522  0.3301E-01  0.1091E+01
      1.576  0.3596E-01  0.1093E+01
      1.629  0.3432E-01  0.1094E+01
      1.683  0.3305E-01  0.1096E+01
      1.736  0.3225E-01  0.1098E+01
      1.790  0.3155E-01  0.1100E+01
      1.843  0.3108E-01  0.1101E+01
      1.897  0.2708E-01  0.1103E+01
      1.950  0.1992E-01  0.1104E+01
      2.004  0.1583E-01  0.1105E+01
      2.057  0.1594E-01  0.1106E+01
      2.111  0.1847E-01  0.1107E+01
      2.164  0.2495E-01  0.1108E+01
      2.218  0.3410E-01  0.1110E+01
      2.271  0.4128E-01  0.1112E+01
      2.325  0.4563E-01  0.1114E+01
      2.378  0.4972E-01  0.1117E+01
      2.432  0.5309E-01  0.1120E+01
      2.485  0.5255E-01  0.1123E+01
      2.539  0.4831E-01  0.1125E+01
      2.592  0.4461E-01  0.1128E+01
      2.646  0.4444E-01  0.1130E+01
      2.699  0.4607E-01  0.1132E+01
      2.753  0.4321E-01  0.1135E+01
      2.806  0.3251E-01  0.1137E+01
      2.860  0.1876E-01  0.1138E+01
      2.913  0.9585E-02  0.1138E+01
      2.967  0.8342E-02  0.1138E+01
      3.020  0.1146E-01  0.1139E+01
      3.073  0.1373E-01  0.1140E+01
      3.127  0.1605E-01  0.1141E+01
      3.180  0.2054E-01  0.1142E+01
      3.234  0.2368E-01  0.1143E+01
      3.287  0.2323E-01  0.1144E+01
      3.341  0.2179E-01  0.1145E+01
      3.394  0.2103E-01  0.1147E+01
      3.448  0.2036E-01  0.1148E+01
      3.501  0.2009E-01  0.1149E+01
      3.555  0.2269E-01  0.1150E+01
      3.608  0.3021E-01  0.1152E+01
      3.662  0.3905E-01  0.1154E+01
      3.715  0.4205E-01  0.1156E+01
      3.769  0.3888E-01  0.1158E+01
      3.822  0.3304E-01  0.1160E+01
      3.876  0.2497E-01  0.1161E+01
      3.929  0.1846E-01  0.1162E+01
      3.983  0.2024E-01  0.1163E+01
      4.036  0.2793E-01  0.1165E+01
      4.090  0.3168E-01  0.1166E+01
      4.143  0.2932E-01  0.1168E+01
      4.197  0.2651E-01  0.1169E+01
      4.250  0.2378E-01  0.1171E+01
      4.304  0.1867E-01  0.1172E+01
      4.357  0.1547E-01  0.1172E+01
      4.411  0.1903E-01  0.1173E+01
      4.464  0.2801E-01  0.1175E+01
      4.518  0.3996E-01  0.1177E+01
      4.571  0.5163E-01  0.1180E+01
      4.625  0.5780E-01  0.1183E+01
      4.678  0.5624E-01  0.1186E+01
      4.732  0.4966E-01  0.1189E+01
      4.785  0.4450E-01  0.1191E+01
      4.839  0.4548E-01  0.1193E+01
      4.892  0.4984E-01  0.1196E+01
      4.946  0.5259E-01  0.1199E+01
      4.999  0.5605E-01  0.1202E+01
      5.053  0.6470E-01  0.1205E+01
      5.106  0.7153E-01  0.1209E+01
      5.160  0.6835E-01  0.1213E+01
      5.213  0.6118E-01  0.1216E+01
      5.267  0.5519E-01  0.1219E+01
      5.320  0.4511E-01  0.1221E+01
      5.374  0.2892E-01  0.1223E+01
      5.427  0.1328E-01  0.1224E+01
      5.481  0.4100E-02  0.1224E+01
      5.534  0.8087E-03  0.1224E+01
      5.588  0.9796E-04  0.1224E+01
      5.641  0.7087E-05  0.1224E+01
      5.694  0.3008E-06  0.1224E+01
      5.748  0.7407E-08  0.1224E+01
      5.801  0.1050E-09  0.1224E+01
      5.855  0.8537E-12  0.1224E+01
      5.908  0.3964E-14  0.1224E+01
      5.962  0.8302E-17  0.1224E+01
      6.015  0.0000E+00  0.1224E+01
      6.069  0.0000E+00  0.1224E+01
      6.122  0.0000E+00  0.1224E+01
      6.176  0.0000E+00  0.1224E+01
      6.229  0.0000E+00  0.1224E+01
      6.283  0.0000E+00  0.1224E+01
      6.336  0.0000E+00  0.1224E+01
