       N       E                     dE             d eps       ncg     rms          rms(c)
DAV:   1     0.320187485929E+04    0.32019E+04   -0.18984E+05  3672   0.112E+03
DAV:   2     0.121322925947E+02   -0.31897E+04   -0.29323E+04  4404   0.263E+02
DAV:   3    -0.201172047541E+03   -0.21330E+03   -0.19896E+03  4128   0.650E+01
DAV:   4    -0.206882953901E+03   -0.57109E+01   -0.56500E+01  4248   0.108E+01
DAV:   5    -0.207070408733E+03   -0.18745E+00   -0.18685E+00  4452   0.197E+00    0.622E+01
RMM:   6    -0.212470058224E+03   -0.53996E+01   -0.10252E+02  3674   0.157E+01    0.604E+01
RMM:   7    -0.216470994444E+03   -0.40009E+01   -0.63132E+01  3679   0.122E+01    0.515E+01
RMM:   8    -0.215635332386E+03    0.83566E+00   -0.94244E+01  3675   0.146E+01    0.409E+01
RMM:   9    -0.207872370290E+03    0.77630E+01   -0.37716E+01  3677   0.996E+00    0.324E+01
RMM:  10    -0.199089048292E+03    0.87833E+01   -0.19527E+01  3682   0.741E+00    0.209E+01
RMM:  11    -0.194398126306E+03    0.46909E+01   -0.13075E+01  3680   0.574E+00    0.174E+01
RMM:  12    -0.190436761671E+03    0.39614E+01   -0.50458E+00  3679   0.358E+00    0.888E+00
RMM:  13    -0.189783744696E+03    0.65302E+00   -0.13455E+00  3681   0.176E+00    0.703E+00
RMM:  14    -0.189630043699E+03    0.15370E+00   -0.34204E-01  3679   0.901E-01    0.582E+00
RMM:  15    -0.189648300447E+03   -0.18257E-01   -0.45341E-01  3679   0.103E+00    0.540E+00
RMM:  16    -0.189450181256E+03    0.19812E+00   -0.28769E-01  3683   0.867E-01    0.337E+00
RMM:  17    -0.189363091510E+03    0.87090E-01   -0.19370E-01  3678   0.672E-01    0.227E+00
RMM:  18    -0.189312914149E+03    0.50177E-01   -0.44151E-02  3679   0.317E-01    0.110E+00
RMM:  19    -0.189303753326E+03    0.91608E-02   -0.76803E-03  3686   0.130E-01    0.812E-01
RMM:  20    -0.189301308185E+03    0.24451E-02   -0.65794E-03  3679   0.120E-01    0.640E-01
RMM:  21    -0.189300159071E+03    0.11491E-02   -0.58382E-03  3683   0.117E-01    0.510E-01
RMM:  22    -0.189298441042E+03    0.17180E-02   -0.30232E-03  3679   0.871E-02    0.262E-01
RMM:  23    -0.189297833940E+03    0.60710E-03   -0.13085E-03  3679   0.542E-02    0.150E-01
RMM:  24    -0.189297859402E+03   -0.25462E-04   -0.38212E-04  3684   0.308E-02    0.810E-02
RMM:  25    -0.189298109568E+03   -0.25017E-03   -0.24460E-04  3679   0.227E-02    0.819E-02
RMM:  26    -0.189298402669E+03   -0.29310E-03   -0.11978E-04  3679   0.168E-02    0.512E-02
RMM:  27    -0.189298661675E+03   -0.25901E-03   -0.49562E-05  3675   0.102E-02    0.352E-02
RMM:  28    -0.189299114543E+03   -0.45287E-03   -0.30332E-05  3668   0.780E-03    0.222E-02
RMM:  29    -0.189299679737E+03   -0.56519E-03   -0.33240E-05  3669   0.759E-03    0.222E-02
RMM:  30    -0.189300529183E+03   -0.84945E-03   -0.60632E-05  3672   0.103E-02    0.148E-02
RMM:  31    -0.189300909692E+03   -0.38051E-03   -0.26065E-05  3354   0.627E-03    0.126E-02
RMM:  32    -0.189301077821E+03   -0.16813E-03   -0.11424E-05  2931   0.439E-03    0.961E-03
RMM:  33    -0.189301210013E+03   -0.13219E-03   -0.53337E-06  2667   0.295E-03    0.567E-03
RMM:  34    -0.189301270615E+03   -0.60603E-04   -0.18170E-06  2285   0.185E-03    0.297E-03
RMM:  35    -0.189301325561E+03   -0.54946E-04   -0.98373E-07  2177   0.136E-03    0.268E-03
RMM:  36    -0.189301359659E+03   -0.34098E-04   -0.57010E-07  2138   0.101E-03    0.252E-03
RMM:  37    -0.189301389038E+03   -0.29380E-04   -0.56401E-07  2153   0.102E-03    0.155E-03
RMM:  38    -0.189301399736E+03   -0.10698E-04   -0.26862E-07  1574   0.661E-04    0.134E-03
RMM:  39    -0.189301404151E+03   -0.44146E-05   -0.15569E-07  1550   0.561E-04    0.628E-04
RMM:  40    -0.189301405938E+03   -0.17869E-05   -0.60238E-08  1033   0.394E-04    0.586E-04
RMM:  41    -0.189301407149E+03   -0.12116E-05   -0.20082E-08   735   0.338E-04    0.411E-04
RMM:  42    -0.189301408495E+03   -0.13454E-05   -0.49148E-08   919   0.353E-04    0.280E-04
RMM:  43    -0.189301409339E+03   -0.84415E-06   -0.19237E-08   583   0.308E-04
   1 F= -.18930141E+03 E0= -.18919198E+03  d E =-.189301E+03
       N       E                     dE             d eps       ncg     rms          rms(c)
DAV:   1    -0.190318326125E+03   -0.10169E+01   -0.34615E+02  3672   0.285E+01    0.347E+00
RMM:   2    -0.190681107534E+03   -0.36278E+00   -0.36641E+00  3678   0.414E+00    0.222E+00
RMM:   3    -0.190795658493E+03   -0.11455E+00   -0.37365E-01  3704   0.106E+00    0.402E+00
RMM:   4    -0.190670945355E+03    0.12471E+00   -0.15041E-01  3686   0.646E-01    0.146E+00
RMM:   5    -0.190711565932E+03   -0.40621E-01   -0.89698E-02  3685   0.441E-01    0.224E+00
RMM:   6    -0.190652517443E+03    0.59048E-01   -0.47429E-02  3684   0.343E-01    0.679E-01
RMM:   7    -0.190647857696E+03    0.46597E-02   -0.10933E-02  3683   0.169E-01    0.349E-01
RMM:   8    -0.190646822002E+03    0.10357E-02   -0.36634E-03  3682   0.946E-02    0.267E-01
RMM:   9    -0.190646136030E+03    0.68597E-03   -0.16290E-03  3686   0.637E-02    0.135E-01
RMM:  10    -0.190645968798E+03    0.16723E-03   -0.45299E-04  3686   0.335E-02    0.680E-02
RMM:  11    -0.190645956731E+03    0.12067E-04   -0.99330E-05  3689   0.160E-02    0.550E-02
RMM:  12    -0.190645939667E+03    0.17064E-04   -0.36969E-05  3680   0.991E-03    0.311E-02
RMM:  13    -0.190645937094E+03    0.25733E-05   -0.21542E-05  3672   0.748E-03    0.216E-02
RMM:  14    -0.190645934760E+03    0.23338E-05   -0.83599E-06  3280   0.475E-03    0.114E-02
RMM:  15    -0.190645934449E+03    0.31086E-06   -0.23509E-06  2310   0.260E-03
   2 F= -.19064593E+03 E0= -.19053804E+03  d E =-.134453E+01
       N       E                     dE             d eps       ncg     rms          rms(c)
DAV:   1    -0.189465812713E+03    0.11801E+01   -0.32360E+03  3672   0.894E+01    0.848E+00
RMM:   2    -0.192646858311E+03   -0.31810E+01   -0.32090E+01  3675   0.124E+01    0.564E+00
RMM:   3    -0.193392344444E+03   -0.74549E+00   -0.25960E+00  3710   0.276E+00    0.102E+01
RMM:   4    -0.192440025162E+03    0.95232E+00   -0.81750E-01  3684   0.150E+00    0.353E+00
RMM:   5    -0.192818422036E+03   -0.37840E+00   -0.55806E-01  3684   0.112E+00    0.680E+00
RMM:   6    -0.192437325730E+03    0.38110E+00   -0.48121E-01  3682   0.108E+00    0.278E+00
RMM:   7    -0.192355257247E+03    0.82068E-01   -0.14766E-01  3683   0.612E-01    0.146E+00
RMM:   8    -0.192334472638E+03    0.20785E-01   -0.49930E-02  3681   0.344E-01    0.102E+00
RMM:   9    -0.192323105114E+03    0.11368E-01   -0.17316E-02  3681   0.207E-01    0.393E-01
RMM:  10    -0.192321850041E+03    0.12551E-02   -0.38316E-03  3685   0.961E-02    0.235E-01
RMM:  11    -0.192321459239E+03    0.39080E-03   -0.13595E-03  3682   0.590E-02    0.138E-01
RMM:  12    -0.192321529777E+03   -0.70538E-04   -0.48180E-04  3684   0.354E-02    0.139E-01
RMM:  13    -0.192321354052E+03    0.17572E-03   -0.26770E-04  3682   0.265E-02    0.556E-02
RMM:  14    -0.192321359033E+03   -0.49809E-05   -0.79144E-05  3680   0.143E-02    0.429E-02
RMM:  15    -0.192321345121E+03    0.13913E-04   -0.29970E-05  3678   0.889E-03    0.151E-02
RMM:  16    -0.192321352812E+03   -0.76913E-05   -0.67318E-06  2988   0.421E-03    0.110E-02
RMM:  17    -0.192321358528E+03   -0.57157E-05   -0.24169E-06  2362   0.266E-03    0.653E-03
RMM:  18    -0.192321365358E+03   -0.68299E-05   -0.10546E-06  2110   0.178E-03    0.536E-03
RMM:  19    -0.192321370640E+03   -0.52825E-05   -0.50162E-07  2071   0.125E-03    0.223E-03
RMM:  20    -0.192321375912E+03   -0.52723E-05   -0.20076E-07  1636   0.677E-04    0.146E-03
RMM:  21    -0.192321380630E+03   -0.47179E-05   -0.13197E-07  1354   0.550E-04    0.104E-03
RMM:  22    -0.192321387751E+03   -0.71208E-05   -0.23729E-07  1907   0.589E-04    0.907E-04
RMM:  23    -0.192321394468E+03   -0.67167E-05   -0.29284E-07  1539   0.594E-04    0.964E-04
RMM:  24    -0.192321398209E+03   -0.37409E-05   -0.23979E-07  1481   0.560E-04    0.468E-04
RMM:  25    -0.192321399822E+03   -0.16134E-05   -0.12126E-07  1192   0.443E-04    0.412E-04
RMM:  26    -0.192321400786E+03   -0.96404E-06   -0.81268E-08   947   0.391E-04
   3 F= -.19232140E+03 E0= -.19221703E+03  d E =-.301999E+01
       N       E                     dE             d eps       ncg     rms          rms(c)
DAV:   1    -0.192308972335E+03    0.12427E-01   -0.33579E+01  3744   0.884E+00    0.755E-01
RMM:   2    -0.192346439263E+03   -0.37467E-01   -0.36976E-01  3679   0.132E+00    0.654E-01
RMM:   3    -0.192350632249E+03   -0.41930E-02   -0.30446E-02  3715   0.309E-01    0.919E-01
RMM:   4    -0.192343955418E+03    0.66768E-02   -0.72449E-03  3684   0.142E-01    0.403E-01
RMM:   5    -0.192344468087E+03   -0.51267E-03   -0.45293E-03  3684   0.102E-01    0.453E-01
RMM:   6    -0.192342590082E+03    0.18780E-02   -0.48260E-03  3684   0.110E-01    0.236E-01
RMM:   7    -0.192342147406E+03    0.44268E-03   -0.13482E-03  3681   0.591E-02    0.128E-01
RMM:   8    -0.192341978867E+03    0.16854E-03   -0.35747E-04  3680   0.300E-02    0.803E-02
RMM:   9    -0.192341899306E+03    0.79561E-04   -0.18695E-04  3682   0.214E-02    0.416E-02
RMM:  10    -0.192341877257E+03    0.22048E-04   -0.68232E-05  3682   0.126E-02    0.187E-02
RMM:  11    -0.192341876608E+03    0.64955E-06   -0.10928E-05  3645   0.523E-03    0.133E-02
RMM:  12    -0.192341875973E+03    0.63529E-06   -0.30128E-06  2482   0.295E-03
   4 F= -.19234188E+03 E0= -.19223778E+03  d E =-.304047E+01
       N       E                     dE             d eps       ncg     rms          rms(c)
DAV:   1    -0.192448729150E+03   -0.10685E+00   -0.26086E+02  3672   0.250E+01    0.220E+00
RMM:   2    -0.192729973464E+03   -0.28124E+00   -0.29883E+00  3682   0.367E+00    0.148E+00
RMM:   3    -0.192803327176E+03   -0.73354E-01   -0.22103E-01  3710   0.805E-01    0.291E+00
RMM:   4    -0.192721437974E+03    0.81889E-01   -0.62911E-02  3683   0.413E-01    0.101E+00
RMM:   5    -0.192728002744E+03   -0.65648E-02   -0.32983E-02  3682   0.281E-01    0.115E+00
RMM:   6    -0.192714830420E+03    0.13172E-01   -0.32145E-02  3683   0.282E-01    0.545E-01
RMM:   7    -0.192711971843E+03    0.28586E-02   -0.82040E-03  3681   0.144E-01    0.316E-01
RMM:   8    -0.192710794967E+03    0.11769E-02   -0.26404E-03  3680   0.824E-02    0.194E-01
RMM:   9    -0.192710327881E+03    0.46709E-03   -0.86381E-04  3681   0.461E-02    0.830E-02
RMM:  10    -0.192710261422E+03    0.66459E-04   -0.21324E-04  3682   0.223E-02    0.422E-02
RMM:  11    -0.192710250874E+03    0.10548E-04   -0.78791E-05  3684   0.138E-02    0.310E-02
RMM:  12    -0.192710246573E+03    0.43005E-05   -0.29547E-05  3679   0.869E-03    0.180E-02
RMM:  13    -0.192710246981E+03   -0.40756E-06   -0.81736E-06  3193   0.472E-03
   5 F= -.19271025E+03 E0= -.19261000E+03  d E =-.368371E+00
       N       E                     dE             d eps       ncg     rms          rms(c)
DAV:   1    -0.192706484461E+03    0.37621E-02   -0.23734E+01  3696   0.752E+00    0.613E-01
RMM:   2    -0.192732484311E+03   -0.26000E-01   -0.27531E-01  3681   0.111E+00    0.462E-01
RMM:   3    -0.192738312495E+03   -0.58282E-02   -0.20589E-02  3711   0.246E-01    0.822E-01
RMM:   4    -0.192731364372E+03    0.69481E-02   -0.52564E-03  3684   0.120E-01    0.299E-01
RMM:   5    -0.192731627698E+03   -0.26333E-03   -0.23783E-03  3681   0.762E-02    0.298E-01
RMM:   6    -0.192730827670E+03    0.80003E-03   -0.30724E-03  3682   0.869E-02    0.153E-01
RMM:   7    -0.192730637881E+03    0.18979E-03   -0.74763E-04  3681   0.436E-02    0.958E-02
RMM:   8    -0.192730529381E+03    0.10850E-03   -0.22658E-04  3681   0.243E-02    0.589E-02
RMM:   9    -0.192730485545E+03    0.43836E-04   -0.78246E-05  3681   0.138E-02    0.249E-02
RMM:  10    -0.192730478752E+03    0.67929E-05   -0.22087E-05  3678   0.707E-03    0.121E-02
RMM:  11    -0.192730478796E+03   -0.44136E-07   -0.82712E-06  3663   0.442E-03
   6 F= -.19273048E+03 E0= -.19263131E+03  d E =-.388603E+00
       N       E                     dE             d eps       ncg     rms          rms(c)
DAV:   1    -0.192738357975E+03   -0.78792E-02   -0.28429E+01  3672   0.823E+00    0.644E-01
RMM:   2    -0.192768290595E+03   -0.29933E-01   -0.32407E-01  3682   0.121E+00    0.429E-01
RMM:   3    -0.192771750439E+03   -0.34598E-02   -0.19826E-02  3711   0.247E-01    0.612E-01
RMM:   4    -0.192768248360E+03    0.35021E-02   -0.52082E-03  3679   0.119E-01    0.366E-01
RMM:   5    -0.192768452758E+03   -0.20440E-03   -0.32850E-03  3683   0.880E-02    0.391E-01
RMM:   6    -0.192767170755E+03    0.12820E-02   -0.33117E-03  3680   0.912E-02    0.198E-01
RMM:   7    -0.192766872347E+03    0.29841E-03   -0.98922E-04  3680   0.505E-02    0.938E-02
RMM:   8    -0.192766759895E+03    0.11245E-03   -0.25343E-04  3681   0.257E-02    0.582E-02
RMM:   9    -0.192766712138E+03    0.47757E-04   -0.10925E-04  3679   0.162E-02    0.300E-02
RMM:  10    -0.192766700508E+03    0.11630E-04   -0.30256E-05  3679   0.835E-03    0.134E-02
RMM:  11    -0.192766699593E+03    0.91470E-06   -0.10201E-05  3666   0.489E-03    0.104E-02
RMM:  12    -0.192766699134E+03    0.45898E-06   -0.40672E-06  2649   0.325E-03
   7 F= -.19276670E+03 E0= -.19266797E+03  d E =-.362203E-01
       N       E                     dE             d eps       ncg     rms          rms(c)
DAV:   1    -0.192766584321E+03    0.11527E-03   -0.12645E+00  3744   0.174E+00    0.131E-01
RMM:   2    -0.192767906238E+03   -0.13219E-02   -0.14398E-02  3681   0.255E-01    0.903E-02
RMM:   3    -0.192768078222E+03   -0.17198E-03   -0.88907E-04  3711   0.521E-02    0.132E-01
RMM:   4    -0.192767895572E+03    0.18265E-03   -0.23065E-04  3680   0.248E-02    0.765E-02
RMM:   5    -0.192767897144E+03   -0.15716E-05   -0.14238E-04  3682   0.185E-02    0.778E-02
RMM:   6    -0.192767854378E+03    0.42766E-04   -0.14787E-04  3679   0.194E-02    0.423E-02
RMM:   7    -0.192767841601E+03    0.12777E-04   -0.45383E-05  3678   0.108E-02    0.201E-02
RMM:   8    -0.192767836486E+03    0.51145E-05   -0.11333E-05  3665   0.543E-03    0.114E-02
RMM:   9    -0.192767834649E+03    0.18378E-05   -0.46975E-06  2901   0.341E-03    0.675E-03
RMM:  10    -0.192767834057E+03    0.59168E-06   -0.14769E-06  1972   0.211E-03
   8 F= -.19276783E+03 E0= -.19266919E+03  d E =-.373553E-01
       N       E                     dE             d eps       ncg     rms          rms(c)
DAV:   1    -0.192770812312E+03   -0.29777E-02   -0.51379E+00  3672   0.347E+00    0.219E-01
RMM:   2    -0.192776099366E+03   -0.52871E-02   -0.55789E-02  3681   0.509E-01    0.175E-01
RMM:   3    -0.192776124928E+03   -0.25562E-04   -0.31188E-03  3727   0.102E-01    0.148E-01
RMM:   4    -0.192776021844E+03    0.10308E-03   -0.61987E-04  3675   0.423E-02    0.139E-01
RMM:   5    -0.192776086871E+03   -0.65026E-04   -0.64906E-04  3682   0.392E-02    0.153E-01
RMM:   6    -0.192775909927E+03    0.17694E-03   -0.50134E-04  3681   0.340E-02    0.114E-01
RMM:   7    -0.192775810069E+03    0.99858E-04   -0.20034E-04  3683   0.227E-02    0.485E-02
RMM:   8    -0.192775791346E+03    0.18723E-04   -0.43032E-05  3679   0.105E-02    0.274E-02
RMM:   9    -0.192775780451E+03    0.10895E-04   -0.22588E-05  3680   0.734E-03    0.196E-02
RMM:  10    -0.192775774377E+03    0.60746E-05   -0.13066E-05  3672   0.550E-03    0.790E-03
RMM:  11    -0.192775773942E+03    0.43427E-06   -0.53338E-06  3333   0.349E-03
   9 F= -.19277577E+03 E0= -.19267706E+03  d E =-.793989E-02
       N       E                     dE             d eps       ncg     rms          rms(c)
DAV:   1    -0.192774162723E+03    0.16117E-02   -0.45598E+00  3672   0.327E+00    0.203E-01
RMM:   2    -0.192778850588E+03   -0.46879E-02   -0.49464E-02  3681   0.479E-01    0.164E-01
RMM:   3    -0.192778863881E+03   -0.13293E-04   -0.27448E-03  3727   0.954E-02    0.137E-01
RMM:   4    -0.192778777239E+03    0.86642E-04   -0.54162E-04  3674   0.396E-02    0.131E-01
RMM:   5    -0.192778823256E+03   -0.46017E-04   -0.57557E-04  3682   0.370E-02    0.140E-01
RMM:   6    -0.192778682256E+03    0.14100E-03   -0.44091E-04  3682   0.319E-02    0.107E-01
RMM:   7    -0.192778592775E+03    0.89481E-04   -0.17256E-04  3682   0.211E-02    0.469E-02
RMM:   8    -0.192778575918E+03    0.16857E-04   -0.38222E-05  3680   0.994E-03    0.265E-02
RMM:   9    -0.192778565766E+03    0.10152E-04   -0.20239E-05  3678   0.695E-03    0.186E-02
RMM:  10    -0.192778560174E+03    0.55920E-05   -0.12087E-05  3672   0.528E-03    0.751E-03
RMM:  11    -0.192778559763E+03    0.41154E-06   -0.49441E-06  3212   0.337E-03
  10 F= -.19277856E+03 E0= -.19267975E+03  d E =-.107257E-01
       N       E                     dE             d eps       ncg     rms          rms(c)
DAV:   1    -0.192778757880E+03   -0.19771E-03   -0.60139E+00  3672   0.376E+00    0.211E-01
RMM:   2    -0.192785110729E+03   -0.63528E-02   -0.65966E-02  3680   0.555E-01    0.212E-01
RMM:   3    -0.192785180681E+03   -0.69952E-04   -0.40394E-03  3779   0.114E-01    0.188E-01
RMM:   4    -0.192784977824E+03    0.20286E-03   -0.61051E-04  3673   0.415E-02    0.168E-01
RMM:   5    -0.192784885641E+03    0.92183E-04   -0.41422E-04  3684   0.317E-02    0.154E-01
RMM:   6    -0.192784736888E+03    0.14875E-03   -0.87270E-04  3680   0.452E-02    0.111E-01
RMM:   7    -0.192784673230E+03    0.63658E-04   -0.47340E-04  3684   0.338E-02    0.654E-02
RMM:   8    -0.192784638857E+03    0.34373E-04   -0.69454E-05  3681   0.136E-02    0.382E-02
RMM:   9    -0.192784621821E+03    0.17036E-04   -0.23606E-05  3675   0.766E-03    0.288E-02
RMM:  10    -0.192784607268E+03    0.14553E-04   -0.28082E-05  3681   0.797E-03    0.137E-02
RMM:  11    -0.192784605136E+03    0.21316E-05   -0.14398E-05  3672   0.562E-03    0.836E-03
RMM:  12    -0.192784604687E+03    0.44919E-06   -0.51716E-06  3186   0.344E-03
  11 F= -.19278460E+03 E0= -.19268561E+03  d E =-.604492E-02
       N       E                     dE             d eps       ncg     rms          rms(c)
DAV:   1    -0.192779659703E+03    0.49454E-02   -0.76161E+00  3672   0.423E+00    0.235E-01
RMM:   2    -0.192787701952E+03   -0.80422E-02   -0.83421E-02  3680   0.624E-01    0.236E-01
RMM:   3    -0.192787779269E+03   -0.77318E-04   -0.50833E-03  3779   0.128E-01    0.208E-01
RMM:   4    -0.192787530061E+03    0.24921E-03   -0.75381E-04  3673   0.462E-02    0.187E-01
RMM:   5    -0.192787419629E+03    0.11043E-03   -0.51407E-04  3684   0.354E-02    0.173E-01
RMM:   6    -0.192787227862E+03    0.19177E-03   -0.11027E-03  3680   0.508E-02    0.125E-01
RMM:   7    -0.192787144734E+03    0.83128E-04   -0.60446E-04  3684   0.382E-02    0.733E-02
RMM:   8    -0.192787101786E+03    0.42949E-04   -0.87542E-05  3681   0.153E-02    0.432E-02
RMM:   9    -0.192787080298E+03    0.21488E-04   -0.29717E-05  3678   0.860E-03    0.328E-02
RMM:  10    -0.192787061574E+03    0.18723E-04   -0.35704E-05  3681   0.900E-03    0.155E-02
RMM:  11    -0.192787058831E+03    0.27430E-05   -0.18906E-05  3672   0.644E-03    0.942E-03
RMM:  12    -0.192787058277E+03    0.55409E-06   -0.66969E-06  3512   0.387E-03
  12 F= -.19278706E+03 E0= -.19268783E+03  d E =-.849851E-02
       N       E                     dE             d eps       ncg     rms          rms(c)
DAV:   1    -0.192784172485E+03    0.28863E-02   -0.58608E+00  3672   0.372E+00    0.184E-01
RMM:   2    -0.192790447508E+03   -0.62750E-02   -0.64083E-02  3680   0.547E-01    0.214E-01
RMM:   3    -0.192790395203E+03    0.52305E-04   -0.39722E-03  3752   0.113E-01    0.182E-01
RMM:   4    -0.192790142806E+03    0.25240E-03   -0.40512E-04  3673   0.353E-02    0.133E-01
RMM:   5    -0.192790130741E+03    0.12066E-04   -0.23863E-04  3684   0.244E-02    0.142E-01
RMM:   6    -0.192789977512E+03    0.15323E-03   -0.74982E-04  3680   0.414E-02    0.109E-01
RMM:   7    -0.192789911829E+03    0.65683E-04   -0.55994E-04  3684   0.363E-02    0.636E-02
RMM:   8    -0.192789894929E+03    0.16900E-04   -0.89475E-05  3681   0.152E-02    0.398E-02
RMM:   9    -0.192789880108E+03    0.14821E-04   -0.17508E-05  3672   0.677E-03    0.311E-02
RMM:  10    -0.192789864069E+03    0.16039E-04   -0.25996E-05  3677   0.775E-03    0.171E-02
RMM:  11    -0.192789860135E+03    0.39341E-05   -0.16908E-05  3672   0.612E-03    0.972E-03
RMM:  12    -0.192789859470E+03    0.66460E-06   -0.93794E-06  3670   0.451E-03
  13 F= -.19278986E+03 E0= -.19269031E+03  d E =-.280119E-02
       N       E                     dE             d eps       ncg     rms          rms(c)
DAV:   1    -0.192789712390E+03    0.14775E-03   -0.26191E-01  3744   0.785E-01    0.385E-02
RMM:   2    -0.192789990271E+03   -0.27788E-03   -0.28493E-03  3680   0.116E-01    0.472E-02
RMM:   3    -0.192789984251E+03    0.60201E-05   -0.17766E-04  3756   0.239E-02    0.390E-02
RMM:   4    -0.192789973040E+03    0.11211E-04   -0.16894E-05  3666   0.724E-03    0.285E-02
RMM:   5    -0.192789972906E+03    0.13468E-06   -0.97577E-06  3664   0.496E-03
  14 F= -.19278997E+03 E0= -.19269040E+03  d E =-.291463E-02
       N       E                     dE             d eps       ncg     rms          rms(c)
DAV:   1    -0.192788701876E+03    0.12712E-02   -0.28230E+00  3684   0.259E+00    0.144E-01
RMM:   2    -0.192791871401E+03   -0.31695E-02   -0.31560E-02  3680   0.381E-01    0.184E-01
RMM:   3    -0.192791720428E+03    0.15097E-03   -0.21469E-03  3722   0.809E-02    0.125E-01
RMM:   4    -0.192791571519E+03    0.14891E-03   -0.22387E-04  3676   0.261E-02    0.939E-02
RMM:   5    -0.192791559686E+03    0.11833E-04   -0.10835E-04  3682   0.166E-02    0.938E-02
RMM:   6    -0.192791545513E+03    0.14173E-04   -0.45536E-04  3680   0.326E-02    0.891E-02
RMM:   7    -0.192791488008E+03    0.57505E-04   -0.21587E-04  3681   0.229E-02    0.315E-02
RMM:   8    -0.192791486495E+03    0.15130E-05   -0.21823E-05  3676   0.766E-03    0.245E-02
RMM:   9    -0.192791479118E+03    0.73765E-05   -0.76380E-06  3418   0.443E-03    0.161E-02
RMM:  10    -0.192791475000E+03    0.41185E-05   -0.96786E-06  3670   0.474E-03    0.104E-02
RMM:  11    -0.192791473540E+03    0.14602E-05   -0.51733E-06  3097   0.345E-03    0.442E-03
RMM:  12    -0.192791473657E+03   -0.11754E-06   -0.19018E-06  1964   0.234E-03
  15 F= -.19279147E+03 E0= -.19269171E+03  d E =-.150075E-02
       N       E                     dE             d eps       ncg     rms          rms(c)
DAV:   1    -0.192791189142E+03    0.28440E-03   -0.39229E-01  3696   0.966E-01    0.529E-02
RMM:   2    -0.192791616237E+03   -0.42709E-03   -0.44027E-03  3680   0.142E-01    0.600E-02
RMM:   3    -0.192791608062E+03    0.81752E-05   -0.28718E-04  3724   0.298E-02    0.516E-02
RMM:   4    -0.192791586736E+03    0.21326E-04   -0.30813E-05  3676   0.978E-03    0.330E-02
RMM:   5    -0.192791589932E+03   -0.31964E-05   -0.18481E-05  3672   0.675E-03    0.383E-02
RMM:   6    -0.192791585213E+03    0.47195E-05   -0.53373E-05  3678   0.111E-02    0.293E-02
RMM:   7    -0.192791579713E+03    0.54995E-05   -0.33997E-05  3677   0.895E-03    0.140E-02
RMM:   8    -0.192791579079E+03    0.63435E-06   -0.39460E-06  2737   0.330E-03
  16 F= -.19279158E+03 E0= -.19269176E+03  d E =-.160617E-02
       N       E                     dE             d eps       ncg     rms          rms(c)
DAV:   1    -0.192789689533E+03    0.18902E-02   -0.30276E+00  3672   0.268E+00    0.132E-01
RMM:   2    -0.192793082643E+03   -0.33931E-02   -0.34130E-02  3679   0.396E-01    0.172E-01
RMM:   3    -0.192793017403E+03    0.65240E-04   -0.22671E-03  3748   0.838E-02    0.139E-01
RMM:   4    -0.192792861546E+03    0.15586E-03   -0.22090E-04  3674   0.259E-02    0.918E-02
RMM:   5    -0.192792838908E+03    0.22638E-04   -0.91388E-05  3686   0.153E-02    0.923E-02
RMM:   6    -0.192792791571E+03    0.47337E-04   -0.37770E-04  3680   0.297E-02    0.777E-02
RMM:   7    -0.192792759547E+03    0.32024E-04   -0.29985E-04  3683   0.264E-02    0.355E-02
RMM:   8    -0.192792760920E+03   -0.13729E-05   -0.33375E-05  3674   0.931E-03    0.283E-02
RMM:   9    -0.192792753665E+03    0.72550E-05   -0.64913E-06  3078   0.422E-03    0.197E-02
RMM:  10    -0.192792748320E+03    0.53452E-05   -0.10370E-05  3669   0.494E-03    0.133E-02
RMM:  11    -0.192792745625E+03    0.26951E-05   -0.99631E-06  3669   0.470E-03    0.495E-03
RMM:  12    -0.192792745725E+03   -0.10046E-06   -0.24759E-06  2039   0.255E-03
  17 F= -.19279275E+03 E0= -.19269269E+03  d E =-.116665E-02
       N       E                     dE             d eps       ncg     rms          rms(c)
DAV:   1    -0.192792457359E+03    0.28827E-03   -0.41832E-01  3684   0.997E-01    0.482E-02
RMM:   2    -0.192792922907E+03   -0.46555E-03   -0.46808E-03  3679   0.147E-01    0.667E-02
RMM:   3    -0.192792905906E+03    0.17001E-04   -0.31046E-04  3752   0.310E-02    0.512E-02
RMM:   4    -0.192792885195E+03    0.20711E-04   -0.28386E-05  3673   0.931E-03    0.348E-02
RMM:   5    -0.192792883347E+03    0.18474E-05   -0.11885E-05  3665   0.556E-03    0.354E-02
RMM:   6    -0.192792879797E+03    0.35497E-05   -0.57194E-05  3681   0.116E-02    0.308E-02
RMM:   7    -0.192792875580E+03    0.42177E-05   -0.47126E-05  3679   0.105E-02    0.134E-02
RMM:   8    -0.192792875858E+03   -0.27807E-06   -0.44385E-06  2798   0.349E-03
  18 F= -.19279288E+03 E0= -.19269273E+03  d E =-.129678E-02
       N       E                     dE             d eps       ncg     rms          rms(c)
DAV:   1    -0.192791583813E+03    0.12918E-02   -0.21761E+00  3672   0.228E+00    0.120E-01
RMM:   2    -0.192793993656E+03   -0.24098E-02   -0.24405E-02  3679   0.335E-01    0.142E-01
RMM:   3    -0.192793982417E+03    0.11240E-04   -0.16006E-03  3746   0.704E-02    0.117E-01
RMM:   4    -0.192793876820E+03    0.10560E-03   -0.19823E-04  3674   0.240E-02    0.900E-02
RMM:   5    -0.192793835224E+03    0.41597E-04   -0.77820E-05  3685   0.141E-02    0.744E-02
RMM:   6    -0.192793832876E+03    0.23475E-05   -0.33886E-04  3679   0.282E-02    0.723E-02
RMM:   7    -0.192793795364E+03    0.37512E-04   -0.16801E-04  3680   0.200E-02    0.296E-02
RMM:   8    -0.192793795276E+03    0.88046E-07   -0.19541E-05  3670   0.719E-03    0.237E-02
RMM:   9    -0.192793788841E+03    0.64355E-05   -0.54941E-06  2952   0.384E-03    0.155E-02
RMM:  10    -0.192793785177E+03    0.36635E-05   -0.85503E-06  3653   0.451E-03    0.103E-02
RMM:  11    -0.192793783496E+03    0.16816E-05   -0.67040E-06  3546   0.386E-03    0.295E-03
RMM:  12    -0.192793783559E+03   -0.63243E-07   -0.11962E-06  1948   0.183E-03
  19 F= -.19279378E+03 E0= -.19269342E+03  d E =-.907701E-03
