<?xml version="1.0" encoding="ISO-8859-1"?>
<modeling>
 <generator>
  <i name="program" type="string">vasp </i>
  <i name="version" type="string">5.4.1  </i>
  <i name="subversion" type="string">24Jun15 (build Mar 14 2019 10:18:33) complex                          parallel </i>
  <i name="platform" type="string">INTEL-19.0.2+OPENMPI-3.1.3 </i>
  <i name="date" type="string">2023 01 30 </i>
  <i name="time" type="string">16:27:00 </i>
 </generator>
 <incar>
  <i type="int" name="ISTART">     0</i>
  <i type="string" name="PREC">normal</i>
  <i type="string" name="ALGO"> Fast</i>
  <i type="int" name="NELM">   500</i>
  <i type="int" name="IBRION">     2</i>
  <i type="int" name="NFREE">     2</i>
  <i name="EDIFF">      0.00000100</i>
  <i name="EDIFFG">     -0.02000000</i>
  <i type="int" name="NSW">   500</i>
  <i type="int" name="ISIF">     0</i>
  <i type="int" name="ISYM">     2</i>
  <i name="ENCUT">    400.00000000</i>
  <i name="POTIM">      0.35000000</i>
  <i type="string" name="LREAL"> Auto</i>
  <i type="logical" name="LPLANE"> T  </i>
  <i type="int" name="ISMEAR">     0</i>
  <i name="SIGMA">      0.10000000</i>
  <i type="int" name="NWRITE">     1</i>
  <i type="logical" name="LWAVE"> F  </i>
  <i type="logical" name="LCHARG"> F  </i>
  <i type="logical" name="LVTOT"> F  </i>
  <i type="logical" name="LORBIT"> F  </i>
  <i type="logical" name="LAECHG"> F  </i>
  <v type="int" name="KPOINT_BSE">    -1     0     0     0</v>
  <i type="int" name="NELM">   500</i>
  <i type="string" name="GGA"> PE          ! optPBE-vdW XC-functional</i>
  <i type="int" name="VOSKOWN">     1</i>
  <i type="logical" name="LDIPOL"> T  </i>
  <i type="logical" name="LMONO"> F  </i>
  <i type="int" name="IDIPOL">     3</i>
  <v name="DIPOL">      0.00000000      0.00000000      0.50000000</v>
 </incar>
 <kpoints>
  <generation param="Monkhorst-Pack">
   <v type="int" name="divisions">       2        2        1 </v>
   <v name="usershift">      0.00000000       0.00000000       0.00000000 </v>
   <v name="genvec1">      0.50000000      -0.00000000       0.00000000 </v>
   <v name="genvec2">      0.00000000       0.50000000       0.00000000 </v>
   <v name="genvec3">      0.00000000       0.00000000       1.00000000 </v>
   <v name="shift">      0.50000000       0.50000000       0.00000000 </v>
  </generation>
  <varray name="kpointlist" >
   <v>       0.25000000       0.25000000       0.00000000 </v>
   <v>       0.00000000       0.25000000       0.00000000 </v>
   <v>      -0.25000000       0.00000000       0.00000000 </v>
   <v>      -0.25000000       0.25000000       0.00000000 </v>
   <v>       0.50000000      -0.25000000       0.00000000 </v>
   <v>      -0.25000000       0.50000000       0.00000000 </v>
  </varray>
  <varray name="weights" >
   <v>       0.16666667 </v>
   <v>       0.16666667 </v>
   <v>       0.16666667 </v>
   <v>       0.16666667 </v>
   <v>       0.16666667 </v>
   <v>       0.16666667 </v>
  </varray>
 </kpoints>
 <parameters>
  <separator name="general" >
   <i type="string" name="SYSTEM">unknown system</i>
   <i type="logical" name="LCOMPAT"> F  </i>
  </separator>
  <separator name="electronic" >
   <i type="string" name="PREC">normal</i>
   <i name="ENMAX">    400.00000000</i>
   <i name="ENAUG">    416.23000000</i>
   <i name="EDIFF">      0.00000100</i>
   <i type="int" name="IALGO">    68</i>
   <i type="int" name="IWAVPR">    11</i>
   <i type="int" name="NBANDS">   306</i>
   <i name="NELECT">    504.00000000</i>
   <i type="int" name="TURBO">     0</i>
   <i type="int" name="IRESTART">     0</i>
   <i type="int" name="NREBOOT">     0</i>
   <i type="int" name="NMIN">     0</i>
   <i name="EREF">      0.00000000</i>
   <separator name="electronic smearing" >
    <i type="int" name="ISMEAR">     0</i>
    <i name="SIGMA">      0.10000000</i>
    <i name="KSPACING">      0.50000000</i>
    <i type="logical" name="KGAMMA"> T  </i>
   </separator>
   <separator name="electronic projectors" >
    <i type="logical" name="LREAL"> T  </i>
    <v name="ROPT">     -0.00050000     -0.00050000</v>
    <i type="int" name="LMAXPAW">  -100</i>
    <i type="int" name="LMAXMIX">     2</i>
    <i type="logical" name="NLSPLINE"> F  </i>
   </separator>
   <separator name="electronic startup" >
    <i type="int" name="ISTART">     0</i>
    <i type="int" name="ICHARG">     2</i>
    <i type="int" name="INIWAV">     1</i>
   </separator>
   <separator name="electronic spin" >
    <i type="int" name="ISPIN">     1</i>
    <i type="logical" name="LNONCOLLINEAR"> F  </i>
    <v name="MAGMOM">      1.00000000      1.00000000      1.00000000      1.00000000      1.00000000      1.00000000      1.00000000      1.00000000      1.00000000      1.00000000      1.00000000      1.00000000      1.00000000      1.00000000      1.00000000      1.00000000      1.00000000      1.00000000      1.00000000      1.00000000
      1.00000000      1.00000000      1.00000000      1.00000000      1.00000000      1.00000000      1.00000000      1.00000000      1.00000000      1.00000000      1.00000000      1.00000000      1.00000000      1.00000000      1.00000000      1.00000000      1.00000000      1.00000000      1.00000000      1.00000000
      1.00000000      1.00000000      1.00000000      1.00000000      1.00000000      1.00000000      1.00000000      1.00000000</v>
    <i name="NUPDOWN">     -1.00000000</i>
    <i type="logical" name="LSORBIT"> F  </i>
    <v name="SAXIS">      0.00000000      0.00000000      1.00000000</v>
    <i type="logical" name="LSPIRAL"> F  </i>
    <v name="QSPIRAL">      0.00000000      0.00000000      0.00000000</v>
    <i type="logical" name="LZEROZ"> F  </i>
   </separator>
   <separator name="electronic exchange-correlation" >
    <i type="logical" name="LASPH"> F  </i>
    <i type="logical" name="LMETAGGA"> F  </i>
   </separator>
   <separator name="electronic convergence" >
    <i type="int" name="NELM">   500</i>
    <i type="int" name="NELMDL">    -5</i>
    <i type="int" name="NELMIN">     2</i>
    <i name="ENINI">    400.00000000</i>
    <separator name="electronic convergence detail" >
     <i type="logical" name="LDIAG"> T  </i>
     <i type="logical" name="LSUBROT"> F  </i>
     <i name="WEIMIN">      0.00100000</i>
     <i name="EBREAK">      0.00000000</i>
     <i name="DEPER">      0.30000000</i>
     <i type="int" name="NRMM">     4</i>
     <i name="TIME">      0.40000000</i>
    </separator>
   </separator>
   <separator name="electronic mixer" >
    <i name="AMIX">      0.40000000</i>
    <i name="BMIX">      1.00000000</i>
    <i name="AMIN">      0.10000000</i>
    <i name="AMIX_MAG">      1.60000000</i>
    <i name="BMIX_MAG">      1.00000000</i>
    <separator name="electronic mixer details" >
     <i type="int" name="IMIX">     4</i>
     <i type="logical" name="MIXFIRST"> F  </i>
     <i type="int" name="MAXMIX">   -45</i>
     <i name="WC">    100.00000000</i>
     <i type="int" name="INIMIX">     1</i>
     <i type="int" name="MIXPRE">     1</i>
     <i type="int" name="MREMOVE">     5</i>
    </separator>
   </separator>
   <separator name="electronic dipolcorrection" >
    <i type="logical" name="LDIPOL"> T  </i>
    <i type="logical" name="LMONO"> F  </i>
    <i type="int" name="IDIPOL">     3</i>
    <i name="EPSILON">      1.00000000</i>
    <v name="DIPOL">      0.00000000      0.00000000      0.50000000</v>
    <i name="EFIELD">      0.00000000</i>
   </separator>
  </separator>
  <separator name="grids" >
   <i type="int" name="NGX">    54</i>
   <i type="int" name="NGY">    54</i>
   <i type="int" name="NGZ">   120</i>
   <i type="int" name="NGXF">   108</i>
   <i type="int" name="NGYF">   108</i>
   <i type="int" name="NGZF">   240</i>
   <i type="logical" name="ADDGRID"> F  </i>
  </separator>
  <separator name="ionic" >
   <i type="int" name="NSW">   500</i>
   <i type="int" name="IBRION">     2</i>
   <i type="int" name="ISIF">     0</i>
   <i name="PSTRESS">      0.00000000</i>
   <i name="EDIFFG">     -0.02000000</i>
   <i type="int" name="NFREE">     2</i>
   <i name="POTIM">      0.35000000</i>
   <i name="SMASS">     -3.00000000</i>
   <i name="SCALEE">      1.00000000</i>
  </separator>
  <separator name="ionic md" >
   <i name="TEBEG">      0.00010000</i>
   <i name="TEEND">      0.00010000</i>
   <i type="int" name="NBLOCK">     1</i>
   <i type="int" name="KBLOCK">   500</i>
   <i type="int" name="NPACO">   256</i>
   <i name="APACO">     16.00000000</i>
  </separator>
  <separator name="symmetry" >
   <i type="int" name="ISYM">     2</i>
   <i name="SYMPREC">      0.00001000</i>
  </separator>
  <separator name="dos" >
   <i type="logical" name="LORBIT"> F  </i>
   <v name="RWIGS">     -1.00000000     -1.00000000</v>
   <i type="int" name="NEDOS">   301</i>
   <i name="EMIN">     10.00000000</i>
   <i name="EMAX">    -10.00000000</i>
   <i name="EFERMI">      0.00000000</i>
  </separator>
  <separator name="writing" >
   <i type="int" name="NWRITE">     1</i>
   <i type="logical" name="LWAVE"> F  </i>
   <i type="logical" name="LCHARG"> F  </i>
   <i type="logical" name="LPARD"> F  </i>
   <i type="logical" name="LVTOT"> F  </i>
   <i type="logical" name="LVHAR"> F  </i>
   <i type="logical" name="LELF"> F  </i>
   <i type="logical" name="LOPTICS"> F  </i>
   <v name="STM">      0.00000000      0.00000000      0.00000000      0.00000000      0.00000000      0.00000000      0.00000000</v>
  </separator>
  <separator name="performance" >
   <i type="int" name="NPAR">     6</i>
   <i type="int" name="NSIM">     4</i>
   <i type="int" name="NBLK">    -1</i>
   <i type="logical" name="LPLANE"> T  </i>
   <i type="logical" name="LSCALAPACK"> T  </i>
   <i type="logical" name="LSCAAWARE"> F  </i>
   <i type="logical" name="LSCALU"> F  </i>
   <i type="logical" name="LASYNC"> F  </i>
   <i type="logical" name="LORBITALREAL"> F  </i>
  </separator>
  <separator name="miscellaneous" >
   <i type="int" name="IDIOT">     3</i>
   <i type="logical" name="LMUSIC"> F  </i>
   <v name="POMASS">    196.96600000    106.42000000</v>
   <v name="DARWINR">      0.00000000      0.00000000</v>
   <v name="DARWINV">      1.00000000      1.00000000</v>
   <i type="logical" name="LCORR"> T  </i>
  </separator>
  <i type="logical" name="GGA_COMPAT"> T  </i>
  <i type="logical" name="LBERRY"> F  </i>
  <i type="int" name="ICORELEVEL">     0</i>
  <i type="logical" name="LDAU"> F  </i>
  <i type="int" name="I_CONSTRAINED_M">     0</i>
  <separator name="electronic exchange-correlation" >
   <i type="string" name="GGA">PE</i>
   <i type="int" name="VOSKOWN">     1</i>
   <i type="logical" name="LHFCALC"> F  </i>
   <i type="string" name="PRECFOCK"></i>
   <i type="logical" name="LSYMGRAD"> F  </i>
   <i type="logical" name="LHFONE"> F  </i>
   <i type="logical" name="LRHFCALC"> F  </i>
   <i type="logical" name="LTHOMAS"> F  </i>
   <i type="logical" name="LMODELHF"> F  </i>
   <i name="ENCUT4O">     -1.00000000</i>
   <i type="int" name="EXXOEP">     0</i>
   <i type="int" name="FOURORBIT">     0</i>
   <i name="AEXX">      0.00000000</i>
   <i name="HFALPHA">      0.00000000</i>
   <i name="MCALPHA">      0.00000000</i>
   <i name="ALDAX">      1.00000000</i>
   <i name="AGGAX">      1.00000000</i>
   <i name="ALDAC">      1.00000000</i>
   <i name="AGGAC">      1.00000000</i>
   <i type="int" name="NKREDX">     1</i>
   <i type="int" name="NKREDY">     1</i>
   <i type="int" name="NKREDZ">     1</i>
   <i type="logical" name="SHIFTRED"> F  </i>
   <i type="logical" name="ODDONLY"> F  </i>
   <i type="logical" name="EVENONLY"> F  </i>
   <i type="int" name="LMAXFOCK">     0</i>
   <i type="int" name="NMAXFOCKAE">     0</i>
   <i type="logical" name="LFOCKAEDFT"> F  </i>
   <i name="HFSCREEN">      0.00000000</i>
   <i name="HFSCREENC">      0.00000000</i>
   <i type="int" name="NBANDSGWLOW">     0</i>
  </separator>
  <separator name="vdW DFT" >
   <i type="logical" name="LUSE_VDW"> F  </i>
   <i name="Zab_VDW">     -0.84910000</i>
   <i name="PARAM1">      0.12340000</i>
   <i name="PARAM2">      1.00000000</i>
   <i name="PARAM3">      0.00000000</i>
  </separator>
  <separator name="model GW" >
   <i type="int" name="MODEL_GW">     0</i>
   <i name="MODEL_EPS0">     32.09595293</i>
   <i name="MODEL_ALPHA">      1.00000000</i>
  </separator>
  <separator name="linear response parameters" >
   <i type="logical" name="LEPSILON"> F  </i>
   <i type="logical" name="LRPA"> F  </i>
   <i type="logical" name="LNABLA"> F  </i>
   <i type="logical" name="LVEL"> F  </i>
   <i type="int" name="KINTER">     0</i>
   <i name="CSHIFT">      0.10000000</i>
   <i name="OMEGAMAX">     -1.00000000</i>
   <i name="DEG_THRESHOLD">      0.00200000</i>
  </separator>
  <separator name="orbital magnetization" >
   <i type="logical" name="NUCIND"> F  </i>
   <v name="MAGPOS">      0.00000000      0.00000000      0.00000000</v>
   <i type="logical" name="LNICSALL"> T  </i>
   <i type="logical" name="ORBITALMAG"> F  </i>
   <i type="logical" name="LMAGBLOCH"> F  </i>
   <i type="logical" name="LCHIMAG"> F  </i>
   <i type="logical" name="LGAUGE"> T  </i>
   <i type="int" name="MAGATOM">     0</i>
   <v name="MAGDIPOL">      0.00000000      0.00000000      0.00000000</v>
   <v name="AVECCONST">      0.00000000      0.00000000      0.00000000</v>
  </separator>
  <separator name="response functions" >
   <i type="logical" name="LADDER"> F  </i>
   <i type="logical" name="LFXC"> F  </i>
   <i type="logical" name="LHARTREE"> T  </i>
   <i type="int" name="IBSE">     0</i>
   <v type="int" name="KPOINT">    -1     0     0     0</v>
   <i type="logical" name="LTCTE"> F  </i>
   <i type="logical" name="LTETE"> F  </i>
   <i type="logical" name="LTRIPLET"> F  </i>
   <i type="logical" name="LFXCEPS"> F  </i>
   <i type="logical" name="LFXHEG"> F  </i>
   <i type="int" name="NATURALO">     0</i>
   <i type="logical" name="L2ORDER"> F  </i>
   <i type="logical" name="LUSEW"> F  </i>
   <i name="ENCUTGW">     -2.00000000</i>
   <i name="ENCUTGWSOFT">     -2.00000000</i>
   <i name="ENCUTLF">     -1.00000000</i>
   <i type="int" name="LMAXMP2">    -1</i>
   <i name="SCISSOR">      0.00000000</i>
   <i type="int" name="NOMEGA">     0</i>
   <i type="int" name="NOMEGAR">     0</i>
   <i type="int" name="NBANDSGW">    -1</i>
   <i type="int" name="NBANDSO">    -1</i>
   <i type="int" name="NBANDSV">    -1</i>
   <i type="int" name="NELM">   500</i>
   <i type="int" name="NELMHF">     1</i>
   <i type="int" name="DIM">     3</i>
   <i type="int" name="ANTIRES">     0</i>
   <i name="OMEGAMAX">    -30.00000000</i>
   <i name="OMEGAMIN">    -30.00000000</i>
   <i name="OMEGATL">   -200.00000000</i>
   <i type="int" name="OMEGAGRID">     0</i>
   <i name="CSHIFT">     -0.10000000</i>
   <i type="logical" name="SELFENERGY"> F  </i>
   <i type="logical" name="LSPECTRAL"> F  </i>
   <i type="logical" name="LSPECTRALGW"> F  </i>
   <i type="logical" name="LSINGLES"> F  </i>
   <i type="logical" name="LFERMIGW"> F  </i>
   <i type="logical" name="ODDONLYGW"> F  </i>
   <i type="logical" name="EVENONLYGW"> F  </i>
   <i type="int" name="NKREDLFX">     1</i>
   <i type="int" name="NKREDLFY">     1</i>
   <i type="int" name="NKREDLFZ">     1</i>
   <i type="int" name="MAXMEM">  1800</i>
   <i type="int" name="TELESCOPE">     0</i>
   <i type="int" name="TAUPAR">     1</i>
   <i type="int" name="OMEGAPAR">    -1</i>
   <i name="LAMBDA">      1.00000000</i>
  </separator>
  <separator name="External order field" >
   <i name="OFIELD_KAPPA">      0.00000000</i>
   <v name="OFIELD_K">      0.00000000      0.00000000      0.00000000</v>
   <i name="OFIELD_Q6_NEAR">      0.00000000</i>
   <i name="OFIELD_Q6_FAR">      0.00000000</i>
   <i name="OFIELD_A">      0.00000000</i>
  </separator>
 </parameters>
 <atominfo>
  <atoms>      48 </atoms>
  <types>       2 </types>
  <array name="atoms" >
   <dimension dim="1">ion</dimension>
   <field type="string">element</field>
   <field type="int">atomtype</field>
   <set>
    <rc><c>Au</c><c>   1</c></rc>
    <rc><c>Au</c><c>   1</c></rc>
    <rc><c>Au</c><c>   1</c></rc>
    <rc><c>Au</c><c>   1</c></rc>
    <rc><c>Au</c><c>   1</c></rc>
    <rc><c>Au</c><c>   1</c></rc>
    <rc><c>Au</c><c>   1</c></rc>
    <rc><c>Au</c><c>   1</c></rc>
    <rc><c>Au</c><c>   1</c></rc>
    <rc><c>Au</c><c>   1</c></rc>
    <rc><c>Au</c><c>   1</c></rc>
    <rc><c>Au</c><c>   1</c></rc>
    <rc><c>Au</c><c>   1</c></rc>
    <rc><c>Au</c><c>   1</c></rc>
    <rc><c>Au</c><c>   1</c></rc>
    <rc><c>Au</c><c>   1</c></rc>
    <rc><c>Au</c><c>   1</c></rc>
    <rc><c>Au</c><c>   1</c></rc>
    <rc><c>Au</c><c>   1</c></rc>
    <rc><c>Au</c><c>   1</c></rc>
    <rc><c>Au</c><c>   1</c></rc>
    <rc><c>Au</c><c>   1</c></rc>
    <rc><c>Au</c><c>   1</c></rc>
    <rc><c>Au</c><c>   1</c></rc>
    <rc><c>Pd</c><c>   2</c></rc>
    <rc><c>Pd</c><c>   2</c></rc>
    <rc><c>Pd</c><c>   2</c></rc>
    <rc><c>Pd</c><c>   2</c></rc>
    <rc><c>Pd</c><c>   2</c></rc>
    <rc><c>Pd</c><c>   2</c></rc>
    <rc><c>Pd</c><c>   2</c></rc>
    <rc><c>Pd</c><c>   2</c></rc>
    <rc><c>Pd</c><c>   2</c></rc>
    <rc><c>Pd</c><c>   2</c></rc>
    <rc><c>Pd</c><c>   2</c></rc>
    <rc><c>Pd</c><c>   2</c></rc>
    <rc><c>Pd</c><c>   2</c></rc>
    <rc><c>Pd</c><c>   2</c></rc>
    <rc><c>Pd</c><c>   2</c></rc>
    <rc><c>Pd</c><c>   2</c></rc>
    <rc><c>Pd</c><c>   2</c></rc>
    <rc><c>Pd</c><c>   2</c></rc>
    <rc><c>Pd</c><c>   2</c></rc>
    <rc><c>Pd</c><c>   2</c></rc>
    <rc><c>Pd</c><c>   2</c></rc>
    <rc><c>Pd</c><c>   2</c></rc>
    <rc><c>Pd</c><c>   2</c></rc>
    <rc><c>Pd</c><c>   2</c></rc>
   </set>
  </array>
  <array name="atomtypes" >
   <dimension dim="1">type</dimension>
   <field type="int">atomspertype</field>
   <field type="string">element</field>
   <field>mass</field>
   <field>valence</field>
   <field type="string">pseudopotential</field>
   <set>
    <rc><c>  24</c><c>Au</c><c>    196.96600000</c><c>     11.00000000</c><c>  PAW_PBE Au 04Oct2007                  </c></rc>
    <rc><c>  24</c><c>Pd</c><c>    106.42000000</c><c>     10.00000000</c><c>  PAW_PBE Pd 04Jan2005                  </c></rc>
   </set>
  </array>
 </atominfo>
 <structure name="initialpos" >
  <crystal>
   <varray name="basis" >
    <v>      11.00258152       0.00000000       0.00000000 </v>
    <v>       5.50129076       9.52851510       0.00000000 </v>
    <v>       0.00000000       0.00000000      24.49178509 </v>
   </varray>
   <i name="volume">   2567.67623402 </i>
   <varray name="rec_basis" >
    <v>       0.09088776      -0.05247407       0.00000000 </v>
    <v>       0.00000000       0.10494815       0.00000000 </v>
    <v>       0.00000000       0.00000000       0.04083002 </v>
   </varray>
  </crystal>
  <varray name="positions" >
   <v>       0.08333333       0.08333333       0.40830017 </v>
   <v>       0.91666667       0.91666667       0.50000000 </v>
   <v>       0.08333333       0.33333333       0.40830017 </v>
   <v>       0.00000000       0.00000000       0.59169983 </v>
   <v>       0.16666667       0.16666667       0.50000000 </v>
   <v>       0.91666667       0.16666667       0.50000000 </v>
   <v>       0.75000000       0.75000000       0.59169983 </v>
   <v>       0.25000000       0.75000000       0.59169983 </v>
   <v>       0.16666667       0.66666667       0.50000000 </v>
   <v>       0.25000000       0.50000000       0.59169983 </v>
   <v>       0.33333333       0.83333333       0.40830017 </v>
   <v>       0.41666667       0.16666667       0.50000000 </v>
   <v>       0.08333333       0.58333333       0.40830017 </v>
   <v>       0.58333333       0.33333333       0.40830017 </v>
   <v>       0.41666667       0.41666667       0.50000000 </v>
   <v>       0.58333333       0.58333333       0.40830017 </v>
   <v>       0.58333333       0.83333333       0.40830017 </v>
   <v>       0.41666667       0.91666667       0.50000000 </v>
   <v>       0.50000000       0.75000000       0.59169983 </v>
   <v>       0.83333333       0.08333333       0.40830017 </v>
   <v>       0.75000000       0.00000000       0.59169983 </v>
   <v>       0.83333333       0.58333333       0.40830017 </v>
   <v>       0.75000000       0.50000000       0.59169983 </v>
   <v>       0.50000000       0.00000000       0.59169983 </v>
   <v>       0.08333333       0.83333333       0.40830017 </v>
   <v>       0.00000000       0.75000000       0.59169983 </v>
   <v>       0.33333333       0.08333333       0.40830017 </v>
   <v>       0.58333333       0.08333333       0.40830017 </v>
   <v>       0.33333333       0.58333333       0.40830017 </v>
   <v>       0.16666667       0.91666667       0.50000000 </v>
   <v>       0.25000000       0.00000000       0.59169983 </v>
   <v>       0.33333333       0.33333333       0.40830017 </v>
   <v>       0.50000000       0.25000000       0.59169983 </v>
   <v>       0.66666667       0.91666667       0.50000000 </v>
   <v>       0.00000000       0.50000000       0.59169983 </v>
   <v>       0.91666667       0.41666667       0.50000000 </v>
   <v>       0.25000000       0.25000000       0.59169983 </v>
   <v>       0.91666667       0.66666667       0.50000000 </v>
   <v>       0.00000000       0.25000000       0.59169983 </v>
   <v>       0.66666667       0.16666667       0.50000000 </v>
   <v>       0.83333333       0.33333333       0.40830017 </v>
   <v>       0.66666667       0.41666667       0.50000000 </v>
   <v>       0.75000000       0.25000000       0.59169983 </v>
   <v>       0.66666667       0.66666667       0.50000000 </v>
   <v>       0.83333333       0.83333333       0.40830017 </v>
   <v>       0.16666667       0.41666667       0.50000000 </v>
   <v>       0.41666667       0.66666667       0.50000000 </v>
   <v>       0.50000000       0.50000000       0.59169983 </v>
  </varray>
  <varray name="selective"  type="logical" >
   <v type="logical" >  F  F  F </v>
   <v type="logical" >  T  T  T </v>
   <v type="logical" >  F  F  F </v>
   <v type="logical" >  T  T  T </v>
   <v type="logical" >  T  T  T </v>
   <v type="logical" >  T  T  T </v>
   <v type="logical" >  T  T  T </v>
   <v type="logical" >  T  T  T </v>
   <v type="logical" >  T  T  T </v>
   <v type="logical" >  T  T  T </v>
   <v type="logical" >  F  F  F </v>
   <v type="logical" >  T  T  T </v>
   <v type="logical" >  F  F  F </v>
   <v type="logical" >  F  F  F </v>
   <v type="logical" >  T  T  T </v>
   <v type="logical" >  F  F  F </v>
   <v type="logical" >  F  F  F </v>
   <v type="logical" >  T  T  T </v>
   <v type="logical" >  T  T  T </v>
   <v type="logical" >  F  F  F </v>
   <v type="logical" >  T  T  T </v>
   <v type="logical" >  F  F  F </v>
   <v type="logical" >  T  T  T </v>
   <v type="logical" >  T  T  T </v>
   <v type="logical" >  F  F  F </v>
   <v type="logical" >  T  T  T </v>
   <v type="logical" >  F  F  F </v>
   <v type="logical" >  F  F  F </v>
   <v type="logical" >  F  F  F </v>
   <v type="logical" >  T  T  T </v>
   <v type="logical" >  T  T  T </v>
   <v type="logical" >  F  F  F </v>
   <v type="logical" >  T  T  T </v>
   <v type="logical" >  T  T  T </v>
   <v type="logical" >  T  T  T </v>
   <v type="logical" >  T  T  T </v>
   <v type="logical" >  T  T  T </v>
   <v type="logical" >  T  T  T </v>
   <v type="logical" >  T  T  T </v>
   <v type="logical" >  T  T  T </v>
   <v type="logical" >  F  F  F </v>
   <v type="logical" >  T  T  T </v>
   <v type="logical" >  T  T  T </v>
   <v type="logical" >  T  T  T </v>
   <v type="logical" >  F  F  F </v>
   <v type="logical" >  T  T  T </v>
   <v type="logical" >  T  T  T </v>
   <v type="logical" >  T  T  T </v>
  </varray>
  <nose>
   <v>      -3.00000000       0.00000000       0.00010000       0.00010000 </v>
  </nose>
 </structure>
 <calculation>
  <scstep>
   <time name="dav">    9.36    9.37</time>
   <time name="total">    9.42    9.43</time>
   <dipole>
    <v name="dipole">      0.00000000       0.00000000       0.00000074 </v>
    <i name="Tr[quadrupol]"> -10263.87136594 </i>
    <i name="Echarged">      0.00000000 </i>
    <i name="Edipol_quadrupol">      0.00000000 </i>
    <i name="Eion">      0.00000000 </i>
   </dipole>
   <energy>
    <i name="alphaZ">    805.86936440 </i>
    <i name="ewald"> 199918.93429017 </i>
    <i name="hartreedc">-242331.66938830 </i>
    <i name="XCdc">   -327.69857263 </i>
    <i name="pawpsdc">  40340.05962942 </i>
    <i name="pawaedc"> -38292.62782345 </i>
    <i name="eentropy">     -0.13125050 </i>
    <i name="bandstr">   1428.13607019 </i>
    <i name="atom">  41659.78587232 </i>
    <i name="e_fr_energy">   3200.65819163 </i>
    <i name="e_wo_entrp">   3200.78944213 </i>
    <i name="e_0_energy">   3200.72381688 </i>
   </energy>
  </scstep>
  <scstep>
   <time name="dav">   11.10   11.11</time>
   <time name="total">   11.11   11.12</time>
   <dipole>
    <v name="dipole">      0.00000000       0.00000000       0.00000074 </v>
    <i name="Tr[quadrupol]"> -10263.87136594 </i>
    <i name="Echarged">      0.00000000 </i>
    <i name="Edipol_quadrupol">      0.00000000 </i>
    <i name="Eion">      0.00000000 </i>
   </dipole>
   <energy>
    <i name="e_fr_energy">     13.78770820 </i>
    <i name="e_wo_entrp">     13.91173571 </i>
    <i name="e_0_energy">     13.84972195 </i>
   </energy>
  </scstep>
  <scstep>
   <time name="dav">   11.40   11.42</time>
   <time name="total">   11.40   11.43</time>
   <dipole>
    <v name="dipole">      0.00000000       0.00000000       0.00000074 </v>
    <i name="Tr[quadrupol]"> -10263.87136594 </i>
    <i name="Echarged">      0.00000000 </i>
    <i name="Edipol_quadrupol">      0.00000000 </i>
    <i name="Eion">      0.00000000 </i>
   </dipole>
   <energy>
    <i name="e_fr_energy">   -200.92499532 </i>
    <i name="e_wo_entrp">   -200.73409950 </i>
    <i name="e_0_energy">   -200.82954741 </i>
   </energy>
  </scstep>
  <scstep>
   <time name="dav">   10.96   11.02</time>
   <time name="total">   10.96   11.03</time>
   <dipole>
    <v name="dipole">      0.00000000       0.00000000       0.00000074 </v>
    <i name="Tr[quadrupol]"> -10263.87136594 </i>
    <i name="Echarged">      0.00000000 </i>
    <i name="Edipol_quadrupol">      0.00000000 </i>
    <i name="Eion">      0.00000000 </i>
   </dipole>
   <energy>
    <i name="e_fr_energy">   -206.60079975 </i>
    <i name="e_wo_entrp">   -206.40577251 </i>
    <i name="e_0_energy">   -206.50328613 </i>
   </energy>
  </scstep>
  <scstep>
   <time name="dav">   11.27   11.28</time>
   <time name="total">   11.57   11.59</time>
   <dipole>
    <v name="dipole">      0.00000000       0.00000000       0.00000074 </v>
    <i name="Tr[quadrupol]"> -10263.87136594 </i>
    <i name="Echarged">      0.00000000 </i>
    <i name="Edipol_quadrupol">      0.00000000 </i>
    <i name="Eion">      0.00000000 </i>
   </dipole>
   <energy>
    <i name="e_fr_energy">   -206.77903337 </i>
    <i name="e_wo_entrp">   -206.58434581 </i>
    <i name="e_0_energy">   -206.68168959 </i>
   </energy>
  </scstep>
  <scstep>
   <time name="diag">    1.66    1.66</time>
   <time name="diis">    4.54    4.54</time>
   <time name="orth">    0.41    0.41</time>
   <time name="total">    6.98    6.99</time>
   <dipole>
    <v name="dipole">      0.00000000       0.00000000       0.33733239 </v>
    <i name="Tr[quadrupol]"> -10265.99012346 </i>
    <i name="Echarged">      0.00000000 </i>
    <i name="Edipol_quadrupol">      0.00000000 </i>
    <i name="Eion">      0.00000000 </i>
   </dipole>
   <energy>
    <i name="e_fr_energy">   -199.37255250 </i>
    <i name="e_wo_entrp">   -199.14696807 </i>
    <i name="e_0_energy">   -199.25976028 </i>
   </energy>
  </scstep>
  <scstep>
   <time name="diag">    1.66    1.66</time>
   <time name="diis">    4.52    4.52</time>
   <time name="orth">    0.41    0.41</time>
   <time name="total">    6.96    6.96</time>
   <dipole>
    <v name="dipole">      0.00000000       0.00000000      -0.85011349 </v>
    <i name="Tr[quadrupol]"> -10263.57062136 </i>
    <i name="Echarged">      0.00000000 </i>
    <i name="Edipol_quadrupol">      0.00000000 </i>
    <i name="Eion">      0.00000000 </i>
   </dipole>
   <energy>
    <i name="e_fr_energy">   -208.32911461 </i>
    <i name="e_wo_entrp">   -208.14056480 </i>
    <i name="e_0_energy">   -208.23483970 </i>
   </energy>
  </scstep>
  <scstep>
   <time name="diag">    1.66    1.67</time>
   <time name="diis">    4.54    4.54</time>
   <time name="orth">    0.41    0.41</time>
   <time name="total">    6.98    6.99</time>
   <dipole>
    <v name="dipole">      0.00000000       0.00000000       1.90589004 </v>
    <i name="Tr[quadrupol]"> -10265.54878056 </i>
    <i name="Echarged">      0.00000000 </i>
    <i name="Edipol_quadrupol">      0.00000000 </i>
    <i name="Eion">      0.00000000 </i>
   </dipole>
   <energy>
    <i name="e_fr_energy">   -225.59119490 </i>
    <i name="e_wo_entrp">   -225.26091289 </i>
    <i name="e_0_energy">   -225.42605390 </i>
   </energy>
  </scstep>
  <scstep>
   <time name="diag">    1.68    1.68</time>
   <time name="diis">    4.39    4.46</time>
   <time name="orth">    0.42    0.42</time>
   <time name="total">    6.85    6.92</time>
   <dipole>
    <v name="dipole">      0.00000000       0.00000000      -0.65351505 </v>
    <i name="Tr[quadrupol]"> -10266.91502319 </i>
    <i name="Echarged">      0.00000000 </i>
    <i name="Edipol_quadrupol">      0.00000000 </i>
    <i name="Eion">      0.00000000 </i>
   </dipole>
   <energy>
    <i name="e_fr_energy">   -208.34395004 </i>
    <i name="e_wo_entrp">   -208.13390195 </i>
    <i name="e_0_energy">   -208.23892600 </i>
   </energy>
  </scstep>
  <scstep>
   <time name="diag">    1.66    1.66</time>
   <time name="diis">    4.50    4.51</time>
   <time name="orth">    0.49    0.49</time>
   <time name="total">    7.15    7.16</time>
   <dipole>
    <v name="dipole">      0.00000000       0.00000000       0.28007601 </v>
    <i name="Tr[quadrupol]"> -10265.70597994 </i>
    <i name="Echarged">      0.00000000 </i>
    <i name="Edipol_quadrupol">      0.00000000 </i>
    <i name="Eion">      0.00000000 </i>
   </dipole>
   <energy>
    <i name="e_fr_energy">   -194.80426439 </i>
    <i name="e_wo_entrp">   -194.62557153 </i>
    <i name="e_0_energy">   -194.71491796 </i>
   </energy>
  </scstep>
  <scstep>
   <time name="diag">    2.01    2.03</time>
   <time name="diis">    4.49    4.50</time>
   <time name="orth">    0.40    0.40</time>
   <time name="total">    7.28    7.30</time>
   <dipole>
    <v name="dipole">      0.00000000       0.00000000       0.03756297 </v>
    <i name="Tr[quadrupol]"> -10266.78856549 </i>
    <i name="Echarged">      0.00000000 </i>
    <i name="Edipol_quadrupol">      0.00000000 </i>
    <i name="Eion">      0.00000000 </i>
   </dipole>
   <energy>
    <i name="e_fr_energy">   -191.97496443 </i>
    <i name="e_wo_entrp">   -191.78415629 </i>
    <i name="e_0_energy">   -191.87956036 </i>
   </energy>
  </scstep>
  <scstep>
   <time name="diag">    1.66    1.66</time>
   <time name="diis">    4.43    4.43</time>
   <time name="orth">    0.40    0.40</time>
   <time name="total">    6.85    6.86</time>
   <dipole>
    <v name="dipole">      0.00000000       0.00000000       0.03048431 </v>
    <i name="Tr[quadrupol]"> -10266.95061870 </i>
    <i name="Echarged">      0.00000000 </i>
    <i name="Edipol_quadrupol">      0.00000000 </i>
    <i name="Eion">      0.00000000 </i>
   </dipole>
   <energy>
    <i name="e_fr_energy">   -189.90752589 </i>
    <i name="e_wo_entrp">   -189.65112279 </i>
    <i name="e_0_energy">   -189.77932434 </i>
   </energy>
  </scstep>
  <scstep>
   <time name="diag">    1.66    1.66</time>
   <time name="diis">    4.53    4.53</time>
   <time name="orth">    0.40    0.40</time>
   <time name="total">    6.97    6.98</time>
   <dipole>
    <v name="dipole">      0.00000000       0.00000000       0.00788541 </v>
    <i name="Tr[quadrupol]"> -10267.19833519 </i>
    <i name="Echarged">      0.00000000 </i>
    <i name="Edipol_quadrupol">      0.00000000 </i>
    <i name="Eion">      0.00000000 </i>
   </dipole>
   <energy>
    <i name="e_fr_energy">   -189.80974612 </i>
    <i name="e_wo_entrp">   -189.58951341 </i>
    <i name="e_0_energy">   -189.69962977 </i>
   </energy>
  </scstep>
  <scstep>
   <time name="diag">    1.64    1.64</time>
   <time name="diis">    4.53    4.53</time>
   <time name="orth">    0.40    0.41</time>
   <time name="total">    6.94    6.94</time>
   <dipole>
    <v name="dipole">      0.00000000       0.00000000       0.01022108 </v>
    <i name="Tr[quadrupol]"> -10267.44372718 </i>
    <i name="Echarged">      0.00000000 </i>
    <i name="Edipol_quadrupol">      0.00000000 </i>
    <i name="Eion">      0.00000000 </i>
   </dipole>
   <energy>
    <i name="e_fr_energy">   -189.89899890 </i>
    <i name="e_wo_entrp">   -189.66502927 </i>
    <i name="e_0_energy">   -189.78201408 </i>
   </energy>
  </scstep>
  <scstep>
   <time name="diag">    1.65    1.65</time>
   <time name="diis">    4.34    4.41</time>
   <time name="orth">    0.40    0.40</time>
   <time name="total">    6.75    6.82</time>
   <dipole>
    <v name="dipole">      0.00000000       0.00000000       0.00133104 </v>
    <i name="Tr[quadrupol]"> -10267.57324152 </i>
    <i name="Echarged">      0.00000000 </i>
    <i name="Edipol_quadrupol">      0.00000000 </i>
    <i name="Eion">      0.00000000 </i>
   </dipole>
   <energy>
    <i name="e_fr_energy">   -189.75578536 </i>
    <i name="e_wo_entrp">   -189.52660970 </i>
    <i name="e_0_energy">   -189.64119753 </i>
   </energy>
  </scstep>
  <scstep>
   <time name="diag">    1.66    1.66</time>
   <time name="diis">    4.42    4.42</time>
   <time name="orth">    0.41    0.41</time>
   <time name="total">    6.84    6.85</time>
   <dipole>
    <v name="dipole">      0.00000000       0.00000000       0.00094281 </v>
    <i name="Tr[quadrupol]"> -10267.79919043 </i>
    <i name="Echarged">      0.00000000 </i>
    <i name="Edipol_quadrupol">      0.00000000 </i>
    <i name="Eion">      0.00000000 </i>
   </dipole>
   <energy>
    <i name="e_fr_energy">   -189.60988679 </i>
    <i name="e_wo_entrp">   -189.36463935 </i>
    <i name="e_0_energy">   -189.48726307 </i>
   </energy>
  </scstep>
  <scstep>
   <time name="diag">    1.68    1.68</time>
   <time name="diis">    4.54    4.54</time>
   <time name="orth">    0.42    0.42</time>
   <time name="total">    7.01    7.01</time>
   <dipole>
    <v name="dipole">      0.00000000       0.00000000       0.00388341 </v>
    <i name="Tr[quadrupol]"> -10268.05566338 </i>
    <i name="Echarged">      0.00000000 </i>
    <i name="Edipol_quadrupol">      0.00000000 </i>
    <i name="Eion">      0.00000000 </i>
   </dipole>
   <energy>
    <i name="e_fr_energy">   -189.51625755 </i>
    <i name="e_wo_entrp">   -189.27036725 </i>
    <i name="e_0_energy">   -189.39331240 </i>
   </energy>
  </scstep>
  <scstep>
   <time name="diag">    1.66    1.66</time>
   <time name="diis">    4.53    4.53</time>
   <time name="orth">    0.42    0.42</time>
   <time name="total">    6.97    6.98</time>
   <dipole>
    <v name="dipole">      0.00000000       0.00000000       0.00975779 </v>
    <i name="Tr[quadrupol]"> -10268.30039816 </i>
    <i name="Echarged">      0.00000000 </i>
    <i name="Edipol_quadrupol">      0.00000000 </i>
    <i name="Eion">      0.00000000 </i>
   </dipole>
   <energy>
    <i name="e_fr_energy">   -189.50394656 </i>
    <i name="e_wo_entrp">   -189.25561440 </i>
    <i name="e_0_energy">   -189.37978048 </i>
   </energy>
  </scstep>
  <scstep>
   <time name="diag">    1.66    1.66</time>
   <time name="diis">    4.97    5.00</time>
   <time name="orth">    0.42    0.42</time>
   <time name="total">    7.41    7.44</time>
   <dipole>
    <v name="dipole">      0.00000000       0.00000000       0.01137039 </v>
    <i name="Tr[quadrupol]"> -10268.43082617 </i>
    <i name="Echarged">      0.00000000 </i>
    <i name="Edipol_quadrupol">      0.00000000 </i>
    <i name="Eion">      0.00000000 </i>
   </dipole>
   <energy>
    <i name="e_fr_energy">   -189.48967596 </i>
    <i name="e_wo_entrp">   -189.24045488 </i>
    <i name="e_0_energy">   -189.36506542 </i>
   </energy>
  </scstep>
  <scstep>
   <time name="diag">    1.66    1.67</time>
   <time name="diis">    4.45    4.45</time>
   <time name="orth">    0.42    0.42</time>
   <time name="total">    6.89    6.90</time>
   <dipole>
    <v name="dipole">      0.00000000       0.00000000       0.00288851 </v>
    <i name="Tr[quadrupol]"> -10268.52762010 </i>
    <i name="Echarged">      0.00000000 </i>
    <i name="Edipol_quadrupol">      0.00000000 </i>
    <i name="Eion">      0.00000000 </i>
   </dipole>
   <energy>
    <i name="e_fr_energy">   -189.48780539 </i>
    <i name="e_wo_entrp">   -189.23733121 </i>
    <i name="e_0_energy">   -189.36256830 </i>
   </energy>
  </scstep>
  <scstep>
   <time name="diag">    1.68    1.68</time>
   <time name="diis">    4.41    4.48</time>
   <time name="orth">    0.42    0.42</time>
   <time name="total">    6.87    6.94</time>
   <dipole>
    <v name="dipole">      0.00000000       0.00000000       0.00316871 </v>
    <i name="Tr[quadrupol]"> -10268.61552059 </i>
    <i name="Echarged">      0.00000000 </i>
    <i name="Edipol_quadrupol">      0.00000000 </i>
    <i name="Eion">      0.00000000 </i>
   </dipole>
   <energy>
    <i name="e_fr_energy">   -189.48750668 </i>
    <i name="e_wo_entrp">   -189.23785958 </i>
    <i name="e_0_energy">   -189.36268313 </i>
   </energy>
  </scstep>
  <scstep>
   <time name="diag">    1.65    1.65</time>
   <time name="diis">    4.52    4.53</time>
   <time name="orth">    0.42    0.42</time>
   <time name="total">    6.96    6.97</time>
   <dipole>
    <v name="dipole">      0.00000000       0.00000000       0.00520653 </v>
    <i name="Tr[quadrupol]"> -10268.76980639 </i>
    <i name="Echarged">      0.00000000 </i>
    <i name="Edipol_quadrupol">      0.00000000 </i>
    <i name="Eion">      0.00000000 </i>
   </dipole>
   <energy>
    <i name="e_fr_energy">   -189.48600098 </i>
    <i name="e_wo_entrp">   -189.23577528 </i>
    <i name="e_0_energy">   -189.36088813 </i>
   </energy>
  </scstep>
  <scstep>
   <time name="diag">    1.65    1.66</time>
   <time name="diis">    4.55    4.55</time>
   <time name="orth">    0.42    0.42</time>
   <time name="total">    6.98    6.99</time>
   <dipole>
    <v name="dipole">      0.00000000       0.00000000       0.00663422 </v>
    <i name="Tr[quadrupol]"> -10268.86541908 </i>
    <i name="Echarged">      0.00000000 </i>
    <i name="Edipol_quadrupol">      0.00000000 </i>
    <i name="Eion">      0.00000000 </i>
   </dipole>
   <energy>
    <i name="e_fr_energy">   -189.48572214 </i>
    <i name="e_wo_entrp">   -189.23536542 </i>
    <i name="e_0_energy">   -189.36054378 </i>
   </energy>
  </scstep>
  <scstep>
   <time name="diag">    1.67    1.67</time>
   <time name="diis">    4.54    4.54</time>
   <time name="orth">    0.42    0.42</time>
   <time name="total">    6.99    6.99</time>
   <dipole>
    <v name="dipole">      0.00000000       0.00000000       0.00515126 </v>
    <i name="Tr[quadrupol]"> -10268.95966706 </i>
    <i name="Echarged">      0.00000000 </i>
    <i name="Edipol_quadrupol">      0.00000000 </i>
    <i name="Eion">      0.00000000 </i>
   </dipole>
   <energy>
    <i name="e_fr_energy">   -189.48598541 </i>
    <i name="e_wo_entrp">   -189.23530570 </i>
    <i name="e_0_energy">   -189.36064555 </i>
   </energy>
  </scstep>
  <scstep>
   <time name="diag">    1.68    1.68</time>
   <time name="diis">    4.53    4.53</time>
   <time name="orth">    0.42    0.42</time>
   <time name="total">    6.99    6.99</time>
   <dipole>
    <v name="dipole">      0.00000000       0.00000000       0.00451775 </v>
    <i name="Tr[quadrupol]"> -10269.00215368 </i>
    <i name="Echarged">      0.00000000 </i>
    <i name="Edipol_quadrupol">      0.00000000 </i>
    <i name="Eion">      0.00000000 </i>
   </dipole>
   <energy>
    <i name="e_fr_energy">   -189.48617761 </i>
    <i name="e_wo_entrp">   -189.23557547 </i>
    <i name="e_0_energy">   -189.36087654 </i>
   </energy>
  </scstep>
  <scstep>
   <time name="diag">    1.65    1.65</time>
   <time name="diis">    4.54    4.54</time>
   <time name="orth">    0.42    0.42</time>
   <time name="total">    6.97    6.98</time>
   <dipole>
    <v name="dipole">      0.00000000       0.00000000       0.00354164 </v>
    <i name="Tr[quadrupol]"> -10269.09336354 </i>
    <i name="Echarged">      0.00000000 </i>
    <i name="Edipol_quadrupol">      0.00000000 </i>
    <i name="Eion">      0.00000000 </i>
   </dipole>
   <energy>
    <i name="e_fr_energy">   -189.48680980 </i>
    <i name="e_wo_entrp">   -189.23620720 </i>
    <i name="e_0_energy">   -189.36150850 </i>
   </energy>
  </scstep>
  <scstep>
   <time name="diag">    1.65    1.66</time>
   <time name="diis">    4.32    4.39</time>
   <time name="orth">    0.41    0.41</time>
   <time name="total">    6.76    6.84</time>
   <dipole>
    <v name="dipole">      0.00000000       0.00000000       0.00304862 </v>
    <i name="Tr[quadrupol]"> -10269.13594216 </i>
    <i name="Echarged">      0.00000000 </i>
    <i name="Edipol_quadrupol">      0.00000000 </i>
    <i name="Eion">      0.00000000 </i>
   </dipole>
   <energy>
    <i name="e_fr_energy">   -189.48718896 </i>
    <i name="e_wo_entrp">   -189.23662837 </i>
    <i name="e_0_energy">   -189.36190866 </i>
   </energy>
  </scstep>
  <scstep>
   <time name="diag">    2.01    2.02</time>
   <time name="diis">    4.48    4.49</time>
   <time name="orth">    0.41    0.41</time>
   <time name="total">    7.29    7.31</time>
   <dipole>
    <v name="dipole">      0.00000000       0.00000000       0.00275483 </v>
    <i name="Tr[quadrupol]"> -10269.18108564 </i>
    <i name="Echarged">      0.00000000 </i>
    <i name="Edipol_quadrupol">      0.00000000 </i>
    <i name="Eion">      0.00000000 </i>
   </dipole>
   <energy>
    <i name="e_fr_energy">   -189.48771254 </i>
    <i name="e_wo_entrp">   -189.23720284 </i>
    <i name="e_0_energy">   -189.36245769 </i>
   </energy>
  </scstep>
  <scstep>
   <time name="diag">    1.68    1.68</time>
   <time name="diis">    4.31    4.32</time>
   <time name="orth">    0.41    0.41</time>
   <time name="total">    6.77    6.77</time>
   <dipole>
    <v name="dipole">      0.00000000       0.00000000       0.00220732 </v>
    <i name="Tr[quadrupol]"> -10269.22363329 </i>
    <i name="Echarged">      0.00000000 </i>
    <i name="Edipol_quadrupol">      0.00000000 </i>
    <i name="Eion">      0.00000000 </i>
   </dipole>
   <energy>
    <i name="e_fr_energy">   -189.48818315 </i>
    <i name="e_wo_entrp">   -189.23755081 </i>
    <i name="e_0_energy">   -189.36286698 </i>
   </energy>
  </scstep>
  <scstep>
   <time name="diag">    1.66    1.66</time>
   <time name="diis">    4.51    4.51</time>
   <time name="orth">    0.41    0.41</time>
   <time name="total">    6.95    6.96</time>
   <dipole>
    <v name="dipole">      0.00000000       0.00000000       0.00125395 </v>
    <i name="Tr[quadrupol]"> -10269.29215492 </i>
    <i name="Echarged">      0.00000000 </i>
    <i name="Edipol_quadrupol">      0.00000000 </i>
    <i name="Eion">      0.00000000 </i>
   </dipole>
   <energy>
    <i name="e_fr_energy">   -189.48891356 </i>
    <i name="e_wo_entrp">   -189.23834916 </i>
    <i name="e_0_energy">   -189.36363136 </i>
   </energy>
  </scstep>
  <scstep>
   <time name="diag">    1.64    1.66</time>
   <time name="diis">    3.75    3.75</time>
   <time name="orth">    0.41    0.41</time>
   <time name="total">    6.17    6.18</time>
   <dipole>
    <v name="dipole">      0.00000000       0.00000000       0.00091711 </v>
    <i name="Tr[quadrupol]"> -10269.31768179 </i>
    <i name="Echarged">      0.00000000 </i>
    <i name="Edipol_quadrupol">      0.00000000 </i>
    <i name="Eion">      0.00000000 </i>
   </dipole>
   <energy>
    <i name="e_fr_energy">   -189.48912738 </i>
    <i name="e_wo_entrp">   -189.23852246 </i>
    <i name="e_0_energy">   -189.36382492 </i>
   </energy>
  </scstep>
  <scstep>
   <time name="diag">    1.66    1.66</time>
   <time name="diis">    3.38    3.38</time>
   <time name="orth">    0.41    0.41</time>
   <time name="total">    5.82    5.82</time>
   <dipole>
    <v name="dipole">      0.00000000       0.00000000       0.00061236 </v>
    <i name="Tr[quadrupol]"> -10269.33494813 </i>
    <i name="Echarged">      0.00000000 </i>
    <i name="Edipol_quadrupol">      0.00000000 </i>
    <i name="Eion">      0.00000000 </i>
   </dipole>
   <energy>
    <i name="e_fr_energy">   -189.48927718 </i>
    <i name="e_wo_entrp">   -189.23870150 </i>
    <i name="e_0_energy">   -189.36398934 </i>
   </energy>
  </scstep>
  <scstep>
   <time name="diag">    1.68    1.68</time>
   <time name="diis">    2.93    3.00</time>
   <time name="orth">    0.41    0.41</time>
   <time name="total">    5.39    5.46</time>
   <dipole>
    <v name="dipole">      0.00000000       0.00000000       0.00046455 </v>
    <i name="Tr[quadrupol]"> -10269.34435739 </i>
    <i name="Echarged">      0.00000000 </i>
    <i name="Edipol_quadrupol">      0.00000000 </i>
    <i name="Eion">      0.00000000 </i>
   </dipole>
   <energy>
    <i name="e_fr_energy">   -189.48936586 </i>
    <i name="e_wo_entrp">   -189.23879720 </i>
    <i name="e_0_energy">   -189.36408153 </i>
   </energy>
  </scstep>
  <scstep>
   <time name="diag">    1.68    1.68</time>
   <time name="diis">    2.77    2.77</time>
   <time name="orth">    0.41    0.41</time>
   <time name="total">    5.23    5.24</time>
   <dipole>
    <v name="dipole">      0.00000000       0.00000000       0.00034554 </v>
    <i name="Tr[quadrupol]"> -10269.34941785 </i>
    <i name="Echarged">      0.00000000 </i>
    <i name="Edipol_quadrupol">      0.00000000 </i>
    <i name="Eion">      0.00000000 </i>
   </dipole>
   <energy>
    <i name="e_fr_energy">   -189.48941215 </i>
    <i name="e_wo_entrp">   -189.23884231 </i>
    <i name="e_0_energy">   -189.36412723 </i>
   </energy>
  </scstep>
  <scstep>
   <time name="diag">    1.65    1.66</time>
   <time name="diis">    2.78    2.79</time>
   <time name="orth">    0.41    0.41</time>
   <time name="total">    5.21    5.22</time>
   <dipole>
    <v name="dipole">      0.00000000       0.00000000       0.00017691 </v>
    <i name="Tr[quadrupol]"> -10269.35547388 </i>
    <i name="Echarged">      0.00000000 </i>
    <i name="Edipol_quadrupol">      0.00000000 </i>
    <i name="Eion">      0.00000000 </i>
   </dipole>
   <energy>
    <i name="e_fr_energy">   -189.48945901 </i>
    <i name="e_wo_entrp">   -189.23888845 </i>
    <i name="e_0_energy">   -189.36417373 </i>
   </energy>
  </scstep>
  <scstep>
   <time name="diag">    1.66    1.67</time>
   <time name="diis">    2.73    2.74</time>
   <time name="orth">    0.40    0.40</time>
   <time name="total">    5.16    5.17</time>
   <dipole>
    <v name="dipole">      0.00000000       0.00000000       0.00007923 </v>
    <i name="Tr[quadrupol]"> -10269.35903281 </i>
    <i name="Echarged">      0.00000000 </i>
    <i name="Edipol_quadrupol">      0.00000000 </i>
    <i name="Eion">      0.00000000 </i>
   </dipole>
   <energy>
    <i name="e_fr_energy">   -189.48947676 </i>
    <i name="e_wo_entrp">   -189.23889911 </i>
    <i name="e_0_energy">   -189.36418793 </i>
   </energy>
  </scstep>
  <scstep>
   <time name="diag">    1.67    1.67</time>
   <time name="diis">    2.54    2.54</time>
   <time name="orth">    0.40    0.40</time>
   <time name="total">    4.97    4.98</time>
   <dipole>
    <v name="dipole">      0.00000000       0.00000000       0.00000565 </v>
    <i name="Tr[quadrupol]"> -10269.36257254 </i>
    <i name="Echarged">      0.00000000 </i>
    <i name="Edipol_quadrupol">      0.00000000 </i>
    <i name="Eion">      0.00000000 </i>
   </dipole>
   <energy>
    <i name="e_fr_energy">   -189.48948757 </i>
    <i name="e_wo_entrp">   -189.23891310 </i>
    <i name="e_0_energy">   -189.36420034 </i>
   </energy>
  </scstep>
  <scstep>
   <time name="diag">    1.82    1.83</time>
   <time name="diis">    2.50    2.52</time>
   <time name="orth">    0.40    0.40</time>
   <time name="total">    5.09    5.12</time>
   <dipole>
    <v name="dipole">      0.00000000       0.00000000      -0.00003368 </v>
    <i name="Tr[quadrupol]"> -10269.36453518 </i>
    <i name="Echarged">      0.00000000 </i>
    <i name="Edipol_quadrupol">      0.00000000 </i>
    <i name="Eion">      0.00000000 </i>
   </dipole>
   <energy>
    <i name="e_fr_energy">   -189.48949012 </i>
    <i name="e_wo_entrp">   -189.23891605 </i>
    <i name="e_0_energy">   -189.36420308 </i>
   </energy>
  </scstep>
  <scstep>
   <time name="diag">    1.64    1.64</time>
   <time name="diis">    2.09    2.09</time>
   <time name="orth">    0.40    0.40</time>
   <time name="total">    4.50    4.50</time>
   <dipole>
    <v name="dipole">      0.00000000       0.00000000      -0.00007090 </v>
    <i name="Tr[quadrupol]"> -10269.36639912 </i>
    <i name="Echarged">      0.00000000 </i>
    <i name="Edipol_quadrupol">      0.00000000 </i>
    <i name="Eion">      0.00000000 </i>
   </dipole>
   <energy>
    <i name="e_fr_energy">   -189.48949119 </i>
    <i name="e_wo_entrp">   -189.23891628 </i>
    <i name="e_0_energy">   -189.36420374 </i>
   </energy>
  </scstep>
  <scstep>
   <time name="diag">    1.65    1.65</time>
   <time name="diis">    1.96    1.97</time>
   <time name="orth">    0.40    0.40</time>
   <time name="total">    4.07    4.08</time>
   <dipole>
    <v name="dipole">      0.00000000       0.00000000      -0.00008964 </v>
    <i name="Tr[quadrupol]"> -10269.36741387 </i>
    <i name="Echarged">      0.00000000 </i>
    <i name="Edipol_quadrupol">      0.00000000 </i>
    <i name="Eion">      0.00000000 </i>
   </dipole>
   <energy>
    <i name="alphaZ">    805.86935010 </i>
    <i name="ewald"> 199918.93429017 </i>
    <i name="hartreedc">-242115.52534555 </i>
    <i name="XCdc">   -343.54468384 </i>
    <i name="pawpsdc">  49292.79407659 </i>
    <i name="pawaedc"> -47370.70276729 </i>
    <i name="eentropy">     -0.25057437 </i>
    <i name="bandstr">  -2036.84970970 </i>
    <i name="atom">  41659.78587232 </i>
    <i name="e_fr_energy">   -189.48949156 </i>
    <i name="e_wo_entrp">   -189.23891719 </i>
    <i name="e_0_energy">   -189.36420438 </i>
   </energy>
  </scstep>
  <structure>
   <crystal>
    <varray name="basis" >
     <v>      11.00258152       0.00000000       0.00000000 </v>
     <v>       5.50129076       9.52851510       0.00000000 </v>
     <v>       0.00000000       0.00000000      24.49178509 </v>
    </varray>
    <i name="volume">   2567.67623402 </i>
    <varray name="rec_basis" >
     <v>       0.09088776      -0.05247407       0.00000000 </v>
     <v>       0.00000000       0.10494815       0.00000000 </v>
     <v>       0.00000000       0.00000000       0.04083002 </v>
    </varray>
   </crystal>
   <varray name="positions" >
    <v>       0.08333333       0.08333333       0.40830017 </v>
    <v>       0.91666667       0.91666667       0.50000000 </v>
    <v>       0.08333333       0.33333333       0.40830017 </v>
    <v>       0.00000000       0.00000000       0.59169983 </v>
    <v>       0.16666667       0.16666667       0.50000000 </v>
    <v>       0.91666667       0.16666667       0.50000000 </v>
    <v>       0.75000000       0.75000000       0.59169983 </v>
    <v>       0.25000000       0.75000000       0.59169983 </v>
    <v>       0.16666667       0.66666667       0.50000000 </v>
    <v>       0.25000000       0.50000000       0.59169983 </v>
    <v>       0.33333333       0.83333333       0.40830017 </v>
    <v>       0.41666667       0.16666667       0.50000000 </v>
    <v>       0.08333333       0.58333333       0.40830017 </v>
    <v>       0.58333333       0.33333333       0.40830017 </v>
    <v>       0.41666667       0.41666667       0.50000000 </v>
    <v>       0.58333333       0.58333333       0.40830017 </v>
    <v>       0.58333333       0.83333333       0.40830017 </v>
    <v>       0.41666667       0.91666667       0.50000000 </v>
    <v>       0.50000000       0.75000000       0.59169983 </v>
    <v>       0.83333333       0.08333333       0.40830017 </v>
    <v>       0.75000000       0.00000000       0.59169983 </v>
    <v>       0.83333333       0.58333333       0.40830017 </v>
    <v>       0.75000000       0.50000000       0.59169983 </v>
    <v>       0.50000000       0.00000000       0.59169983 </v>
    <v>       0.08333333       0.83333333       0.40830017 </v>
    <v>       0.00000000       0.75000000       0.59169983 </v>
    <v>       0.33333333       0.08333333       0.40830017 </v>
    <v>       0.58333333       0.08333333       0.40830017 </v>
    <v>       0.33333333       0.58333333       0.40830017 </v>
    <v>       0.16666667       0.91666667       0.50000000 </v>
    <v>       0.25000000       0.00000000       0.59169983 </v>
    <v>       0.33333333       0.33333333       0.40830017 </v>
    <v>       0.50000000       0.25000000       0.59169983 </v>
    <v>       0.66666667       0.91666667       0.50000000 </v>
    <v>       0.00000000       0.50000000       0.59169983 </v>
    <v>       0.91666667       0.41666667       0.50000000 </v>
    <v>       0.25000000       0.25000000       0.59169983 </v>
    <v>       0.91666667       0.66666667       0.50000000 </v>
    <v>       0.00000000       0.25000000       0.59169983 </v>
    <v>       0.66666667       0.16666667       0.50000000 </v>
    <v>       0.83333333       0.33333333       0.40830017 </v>
    <v>       0.66666667       0.41666667       0.50000000 </v>
    <v>       0.75000000       0.25000000       0.59169983 </v>
    <v>       0.66666667       0.66666667       0.50000000 </v>
    <v>       0.83333333       0.83333333       0.40830017 </v>
    <v>       0.16666667       0.41666667       0.50000000 </v>
    <v>       0.41666667       0.66666667       0.50000000 </v>
    <v>       0.50000000       0.50000000       0.59169983 </v>
   </varray>
  </structure>
  <varray name="forces" >
   <v>       0.02532262      -0.15427145      -1.61622048 </v>
   <v>      -0.31443080      -0.39985234      -0.27703620 </v>
   <v>       0.12806430      -0.03022049      -1.38637748 </v>
   <v>       0.23702517       0.15602134       1.57519371 </v>
   <v>       0.04161575       0.20848352       0.52773700 </v>
   <v>      -0.12030293       0.65385743       0.29437611 </v>
   <v>       0.36670239      -0.24467891       1.13267150 </v>
   <v>       0.13185173       0.08421001       1.40379461 </v>
   <v>      -0.02109523       0.17273400      -0.28469635 </v>
   <v>      -0.24935837      -0.24946917       1.53987932 </v>
   <v>      -0.38291632      -0.09735060      -1.37529315 </v>
   <v>       0.28350243       0.21102019      -0.26468138 </v>
   <v>       0.21457708       0.09113452      -1.32976776 </v>
   <v>      -0.12370647      -0.03866508      -1.35590926 </v>
   <v>       0.26076342      -0.05307725       0.01428256 </v>
   <v>      -0.12274126      -0.21708968      -1.15011928 </v>
   <v>       0.39430686       0.31408918      -1.31080591 </v>
   <v>      -0.16906448      -0.11519510      -0.01712993 </v>
   <v>      -0.27091079      -0.16861497       1.34491397 </v>
   <v>      -0.27831206      -0.13842180      -1.51098072 </v>
   <v>      -0.00807706       0.26554234       1.37347881 </v>
   <v>       0.00853505      -0.00369956      -1.09766021 </v>
   <v>       0.00048012      -0.38206066       1.06966454 </v>
   <v>      -0.05656453       0.36604180       1.56311475 </v>
   <v>       0.02918934      -0.09638098      -0.87317163 </v>
   <v>      -0.14434779      -0.19455498       0.90646523 </v>
   <v>       0.24787459       0.15864596      -1.03469936 </v>
   <v>      -0.08473951      -0.02260112      -0.71992832 </v>
   <v>      -0.09064008       0.02229254      -0.87320777 </v>
   <v>       0.09968198      -0.17365031       0.00827915 </v>
   <v>      -0.11179971       0.14322511       0.89142208 </v>
   <v>       0.01251594      -0.13365356      -0.82810361 </v>
   <v>       0.19092848       0.11460976       0.84052874 </v>
   <v>       0.24415813      -0.07404830      -0.35825425 </v>
   <v>       0.08670003      -0.09026519       0.50577678 </v>
   <v>       0.03200300       0.18457738       0.29351339 </v>
   <v>      -0.19254228       0.12087493       0.82869900 </v>
   <v>      -0.20040272      -0.12075098       0.17442572 </v>
   <v>       0.18375645       0.10612092       0.78291509 </v>
   <v>      -0.13210581       0.07861751       0.12463877 </v>
   <v>      -0.04960444       0.07893629      -0.74101947 </v>
   <v>       0.12250387       0.03546550       0.22693122 </v>
   <v>      -0.13713321       0.18120312       0.71955627 </v>
   <v>       0.12621069      -0.23441962       0.00096529 </v>
   <v>      -0.02693879       0.10415650      -0.65824154 </v>
   <v>      -0.34744282       0.03296980       0.21459717 </v>
   <v>       0.06152606      -0.20499484      -0.00118844 </v>
   <v>       0.10538198      -0.24684271       0.70667175 </v>
  </varray>
  <energy>
   <i name="e_fr_energy">   -189.48949156 </i>
   <i name="e_wo_entrp">   -189.36420438 </i>
   <i name="e_0_energy">     -0.25057437 </i>
  </energy>
  <time name="totalsc">  283.53  284.44</time>
 </calculation>
 <calculation>
  <scstep>
   <time name="dav">    9.64    9.65</time>
   <time name="total">   10.00   10.01</time>
   <dipole>
    <v name="dipole">      0.00000000       0.00000000      -0.00012171 </v>
    <i name="Tr[quadrupol]"> -10267.27199316 </i>
    <i name="Echarged">      0.00000000 </i>
    <i name="Edipol_quadrupol">      0.00000000 </i>
    <i name="Eion">      0.00000000 </i>
   </dipole>
   <energy>
    <i name="alphaZ">    805.86939994 </i>
    <i name="ewald"> 198624.46743945 </i>
    <i name="hartreedc">-240828.76939458 </i>
    <i name="XCdc">   -344.60512023 </i>
    <i name="pawpsdc">  49292.78848382 </i>
    <i name="pawaedc"> -47370.69724052 </i>
    <i name="eentropy">     -0.24962581 </i>
    <i name="bandstr">  -2028.59396747 </i>
    <i name="atom">  41659.78587232 </i>
    <i name="e_fr_energy">   -190.00415308 </i>
    <i name="e_wo_entrp">   -189.75452727 </i>
    <i name="e_0_energy">   -189.87934017 </i>
   </energy>
  </scstep>
  <scstep>
   <time name="diag">    1.67    1.67</time>
   <time name="diis">    4.53    4.53</time>
   <time name="orth">    0.40    0.40</time>
   <time name="total">    6.96    6.96</time>
   <dipole>
    <v name="dipole">      0.00000000       0.00000000       0.04332833 </v>
    <i name="Tr[quadrupol]"> -10267.14300903 </i>
    <i name="Echarged">      0.00000000 </i>
    <i name="Edipol_quadrupol">      0.00000000 </i>
    <i name="Eion">      0.00000000 </i>
   </dipole>
   <energy>
    <i name="e_fr_energy">   -190.19553006 </i>
    <i name="e_wo_entrp">   -189.95119695 </i>
    <i name="e_0_energy">   -190.07336350 </i>
   </energy>
  </scstep>
  <scstep>
   <time name="diag">    1.64    1.64</time>
   <time name="diis">    4.52    4.53</time>
   <time name="orth">    0.40    0.40</time>
   <time name="total">    6.93    6.93</time>
   <dipole>
    <v name="dipole">      0.00000000       0.00000000      -0.08239877 </v>
    <i name="Tr[quadrupol]"> -10267.30007907 </i>
    <i name="Echarged">      0.00000000 </i>
    <i name="Edipol_quadrupol">      0.00000000 </i>
    <i name="Eion">      0.00000000 </i>
   </dipole>
   <energy>
    <i name="e_fr_energy">   -190.30126823 </i>
    <i name="e_wo_entrp">   -190.05074368 </i>
    <i name="e_0_energy">   -190.17600595 </i>
   </energy>
  </scstep>
  <scstep>
   <time name="diag">    1.63    1.63</time>
   <time name="diis">    4.54    4.54</time>
   <time name="orth">    0.40    0.40</time>
   <time name="total">    6.93    6.94</time>
   <dipole>
    <v name="dipole">      0.00000000       0.00000000       0.01272744 </v>
    <i name="Tr[quadrupol]"> -10267.35580947 </i>
    <i name="Echarged">      0.00000000 </i>
    <i name="Edipol_quadrupol">      0.00000000 </i>
    <i name="Eion">      0.00000000 </i>
   </dipole>
   <energy>
    <i name="e_fr_energy">   -190.18919874 </i>
    <i name="e_wo_entrp">   -189.94427241 </i>
    <i name="e_0_energy">   -190.06673557 </i>
   </energy>
  </scstep>
  <scstep>
   <time name="diag">    1.63    1.63</time>
   <time name="diis">    4.52    4.53</time>
   <time name="orth">    0.39    0.39</time>
   <time name="total">    6.90    6.92</time>
   <dipole>
    <v name="dipole">      0.00000000       0.00000000      -0.00842619 </v>
    <i name="Tr[quadrupol]"> -10267.27940829 </i>
    <i name="Echarged">      0.00000000 </i>
    <i name="Edipol_quadrupol">      0.00000000 </i>
    <i name="Eion">      0.00000000 </i>
   </dipole>
   <energy>
    <i name="e_fr_energy">   -190.17930330 </i>
    <i name="e_wo_entrp">   -189.92784599 </i>
    <i name="e_0_energy">   -190.05357465 </i>
   </energy>
  </scstep>
  <scstep>
   <time name="diag">    1.63    1.66</time>
   <time name="diis">    4.43    4.47</time>
   <time name="orth">    0.39    0.39</time>
   <time name="total">    6.81    6.89</time>
   <dipole>
    <v name="dipole">      0.00000000       0.00000000       0.01469288 </v>
    <i name="Tr[quadrupol]"> -10267.30610216 </i>
    <i name="Echarged">      0.00000000 </i>
    <i name="Edipol_quadrupol">      0.00000000 </i>
    <i name="Eion">      0.00000000 </i>
   </dipole>
   <energy>
    <i name="e_fr_energy">   -190.17649458 </i>
    <i name="e_wo_entrp">   -189.92840672 </i>
    <i name="e_0_energy">   -190.05245065 </i>
   </energy>
  </scstep>
  <scstep>
   <time name="diag">    1.96    1.98</time>
   <time name="diis">    4.57    4.57</time>
   <time name="orth">    0.39    0.39</time>
   <time name="total">    7.28    7.30</time>
   <dipole>
    <v name="dipole">      0.00000000       0.00000000       0.01562763 </v>
    <i name="Tr[quadrupol]"> -10267.30168551 </i>
    <i name="Echarged">      0.00000000 </i>
    <i name="Edipol_quadrupol">      0.00000000 </i>
    <i name="Eion">      0.00000000 </i>
   </dipole>
   <energy>
    <i name="e_fr_energy">   -190.17266489 </i>
    <i name="e_wo_entrp">   -189.92332776 </i>
    <i name="e_0_energy">   -190.04799633 </i>
   </energy>
  </scstep>
  <scstep>
   <time name="diag">    1.63    1.63</time>
   <time name="diis">    4.44    4.44</time>
   <time name="orth">    0.39    0.39</time>
   <time name="total">    6.82    6.82</time>
   <dipole>
    <v name="dipole">      0.00000000       0.00000000       0.00626642 </v>
    <i name="Tr[quadrupol]"> -10267.28864534 </i>
    <i name="Echarged">      0.00000000 </i>
    <i name="Edipol_quadrupol">      0.00000000 </i>
    <i name="Eion">      0.00000000 </i>
   </dipole>
   <energy>
    <i name="e_fr_energy">   -190.17137778 </i>
    <i name="e_wo_entrp">   -189.92158133 </i>
    <i name="e_0_energy">   -190.04647956 </i>
   </energy>
  </scstep>
  <scstep>
   <time name="diag">    1.62    1.62</time>
   <time name="diis">    4.51    4.51</time>
   <time name="orth">    0.39    0.39</time>
   <time name="total">    6.87    6.88</time>
   <dipole>
    <v name="dipole">      0.00000000       0.00000000       0.00570541 </v>
    <i name="Tr[quadrupol]"> -10267.28554557 </i>
    <i name="Echarged">      0.00000000 </i>
    <i name="Edipol_quadrupol">      0.00000000 </i>
    <i name="Eion">      0.00000000 </i>
   </dipole>
   <energy>
    <i name="e_fr_energy">   -190.17120160 </i>
    <i name="e_wo_entrp">   -189.92068540 </i>
    <i name="e_0_energy">   -190.04594350 </i>
   </energy>
  </scstep>
  <scstep>
   <time name="diag">    1.64    1.65</time>
   <time name="diis">    4.50    4.50</time>
   <time name="orth">    0.39    0.39</time>
   <time name="total">    6.89    6.91</time>
   <dipole>
    <v name="dipole">      0.00000000       0.00000000       0.00703568 </v>
    <i name="Tr[quadrupol]"> -10267.28369163 </i>
    <i name="Echarged">      0.00000000 </i>
    <i name="Edipol_quadrupol">      0.00000000 </i>
    <i name="Eion">      0.00000000 </i>
   </dipole>
   <energy>
    <i name="e_fr_energy">   -190.17104400 </i>
    <i name="e_wo_entrp">   -189.92116155 </i>
    <i name="e_0_energy">   -190.04610278 </i>
   </energy>
  </scstep>
  <scstep>
   <time name="diag">    1.63    1.63</time>
   <time name="diis">    4.55    4.55</time>
   <time name="orth">    0.38    0.40</time>
   <time name="total">    6.92    6.96</time>
   <dipole>
    <v name="dipole">      0.00000000       0.00000000       0.00678466 </v>
    <i name="Tr[quadrupol]"> -10267.28385412 </i>
    <i name="Echarged">      0.00000000 </i>
    <i name="Edipol_quadrupol">      0.00000000 </i>
    <i name="Eion">      0.00000000 </i>
   </dipole>
   <energy>
    <i name="e_fr_energy">   -190.17100072 </i>
    <i name="e_wo_entrp">   -189.92076968 </i>
    <i name="e_0_energy">   -190.04588520 </i>
   </energy>
  </scstep>
  <scstep>
   <time name="diag">    1.61    1.63</time>
   <time name="diis">    4.39    4.39</time>
   <time name="orth">    0.39    0.39</time>
   <time name="total">    6.75    6.78</time>
   <dipole>
    <v name="dipole">      0.00000000       0.00000000       0.00663399 </v>
    <i name="Tr[quadrupol]"> -10267.28560579 </i>
    <i name="Echarged">      0.00000000 </i>
    <i name="Edipol_quadrupol">      0.00000000 </i>
    <i name="Eion">      0.00000000 </i>
   </dipole>
   <energy>
    <i name="e_fr_energy">   -190.17099826 </i>
    <i name="e_wo_entrp">   -189.92096082 </i>
    <i name="e_0_energy">   -190.04597954 </i>
   </energy>
  </scstep>
  <scstep>
   <time name="diag">    1.62    1.62</time>
   <time name="diis">    3.97    3.98</time>
   <time name="orth">    0.39    0.39</time>
   <time name="total">    6.34    6.35</time>
   <dipole>
    <v name="dipole">      0.00000000       0.00000000       0.00667596 </v>
    <i name="Tr[quadrupol]"> -10267.28779668 </i>
    <i name="Echarged">      0.00000000 </i>
    <i name="Edipol_quadrupol">      0.00000000 </i>
    <i name="Eion">      0.00000000 </i>
   </dipole>
   <energy>
    <i name="e_fr_energy">   -190.17099316 </i>
    <i name="e_wo_entrp">   -189.92092426 </i>
    <i name="e_0_energy">   -190.04595871 </i>
   </energy>
  </scstep>
  <scstep>
   <time name="diag">    1.64    1.64</time>
   <time name="diis">    2.91    2.92</time>
   <time name="orth">    0.39    0.39</time>
   <time name="total">    5.00    5.01</time>
   <dipole>
    <v name="dipole">      0.00000000       0.00000000       0.00668547 </v>
    <i name="Tr[quadrupol]"> -10267.28961622 </i>
    <i name="Echarged">      0.00000000 </i>
    <i name="Edipol_quadrupol">      0.00000000 </i>
    <i name="Eion">      0.00000000 </i>
   </dipole>
   <energy>
    <i name="alphaZ">    805.86740401 </i>
    <i name="ewald"> 198624.46743945 </i>
    <i name="hartreedc">-240829.67303902 </i>
    <i name="XCdc">   -344.57546825 </i>
    <i name="pawpsdc">  49079.79991322 </i>
    <i name="pawaedc"> -47156.19269448 </i>
    <i name="eentropy">     -0.25005302 </i>
    <i name="bandstr">  -2029.40036774 </i>
    <i name="atom">  41659.78587232 </i>
    <i name="e_fr_energy">   -190.17099351 </i>
    <i name="e_wo_entrp">   -189.92094049 </i>
    <i name="e_0_energy">   -190.04596700 </i>
   </energy>
  </scstep>
  <structure>
   <crystal>
    <varray name="basis" >
     <v>      11.00258152       0.00000000       0.00000000 </v>
     <v>       5.50129076       9.52851510       0.00000000 </v>
     <v>       0.00000000       0.00000000      24.49178509 </v>
    </varray>
    <i name="volume">   2567.67623402 </i>
    <varray name="rec_basis" >
     <v>       0.09088776      -0.05247407       0.00000000 </v>
     <v>       0.00000000       0.10494815       0.00000000 </v>
     <v>       0.00000000       0.00000000       0.04083002 </v>
    </varray>
   </crystal>
   <varray name="positions" >
    <v>       0.08333333       0.08333333       0.40830017 </v>
    <v>       0.91641015       0.91524956       0.49961802 </v>
    <v>       0.08333333       0.33333333       0.40830017 </v>
    <v>       0.00045102       0.00055295       0.59387175 </v>
    <v>       0.16642495       0.16740555       0.50072766 </v>
    <v>       0.91513876       0.16898399       0.50040589 </v>
    <v>       0.75155909       0.74913284       0.59326159 </v>
    <v>       0.25025546       0.75029845       0.59363542 </v>
    <v>       0.16629583       0.66727885       0.49960745 </v>
    <v>       0.24967672       0.49911586       0.59382305 </v>
    <v>       0.33333333       0.83333333       0.40830017 </v>
    <v>       0.41716287       0.16741454       0.49963505 </v>
    <v>       0.08333333       0.58333333       0.40830017 </v>
    <v>       0.58333333       0.33333333       0.40830017 </v>
    <v>       0.41756107       0.41647856       0.50001969 </v>
    <v>       0.58333333       0.58333333       0.40830017 </v>
    <v>       0.58333333       0.83333333       0.40830017 </v>
    <v>       0.41635189       0.91625841       0.49997638 </v>
    <v>       0.49946730       0.74940241       0.59355423 </v>
    <v>       0.83333333       0.08333333       0.40830017 </v>
    <v>       0.74950466       0.00094110       0.59359362 </v>
    <v>       0.83333333       0.58333333       0.40830017 </v>
    <v>       0.75067850       0.49864594       0.59317471 </v>
    <v>       0.49917775       0.00129728       0.59385509 </v>
    <v>       0.08333333       0.83333333       0.40830017 </v>
    <v>      -0.00009828       0.74931048       0.59294969 </v>
    <v>       0.33333333       0.08333333       0.40830017 </v>
    <v>       0.58333333       0.08333333       0.40830017 </v>
    <v>       0.33333333       0.58333333       0.40830017 </v>
    <v>       0.16728033       0.91605124       0.50001142 </v>
    <v>       0.24940306       0.00050760       0.59292894 </v>
    <v>       0.33333333       0.33333333       0.40830017 </v>
    <v>       0.50038292       0.25040619       0.59285877 </v>
    <v>       0.66754727       0.91640423       0.49950603 </v>
    <v>       0.00042606       0.49968009       0.59239721 </v>
    <v>       0.91643781       0.41732082       0.50040470 </v>
    <v>       0.24919484       0.25042839       0.59284246 </v>
    <v>       0.91626555       0.66623872       0.50024050 </v>
    <v>       0.00037595       0.25037610       0.59277933 </v>
    <v>       0.66612189       0.16694529       0.50017185 </v>
    <v>       0.83333333       0.33333333       0.40830017 </v>
    <v>       0.66697982       0.41679236       0.50031290 </v>
    <v>       0.74925800       0.25064220       0.59269197 </v>
    <v>       0.66746944       0.66583586       0.50000133 </v>
    <v>       0.83333333       0.83333333       0.40830017 </v>
    <v>       0.16554185       0.41678351       0.50029589 </v>
    <v>       0.41721877       0.66594015       0.49999836 </v>
    <v>       0.50076086       0.49912517       0.59267421 </v>
   </varray>
  </structure>
  <varray name="forces" >
   <v>       0.02494539      -0.12009688      -1.47155817 </v>
   <v>      -0.10907544      -0.09514092       0.23576241 </v>
   <v>       0.11245666      -0.05728919      -1.32286969 </v>
   <v>       0.06799885       0.09525649       1.05628216 </v>
   <v>       0.02799125       0.08023911       0.47989360 </v>
   <v>      -0.09541962       0.23330311       0.42545355 </v>
   <v>       0.12356901      -0.08436224       0.84937442 </v>
   <v>      -0.00585538      -0.02404988       1.02256900 </v>
   <v>       0.05052743      -0.00575047       0.21567467 </v>
   <v>      -0.09386026      -0.11224195       1.08331107 </v>
   <v>      -0.38635662      -0.10647812      -1.38342952 </v>
   <v>       0.13354557       0.04246944       0.12019926 </v>
   <v>       0.19071169       0.06956619      -1.31437003 </v>
   <v>      -0.09538907      -0.03920256      -1.34573830 </v>
   <v>       0.04410241       0.08201264       0.28444644 </v>
   <v>      -0.11915417      -0.22747836      -1.14103748 </v>
   <v>       0.37423433       0.30305970      -1.30001274 </v>
   <v>       0.02109211      -0.05654849       0.37299874 </v>
   <v>      -0.06055701      -0.08396389       0.97927610 </v>
   <v>      -0.24543804      -0.11613572      -1.43261738 </v>
   <v>       0.04080065       0.13362625       0.98427192 </v>
   <v>       0.01772906      -0.01873713      -1.10051967 </v>
   <v>       0.01216247      -0.20257696       0.88128190 </v>
   <v>      -0.04558012       0.18025054       1.04816361 </v>
   <v>       0.04565463      -0.06705252      -0.92247642 </v>
   <v>      -0.00430209      -0.08255040       0.67547168 </v>
   <v>       0.21423547       0.17144280      -0.97255215 </v>
   <v>      -0.07056309      -0.02218214      -0.76114722 </v>
   <v>      -0.08313132       0.01175749      -0.88424739 </v>
   <v>      -0.05161863      -0.03859451       0.28595922 </v>
   <v>      -0.03168640       0.08097995       0.70984390 </v>
   <v>      -0.00140632      -0.09312022      -0.81810157 </v>
   <v>       0.08278830       0.10549526       0.66983361 </v>
   <v>       0.06292651      -0.03589475       0.11906625 </v>
   <v>       0.05386634      -0.07918658       0.48796854 </v>
   <v>       0.00630015       0.15679327       0.32561108 </v>
   <v>      -0.07424190       0.05917724       0.67984546 </v>
   <v>      -0.15071486      -0.08918741       0.26544144 </v>
   <v>       0.11350984       0.07106900       0.70190254 </v>
   <v>      -0.03439465      -0.03392440       0.28157669 </v>
   <v>      -0.03883776       0.08808077      -0.72260849 </v>
   <v>       0.10300836       0.08680666       0.28613154 </v>
   <v>      -0.08196081       0.07610483       0.63397964 </v>
   <v>       0.06148071      -0.12045043       0.32023536 </v>
   <v>      -0.03685145       0.07133716      -0.73401995 </v>
   <v>      -0.11324635       0.08821080       0.31532052 </v>
   <v>       0.03900667      -0.12893996       0.25131963 </v>
   <v>       0.00499754      -0.14590261       0.57884021 </v>
  </varray>
  <energy>
   <i name="e_fr_energy">   -190.17099351 </i>
   <i name="e_wo_entrp">   -190.04596700 </i>
   <i name="e_0_energy">     -0.25005302 </i>
  </energy>
  <time name="totalsc">  100.50  100.79</time>
 </calculation>
 <calculation>
  <scstep>
   <time name="dav">   10.06   10.09</time>
   <time name="total">   10.42   10.45</time>
   <dipole>
    <v name="dipole">      0.00000000       0.00000000       0.00659927 </v>
    <i name="Tr[quadrupol]"> -10261.54871026 </i>
    <i name="Echarged">      0.00000000 </i>
    <i name="Edipol_quadrupol">      0.00000000 </i>
    <i name="Eion">      0.00000000 </i>
   </dipole>
   <energy>
    <i name="alphaZ">    805.85849538 </i>
    <i name="ewald"> 194780.24157359 </i>
    <i name="hartreedc">-237005.64309409 </i>
    <i name="XCdc">   -347.25188203 </i>
    <i name="pawpsdc">  49079.73254572 </i>
    <i name="pawaedc"> -47156.12550098 </i>
    <i name="eentropy">     -0.24632473 </i>
    <i name="bandstr">  -2005.79834127 </i>
    <i name="atom">  41659.78587232 </i>
    <i name="e_fr_energy">   -189.44665610 </i>
    <i name="e_wo_entrp">   -189.20033137 </i>
    <i name="e_0_energy">   -189.32349373 </i>
   </energy>
  </scstep>
  <scstep>
   <time name="diag">    1.63    1.63</time>
   <time name="diis">    4.50    4.51</time>
   <time name="orth">    0.39    0.39</time>
   <time name="total">    6.87    6.89</time>
   <dipole>
    <v name="dipole">      0.00000000       0.00000000       0.10194175 </v>
    <i name="Tr[quadrupol]"> -10261.11109821 </i>
    <i name="Echarged">      0.00000000 </i>
    <i name="Edipol_quadrupol">      0.00000000 </i>
    <i name="Eion">      0.00000000 </i>
   </dipole>
   <energy>
    <i name="e_fr_energy">   -191.12562093 </i>
    <i name="e_wo_entrp">   -190.89202933 </i>
    <i name="e_0_energy">   -191.00882513 </i>
   </energy>
  </scstep>
  <scstep>
   <time name="diag">    1.59    1.65</time>
   <time name="diis">    4.49    4.49</time>
   <time name="orth">    0.39    0.39</time>
   <time name="total">    6.83    6.90</time>
   <dipole>
    <v name="dipole">      0.00000000       0.00000000      -0.17826243 </v>
    <i name="Tr[quadrupol]"> -10261.68262675 </i>
    <i name="Echarged">      0.00000000 </i>
    <i name="Edipol_quadrupol">      0.00000000 </i>
    <i name="Eion">      0.00000000 </i>
   </dipole>
   <energy>
    <i name="e_fr_energy">   -191.70485216 </i>
    <i name="e_wo_entrp">   -191.46995603 </i>
    <i name="e_0_energy">   -191.58740409 </i>
   </energy>
  </scstep>
  <scstep>
   <time name="diag">    1.62    1.63</time>
   <time name="diis">    4.52    4.52</time>
   <time name="orth">    0.39    0.39</time>
   <time name="total">    6.88    6.89</time>
   <dipole>
    <v name="dipole">      0.00000000       0.00000000       0.05520789 </v>
    <i name="Tr[quadrupol]"> -10261.63988434 </i>
    <i name="Echarged">      0.00000000 </i>
    <i name="Edipol_quadrupol">      0.00000000 </i>
    <i name="Eion">      0.00000000 </i>
   </dipole>
   <energy>
    <i name="e_fr_energy">   -191.06102684 </i>
    <i name="e_wo_entrp">   -190.82274940 </i>
    <i name="e_0_energy">   -190.94188812 </i>
   </energy>
  </scstep>
  <scstep>
   <time name="diag">    1.65    1.66</time>
   <time name="diis">    4.53    4.53</time>
   <time name="orth">    0.39    0.39</time>
   <time name="total">    6.93    6.94</time>
   <dipole>
    <v name="dipole">      0.00000000       0.00000000      -0.02007024 </v>
    <i name="Tr[quadrupol]"> -10261.50693184 </i>
    <i name="Echarged">      0.00000000 </i>
    <i name="Edipol_quadrupol">      0.00000000 </i>
    <i name="Eion">      0.00000000 </i>
   </dipole>
   <energy>
    <i name="e_fr_energy">   -191.03444970 </i>
    <i name="e_wo_entrp">   -190.78264070 </i>
    <i name="e_0_energy">   -190.90854520 </i>
   </energy>
  </scstep>
  <scstep>
   <time name="diag">    1.63    1.63</time>
   <time name="diis">    4.44    4.45</time>
   <time name="orth">    0.39    0.39</time>
   <time name="total">    6.82    6.83</time>
   <dipole>
    <v name="dipole">      0.00000000       0.00000000       0.06913731 </v>
    <i name="Tr[quadrupol]"> -10261.64079895 </i>
    <i name="Echarged">      0.00000000 </i>
    <i name="Edipol_quadrupol">      0.00000000 </i>
    <i name="Eion">      0.00000000 </i>
   </dipole>
   <energy>
    <i name="e_fr_energy">   -191.01704690 </i>
    <i name="e_wo_entrp">   -190.78096775 </i>
    <i name="e_0_energy">   -190.89900732 </i>
   </energy>
  </scstep>
  <scstep>
   <time name="diag">    1.62    1.62</time>
   <time name="diis">    4.53    4.53</time>
   <time name="orth">    0.39    0.39</time>
   <time name="total">    6.89    6.90</time>
   <dipole>
    <v name="dipole">      0.00000000       0.00000000       0.04675581 </v>
    <i name="Tr[quadrupol]"> -10261.58530373 </i>
    <i name="Echarged">      0.00000000 </i>
    <i name="Edipol_quadrupol">      0.00000000 </i>
    <i name="Eion">      0.00000000 </i>
   </dipole>
   <energy>
    <i name="e_fr_energy">   -190.98488031 </i>
    <i name="e_wo_entrp">   -190.73890441 </i>
    <i name="e_0_energy">   -190.86189236 </i>
   </energy>
  </scstep>
  <scstep>
   <time name="diag">    1.62    1.63</time>
   <time name="diis">    4.51    4.53</time>
   <time name="orth">    0.38    0.40</time>
   <time name="total">    6.88    6.94</time>
   <dipole>
    <v name="dipole">      0.00000000       0.00000000       0.02840493 </v>
    <i name="Tr[quadrupol]"> -10261.54643102 </i>
    <i name="Echarged">      0.00000000 </i>
    <i name="Edipol_quadrupol">      0.00000000 </i>
    <i name="Eion">      0.00000000 </i>
   </dipole>
   <energy>
[...]
       <r>    -9.1797     0.0000     0.0000 </r>
       <r>    -9.1261     0.0000     0.0000 </r>
       <r>    -9.0725     0.0000     0.0000 </r>
       <r>    -9.0189     0.0000     0.0000 </r>
       <r>    -8.9653     0.0001     0.0000 </r>
       <r>    -8.9117     0.0034     0.0002 </r>
       <r>    -8.8580     0.0450     0.0026 </r>
       <r>    -8.8044     0.3408     0.0209 </r>
       <r>    -8.7508     1.4875     0.1006 </r>
       <r>    -8.6972     3.7501     0.3017 </r>
       <r>    -8.6436     5.4940     0.5962 </r>
       <r>    -8.5900     4.8899     0.8584 </r>
       <r>    -8.5364     3.5781     1.0502 </r>
       <r>    -8.4828     4.1568     1.2730 </r>
       <r>    -8.4292     5.4821     1.5669 </r>
       <r>    -8.3755     4.7698     1.8226 </r>
       <r>    -8.3219     2.4443     1.9537 </r>
       <r>    -8.2683     0.7380     1.9932 </r>
       <r>    -8.2147     0.2288     2.0055 </r>
       <r>    -8.1611     0.5814     2.0367 </r>
       <r>    -8.1075     1.9267     2.1400 </r>
       <r>    -8.0539     4.2373     2.3671 </r>
       <r>    -8.0003     6.6726     2.7249 </r>
       <r>    -7.9467     8.6924     3.1909 </r>
       <r>    -7.8930    10.3345     3.7449 </r>
       <r>    -7.8394    10.7423     4.3208 </r>
       <r>    -7.7858     9.3204     4.8205 </r>
       <r>    -7.7322     7.7922     5.2382 </r>
       <r>    -7.6786     7.4095     5.6355 </r>
       <r>    -7.6250     7.5579     6.0406 </r>
       <r>    -7.5714     8.7062     6.5074 </r>
       <r>    -7.5178    10.8050     7.0867 </r>
       <r>    -7.4642    11.5144     7.7040 </r>
       <r>    -7.4105     9.8817     8.2337 </r>
       <r>    -7.3569     7.5296     8.6374 </r>
       <r>    -7.3033     6.1012     8.9645 </r>
       <r>    -7.2497     7.2347     9.3523 </r>
       <r>    -7.1961    11.1466     9.9499 </r>
       <r>    -7.1425    14.5706    10.7311 </r>
       <r>    -7.0889    15.5279    11.5635 </r>
       <r>    -7.0353    16.8344    12.4660 </r>
       <r>    -6.9817    20.9039    13.5867 </r>
       <r>    -6.9281    25.6958    14.9643 </r>
       <r>    -6.8744    28.9910    16.5185 </r>
       <r>    -6.8208    32.4474    18.2580 </r>
       <r>    -6.7672    38.5589    20.3252 </r>
       <r>    -6.7136    46.3843    22.8119 </r>
       <r>    -6.6600    51.9832    25.5988 </r>
       <r>    -6.6064    53.9627    28.4918 </r>
       <r>    -6.5528    54.7084    31.4247 </r>
       <r>    -6.4992    56.0081    34.4274 </r>
       <r>    -6.4456    57.6787    37.5196 </r>
       <r>    -6.3919    59.0079    40.6831 </r>
       <r>    -6.3383    60.4016    43.9212 </r>
       <r>    -6.2847    63.5101    47.3261 </r>
       <r>    -6.2311    69.0084    51.0257 </r>
       <r>    -6.1775    74.9885    55.0459 </r>
       <r>    -6.1239    78.8611    59.2737 </r>
       <r>    -6.0703    79.7948    63.5515 </r>
       <r>    -6.0167    79.0900    67.7916 </r>
       <r>    -5.9631    78.3024    71.9895 </r>
       <r>    -5.9094    78.1499    76.1792 </r>
       <r>    -5.8558    78.7387    80.4004 </r>
       <r>    -5.8022    79.3383    84.6538 </r>
       <r>    -5.7486    78.3885    88.8563 </r>
       <r>    -5.6950    75.1244    92.8838 </r>
       <r>    -5.6414    70.9884    96.6895 </r>
       <r>    -5.5878    67.8079   100.3248 </r>
       <r>    -5.5342    65.6892   103.8464 </r>
       <r>    -5.4806    64.6600   107.3129 </r>
       <r>    -5.4269    65.7733   110.8391 </r>
       <r>    -5.3733    69.0588   114.5414 </r>
       <r>    -5.3197    73.1688   118.4640 </r>
       <r>    -5.2661    77.5561   122.6219 </r>
       <r>    -5.2125    81.9001   127.0126 </r>
       <r>    -5.1589    84.0278   131.5174 </r>
       <r>    -5.1053    83.2382   135.9799 </r>
       <r>    -5.0517    82.7747   140.4175 </r>
       <r>    -4.9981    85.4711   144.9997 </r>
       <r>    -4.9444    90.0309   149.8263 </r>
       <r>    -4.8908    93.0725   154.8160 </r>
       <r>    -4.8372    92.8413   159.7933 </r>
       <r>    -4.7836    90.2016   164.6291 </r>
       <r>    -4.7300    86.7060   169.2775 </r>
       <r>    -4.6764    84.1287   173.7877 </r>
       <r>    -4.6228    84.6585   178.3263 </r>
       <r>    -4.5692    87.1817   183.0002 </r>
       <r>    -4.5156    87.7886   187.7066 </r>
       <r>    -4.4620    86.7225   192.3559 </r>
       <r>    -4.4083    87.3849   197.0407 </r>
       <r>    -4.3547    89.8310   201.8566 </r>
       <r>    -4.3011    91.3717   206.7551 </r>
       <r>    -4.2475    91.3003   211.6498 </r>
       <r>    -4.1939    90.8040   216.5179 </r>
       <r>    -4.1403    89.2169   221.3009 </r>
       <r>    -4.0867    86.5405   225.9404 </r>
       <r>    -4.0331    85.8979   230.5454 </r>
       <r>    -3.9795    88.1413   235.2708 </r>
       <r>    -3.9258    90.2085   240.1069 </r>
       <r>    -3.8722    90.5143   244.9595 </r>
       <r>    -3.8186    91.1239   249.8447 </r>
       <r>    -3.7650    94.3797   254.9045 </r>
       <r>    -3.7114    98.7188   260.1969 </r>
       <r>    -3.6578    99.8263   265.5487 </r>
       <r>    -3.6042    96.9498   270.7462 </r>
       <r>    -3.5506    94.1831   275.7955 </r>
       <r>    -3.4970    94.1167   280.8412 </r>
       <r>    -3.4433    94.8441   285.9258 </r>
       <r>    -3.3897    93.9804   290.9642 </r>
       <r>    -3.3361    91.6757   295.8790 </r>
       <r>    -3.2825    89.8727   300.6972 </r>
       <r>    -3.2289    89.6980   305.5060 </r>
       <r>    -3.1753    90.3005   310.3470 </r>
       <r>    -3.1217    90.0720   315.1759 </r>
       <r>    -3.0681    88.2184   319.9054 </r>
       <r>    -3.0145    86.0725   324.5198 </r>
       <r>    -2.9608    85.6025   329.1090 </r>
       <r>    -2.9072    85.7963   333.7086 </r>
       <r>    -2.8536    85.2593   338.2794 </r>
       <r>    -2.8000    85.6751   342.8725 </r>
       <r>    -2.7464    88.0211   347.5914 </r>
       <r>    -2.6928    91.0585   352.4732 </r>
       <r>    -2.6392    93.2266   357.4711 </r>
       <r>    -2.5856    93.2750   362.4717 </r>
       <r>    -2.5320    91.1304   367.3573 </r>
       <r>    -2.4783    89.2473   372.1419 </r>
       <r>    -2.4247    90.3574   376.9860 </r>
       <r>    -2.3711    93.9104   382.0206 </r>
       <r>    -2.3175    97.6425   387.2553 </r>
       <r>    -2.2639    99.5665   392.5932 </r>
       <r>    -2.2103    99.0425   397.9029 </r>
       <r>    -2.1567    97.9760   403.1555 </r>
       <r>    -2.1031    97.8287   408.4002 </r>
       <r>    -2.0495    98.0311   413.6557 </r>
       <r>    -1.9959    98.0029   418.9097 </r>
       <r>    -1.9422    98.0993   424.1689 </r>
       <r>    -1.8886    99.4056   429.4982 </r>
       <r>    -1.8350   101.8000   434.9557 </r>
       <r>    -1.7814   104.6324   440.5652 </r>
       <r>    -1.7278   107.8155   446.3453 </r>
       <r>    -1.6742   109.8325   452.2335 </r>
       <r>    -1.6206   109.2560   458.0908 </r>
       <r>    -1.5670   107.0275   463.8286 </r>
       <r>    -1.5134   104.6668   469.4399 </r>
       <r>    -1.4597   102.5948   474.9401 </r>
       <r>    -1.4061    99.4295   480.2706 </r>
       <r>    -1.3525    93.6411   485.2908 </r>
       <r>    -1.2989    86.4492   489.9254 </r>
       <r>    -1.2453    79.8344   494.2054 </r>
       <r>    -1.1917    73.0198   498.1200 </r>
       <r>    -1.1381    63.5178   501.5253 </r>
       <r>    -1.0845    51.5782   504.2904 </r>
       <r>    -1.0309    39.8024   506.4243 </r>
       <r>    -0.9772    29.4178   508.0014 </r>
       <r>    -0.9236    20.6301   509.1074 </r>
       <r>    -0.8700    13.9780   509.8568 </r>
       <r>    -0.8164     9.9876   510.3922 </r>
       <r>    -0.7628     8.0904   510.8259 </r>
       <r>    -0.7092     7.5030   511.2282 </r>
       <r>    -0.6556     7.8658   511.6499 </r>
       <r>    -0.6020     8.6110   512.1115 </r>
       <r>    -0.5484    10.1439   512.6553 </r>
       <r>    -0.4947    13.4311   513.3754 </r>
       <r>    -0.4411    18.5610   514.3705 </r>
       <r>    -0.3875    22.9261   515.5996 </r>
       <r>    -0.3339    23.1953   516.8431 </r>
       <r>    -0.2803    21.5937   518.0007 </r>
       <r>    -0.2267    22.3615   519.1996 </r>
       <r>    -0.1731    22.9629   520.4306 </r>
       <r>    -0.1195    18.8116   521.4391 </r>
       <r>    -0.0659    12.5934   522.1143 </r>
       <r>    -0.0122     9.4166   522.6191 </r>
       <r>     0.0414    10.0231   523.1565 </r>
       <r>     0.0950    13.5163   523.8811 </r>
       <r>     0.1486    18.1069   524.8518 </r>
       <r>     0.2022    21.0457   525.9801 </r>
       <r>     0.2558    21.2411   527.1188 </r>
       <r>     0.3094    19.5513   528.1670 </r>
       <r>     0.3630    17.4542   529.1027 </r>
       <r>     0.4166    15.8720   529.9536 </r>
       <r>     0.4702    14.9677   530.7561 </r>
       <r>     0.5239    15.7320   531.5995 </r>
       <r>     0.5775    19.1757   532.6275 </r>
       <r>     0.6311    23.1216   533.8671 </r>
       <r>     0.6847    24.7671   535.1949 </r>
       <r>     0.7383    23.9408   536.4784 </r>
       <r>     0.7919    21.4103   537.6262 </r>
       <r>     0.8455    17.7746   538.5791 </r>
       <r>     0.8991    13.7727   539.3175 </r>
       <r>     0.9527    10.3593   539.8728 </r>
       <r>     1.0064     8.6124   540.3345 </r>
       <r>     1.0600     8.2629   540.7775 </r>
       <r>     1.1136     8.2949   541.2222 </r>
       <r>     1.1672     8.4187   541.6736 </r>
       <r>     1.2208     8.0833   542.1069 </r>
       <r>     1.2744     7.3478   542.5008 </r>
       <r>     1.3280     7.1106   542.8820 </r>
       <r>     1.3816     7.8777   543.3044 </r>
       <r>     1.4352    10.3505   543.8593 </r>
       <r>     1.4889    14.5056   544.6369 </r>
       <r>     1.5425    17.5859   545.5797 </r>
       <r>     1.5961    16.9726   546.4896 </r>
       <r>     1.6497    15.0378   547.2958 </r>
       <r>     1.7033    15.7241   548.1388 </r>
       <r>     1.7569    18.3352   549.1218 </r>
       <r>     1.8105    19.4743   550.1658 </r>
       <r>     1.8641    16.9414   551.0741 </r>
       <r>     1.9177    11.1479   551.6717 </r>
       <r>     1.9714     5.8925   551.9876 </r>
       <r>     2.0250     4.7685   552.2433 </r>
       <r>     2.0786     6.7735   552.6064 </r>
       <r>     2.1322     8.5580   553.0652 </r>
       <r>     2.1858    10.3925   553.6223 </r>
       <r>     2.2394    15.1680   554.4355 </r>
       <r>     2.2930    21.7963   555.6040 </r>
       <r>     2.3466    26.3052   557.0143 </r>
       <r>     2.4002    27.5743   558.4926 </r>
       <r>     2.4539    27.3161   559.9570 </r>
       <r>     2.5075    26.7887   561.3932 </r>
       <r>     2.5611    25.2880   562.7489 </r>
       <r>     2.6147    22.7942   563.9709 </r>
       <r>     2.6683    21.9364   565.1469 </r>
       <r>     2.7219    22.7022   566.3640 </r>
       <r>     2.7755    21.1326   567.4969 </r>
       <r>     2.8291    15.8713   568.3478 </r>
       <r>     2.8827    10.1216   568.8904 </r>
       <r>     2.9363     7.2302   569.2781 </r>
       <r>     2.9900     6.5578   569.6296 </r>
       <r>     3.0436     5.9439   569.9483 </r>
       <r>     3.0972     6.5889   570.3015 </r>
       <r>     3.1508     9.7753   570.8256 </r>
       <r>     3.2044    12.7141   571.5072 </r>
       <r>     3.2580    12.2560   572.1642 </r>
       <r>     3.3116     9.3124   572.6635 </r>
       <r>     3.3652     7.1572   573.0472 </r>
       <r>     3.4188     6.7650   573.4099 </r>
       <r>     3.4725     6.7324   573.7708 </r>
       <r>     3.5261     7.2843   574.1613 </r>
       <r>     3.5797    10.2761   574.7122 </r>
       <r>     3.6333    15.0261   575.5178 </r>
       <r>     3.6869    18.8451   576.5281 </r>
       <r>     3.7405    20.9891   577.6533 </r>
       <r>     3.7941    21.2114   578.7905 </r>
       <r>     3.8477    18.2219   579.7674 </r>
       <r>     3.9013    13.4378   580.4878 </r>
       <r>     3.9550    10.6832   581.0605 </r>
       <r>     4.0086    12.2221   581.7158 </r>
       <r>     4.0622    15.4522   582.5442 </r>
       <r>     4.1158    15.4495   583.3725 </r>
       <r>     4.1694    12.8202   584.0598 </r>
       <r>     4.2230    11.5444   584.6787 </r>
       <r>     4.2766    11.3292   585.2860 </r>
       <r>     4.3302    10.0672   585.8257 </r>
       <r>     4.3838     9.0934   586.3132 </r>
       <r>     4.4375    10.1350   586.8566 </r>
       <r>     4.4911    12.9030   587.5483 </r>
       <r>     4.5447    17.8464   588.5051 </r>
       <r>     4.5983    24.3855   589.8124 </r>
       <r>     4.6519    28.3125   591.3303 </r>
       <r>     4.7055    26.4689   592.7493 </r>
       <r>     4.7591    21.3958   593.8963 </r>
       <r>     4.8127    18.6860   594.8981 </r>
       <r>     4.8663    20.9211   596.0197 </r>
       <r>     4.9200    25.8167   597.4038 </r>
       <r>     4.9736    30.5124   599.0396 </r>
       <r>     5.0272    34.3705   600.8822 </r>
       <r>     5.0808    36.6043   602.8446 </r>
       <r>     5.1344    35.4328   604.7442 </r>
       <r>     5.1880    32.5255   606.4879 </r>
       <r>     5.2416    30.8501   608.1418 </r>
       <r>     5.2952    27.8830   609.6366 </r>
       <r>     5.3488    20.8430   610.7540 </r>
       <r>     5.4024    12.7004   611.4349 </r>
       <r>     5.4561     6.6329   611.7905 </r>
       <r>     5.5097     2.8392   611.9427 </r>
       <r>     5.5633     0.8727   611.9895 </r>
       <r>     5.6169     0.1731   611.9988 </r>
       <r>     5.6705     0.0210   611.9999 </r>
       <r>     5.7241     0.0015   612.0000 </r>
       <r>     5.7777     0.0001   612.0000 </r>
       <r>     5.8313     0.0000   612.0000 </r>
       <r>     5.8849     0.0000   612.0000 </r>
       <r>     5.9386     0.0000   612.0000 </r>
       <r>     5.9922     0.0000   612.0000 </r>
       <r>     6.0458     0.0000   612.0000 </r>
       <r>     6.0994     0.0000   612.0000 </r>
       <r>     6.1530     0.0000   612.0000 </r>
       <r>     6.2066     0.0000   612.0000 </r>
       <r>     6.2602     0.0000   612.0000 </r>
       <r>     6.3138     0.0000   612.0000 </r>
       <r>     6.3674     0.0000   612.0000 </r>
       <r>     6.4211     0.0000   612.0000 </r>
      </set>
     </set>
    </array>
   </total>
  </dos>
 </calculation>
 <structure name="finalpos" >
  <crystal>
   <varray name="basis" >
    <v>      11.00258152       0.00000000       0.00000000 </v>
    <v>       5.50129076       9.52851510       0.00000000 </v>
    <v>       0.00000000       0.00000000      24.49178509 </v>
   </varray>
   <i name="volume">   2567.67623402 </i>
   <varray name="rec_basis" >
    <v>       0.09088776      -0.05247407       0.00000000 </v>
    <v>       0.00000000       0.10494815       0.00000000 </v>
    <v>       0.00000000       0.00000000       0.04083002 </v>
   </varray>
  </crystal>
  <varray name="positions" >
   <v>       0.08333333       0.08333333       0.40830017 </v>
   <v>       0.91540051       0.91572671       0.50749100 </v>
   <v>       0.08333333       0.33333333       0.40830017 </v>
   <v>       0.00058601       0.00262756       0.61194266 </v>
   <v>       0.16588564       0.16872335       0.50930659 </v>
   <v>       0.91365708       0.17081023       0.50946270 </v>
   <v>       0.75306308       0.74894619       0.60844055 </v>
   <v>       0.25045133       0.74975833       0.61139501 </v>
   <v>       0.16687810       0.66769290       0.50746527 </v>
   <v>       0.24991164       0.49814789       0.61167375 </v>
   <v>       0.33333333       0.83333333       0.40830017 </v>
   <v>       0.41814613       0.16738997       0.50611787 </v>
   <v>       0.08333333       0.58333333       0.40830017 </v>
   <v>       0.58333333       0.33333333       0.40830017 </v>
   <v>       0.41710444       0.41813905       0.50757516 </v>
   <v>       0.58333333       0.58333333       0.40830017 </v>
   <v>       0.58333333       0.83333333       0.40830017 </v>
   <v>       0.41717581       0.91577820       0.50936984 </v>
   <v>       0.50022126       0.74849947       0.61089479 </v>
   <v>       0.83333333       0.08333333       0.40830017 </v>
   <v>       0.74976164       0.00237168       0.60989168 </v>
   <v>       0.83333333       0.58333333       0.40830017 </v>
   <v>       0.75249993       0.49615648       0.60895939 </v>
   <v>       0.49804422       0.00379729       0.61165326 </v>
   <v>       0.08333333       0.83333333       0.40830017 </v>
   <v>       0.00099599       0.74939695       0.60551996 </v>
   <v>       0.33333333       0.08333333       0.40830017 </v>
   <v>       0.58333333       0.08333333       0.40830017 </v>
   <v>       0.33333333       0.58333333       0.40830017 </v>
   <v>       0.16613980       0.91661382       0.50953266 </v>
   <v>       0.24994436       0.00102061       0.60683920 </v>
   <v>       0.33333333       0.33333333       0.40830017 </v>
   <v>       0.49999075       0.25183981       0.60491200 </v>
   <v>       0.66769033       0.91582710       0.50742230 </v>
   <v>       0.00154215       0.49948868       0.60420221 </v>
   <v>       0.91507634       0.41981030       0.50858114 </v>
   <v>       0.24931137       0.25099001       0.60543034 </v>
   <v>       0.91449255       0.66653206       0.50774024 </v>
   <v>       0.00217661       0.25106972       0.60629569 </v>
   <v>       0.66666739       0.16684248       0.50788197 </v>
   <v>       0.83333333       0.33333333       0.40830017 </v>
   <v>       0.66697901       0.41961933       0.50814016 </v>
   <v>       0.74858330       0.25147538       0.60543384 </v>
   <v>       0.66745264       0.66574199       0.50935585 </v>
   <v>       0.83333333       0.83333333       0.40830017 </v>
   <v>       0.16428154       0.41919607       0.50830353 </v>
   <v>       0.41739024       0.66718708       0.50878809 </v>
   <v>       0.50101427       0.49795262       0.60529501 </v>
  </varray>
  <varray name="selective"  type="logical" >
   <v type="logical" >  F  F  F </v>
   <v type="logical" >  T  T  T </v>
   <v type="logical" >  F  F  F </v>
   <v type="logical" >  T  T  T </v>
   <v type="logical" >  T  T  T </v>
   <v type="logical" >  T  T  T </v>
   <v type="logical" >  T  T  T </v>
   <v type="logical" >  T  T  T </v>
   <v type="logical" >  T  T  T </v>
   <v type="logical" >  T  T  T </v>
   <v type="logical" >  F  F  F </v>
   <v type="logical" >  T  T  T </v>
   <v type="logical" >  F  F  F </v>
   <v type="logical" >  F  F  F </v>
   <v type="logical" >  T  T  T </v>
   <v type="logical" >  F  F  F </v>
   <v type="logical" >  F  F  F </v>
   <v type="logical" >  T  T  T </v>
   <v type="logical" >  T  T  T </v>
   <v type="logical" >  F  F  F </v>
   <v type="logical" >  T  T  T </v>
   <v type="logical" >  F  F  F </v>
   <v type="logical" >  T  T  T </v>
   <v type="logical" >  T  T  T </v>
   <v type="logical" >  F  F  F </v>
   <v type="logical" >  T  T  T </v>
   <v type="logical" >  F  F  F </v>
   <v type="logical" >  F  F  F </v>
   <v type="logical" >  F  F  F </v>
   <v type="logical" >  T  T  T </v>
   <v type="logical" >  T  T  T </v>
   <v type="logical" >  F  F  F </v>
   <v type="logical" >  T  T  T </v>
   <v type="logical" >  T  T  T </v>
   <v type="logical" >  T  T  T </v>
   <v type="logical" >  T  T  T </v>
   <v type="logical" >  T  T  T </v>
   <v type="logical" >  T  T  T </v>
   <v type="logical" >  T  T  T </v>
   <v type="logical" >  T  T  T </v>
   <v type="logical" >  F  F  F </v>
   <v type="logical" >  T  T  T </v>
   <v type="logical" >  T  T  T </v>
   <v type="logical" >  T  T  T </v>
   <v type="logical" >  F  F  F </v>
   <v type="logical" >  T  T  T </v>
   <v type="logical" >  T  T  T </v>
   <v type="logical" >  T  T  T </v>
  </varray>
  <nose>
   <v>      -3.00000000       0.00000000       0.00010000       0.00010000 </v>
  </nose>
 </structure>
</modeling>
