unknown system                          
           1
    11.002582    0.000000    0.000000
     5.501291    9.528515    0.000000
     0.000000    0.000000   24.491785
   Au   Pd
  24  24
Direct configuration=     1
   0.08333333  0.08333333  0.40830017
   0.91666667  0.91666667  0.50000000
   0.08333333  0.33333333  0.40830017
   0.00000000  0.00000000  0.59169983
   0.16666667  0.16666667  0.50000000
   0.91666667  0.16666667  0.50000000
   0.75000000  0.75000000  0.59169983
   0.25000000  0.75000000  0.59169983
   0.16666667  0.66666667  0.50000000
   0.25000000  0.50000000  0.59169983
   0.33333333  0.83333333  0.40830017
   0.41666667  0.16666667  0.50000000
   0.08333333  0.58333333  0.40830017
   0.58333333  0.33333333  0.40830017
   0.41666667  0.41666667  0.50000000
   0.58333333  0.58333333  0.40830017
   0.58333333  0.83333333  0.40830017
   0.41666667  0.91666667  0.50000000
   0.50000000  0.75000000  0.59169983
   0.83333333  0.08333333  0.40830017
   0.75000000  0.00000000  0.59169983
   0.83333333  0.58333333  0.40830017
   0.75000000  0.50000000  0.59169983
   0.50000000  0.00000000  0.59169983
   0.08333333  0.83333333  0.40830017
   0.00000000  0.75000000  0.59169983
   0.33333333  0.08333333  0.40830017
   0.58333333  0.08333333  0.40830017
   0.33333333  0.58333333  0.40830017
   0.16666667  0.91666667  0.50000000
   0.25000000  0.00000000  0.59169983
   0.33333333  0.33333333  0.40830017
   0.50000000  0.25000000  0.59169983
   0.66666667  0.91666667  0.50000000
   0.00000000  0.50000000  0.59169983
   0.91666667  0.41666667  0.50000000
   0.25000000  0.25000000  0.59169983
   0.91666667  0.66666667  0.50000000
   0.00000000  0.25000000  0.59169983
   0.66666667  0.16666667  0.50000000
   0.83333333  0.33333333  0.40830017
   0.66666667  0.41666667  0.50000000
   0.75000000  0.25000000  0.59169983
   0.66666667  0.66666667  0.50000000
   0.83333333  0.83333333  0.40830017
   0.16666667  0.41666667  0.50000000
   0.41666667  0.66666667  0.50000000
   0.50000000  0.50000000  0.59169983
Direct configuration=     2
   0.08333333  0.08333333  0.40830017
   0.91641015  0.91524956  0.49961802
   0.08333333  0.33333333  0.40830017
   0.00045102  0.00055295  0.59387175
   0.16642495  0.16740555  0.50072766
   0.91513876  0.16898399  0.50040589
   0.75155909  0.74913284  0.59326159
   0.25025546  0.75029845  0.59363542
   0.16629583  0.66727885  0.49960745
   0.24967672  0.49911586  0.59382305
   0.33333333  0.83333333  0.40830017
   0.41716287  0.16741454  0.49963505
   0.08333333  0.58333333  0.40830017
   0.58333333  0.33333333  0.40830017
   0.41756107  0.41647856  0.50001969
   0.58333333  0.58333333  0.40830017
   0.58333333  0.83333333  0.40830017
   0.41635189  0.91625841  0.49997638
   0.49946730  0.74940241  0.59355423
   0.83333333  0.08333333  0.40830017
   0.74950466  0.00094110  0.59359362
   0.83333333  0.58333333  0.40830017
   0.75067850  0.49864594  0.59317471
   0.49917775  0.00129728  0.59385509
   0.08333333  0.83333333  0.40830017
  -0.00009828  0.74931048  0.59294969
   0.33333333  0.08333333  0.40830017
   0.58333333  0.08333333  0.40830017
   0.33333333  0.58333333  0.40830017
   0.16728033  0.91605124  0.50001142
   0.24940306  0.00050760  0.59292894
   0.33333333  0.33333333  0.40830017
   0.50038292  0.25040619  0.59285877
   0.66754727  0.91640423  0.49950603
   0.00042606  0.49968009  0.59239721
   0.91643781  0.41732082  0.50040470
   0.24919484  0.25042839  0.59284246
   0.91626555  0.66623872  0.50024050
   0.00037595  0.25037610  0.59277933
   0.66612189  0.16694529  0.50017185
   0.83333333  0.33333333  0.40830017
   0.66697982  0.41679236  0.50031290
   0.74925800  0.25064220  0.59269197
   0.66746944  0.66583586  0.50000133
   0.83333333  0.83333333  0.40830017
   0.16554185  0.41678351  0.50029589
   0.41721877  0.66594015  0.49999836
   0.50076086  0.49912517  0.59267421
Direct configuration=     3
   0.08333333  0.08333333  0.40830017
   0.91564060  0.91099823  0.49847206
   0.08333333  0.33333333  0.40830017
   0.00180407  0.00221181  0.60038749
   0.16569982  0.16962220  0.50291063
   0.91055505  0.17593597  0.50162357
   0.75623636  0.74653135  0.59794685
   0.25102186  0.75119379  0.59944217
   0.16518331  0.66911540  0.49842982
   0.24870689  0.49646344  0.60019272
   0.33333333  0.83333333  0.40830017
   0.41865150  0.16965816  0.49854020
   0.08333333  0.58333333  0.40830017
   0.58333333  0.33333333  0.40830017
   0.42024430  0.41591423  0.50007877
   0.58333333  0.58333333  0.40830017
   0.58333333  0.83333333  0.40830017
   0.41540757  0.91503362  0.49990552
   0.49786918  0.74760966  0.59911743
   0.83333333  0.08333333  0.40830017
   0.74801863  0.00376442  0.59927497
   0.83333333  0.58333333  0.40830017
   0.75271400  0.49458378  0.59759935
   0.49671099  0.00518913  0.60032087
   0.08333333  0.83333333  0.40830017
  -0.00039313  0.74724192  0.59669925
   0.33333333  0.08333333  0.40830017
   0.58333333  0.08333333  0.40830017
   0.33333333  0.58333333  0.40830017
   0.16912133  0.91420494  0.50004566
   0.24761222  0.00203041  0.59661629
   0.33333333  0.33333333  0.40830017
   0.50153167  0.25162475  0.59633560
   0.67018908  0.91561693  0.49802412
   0.00170424  0.49872037  0.59448934
   0.91575125  0.41928330  0.50161881
   0.24677936  0.25171356  0.59627035
   0.91506221  0.66495486  0.50096201
   0.00150379  0.25150441  0.59601784
   0.66448754  0.16778117  0.50068742
   0.83333333  0.33333333  0.40830017
   0.66791927  0.41716944  0.50125159
   0.74703201  0.25256880  0.59566840
   0.66987777  0.66334346  0.50000532
   0.83333333  0.83333333  0.40830017
   0.16216739  0.41713406  0.50118357
   0.41887506  0.66376059  0.49999345
   0.50304344  0.49650067  0.59559733
Direct configuration=     4
   0.08333333  0.08333333  0.40830017
   0.91556526  0.91227333  0.50022211
   0.08333333  0.33333333  0.40830017
   0.00110886  0.00260110  0.60251548
   0.16603684  0.16909270  0.50407232
   0.91088851  0.17472148  0.50306890
   0.75524830  0.74690154  0.59972830
   0.25043926  0.75033512  0.60153096
   0.16652754  0.66771020  0.50015101
   0.24910564  0.49652885  0.60240477
   0.33333333  0.83333333  0.40830017
   0.41867775  0.16888694  0.49981154
   0.08333333  0.58333333  0.40830017
   0.58333333  0.33333333  0.40830017
   0.41851891  0.41747719  0.50150579
   0.58333333  0.58333333  0.40830017
   0.58333333  0.83333333  0.40830017
   0.41657476  0.91512304  0.50178436
   0.49886290  0.74761460  0.60108931
   0.83333333  0.08333333  0.40830017
   0.74855848  0.00373705  0.60125192
   0.83333333  0.58333333  0.40830017
   0.75292028  0.49459538  0.59960434
   0.49633413  0.00533579  0.60240190
   0.08333333  0.83333333  0.40830017
   0.00047455  0.74749427  0.59799276
   0.33333333  0.08333333  0.40830017
   0.58333333  0.08333333  0.40830017
   0.33333333  0.58333333  0.40830017
   0.16763135  0.91495829  0.50149137
   0.24800622  0.00216713  0.59810472
   0.33333333  0.33333333  0.40830017
   0.50095105  0.25226704  0.59771928
   0.66935045  0.91558382  0.49935260
   0.00194721  0.49828769  0.59572863
   0.91519900  0.42010219  0.50259183
   0.24705942  0.25161336  0.59778628
   0.91470880  0.66459004  0.50197452
   0.00163020  0.25160886  0.59772373
   0.66581457  0.16661210  0.50185063
   0.83333333  0.33333333  0.40830017
   0.66764143  0.41836800  0.50219546
   0.74724550  0.25207819  0.59716235
   0.66951419  0.66363202  0.50158089
   0.83333333  0.83333333  0.40830017
   0.16247591  0.41814931  0.50227519
   0.41920380  0.66346273  0.50130390
   0.50250447  0.49630232  0.59687677
Direct configuration=     5
   0.08333333  0.08333333  0.40830017
   0.91536267  0.91570185  0.50492769
   0.08333333  0.33333333  0.40830017
  -0.00076045  0.00364782  0.60823726
   0.16694304  0.16766898  0.50719592
   0.91178515  0.17145594  0.50695512
   0.75259159  0.74789690  0.60451831
   0.24887276  0.74802631  0.60714734
   0.17014194  0.66393185  0.50477900
   0.25017782  0.49670474  0.60835257
   0.33333333  0.83333333  0.40830017
   0.41874835  0.16681327  0.50322994
   0.08333333  0.58333333  0.40830017
   0.58333333  0.33333333  0.40830017
   0.41387964  0.42167973  0.50534278
   0.58333333  0.58333333  0.40830017
   0.58333333  0.83333333  0.40830017
   0.41971311  0.91536347  0.50683622
   0.50153485  0.74762790  0.60639134
   0.83333333  0.08333333  0.40830017
   0.75001004  0.00366346  0.60656758
   0.83333333  0.58333333  0.40830017
   0.75347493  0.49462656  0.60499540
   0.49532082  0.00573012  0.60799740
   0.08333333  0.83333333  0.40830017
   0.00280757  0.74817278  0.60147076
   0.33333333  0.08333333  0.40830017
   0.58333333  0.08333333  0.40830017
   0.33333333  0.58333333  0.40830017
   0.16362507  0.91698391  0.50537864
   0.24906561  0.00253475  0.60210684
   0.33333333  0.33333333  0.40830017
   0.49938987  0.25399405  0.60143975
   0.66709551  0.91549478  0.50292465
   0.00260053  0.49712428  0.59906088
   0.91371407  0.42230405  0.50520809
   0.24781243  0.25134393  0.60186234
   0.91375854  0.66360910  0.50469700
   0.00197011  0.25188970  0.60231057
   0.66938273  0.16346865  0.50497830
   0.83333333  0.33333333  0.40830017
   0.66689436  0.42159072  0.50473335
   0.74781953  0.25075903  0.60117932
   0.66853660  0.66440792  0.50581730
   0.83333333  0.83333333  0.40830017
   0.16330544  0.42087914  0.50521037
   0.42008770  0.66266184  0.50482749
   0.50105528  0.49576898  0.60031696
Direct configuration=     6
   0.08333333  0.08333333  0.40830017
   0.91532170  0.91639522  0.50587932
   0.08333333  0.33333333  0.40830017
  -0.00113849  0.00385951  0.60939440
   0.16712630  0.16738106  0.50782762
   0.91196648  0.17079554  0.50774105
   0.75205431  0.74809819  0.60548701
   0.24855596  0.74755939  0.60828316
   0.17087290  0.66316774  0.50571493
   0.25039465  0.49674031  0.60955542
   0.33333333  0.83333333  0.40830017
   0.41876262  0.16639391  0.50392125
   0.08333333  0.58333333  0.40830017
   0.58333333  0.33333333  0.40830017
   0.41294142  0.42252962  0.50611875
   0.58333333  0.58333333  0.40830017
   0.58333333  0.83333333  0.40830017
   0.42034779  0.91541209  0.50785788
   0.50207520  0.74763059  0.60746359
   0.83333333  0.08333333  0.40830017
   0.75030360  0.00364858  0.60764258
   0.83333333  0.58333333  0.40830017
   0.75358709  0.49463287  0.60608565
   0.49511590  0.00580987  0.60912900
   0.08333333  0.83333333  0.40830017
   0.00327939  0.74830999  0.60217413
   0.33333333  0.08333333  0.40830017
   0.58333333  0.08333333  0.40830017
   0.33333333  0.58333333  0.40830017
   0.16281486  0.91739356  0.50616477
   0.24927985  0.00260910  0.60291620
   0.33333333  0.33333333  0.40830017
   0.49907415  0.25434331  0.60219216
   0.66663948  0.91547677  0.50364703
   0.00273266  0.49688899  0.59973477
   0.91341377  0.42274934  0.50573719
   0.24796472  0.25128944  0.60268666
   0.91356636  0.66341072  0.50524758
   0.00203885  0.25194650  0.60323818
   0.67010433  0.16283294  0.50561083
   0.83333333  0.33333333  0.40830017
   0.66674328  0.42224246  0.50524660
   0.74793562  0.25049225  0.60199169
   0.66833890  0.66456484  0.50667404
   0.83333333  0.83333333  0.40830017
   0.16347321  0.42143121  0.50580396
   0.42026645  0.66249988  0.50554007
   0.50076220  0.49566112  0.60101268
Direct configuration=     7
   0.08333333  0.08333333  0.40830017
   0.91634011  0.91389825  0.50747691
   0.08333333  0.33333333  0.40830017
   0.00014032  0.00323415  0.61116786
   0.16590533  0.16829104  0.50845778
   0.91335470  0.17126746  0.50892127
   0.75236492  0.74949058  0.60685708
   0.25003848  0.74868935  0.60988828
   0.16683307  0.66774117  0.50725286
   0.24996474  0.49682870  0.61158653
   0.33333333  0.83333333  0.40830017
   0.41858144  0.16788576  0.50547514
   0.08333333  0.58333333  0.40830017
   0.58333333  0.33333333  0.40830017
   0.41680430  0.41692126  0.50707877
   0.58333333  0.58333333  0.40830017
   0.58333333  0.83333333  0.40830017
   0.41897838  0.91422689  0.50936845
   0.50066052  0.74770365  0.60908889
   0.83333333  0.08333333  0.40830017
   0.74942387  0.00208377  0.60917946
   0.83333333  0.58333333  0.40830017
   0.75290371  0.49496769  0.60779322
   0.49702182  0.00531904  0.61084639
   0.08333333  0.83333333  0.40830017
   0.00164087  0.74875764  0.60326577
   0.33333333  0.08333333  0.40830017
   0.58333333  0.08333333  0.40830017
   0.33333333  0.58333333  0.40830017
   0.16448117  0.91646729  0.50795206
   0.24949504  0.00065307  0.60450514
   0.33333333  0.33333333  0.40830017
   0.49923015  0.25256125  0.60325478
   0.66797668  0.91487487  0.50573443
   0.00208426  0.49826339  0.60136522
   0.91471898  0.41976274  0.50683475
   0.24888203  0.25138911  0.60403820
   0.91383112  0.66648516  0.50651331
   0.00188362  0.25130714  0.60472785
   0.66735240  0.16514721  0.50687711
   0.83333333  0.33333333  0.40830017
   0.66714024  0.42033792  0.50652151
   0.74802276  0.25120078  0.60347959
   0.66698616  0.66597247  0.50835527
   0.83333333  0.83333333  0.40830017
   0.16447842  0.41948660  0.50694286
   0.41867858  0.66693560  0.50719885
   0.50081047  0.49735974  0.60263866
Direct configuration=     8
   0.08333333  0.08333333  0.40830017
   0.91643333  0.91366968  0.50762315
   0.08333333  0.33333333  0.40830017
   0.00025738  0.00317691  0.61133020
   0.16579356  0.16837434  0.50851546
   0.91348178  0.17131066  0.50902930
   0.75239335  0.74961803  0.60698249
   0.25017419  0.74879278  0.61003521
   0.16646328  0.66815982  0.50739364
   0.24992539  0.49683679  0.61177246
   0.33333333  0.83333333  0.40830017
   0.41856485  0.16802232  0.50561738
   0.08333333  0.58333333  0.40830017
   0.58333333  0.33333333  0.40830017
   0.41715790  0.41640788  0.50716665
   0.58333333  0.58333333  0.40830017
   0.58333333  0.83333333  0.40830017
   0.41885303  0.91411840  0.50950673
   0.50053102  0.74771033  0.60923767
   0.83333333  0.08333333  0.40830017
   0.74934334  0.00194053  0.60932014
   0.83333333  0.58333333  0.40830017
   0.75284115  0.49499834  0.60794953
   0.49719629  0.00527411  0.61100359
   0.08333333  0.83333333  0.40830017
   0.00149088  0.74879862  0.60336570
   0.33333333  0.08333333  0.40830017
   0.58333333  0.08333333  0.40830017
   0.33333333  0.58333333  0.40830017
   0.16463370  0.91638250  0.50811567
   0.24951474  0.00047401  0.60465059
   0.33333333  0.33333333  0.40830017
   0.49924443  0.25239813  0.60335205
   0.66809908  0.91481977  0.50592551
   0.00202491  0.49838920  0.60151447
   0.91483845  0.41948936  0.50693522
   0.24896600  0.25139824  0.60416192
   0.91385535  0.66676658  0.50662918
   0.00186942  0.25124861  0.60486421
   0.66710050  0.16535905  0.50699303
   0.83333333  0.33333333  0.40830017
   0.66717657  0.42016358  0.50663822
   0.74803074  0.25126564  0.60361579
   0.66686233  0.66610132  0.50850917
   0.83333333  0.83333333  0.40830017
   0.16457044  0.41930860  0.50704711
   0.41853323  0.66734164  0.50735069
   0.50081488  0.49751523  0.60278750
Direct configuration=     9
   0.08333333  0.08333333  0.40830017
   0.91529519  0.91508817  0.50765625
   0.08333333  0.33333333  0.40830017
   0.00055284  0.00261463  0.61169465
   0.16619486  0.16832047  0.50858409
   0.91369382  0.17068517  0.50912804
   0.75275559  0.74931325  0.60734634
   0.25070529  0.74930566  0.61040959
   0.16725613  0.66754041  0.50747618
   0.24963609  0.49749994  0.61210601
   0.33333333  0.83333333  0.40830017
   0.41827506  0.16684040  0.50590301
   0.08333333  0.58333333  0.40830017
   0.58333333  0.33333333  0.40830017
   0.41765679  0.41715309  0.50715568
   0.58333333  0.58333333  0.40830017
   0.58333333  0.83333333  0.40830017
   0.41724792  0.91554978  0.50949821
   0.50006183  0.74794482  0.60983593
   0.83333333  0.08333333  0.40830017
   0.74926927  0.00199107  0.60959851
   0.83333333  0.58333333  0.40830017
   0.75251074  0.49571297  0.60826150
   0.49765809  0.00453313  0.61134144
   0.08333333  0.83333333  0.40830017
   0.00082273  0.74882969  0.60417254
   0.33333333  0.08333333  0.40830017
   0.58333333  0.08333333  0.40830017
   0.33333333  0.58333333  0.40830017
   0.16590763  0.91638542  0.50865361
   0.24967404  0.00013144  0.60531210
   0.33333333  0.33333333  0.40830017
   0.49988429  0.25153763  0.60392051
   0.66817604  0.91531074  0.50666294
   0.00121002  0.49937551  0.60216955
   0.91516426  0.41921304  0.50737219
   0.24908497  0.25100301  0.60453470
   0.91415091  0.66674927  0.50691327
   0.00205167  0.25090348  0.60533910
   0.66708896  0.16586309  0.50732503
   0.83333333  0.33333333  0.40830017
   0.66708982  0.41923599  0.50712273
   0.74806043  0.25125289  0.60416324
   0.66756103  0.66565380  0.50895868
   0.83333333  0.83333333  0.40830017
   0.16454830  0.41896279  0.50741446
   0.41715824  0.66770139  0.50781264
   0.50079782  0.49818094  0.60339021
Direct configuration=    10
   0.08333333  0.08333333  0.40830017
   0.91490347  0.91557638  0.50766763
   0.08333333  0.33333333  0.40830017
   0.00065453  0.00242111  0.61182008
   0.16633297  0.16830193  0.50860771
   0.91376679  0.17046989  0.50916202
   0.75288026  0.74920836  0.60747156
   0.25088807  0.74948218  0.61053844
   0.16752901  0.66732723  0.50750459
   0.24953652  0.49772818  0.61222081
   0.33333333  0.83333333  0.40830017
   0.41817532  0.16643361  0.50600132
   0.08333333  0.58333333  0.40830017
   0.58333333  0.33333333  0.40830017
   0.41782850  0.41740957  0.50715191
   0.58333333  0.58333333  0.40830017
   0.58333333  0.83333333  0.40830017
   0.41669549  0.91604242  0.50949528
   0.49990035  0.74802552  0.61004184
   0.83333333  0.08333333  0.40830017
   0.74924377  0.00200846  0.60969432
   0.83333333  0.58333333  0.40830017
   0.75239702  0.49595892  0.60836887
   0.49781703  0.00427811  0.61145771
   0.08333333  0.83333333  0.40830017
   0.00059277  0.74884039  0.60445023
   0.33333333  0.08333333  0.40830017
   0.58333333  0.08333333  0.40830017
   0.33333333  0.58333333  0.40830017
   0.16634608  0.91638642  0.50883876
   0.24972886  0.00001353  0.60553978
   0.33333333  0.33333333  0.40830017
   0.50010451  0.25124147  0.60411616
   0.66820253  0.91547972  0.50691675
   0.00092956  0.49971498  0.60239501
   0.91527640  0.41911793  0.50752258
   0.24912592  0.25086699  0.60466300
   0.91425264  0.66674331  0.50701105
   0.00211440  0.25078469  0.60550254
   0.66708498  0.16603656  0.50743930
   0.83333333  0.33333333  0.40830017
   0.66705996  0.41891674  0.50728948
   0.74807065  0.25124850  0.60435165
   0.66780150  0.66549977  0.50911339
   0.83333333  0.83333333  0.40830017
   0.16454068  0.41884377  0.50754089
   0.41668500  0.66782521  0.50797162
   0.50079195  0.49841006  0.60359765
Direct configuration=    11
   0.08333333  0.08333333  0.40830017
   0.91523486  0.91597728  0.50752326
   0.08333333  0.33333333  0.40830017
   0.00048715  0.00212622  0.61191011
   0.16579833  0.16868254  0.50872906
   0.91411541  0.17003213  0.50919330
   0.75266716  0.74891556  0.60772827
   0.25043859  0.74950625  0.61075534
   0.16743384  0.66707343  0.50746200
   0.24966581  0.49801071  0.61216723
   0.33333333  0.83333333  0.40830017
   0.41844942  0.16648241  0.50604722
   0.08333333  0.58333333  0.40830017
   0.58333333  0.33333333  0.40830017
   0.41741871  0.41781030  0.50718347
   0.58333333  0.58333333  0.40830017
   0.58333333  0.83333333  0.40830017
   0.41707458  0.91585286  0.50928356
   0.50023215  0.74840839  0.61036809
   0.83333333  0.08333333  0.40830017
   0.74958297  0.00228908  0.60982971
   0.83333333  0.58333333  0.40830017
   0.75238626  0.49615667  0.60844714
   0.49777756  0.00357674  0.61160312
   0.08333333  0.83333333  0.40830017
   0.00081331  0.74898814  0.60497563
   0.33333333  0.08333333  0.40830017
   0.58333333  0.08333333  0.40830017
   0.33333333  0.58333333  0.40830017
   0.16615988  0.91657973  0.50906047
   0.24976139  0.00053038  0.60605393
   0.33333333  0.33333333  0.40830017
   0.50004123  0.25154299  0.60441941
   0.66768336  0.91574622  0.50722857
   0.00086008  0.49972537  0.60284062
   0.91523534  0.41926412  0.50784626
   0.24898561  0.25080278  0.60485960
   0.91470624  0.66637137  0.50709174
   0.00218917  0.25073596  0.60569391
   0.66672864  0.16635874  0.50755870
   0.83333333  0.33333333  0.40830017
   0.66709605  0.41897015  0.50756611
   0.74828760  0.25116794  0.60471875
   0.66768975  0.66539811  0.50924590
   0.83333333  0.83333333  0.40830017
   0.16468937  0.41892021  0.50780387
   0.41688010  0.66740988  0.50815095
   0.50080352  0.49811544  0.60399172
Direct configuration=    12
   0.08333333  0.08333333  0.40830017
   0.91536243  0.91613162  0.50746768
   0.08333333  0.33333333  0.40830017
   0.00042272  0.00201270  0.61194476
   0.16559251  0.16882906  0.50877577
   0.91424961  0.16986362  0.50920535
   0.75258513  0.74880285  0.60782709
   0.25026556  0.74951551  0.61083883
   0.16739720  0.66697573  0.50744560
   0.24971558  0.49811947  0.61214661
   0.33333333  0.83333333  0.40830017
   0.41855493  0.16650120  0.50606489
   0.08333333  0.58333333  0.40830017
   0.58333333  0.33333333  0.40830017
   0.41726095  0.41796457  0.50719563
   0.58333333  0.58333333  0.40830017
   0.58333333  0.83333333  0.40830017
   0.41722052  0.91577989  0.50920205
   0.50035988  0.74855578  0.61049368
   0.83333333  0.08333333  0.40830017
   0.74971354  0.00239710  0.60988184
   0.83333333  0.58333333  0.40830017
   0.75238212  0.49623280  0.60847727
   0.49776236  0.00330674  0.61165910
   0.08333333  0.83333333  0.40830017
   0.00089821  0.74904502  0.60517789
   0.33333333  0.08333333  0.40830017
   0.58333333  0.08333333  0.40830017
   0.33333333  0.58333333  0.40830017
   0.16608820  0.91665415  0.50914582
   0.24977391  0.00072934  0.60625186
   0.33333333  0.33333333  0.40830017
   0.50001687  0.25165906  0.60453614
   0.66748351  0.91584880  0.50734861
   0.00083333  0.49972937  0.60301217
   0.91521953  0.41932039  0.50797086
   0.24893159  0.25077807  0.60493528
   0.91488086  0.66622819  0.50712280
   0.00221796  0.25071719  0.60576758
   0.66659147  0.16648276  0.50760466
   0.83333333  0.33333333  0.40830017
   0.66710995  0.41899071  0.50767260
   0.74837112  0.25113693  0.60486006
   0.66764673  0.66535897  0.50929691
   0.83333333  0.83333333  0.40830017
   0.16474661  0.41894964  0.50790510
   0.41695520  0.66724999  0.50821998
   0.50080798  0.49800202  0.60414343
Direct configuration=    13
   0.08333333  0.08333333  0.40830017
   0.91566736  0.91554989  0.50738962
   0.08333333  0.33333333  0.40830017
   0.00047016  0.00210674  0.61197660
   0.16559890  0.16889821  0.50894661
   0.91395577  0.17026855  0.50928730
   0.75285666  0.74890798  0.60802368
   0.25024503  0.74956496  0.61098000
   0.16676718  0.66750902  0.50743432
   0.24980396  0.49797571  0.61201688
   0.33333333  0.83333333  0.40830017
   0.41841583  0.16710739  0.50610292
   0.08333333  0.58333333  0.40830017
   0.58333333  0.33333333  0.40830017
   0.41704845  0.41784057  0.50729663
   0.58333333  0.58333333  0.40830017
   0.58333333  0.83333333  0.40830017
   0.41738533  0.91540600  0.50909356
   0.50009141  0.74857288  0.61067678
   0.83333333  0.08333333  0.40830017
   0.74964729  0.00238357  0.60993416
   0.83333333  0.58333333  0.40830017
   0.75241437  0.49596167  0.60854975
   0.49780765  0.00346251  0.61172312
   0.08333333  0.83333333  0.40830017
   0.00089048  0.74912222  0.60541326
   0.33333333  0.08333333  0.40830017
   0.58333333  0.08333333  0.40830017
   0.33333333  0.58333333  0.40830017
   0.16616192  0.91647051  0.50929147
   0.24965171  0.00105336  0.60654860
   0.33333333  0.33333333  0.40830017
   0.49974973  0.25183905  0.60469581
   0.66771379  0.91566300  0.50749125
   0.00121458  0.49949663  0.60333551
   0.91504554  0.41954409  0.50819541
   0.24895611  0.25091264  0.60505432
   0.91485672  0.66639671  0.50724247
   0.00213736  0.25074397  0.60588620
   0.66643717  0.16669395  0.50769202
   0.83333333  0.33333333  0.40830017
   0.66725337  0.41911760  0.50783425
   0.74862596  0.25124246  0.60507794
   0.66744823  0.66541590  0.50927024
   0.83333333  0.83333333  0.40830017
   0.16487033  0.41887255  0.50812230
   0.41741437  0.66707299  0.50837041
   0.50090151  0.49777902  0.60446457
Direct configuration=    14
   0.08333333  0.08333333  0.40830017
   0.91571900  0.91545137  0.50737640
   0.08333333  0.33333333  0.40830017
   0.00047819  0.00212266  0.61198199
   0.16559998  0.16890992  0.50897554
   0.91390600  0.17033713  0.50930118
   0.75290265  0.74892578  0.60805698
   0.25024155  0.74957334  0.61100391
   0.16666048  0.66759934  0.50743241
   0.24981892  0.49795137  0.61199491
   0.33333333  0.83333333  0.40830017
   0.41839227  0.16721006  0.50610937
   0.08333333  0.58333333  0.40830017
   0.58333333  0.33333333  0.40830017
   0.41701245  0.41781956  0.50731373
   0.58333333  0.58333333  0.40830017
   0.58333333  0.83333333  0.40830017
   0.41741324  0.91534267  0.50907518
   0.50004594  0.74857578  0.61070779
   0.83333333  0.08333333  0.40830017
   0.74963607  0.00238128  0.60994302
   0.83333333  0.58333333  0.40830017
   0.75241983  0.49591575  0.60856203
   0.49781532  0.00348889  0.61173396
   0.08333333  0.83333333  0.40830017
   0.00088918  0.74913530  0.60545312
   0.33333333  0.08333333  0.40830017
   0.58333333  0.08333333  0.40830017
   0.33333333  0.58333333  0.40830017
   0.16617441  0.91643941  0.50931614
   0.24963102  0.00110823  0.60659885
   0.33333333  0.33333333  0.40830017
   0.49970448  0.25186953  0.60472285
   0.66775280  0.91563153  0.50751540
   0.00127915  0.49945721  0.60339027
   0.91501608  0.41958198  0.50823344
   0.24896026  0.25093543  0.60507449
   0.91485263  0.66642525  0.50726274
   0.00212370  0.25074850  0.60590629
   0.66641104  0.16672972  0.50770681
   0.83333333  0.33333333  0.40830017
   0.66727766  0.41913909  0.50786162
   0.74866912  0.25126033  0.60511484
   0.66741461  0.66542555  0.50926572
   0.83333333  0.83333333  0.40830017
   0.16489128  0.41885949  0.50815909
   0.41749214  0.66704301  0.50839589
   0.50091735  0.49774126  0.60451897
Direct configuration=    15
   0.08333333  0.08333333  0.40830017
   0.91546600  0.91544161  0.50739158
   0.08333333  0.33333333  0.40830017
   0.00053432  0.00232295  0.61197599
   0.16594303  0.16859541  0.50909765
   0.91366555  0.17056175  0.50935752
   0.75309687  0.74886751  0.60816087
   0.25039371  0.74957982  0.61109062
   0.16677322  0.66769231  0.50745121
   0.24980078  0.49795577  0.61188939
   0.33333333  0.83333333  0.40830017
   0.41828003  0.16712030  0.50612875
   0.08333333  0.58333333  0.40830017
   0.58333333  0.33333333  0.40830017
   0.41697243  0.41812939  0.50741179
   0.58333333  0.58333333  0.40830017
   0.58333333  0.83333333  0.40830017
   0.41723674  0.91556391  0.50914033
   0.49988865  0.74845219  0.61077732
   0.83333333  0.08333333  0.40830017
   0.74948108  0.00246053  0.60992754
   0.83333333  0.58333333  0.40830017
   0.75238838  0.49600198  0.60866541
   0.49780130  0.00381805  0.61171913
   0.08333333  0.83333333  0.40830017
   0.00088757  0.74915014  0.60553405
   0.33333333  0.08333333  0.40830017
   0.58333333  0.08333333  0.40830017
   0.33333333  0.58333333  0.40830017
   0.16632729  0.91639066  0.50940802
   0.24965920  0.00111318  0.60668280
   0.33333333  0.33333333  0.40830017
   0.49974267  0.25179096  0.60481755
   0.66793658  0.91555920  0.50754023
   0.00152631  0.49932746  0.60359645
   0.91501068  0.41985025  0.50834004
   0.24908392  0.25095401  0.60517320
   0.91458800  0.66645505  0.50739527
   0.00209344  0.25080196  0.60600446
   0.66666766  0.16663507  0.50779441
   0.83333333  0.33333333  0.40830017
   0.66713927  0.41926486  0.50792399
   0.74869641  0.25121727  0.60522372
   0.66749651  0.66552498  0.50925971
   0.83333333  0.83333333  0.40830017
   0.16459199  0.41902413  0.50825094
   0.41755200  0.66688470  0.50852165
   0.50095067  0.49772102  0.60472943
Direct configuration=    16
   0.08333333  0.08333333  0.40830017
   0.91542397  0.91543998  0.50739411
   0.08333333  0.33333333  0.40830017
   0.00054365  0.00235623  0.61197499
   0.16600003  0.16854316  0.50911793
   0.91362560  0.17059908  0.50936688
   0.75312914  0.74885783  0.60817813
   0.25041899  0.74958090  0.61110503
   0.16679195  0.66770776  0.50745434
   0.24979776  0.49795650  0.61187186
   0.33333333  0.83333333  0.40830017
   0.41826138  0.16710539  0.50613197
   0.08333333  0.58333333  0.40830017
   0.58333333  0.33333333  0.40830017
   0.41696577  0.41818087  0.50742808
   0.58333333  0.58333333  0.40830017
   0.58333333  0.83333333  0.40830017
   0.41720742  0.91560067  0.50915116
   0.49986252  0.74843166  0.61078887
   0.83333333  0.08333333  0.40830017
   0.74945533  0.00247370  0.60992497
   0.83333333  0.58333333  0.40830017
   0.75238316  0.49601630  0.60868259
   0.49779897  0.00387275  0.61171667
   0.08333333  0.83333333  0.40830017
   0.00088731  0.74915261  0.60554749
   0.33333333  0.08333333  0.40830017
   0.58333333  0.08333333  0.40830017
   0.33333333  0.58333333  0.40830017
   0.16635269  0.91638256  0.50942329
   0.24966389  0.00111400  0.60669675
   0.33333333  0.33333333  0.40830017
   0.49974901  0.25177790  0.60483328
   0.66796712  0.91554719  0.50754435
   0.00156738  0.49930590  0.60363071
   0.91500978  0.41989483  0.50835775
   0.24910447  0.25095709  0.60518961
   0.91454403  0.66646000  0.50741729
   0.00208841  0.25081084  0.60602077
   0.66671029  0.16661934  0.50780896
   0.83333333  0.33333333  0.40830017
   0.66711627  0.41928576  0.50793436
   0.74870094  0.25121011  0.60524182
   0.66751011  0.66554151  0.50925871
   0.83333333  0.83333333  0.40830017
   0.16454226  0.41905149  0.50826621
   0.41756195  0.66685839  0.50854254
   0.50095620  0.49771766  0.60476440
Direct configuration=    17
   0.08333333  0.08333333  0.40830017
   0.91534337  0.91554593  0.50744534
   0.08333333  0.33333333  0.40830017
   0.00055752  0.00243208  0.61195348