  48  48   0   0
  0.5349325E+02  0.1100258E-08  0.1100258E-08  0.2449179E-08  0.3500000E-15
  1.000000000000000E-004
  CAR 
 unknown system                          
      6.37082432     -9.65847517  301     -1.10650181      1.00000000
     -9.658  0.0000E+00  0.0000E+00
     -9.605  0.0000E+00  0.0000E+00
     -9.552  0.0000E+00  0.0000E+00
     -9.498  0.0000E+00  0.0000E+00
     -9.445  0.0000E+00  0.0000E+00
     -9.391  0.0000E+00  0.0000E+00
     -9.338  0.0000E+00  0.0000E+00
     -9.284  0.0000E+00  0.0000E+00
     -9.231  0.5541E-17  0.2961E-18
     -9.178  0.2080E-14  0.1114E-15
     -9.124  0.4652E-12  0.2497E-13
     -9.071  0.5960E-10  0.3210E-11
     -9.017  0.4381E-08  0.2373E-09
     -8.964  0.1851E-06  0.1013E-07
     -8.910  0.4504E-05  0.2508E-06
     -8.857  0.6329E-04  0.3633E-05
     -8.804  0.5147E-03  0.3114E-04
     -8.750  0.2429E-02  0.1609E-03
     -8.697  0.6679E-02  0.5178E-03
     -8.643  0.1086E-01  0.1098E-02
     -8.590  0.1129E-01  0.1701E-02
     -8.536  0.1006E-01  0.2239E-02
     -8.483  0.1088E-01  0.2820E-02
     -8.430  0.1092E-01  0.3403E-02
     -8.376  0.7328E-02  0.3795E-02
     -8.323  0.2994E-02  0.3955E-02
     -8.269  0.7425E-03  0.3994E-02
     -8.216  0.2137E-03  0.4006E-02
     -8.162  0.6065E-03  0.4038E-02
     -8.109  0.2006E-02  0.4145E-02
     -8.056  0.4374E-02  0.4379E-02
     -8.002  0.7065E-02  0.4757E-02
     -7.949  0.9692E-02  0.5275E-02
     -7.895  0.1266E-01  0.5951E-02
     -7.842  0.1770E-01  0.6897E-02
     -7.788  0.2396E-01  0.8177E-02
     -7.735  0.2583E-01  0.9557E-02
     -7.682  0.2109E-01  0.1068E-01
     -7.628  0.1380E-01  0.1142E-01
     -7.575  0.8855E-02  0.1189E-01
     -7.521  0.9650E-02  0.1241E-01
     -7.468  0.1644E-01  0.1329E-01
     -7.414  0.2309E-01  0.1452E-01
     -7.361  0.2342E-01  0.1577E-01
     -7.308  0.1985E-01  0.1683E-01
     -7.254  0.1746E-01  0.1777E-01
     -7.201  0.1812E-01  0.1873E-01
     -7.147  0.2219E-01  0.1992E-01
     -7.094  0.2884E-01  0.2146E-01
     -7.040  0.3698E-01  0.2344E-01
     -6.987  0.4572E-01  0.2588E-01
     -6.933  0.5477E-01  0.2881E-01
     -6.880  0.6516E-01  0.3229E-01
     -6.827  0.7448E-01  0.3627E-01
     -6.773  0.7961E-01  0.4052E-01
     -6.720  0.8281E-01  0.4495E-01
     -6.666  0.8721E-01  0.4961E-01
     -6.613  0.9316E-01  0.5458E-01
     -6.559  0.9948E-01  0.5990E-01
     -6.506  0.1052E+00  0.6552E-01
     -6.453  0.1102E+00  0.7140E-01
     -6.399  0.1142E+00  0.7751E-01
     -6.346  0.1184E+00  0.8383E-01
     -6.292  0.1251E+00  0.9051E-01
     -6.239  0.1315E+00  0.9754E-01
     -6.185  0.1352E+00  0.1048E+00
     -6.132  0.1405E+00  0.1123E+00
     -6.079  0.1501E+00  0.1203E+00
     -6.025  0.1609E+00  0.1289E+00
     -5.972  0.1679E+00  0.1379E+00
     -5.918  0.1677E+00  0.1468E+00
     -5.865  0.1607E+00  0.1554E+00
     -5.811  0.1500E+00  0.1634E+00
     -5.758  0.1415E+00  0.1710E+00
     -5.705  0.1391E+00  0.1784E+00
     -5.651  0.1404E+00  0.1859E+00
     -5.598  0.1409E+00  0.1934E+00
     -5.544  0.1398E+00  0.2009E+00
     -5.491  0.1379E+00  0.2083E+00
     -5.437  0.1396E+00  0.2157E+00
     -5.384  0.1486E+00  0.2237E+00
     -5.331  0.1611E+00  0.2323E+00
     -5.277  0.1709E+00  0.2414E+00
     -5.224  0.1760E+00  0.2508E+00
     -5.170  0.1769E+00  0.2603E+00
     -5.117  0.1752E+00  0.2696E+00
     -5.063  0.1732E+00  0.2789E+00
     -5.010  0.1722E+00  0.2881E+00
     -4.957  0.1708E+00  0.2972E+00
     -4.903  0.1699E+00  0.3063E+00
     -4.850  0.1727E+00  0.3155E+00
     -4.796  0.1772E+00  0.3250E+00
     -4.743  0.1768E+00  0.3344E+00
     -4.689  0.1725E+00  0.3437E+00
     -4.636  0.1718E+00  0.3528E+00
     -4.583  0.1775E+00  0.3623E+00
     -4.529  0.1861E+00  0.3723E+00
     -4.476  0.1919E+00  0.3825E+00
     -4.422  0.1917E+00  0.3928E+00
     -4.369  0.1885E+00  0.4028E+00
     -4.315  0.1860E+00  0.4128E+00
     -4.262  0.1851E+00  0.4227E+00
     -4.209  0.1840E+00  0.4325E+00
     -4.155  0.1808E+00  0.4421E+00
     -4.102  0.1761E+00  0.4515E+00
     -4.048  0.1715E+00  0.4607E+00
     -3.995  0.1693E+00  0.4698E+00
     -3.941  0.1711E+00  0.4789E+00
     -3.888  0.1768E+00  0.4883E+00
     -3.834  0.1855E+00  0.4983E+00
     -3.781  0.1946E+00  0.5087E+00
     -3.728  0.2010E+00  0.5194E+00
     -3.674  0.2043E+00  0.5303E+00
     -3.621  0.2056E+00  0.5413E+00
     -3.567  0.2057E+00  0.5523E+00
     -3.514  0.2067E+00  0.5633E+00
     -3.460  0.2081E+00  0.5745E+00
     -3.407  0.2072E+00  0.5855E+00
     -3.354  0.2037E+00  0.5964E+00
     -3.300  0.2009E+00  0.6072E+00
     -3.247  0.2005E+00  0.6179E+00
     -3.193  0.1979E+00  0.6284E+00
     -3.140  0.1899E+00  0.6386E+00
     -3.086  0.1812E+00  0.6483E+00
     -3.033  0.1764E+00  0.6577E+00
     -2.980  0.1732E+00  0.6669E+00
     -2.926  0.1703E+00  0.6760E+00
     -2.873  0.1700E+00  0.6851E+00
     -2.819  0.1728E+00  0.6944E+00
     -2.766  0.1760E+00  0.7038E+00
     -2.712  0.1782E+00  0.7133E+00
     -2.659  0.1790E+00  0.7229E+00
     -2.606  0.1798E+00  0.7325E+00
     -2.552  0.1837E+00  0.7423E+00
     -2.499  0.1886E+00  0.7524E+00
     -2.445  0.1894E+00  0.7625E+00
     -2.392  0.1874E+00  0.7725E+00
     -2.338  0.1872E+00  0.7825E+00
     -2.285  0.1891E+00  0.7926E+00
     -2.232  0.1918E+00  0.8028E+00
     -2.178  0.1929E+00  0.8131E+00
     -2.125  0.1906E+00  0.8233E+00
     -2.071  0.1884E+00  0.8334E+00
     -2.018  0.1887E+00  0.8435E+00
     -1.964  0.1891E+00  0.8536E+00
     -1.911  0.1882E+00  0.8636E+00
     -1.858  0.1873E+00  0.8736E+00
     -1.804  0.1886E+00  0.8837E+00
     -1.751  0.1923E+00  0.8940E+00
     -1.697  0.1945E+00  0.9044E+00
     -1.644  0.1930E+00  0.9147E+00
     -1.590  0.1904E+00  0.9249E+00
     -1.537  0.1903E+00  0.9350E+00
     -1.484  0.1931E+00  0.9454E+00
     -1.430  0.1954E+00  0.9558E+00
     -1.377  0.1951E+00  0.9662E+00
     -1.323  0.1907E+00  0.9764E+00
     -1.270  0.1785E+00  0.9860E+00
     -1.216  0.1591E+00  0.9944E+00
     -1.163  0.1361E+00  0.1002E+01
     -1.110  0.1119E+00  0.1008E+01
     -1.056  0.8914E-01  0.1012E+01
     -1.003  0.6747E-01  0.1016E+01
     -0.949  0.4543E-01  0.1018E+01
     -0.896  0.2767E-01  0.1020E+01
     -0.842  0.1925E-01  0.1021E+01
     -0.789  0.1757E-01  0.1022E+01
     -0.735  0.1711E-01  0.1023E+01
     -0.682  0.1591E-01  0.1024E+01
     -0.629  0.1628E-01  0.1025E+01
     -0.575  0.2154E-01  0.1026E+01
     -0.522  0.3109E-01  0.1027E+01
     -0.468  0.4016E-01  0.1030E+01
     -0.415  0.4349E-01  0.1032E+01
     -0.361  0.3950E-01  0.1034E+01
     -0.308  0.3302E-01  0.1036E+01
     -0.255  0.3271E-01  0.1037E+01
     -0.201  0.3903E-01  0.1040E+01
     -0.148  0.4163E-01  0.1042E+01
     -0.094  0.3623E-01  0.1044E+01
     -0.041  0.2874E-01  0.1045E+01
      0.013  0.2507E-01  0.1047E+01
      0.066  0.2915E-01  0.1048E+01
      0.119  0.3812E-01  0.1050E+01
      0.173  0.4202E-01  0.1052E+01
      0.226  0.3941E-01  0.1055E+01
      0.280  0.3708E-01  0.1057E+01
      0.333  0.3611E-01  0.1058E+01
      0.387  0.3408E-01  0.1060E+01
      0.440  0.3214E-01  0.1062E+01
      0.493  0.3428E-01  0.1064E+01
      0.547  0.3900E-01  0.1066E+01
      0.600  0.4007E-01  0.1068E+01
      0.654  0.3947E-01  0.1070E+01
      0.707  0.4164E-01  0.1072E+01
      0.761  0.4178E-01  0.1075E+01
      0.814  0.3400E-01  0.1076E+01
      0.867  0.2207E-01  0.1078E+01
      0.921  0.1601E-01  0.1078E+01
      0.974  0.1946E-01  0.1080E+01
      1.028  0.2553E-01  0.1081E+01
      1.081  0.2734E-01  0.1082E+01
      1.135  0.2442E-01  0.1084E+01
      1.188  0.1924E-01  0.1085E+01
      1.241  0.1533E-01  0.1085E+01
      1.295  0.1389E-01  0.1086E+01
      1.348  0.1244E-01  0.1087E+01
      1.402  0.1185E-01  0.1088E+01
      1.455  0.1733E-01  0.1088E+01
      1.509  0.2810E-01  0.1090E+01
      1.562  0.3570E-01  0.1092E+01
      1.615  0.3734E-01  0.1094E+01
      1.669  0.3854E-01  0.1096E+01
      1.722  0.4065E-01  0.1098E+01
      1.776  0.3933E-01  0.1100E+01
      1.829  0.3285E-01  0.1102E+01
      1.883  0.2375E-01  0.1103E+01
      1.936  0.1678E-01  0.1104E+01
      1.989  0.1527E-01  0.1105E+01
      2.043  0.1699E-01  0.1106E+01
      2.096  0.1893E-01  0.1107E+01
      2.150  0.2237E-01  0.1108E+01
      2.203  0.2944E-01  0.1110E+01
      2.257  0.3767E-01  0.1112E+01
      2.310  0.4199E-01  0.1114E+01
      2.363  0.4363E-01  0.1116E+01
      2.417  0.4463E-01  0.1119E+01
      2.470  0.4266E-01  0.1121E+01
      2.524  0.4082E-01  0.1123E+01
      2.577  0.4496E-01  0.1125E+01
      2.631  0.5265E-01  0.1128E+01
      2.684  0.5580E-01  0.1131E+01
      2.738  0.4939E-01  0.1134E+01
      2.791  0.3560E-01  0.1136E+01
      2.844  0.2241E-01  0.1137E+01
      2.898  0.1589E-01  0.1138E+01
      2.951  0.1552E-01  0.1139E+01
      3.005  0.1733E-01  0.1140E+01
      3.058  0.1950E-01  0.1141E+01
      3.112  0.2279E-01  0.1142E+01
      3.165  0.2555E-01  0.1143E+01
      3.218  0.2405E-01  0.1144E+01
      3.272  0.1781E-01  0.1145E+01
      3.325  0.1178E-01  0.1146E+01
      3.379  0.1084E-01  0.1147E+01
      3.432  0.1346E-01  0.1147E+01
      3.486  0.1696E-01  0.1148E+01
      3.539  0.2274E-01  0.1149E+01
      3.592  0.3042E-01  0.1151E+01
      3.646  0.3716E-01  0.1153E+01
      3.699  0.4170E-01  0.1155E+01
      3.753  0.4142E-01  0.1158E+01
      3.806  0.3464E-01  0.1159E+01
      3.860  0.2623E-01  0.1161E+01
      3.913  0.2091E-01  0.1162E+01
      3.966  0.1960E-01  0.1163E+01
      4.020  0.2291E-01  0.1164E+01
      4.073  0.2716E-01  0.1166E+01
      4.127  0.2829E-01  0.1167E+01
      4.180  0.2812E-01  0.1169E+01
      4.234  0.2701E-01  0.1170E+01
      4.287  0.2210E-01  0.1171E+01
      4.340  0.1724E-01  0.1172E+01
      4.394  0.2014E-01  0.1173E+01
      4.447  0.2877E-01  0.1175E+01
      4.501  0.3586E-01  0.1177E+01
      4.554  0.4209E-01  0.1179E+01
      4.608  0.4944E-01  0.1182E+01
      4.661  0.5171E-01  0.1184E+01
      4.714  0.4485E-01  0.1187E+01
      4.768  0.3747E-01  0.1189E+01
      4.821  0.3909E-01  0.1191E+01
      4.875  0.4803E-01  0.1193E+01
      4.928  0.5779E-01  0.1197E+01
      4.982  0.6473E-01  0.1200E+01
      5.035  0.6882E-01  0.1204E+01
      5.088  0.6906E-01  0.1207E+01
      5.142  0.6451E-01  0.1211E+01
      5.195  0.6045E-01  0.1214E+01
      5.249  0.5919E-01  0.1217E+01
      5.302  0.5287E-01  0.1220E+01
      5.356  0.3846E-01  0.1222E+01
      5.409  0.2235E-01  0.1223E+01
      5.462  0.9992E-02  0.1224E+01
      5.516  0.3128E-02  0.1224E+01
      5.569  0.6274E-03  0.1224E+01
      5.623  0.7639E-04  0.1224E+01
      5.676  0.5498E-05  0.1224E+01
      5.730  0.2306E-06  0.1224E+01
      5.783  0.5597E-08  0.1224E+01
      5.837  0.7819E-10  0.1224E+01
      5.890  0.6269E-12  0.1224E+01
      5.943  0.2879E-14  0.1224E+01
      5.997  0.5541E-17  0.1224E+01
      6.050  0.0000E+00  0.1224E+01
      6.104  0.0000E+00  0.1224E+01
      6.157  0.0000E+00  0.1224E+01
      6.211  0.0000E+00  0.1224E+01
      6.264  0.0000E+00  0.1224E+01
      6.317  0.0000E+00  0.1224E+01
      6.371  0.0000E+00  0.1224E+01
