       N       E                     dE             d eps       ncg     rms          rms(c)
DAV:   1     0.320120160664E+04    0.32012E+04   -0.18987E+05  3672   0.112E+03
DAV:   2     0.143549174745E+02   -0.31868E+04   -0.29296E+04  4368   0.263E+02
DAV:   3    -0.201614447339E+03   -0.21597E+03   -0.20083E+03  4140   0.651E+01
DAV:   4    -0.207449980997E+03   -0.58355E+01   -0.57683E+01  4236   0.108E+01
DAV:   5    -0.207640208023E+03   -0.19023E+00   -0.18962E+00  4416   0.199E+00    0.620E+01
RMM:   6    -0.204549423124E+03    0.30908E+01   -0.96857E+01  3678   0.154E+01    0.559E+01
RMM:   7    -0.209749010459E+03   -0.51996E+01   -0.64374E+01  3684   0.132E+01    0.450E+01
RMM:   8    -0.225241855166E+03   -0.15493E+02   -0.84329E+01  3672   0.141E+01    0.465E+01
RMM:   9    -0.209200769063E+03    0.16041E+02   -0.54259E+01  3679   0.114E+01    0.319E+01
RMM:  10    -0.194814470592E+03    0.14386E+02   -0.19757E+01  3681   0.731E+00    0.185E+01
RMM:  11    -0.192725360807E+03    0.20891E+01   -0.11930E+01  3680   0.551E+00    0.131E+01
RMM:  12    -0.190126481953E+03    0.25989E+01   -0.37869E+00  3680   0.303E+00    0.755E+00
RMM:  13    -0.189829476101E+03    0.29701E+00   -0.11788E+00  3680   0.168E+00    0.592E+00
RMM:  14    -0.189962279172E+03   -0.13280E+00   -0.59765E-01  3681   0.117E+00    0.669E+00
RMM:  15    -0.190046242449E+03   -0.83963E-01   -0.62038E-01  3679   0.125E+00    0.623E+00
RMM:  16    -0.189715283063E+03    0.33096E+00   -0.26313E-01  3679   0.810E-01    0.303E+00
RMM:  17    -0.189652956686E+03    0.62326E-01   -0.11647E-01  3680   0.521E-01    0.245E+00
RMM:  18    -0.189613250078E+03    0.39707E-01   -0.59156E-02  3680   0.371E-01    0.170E+00
RMM:  19    -0.189586497061E+03    0.26753E-01   -0.20964E-02  3679   0.219E-01    0.957E-01
RMM:  20    -0.189578419402E+03    0.80777E-02   -0.70583E-03  3680   0.121E-01    0.618E-01
RMM:  21    -0.189577329668E+03    0.10897E-02   -0.36088E-03  3680   0.919E-02    0.525E-01
RMM:  22    -0.189575432271E+03    0.18974E-02   -0.15429E-03  3680   0.584E-02    0.371E-01
RMM:  23    -0.189574093582E+03    0.13387E-02   -0.12725E-03  3679   0.514E-02    0.236E-01
RMM:  24    -0.189573857009E+03    0.23657E-03   -0.79342E-04  3681   0.407E-02    0.142E-01
RMM:  25    -0.189573849133E+03    0.78760E-05   -0.43141E-04  3681   0.297E-02    0.599E-02
RMM:  26    -0.189574217881E+03   -0.36875E-03   -0.12726E-04  3681   0.154E-02    0.354E-02
RMM:  27    -0.189574695411E+03   -0.47753E-03   -0.10013E-04  3679   0.136E-02    0.641E-02
RMM:  28    -0.189575260027E+03   -0.56462E-03   -0.53472E-05  3672   0.108E-02    0.309E-02
RMM:  29    -0.189575671719E+03   -0.41169E-03   -0.25120E-05  3665   0.693E-03    0.246E-02
RMM:  30    -0.189576152836E+03   -0.48112E-03   -0.23266E-05  3590   0.664E-03    0.151E-02
RMM:  31    -0.189576538894E+03   -0.38606E-03   -0.18102E-05  3288   0.586E-03    0.146E-02
RMM:  32    -0.189576899868E+03   -0.36097E-03   -0.23757E-05  3345   0.656E-03    0.887E-03
RMM:  33    -0.189576988892E+03   -0.89023E-04   -0.55603E-06  2681   0.290E-03    0.611E-03
RMM:  34    -0.189577065209E+03   -0.76317E-04   -0.23700E-06  2386   0.204E-03    0.425E-03
RMM:  35    -0.189577114309E+03   -0.49100E-04   -0.97321E-07  2169   0.138E-03    0.358E-03
RMM:  36    -0.189577152977E+03   -0.38668E-04   -0.75195E-07  2151   0.120E-03    0.138E-03
RMM:  37    -0.189577176044E+03   -0.23067E-04   -0.39011E-07  2075   0.830E-04    0.149E-03
RMM:  38    -0.189577188799E+03   -0.12754E-04   -0.23474E-07  1702   0.689E-04    0.890E-04
RMM:  39    -0.189577198695E+03   -0.98958E-05   -0.24165E-07  2018   0.714E-04    0.606E-04
RMM:  40    -0.189577199720E+03   -0.10254E-05   -0.43573E-08   768   0.300E-04    0.410E-04
RMM:  41    -0.189577200298E+03   -0.57846E-06   -0.19134E-08   622   0.305E-04
   1 F= -.18957720E+03 E0= -.18944258E+03  d E =-.189577E+03
       N       E                     dE             d eps       ncg     rms          rms(c)
DAV:   1    -0.190604219334E+03   -0.10270E+01   -0.35045E+02  3672   0.287E+01    0.357E+00
RMM:   2    -0.190973157105E+03   -0.36894E+00   -0.36814E+00  3679   0.416E+00    0.241E+00
RMM:   3    -0.191106809468E+03   -0.13365E+00   -0.41689E-01  3703   0.112E+00    0.431E+00
RMM:   4    -0.190956392415E+03    0.15042E+00   -0.16966E-01  3687   0.688E-01    0.157E+00
RMM:   5    -0.191014633730E+03   -0.58241E-01   -0.98177E-02  3685   0.467E-01    0.261E+00
RMM:   6    -0.190946327698E+03    0.68306E-01   -0.54952E-02  3682   0.366E-01    0.109E+00
RMM:   7    -0.190934789133E+03    0.11539E-01   -0.17308E-02  3680   0.212E-01    0.427E-01
RMM:   8    -0.190933784198E+03    0.10049E-02   -0.50501E-03  3684   0.111E-01    0.372E-01
RMM:   9    -0.190932503009E+03    0.12812E-02   -0.25048E-03  3684   0.782E-02    0.171E-01
RMM:  10    -0.190932318416E+03    0.18459E-03   -0.80388E-04  3682   0.449E-02    0.115E-01
RMM:  11    -0.190932206254E+03    0.11216E-03   -0.22677E-04  3686   0.239E-02    0.541E-02
RMM:  12    -0.190932196757E+03    0.94969E-05   -0.53778E-05  3685   0.118E-02    0.413E-02
RMM:  13    -0.190932186578E+03    0.10180E-04   -0.27448E-05  3675   0.853E-03    0.250E-02
RMM:  14    -0.190932184907E+03    0.16704E-05   -0.13685E-05  3669   0.598E-03    0.159E-02
RMM:  15    -0.190932183132E+03    0.17752E-05   -0.43490E-06  2814   0.347E-03    0.494E-03
RMM:  16    -0.190932184070E+03   -0.93767E-06   -0.10474E-06  2017   0.179E-03
   2 F= -.19093218E+03 E0= -.19079868E+03  d E =-.135498E+01
       N       E                     dE             d eps       ncg     rms          rms(c)
DAV:   1    -0.189688329625E+03    0.12439E+01   -0.32775E+03  3672   0.899E+01    0.873E+00
RMM:   2    -0.192939306454E+03   -0.32510E+01   -0.32308E+01  3679   0.124E+01    0.628E+00
RMM:   3    -0.193699722406E+03   -0.76042E+00   -0.28851E+00  3709   0.291E+00    0.103E+01
RMM:   4    -0.192648076889E+03    0.10516E+01   -0.89188E-01  3686   0.159E+00    0.345E+00
RMM:   5    -0.193185406678E+03   -0.53733E+00   -0.62575E-01  3685   0.119E+00    0.731E+00
RMM:   6    -0.192725415635E+03    0.45999E+00   -0.48912E-01  3682   0.107E+00    0.359E+00
RMM:   7    -0.192590160042E+03    0.13526E+00   -0.17895E-01  3682   0.674E-01    0.133E+00
RMM:   8    -0.192576893150E+03    0.13267E-01   -0.59848E-02  3683   0.375E-01    0.119E+00
RMM:   9    -0.192562077962E+03    0.14815E-01   -0.22498E-02  3684   0.236E-01    0.390E-01
RMM:  10    -0.192561227418E+03    0.85054E-03   -0.48786E-03  3683   0.109E-01    0.267E-01
RMM:  11    -0.192560712691E+03    0.51473E-03   -0.16761E-03  3683   0.660E-02    0.156E-01
RMM:  12    -0.192560613264E+03    0.99427E-04   -0.47800E-04  3684   0.360E-02    0.102E-01
RMM:  13    -0.192560557579E+03    0.55685E-04   -0.25684E-04  3679   0.261E-02    0.598E-02
RMM:  14    -0.192560545992E+03    0.11587E-04   -0.81719E-05  3679   0.145E-02    0.377E-02
RMM:  15    -0.192560538256E+03    0.77354E-05   -0.23214E-05  3677   0.776E-03    0.192E-02
RMM:  16    -0.192560543111E+03   -0.48546E-05   -0.78381E-06  3198   0.454E-03    0.157E-02
RMM:  17    -0.192560546021E+03   -0.29098E-05   -0.33445E-06  2507   0.309E-03    0.652E-03
RMM:  18    -0.192560551507E+03   -0.54865E-05   -0.12167E-06  2097   0.192E-03    0.542E-03
RMM:  19    -0.192560555450E+03   -0.39424E-05   -0.48942E-07  2050   0.128E-03    0.245E-03
RMM:  20    -0.192560559711E+03   -0.42616E-05   -0.19819E-07  1737   0.716E-04    0.197E-03
RMM:  21    -0.192560563311E+03   -0.36000E-05   -0.11277E-07  1327   0.570E-04    0.865E-04
RMM:  22    -0.192560568778E+03   -0.54669E-05   -0.16269E-07  1683   0.554E-04    0.914E-04
RMM:  23    -0.192560573434E+03   -0.46559E-05   -0.19061E-07  1471   0.521E-04    0.962E-04
RMM:  24    -0.192560577941E+03   -0.45063E-05   -0.24483E-07  1475   0.556E-04    0.481E-04
RMM:  25    -0.192560579596E+03   -0.16558E-05   -0.12942E-07  1173   0.456E-04    0.416E-04
RMM:  26    -0.192560580597E+03   -0.10009E-05   -0.96710E-08  1082   0.417E-04    0.324E-04
RMM:  27    -0.192560580958E+03   -0.36038E-06   -0.45696E-08   754   0.346E-04
   3 F= -.19256058E+03 E0= -.19243144E+03  d E =-.298338E+01
       N       E                     dE             d eps       ncg     rms          rms(c)
DAV:   1    -0.192707037676E+03   -0.14646E+00   -0.21772E+02  3672   0.228E+01    0.204E+00
RMM:   2    -0.192951007674E+03   -0.24397E+00   -0.24838E+00  3683   0.335E+00    0.166E+00
RMM:   3    -0.192998969866E+03   -0.47962E-01   -0.21282E-01  3712   0.792E-01    0.279E+00
RMM:   4    -0.192941542424E+03    0.57427E-01   -0.53074E-02  3687   0.388E-01    0.121E+00
RMM:   5    -0.192938979726E+03    0.25627E-02   -0.23332E-02  3688   0.233E-01    0.112E+00
RMM:   6    -0.192936403099E+03    0.25766E-02   -0.32212E-02  3681   0.282E-01    0.974E-01
RMM:   7    -0.192926983343E+03    0.94198E-02   -0.12886E-02  3681   0.182E-01    0.324E-01
RMM:   8    -0.192926241407E+03    0.74194E-03   -0.32259E-03  3683   0.908E-02    0.259E-01
RMM:   9    -0.192925403874E+03    0.83753E-03   -0.14244E-03  3680   0.600E-02    0.997E-02
RMM:  10    -0.192925306689E+03    0.97185E-04   -0.32002E-04  3683   0.272E-02    0.536E-02
RMM:  11    -0.192925283985E+03    0.22704E-04   -0.86629E-05  3683   0.146E-02    0.355E-02
RMM:  12    -0.192925282321E+03    0.16636E-05   -0.38047E-05  3681   0.971E-03    0.292E-02
RMM:  13    -0.192925276825E+03    0.54961E-05   -0.16875E-05  3676   0.659E-03    0.152E-02
RMM:  14    -0.192925276974E+03   -0.14861E-06   -0.43125E-06  2756   0.353E-03
   4 F= -.19292528E+03 E0= -.19279952E+03  d E =-.364696E+00
       N       E                     dE             d eps       ncg     rms          rms(c)
DAV:   1    -0.192905367466E+03    0.19909E-01   -0.69767E+01  3684   0.129E+01    0.108E+00
RMM:   2    -0.192984126242E+03   -0.78759E-01   -0.80241E-01  3682   0.191E+00    0.930E-01
RMM:   3    -0.192997623117E+03   -0.13497E-01   -0.65866E-02  3715   0.442E-01    0.152E+00
RMM:   4    -0.192981254189E+03    0.16369E-01   -0.15280E-02  3686   0.208E-01    0.686E-01
RMM:   5    -0.192978936141E+03    0.23180E-02   -0.59153E-03  3689   0.119E-01    0.529E-01
RMM:   6    -0.192978576790E+03    0.35935E-03   -0.10022E-02  3681   0.158E-01    0.473E-01
RMM:   7    -0.192976459992E+03    0.21168E-02   -0.37584E-03  3681   0.980E-02    0.186E-01
RMM:   8    -0.192976191960E+03    0.26803E-03   -0.94554E-04  3683   0.494E-02    0.136E-01
RMM:   9    -0.192975955664E+03    0.23630E-03   -0.40678E-04  3680   0.322E-02    0.572E-02
RMM:  10    -0.192975922584E+03    0.33080E-04   -0.95333E-05  3682   0.148E-02    0.315E-02
RMM:  11    -0.192975914594E+03    0.79901E-05   -0.28890E-05  3680   0.839E-03    0.208E-02
RMM:  12    -0.192975914051E+03    0.54254E-06   -0.13743E-05  3672   0.576E-03    0.157E-02
RMM:  13    -0.192975913270E+03    0.78129E-06   -0.60984E-06  3321   0.396E-03
   5 F= -.19297591E+03 E0= -.19285189E+03  d E =-.415332E+00
       N       E                     dE             d eps       ncg     rms          rms(c)
DAV:   1    -0.192986653447E+03   -0.10739E-01   -0.35605E+01  3696   0.917E+00    0.702E-01
RMM:   2    -0.193023913056E+03   -0.37260E-01   -0.39021E-01  3683   0.135E+00    0.490E-01
RMM:   3    -0.193027882348E+03   -0.39693E-02   -0.24963E-02  3723   0.282E-01    0.787E-01
RMM:   4    -0.193023612588E+03    0.42698E-02   -0.57516E-03  3681   0.129E-01    0.434E-01
RMM:   5    -0.193024396128E+03   -0.78354E-03   -0.42313E-03  3684   0.998E-02    0.493E-01
RMM:   6    -0.193022817012E+03    0.15791E-02   -0.47297E-03  3682   0.108E-01    0.325E-01
RMM:   7    -0.193021899951E+03    0.91706E-03   -0.19586E-03  3681   0.704E-02    0.145E-01
RMM:   8    -0.193021720145E+03    0.17981E-03   -0.40315E-04  3683   0.331E-02    0.775E-02
RMM:   9    -0.193021659940E+03    0.60205E-04   -0.18548E-04  3680   0.216E-02    0.580E-02
RMM:  10    -0.193021614262E+03    0.45678E-04   -0.78327E-05  3681   0.135E-02    0.220E-02
RMM:  11    -0.193021610194E+03    0.40686E-05   -0.17771E-05  3675   0.658E-03    0.138E-02
RMM:  12    -0.193021609817E+03    0.37681E-06   -0.83612E-06  3672   0.438E-03
   6 F= -.19302161E+03 E0= -.19289822E+03  d E =-.456965E-01
       N       E                     dE             d eps       ncg     rms          rms(c)
DAV:   1    -0.193018754002E+03    0.28562E-02   -0.82543E+00  3732   0.441E+00    0.330E-01
RMM:   2    -0.193027416989E+03   -0.86630E-02   -0.90795E-02  3683   0.649E-01    0.238E-01
RMM:   3    -0.193028437067E+03   -0.10201E-02   -0.59114E-03  3723   0.137E-01    0.400E-01
RMM:   4    -0.193027284962E+03    0.11521E-02   -0.13157E-03  3681   0.618E-02    0.202E-01
RMM:   5    -0.193027459293E+03   -0.17433E-03   -0.90457E-04  3684   0.462E-02    0.227E-01
RMM:   6    -0.193027114964E+03    0.34433E-03   -0.11134E-03  3683   0.522E-02    0.151E-01
RMM:   7    -0.193026933817E+03    0.18115E-03   -0.46714E-04  3681   0.344E-02    0.718E-02
RMM:   8    -0.193026888985E+03    0.44833E-04   -0.94295E-05  3682   0.160E-02    0.367E-02
RMM:   9    -0.193026876359E+03    0.12626E-04   -0.42668E-05  3679   0.104E-02    0.290E-02
RMM:  10    -0.193026864938E+03    0.11420E-04   -0.18262E-05  3672   0.652E-03    0.111E-02
RMM:  11    -0.193026863931E+03    0.10073E-05   -0.41901E-06  2757   0.330E-03    0.718E-03
RMM:  12    -0.193026863792E+03    0.13922E-06   -0.22925E-06  2040   0.258E-03
   7 F= -.19302686E+03 E0= -.19290377E+03  d E =-.509505E-01
       N       E                     dE             d eps       ncg     rms          rms(c)
DAV:   1    -0.193030355268E+03   -0.34913E-02   -0.97515E+00  3672   0.477E+00    0.332E-01
RMM:   2    -0.193040482509E+03   -0.10127E-01   -0.10632E-01  3682   0.703E-01    0.271E-01
RMM:   3    -0.193040654503E+03   -0.17199E-03   -0.64164E-03  3726   0.145E-01    0.247E-01
RMM:   4    -0.193040352117E+03    0.30239E-03   -0.15316E-03  3673   0.660E-02    0.233E-01
RMM:   5    -0.193040903156E+03   -0.55104E-03   -0.12778E-03  3685   0.554E-02    0.327E-01
RMM:   6    -0.193040066867E+03    0.83629E-03   -0.13243E-03  3681   0.560E-02    0.161E-01
RMM:   7    -0.193039901173E+03    0.16569E-03   -0.49445E-04  3682   0.354E-02    0.830E-02
RMM:   8    -0.193039831115E+03    0.70059E-04   -0.11025E-04  3682   0.170E-02    0.378E-02
RMM:   9    -0.193039810928E+03    0.20187E-04   -0.55163E-05  3681   0.115E-02    0.293E-02
RMM:  10    -0.193039798048E+03    0.12879E-04   -0.27703E-05  3679   0.800E-03    0.137E-02
RMM:  11    -0.193039796568E+03    0.14804E-05   -0.73180E-06  3563   0.417E-03    0.829E-03
RMM:  12    -0.193039796052E+03    0.51544E-06   -0.30095E-06  2153   0.282E-03
   8 F= -.19303980E+03 E0= -.19291680E+03  d E =-.129323E-01
       N       E                     dE             d eps       ncg     rms          rms(c)
DAV:   1    -0.193037845384E+03    0.19512E-02   -0.52152E+00  3696   0.349E+00    0.239E-01
RMM:   2    -0.193043258649E+03   -0.54133E-02   -0.56880E-02  3682   0.514E-01    0.197E-01
RMM:   3    -0.193043330867E+03   -0.72217E-04   -0.34130E-03  3728   0.106E-01    0.176E-01
RMM:   4    -0.193043156494E+03    0.17437E-03   -0.78748E-04  3674   0.474E-02    0.160E-01
RMM:   5    -0.193043475720E+03   -0.31923E-03   -0.70319E-04  3685   0.413E-02    0.238E-01
RMM:   6    -0.193043040069E+03    0.43565E-03   -0.66970E-04  3681   0.397E-02    0.120E-01
RMM:   7    -0.193042950254E+03    0.89815E-04   -0.25740E-04  3682   0.254E-02    0.620E-02
RMM:   8    -0.193042910873E+03    0.39381E-04   -0.57946E-05  3681   0.124E-02    0.274E-02
RMM:   9    -0.193042900284E+03    0.10589E-04   -0.30303E-05  3680   0.848E-03    0.221E-02
RMM:  10    -0.193042893308E+03    0.69756E-05   -0.14802E-05  3672   0.586E-03    0.108E-02
RMM:  11    -0.193042892487E+03    0.82125E-06   -0.34376E-06  2443   0.299E-03
   9 F= -.19304289E+03 E0= -.19291994E+03  d E =-.160287E-01
       N       E                     dE             d eps       ncg     rms          rms(c)
DAV:   1    -0.193042651602E+03    0.24171E-03   -0.78559E+00  3672   0.430E+00    0.263E-01
RMM:   2    -0.193051175583E+03   -0.85240E-02   -0.87573E-02  3680   0.637E-01    0.277E-01
RMM:   3    -0.193051409772E+03   -0.23419E-03   -0.58346E-03  3751   0.136E-01    0.272E-01
RMM:   4    -0.193051092023E+03    0.31775E-03   -0.99438E-04  3675   0.521E-02    0.242E-01
RMM:   5    -0.193050705275E+03    0.38675E-03   -0.57642E-04  3685   0.378E-02    0.171E-01
RMM:   6    -0.193050630839E+03    0.74437E-04   -0.11744E-03  3681   0.530E-02    0.148E-01
RMM:   7    -0.193050499780E+03    0.13106E-03   -0.70375E-04  3681   0.414E-02    0.837E-02
RMM:   8    -0.193050450026E+03    0.49754E-04   -0.12557E-04  3684   0.182E-02    0.437E-02
RMM:   9    -0.193050430027E+03    0.19999E-04   -0.33502E-05  3679   0.923E-03    0.359E-02
RMM:  10    -0.193050412271E+03    0.17756E-04   -0.30843E-05  3680   0.846E-03    0.204E-02
RMM:  11    -0.193050407047E+03    0.52238E-05   -0.14840E-05  3673   0.579E-03    0.102E-02
RMM:  12    -0.193050406115E+03    0.93257E-06   -0.91488E-06  3672   0.448E-03
  10 F= -.19305041E+03 E0= -.19292731E+03  d E =-.751363E-02
       N       E                     dE             d eps       ncg     rms          rms(c)
DAV:   1    -0.193048385711E+03    0.20213E-02   -0.38719E+00  3672   0.302E+00    0.183E-01
RMM:   2    -0.193052584532E+03   -0.41988E-02   -0.43136E-02  3680   0.447E-01    0.196E-01
RMM:   3    -0.193052679792E+03   -0.95260E-04   -0.28787E-03  3753   0.954E-02    0.189E-01
RMM:   4    -0.193052527448E+03    0.15234E-03   -0.48079E-04  3675   0.363E-02    0.169E-01
RMM:   5    -0.193052341661E+03    0.18579E-03   -0.27650E-04  3685   0.262E-02    0.120E-01
RMM:   6    -0.193052312422E+03    0.29238E-04   -0.57995E-04  3680   0.373E-02    0.107E-01
RMM:   7    -0.193052245938E+03    0.66484E-04   -0.36108E-04  3682   0.297E-02    0.591E-02
RMM:   8    -0.193052222808E+03    0.23130E-04   -0.62982E-05  3685   0.129E-02    0.310E-02
RMM:   9    -0.193052212916E+03    0.98924E-05   -0.16564E-05  3676   0.652E-03    0.256E-02
RMM:  10    -0.193052203541E+03    0.93752E-05   -0.15789E-05  3674   0.604E-03    0.141E-02
RMM:  11    -0.193052201197E+03    0.23443E-05   -0.72949E-06  3477   0.407E-03    0.749E-03
RMM:  12    -0.193052200773E+03    0.42311E-06   -0.44541E-06  2908   0.326E-03
  11 F= -.19305220E+03 E0= -.19292897E+03  d E =-.930829E-02
       N       E                     dE             d eps       ncg     rms          rms(c)
DAV:   1    -0.193051264305E+03    0.93689E-03   -0.50980E+00  3672   0.348E+00    0.189E-01
RMM:   2    -0.193057048346E+03   -0.57840E-02   -0.57807E-02  3679   0.515E-01    0.253E-01
RMM:   3    -0.193056979585E+03    0.68762E-04   -0.40669E-03  3735   0.112E-01    0.223E-01
RMM:   4    -0.193056647919E+03    0.33167E-03   -0.44757E-04  3678   0.366E-02    0.138E-01
RMM:   5    -0.193056574029E+03    0.73890E-04   -0.17411E-04  3685   0.210E-02    0.127E-01
RMM:   6    -0.193056485451E+03    0.88578E-04   -0.40860E-04  3680   0.312E-02    0.112E-01
RMM:   7    -0.193056428417E+03    0.57034E-04   -0.65468E-04  3679   0.394E-02    0.657E-02
RMM:   8    -0.193056415605E+03    0.12812E-04   -0.12520E-04  3676   0.177E-02    0.394E-02
RMM:   9    -0.193056403616E+03    0.11989E-04   -0.18530E-05  3675   0.700E-03    0.276E-02
RMM:  10    -0.193056392959E+03    0.10657E-04   -0.16000E-05  3673   0.619E-03    0.182E-02
RMM:  11    -0.193056388597E+03    0.43620E-05   -0.11703E-05  3672   0.514E-03    0.935E-03
RMM:  12    -0.193056388229E+03    0.36804E-06   -0.71007E-06  3510   0.397E-03
  12 F= -.19305639E+03 E0= -.19293296E+03  d E =-.418746E-02
       N       E                     dE             d eps       ncg     rms          rms(c)
DAV:   1    -0.193052981951E+03    0.34066E-02   -0.50899E+00  3672   0.348E+00    0.189E-01
RMM:   2    -0.193058779307E+03   -0.57974E-02   -0.57719E-02  3679   0.515E-01    0.257E-01
RMM:   3    -0.193058681292E+03    0.98014E-04   -0.40821E-03  3735   0.112E-01    0.222E-01
RMM:   4    -0.193058355413E+03    0.32588E-03   -0.44310E-04  3678   0.365E-02    0.138E-01
RMM:   5    -0.193058278833E+03    0.76579E-04   -0.17212E-04  3685   0.209E-02    0.126E-01
RMM:   6    -0.193058192022E+03    0.86811E-04   -0.41337E-04  3681   0.314E-02    0.112E-01
RMM:   7    -0.193058133948E+03    0.58075E-04   -0.65642E-04  3680   0.395E-02    0.659E-02
RMM:   8    -0.193058121038E+03    0.12910E-04   -0.12416E-04  3676   0.176E-02    0.396E-02
RMM:   9    -0.193058109072E+03    0.11966E-04   -0.18548E-05  3675   0.701E-03    0.276E-02
RMM:  10    -0.193058098625E+03    0.10446E-04   -0.15784E-05  3672   0.615E-03    0.184E-02
RMM:  11    -0.193058094184E+03    0.44416E-05   -0.11827E-05  3672   0.517E-03    0.948E-03
RMM:  12    -0.193058093821E+03    0.36252E-06   -0.68706E-06  3463   0.391E-03
  13 F= -.19305809E+03 E0= -.19293445E+03  d E =-.589305E-02
       N       E                     dE             d eps       ncg     rms          rms(c)
DAV:   1    -0.193053805304E+03    0.42889E-02   -0.70387E+00  3672   0.410E+00    0.213E-01
RMM:   2    -0.193062067992E+03   -0.82627E-02   -0.80973E-02  3678   0.607E-01    0.332E-01
RMM:   3    -0.193061735048E+03    0.33294E-03   -0.57556E-03  3732   0.132E-01    0.250E-01
RMM:   4    -0.193061341735E+03    0.39331E-03   -0.59409E-04  3677   0.422E-02    0.167E-01
RMM:   5    -0.193061183687E+03    0.15805E-03   -0.19642E-04  3686   0.227E-02    0.138E-01
RMM:   6    -0.193061121037E+03    0.62651E-04   -0.55903E-04  3680   0.364E-02    0.145E-01
RMM:   7    -0.193060981696E+03    0.13934E-03   -0.10132E-03  3679   0.488E-02    0.676E-02
RMM:   8    -0.193060988542E+03   -0.68459E-05   -0.16783E-04  3673   0.203E-02    0.500E-02
RMM:   9    -0.193060969840E+03    0.18702E-04   -0.25292E-05  3684   0.821E-03    0.340E-02
RMM:  10    -0.193060955934E+03    0.13907E-04   -0.17505E-05  3672   0.652E-03    0.242E-02
RMM:  11    -0.193060947313E+03    0.86209E-05   -0.21051E-05  3674   0.685E-03    0.127E-02
RMM:  12    -0.193060946228E+03    0.10846E-05   -0.12569E-05  3672   0.526E-03    0.855E-03
RMM:  13    -0.193060945990E+03    0.23820E-06   -0.28501E-06  2283   0.273E-03
  14 F= -.19306095E+03 E0= -.19293712E+03  d E =-.285217E-02
       N       E                     dE             d eps       ncg     rms          rms(c)
DAV:   1    -0.193060889149E+03    0.57079E-04   -0.11361E-01  3744   0.520E-01    0.271E-02
RMM:   2    -0.193061021123E+03   -0.13197E-03   -0.13013E-03  3678   0.771E-02    0.444E-02
RMM:   3    -0.193061011501E+03    0.96216E-05   -0.93028E-05  3732   0.169E-02    0.312E-02
RMM:   4    -0.193061005991E+03    0.55099E-05   -0.90208E-06  3634   0.521E-03    0.213E-02
RMM:   5    -0.193061004258E+03    0.17327E-05   -0.27255E-06  2377   0.280E-03    0.181E-02
RMM:   6    -0.193061005060E+03   -0.80191E-06   -0.98521E-06  3645   0.494E-03
  15 F= -.19306101E+03 E0= -.19293713E+03  d E =-.291124E-02
       N       E                     dE             d eps       ncg     rms          rms(c)
DAV:   1    -0.193058241883E+03    0.27624E-02   -0.47152E+00  3672   0.335E+00    0.176E-01
RMM:   2    -0.193063816586E+03   -0.55747E-02   -0.53330E-02  3679   0.496E-01    0.291E-01
RMM:   3    -0.193063499632E+03    0.31695E-03   -0.38056E-03  3760   0.108E-01    0.199E-01
RMM:   4    -0.193063280078E+03    0.21955E-03   -0.42539E-04  3676   0.350E-02    0.153E-01
RMM:   5    -0.193063131583E+03    0.14849E-03   -0.15701E-04  3686   0.205E-02    0.118E-01
RMM:   6    -0.193063180648E+03   -0.49066E-04   -0.61149E-04  3680   0.378E-02    0.148E-01
RMM:   7    -0.193063012333E+03    0.16832E-03   -0.67700E-04  3684   0.401E-02    0.523E-02
RMM:   8    -0.193063023442E+03   -0.11109E-04   -0.85218E-05  3681   0.146E-02    0.428E-02
RMM:   9    -0.193063010178E+03    0.13264E-04   -0.13276E-05  3670   0.603E-03    0.302E-02
RMM:  10    -0.193063000309E+03    0.98684E-05   -0.11088E-05  3669   0.520E-03    0.225E-02
RMM:  11    -0.193062990428E+03    0.98816E-05   -0.32454E-05  3677   0.848E-03    0.827E-03
RMM:  12    -0.193062990282E+03    0.14539E-06   -0.58408E-06  3244   0.365E-03
  16 F= -.19306299E+03 E0= -.19293904E+03  d E =-.198522E-02
       N       E                     dE             d eps       ncg     rms          rms(c)
DAV:   1    -0.193061993488E+03    0.99694E-03   -0.13314E+00  3672   0.178E+00    0.921E-02
RMM:   2    -0.193063551436E+03   -0.15579E-02   -0.15021E-02  3679   0.264E-01    0.154E-01
RMM:   3    -0.193063457000E+03    0.94435E-04   -0.10604E-03  3762   0.573E-02    0.105E-01
RMM:   4    -0.193063396526E+03    0.60475E-04   -0.11327E-04  3676   0.182E-02    0.797E-02
RMM:   5    -0.193063362597E+03    0.33929E-04   -0.41296E-05  3687   0.105E-02    0.640E-02
RMM:   6    -0.193063380061E+03   -0.17464E-04   -0.16838E-04  3680   0.198E-02    0.798E-02
RMM:   7    -0.193063335844E+03    0.44217E-04   -0.20831E-04  3678   0.223E-02    0.288E-02
RMM:   8    -0.193063339536E+03   -0.36926E-05   -0.27228E-05  3672   0.824E-03    0.231E-02
RMM:   9    -0.193063335687E+03    0.38498E-05   -0.38618E-06  2732   0.332E-03    0.166E-02
RMM:  10    -0.193063332720E+03    0.29664E-05   -0.30652E-06  2410   0.292E-03    0.126E-02
RMM:  11    -0.193063329723E+03    0.29971E-05   -0.98612E-06  3672   0.485E-03    0.500E-03
RMM:  12    -0.193063329628E+03    0.95373E-07   -0.19031E-06  1980   0.224E-03
  17 F= -.19306333E+03 E0= -.19293932E+03  d E =-.232457E-02
       N       E                     dE             d eps       ncg     rms          rms(c)
DAV:   1    -0.193059627813E+03    0.37019E-02   -0.54450E+00  3672   0.360E+00    0.168E-01
RMM:   2    -0.193065619180E+03   -0.59914E-02   -0.59906E-02  3678   0.529E-01    0.231E-01
RMM:   3    -0.193065581641E+03    0.37540E-04   -0.39711E-03  3770   0.112E-01    0.203E-01
RMM:   4    -0.193065294106E+03    0.28753E-03   -0.41699E-04  3674   0.351E-02    0.142E-01
RMM:   5    -0.193065170923E+03    0.12318E-03   -0.12111E-04  3690   0.183E-02    0.113E-01
RMM:   6    -0.193065150873E+03    0.20050E-04   -0.56471E-04  3681   0.366E-02    0.132E-01
RMM:   7    -0.193065015964E+03    0.13491E-03   -0.70631E-04  3684   0.408E-02    0.509E-02
RMM:   8    -0.193065036455E+03   -0.20491E-04   -0.99560E-05  3682   0.158E-02    0.456E-02
RMM:   9    -0.193065020282E+03    0.16172E-04   -0.16000E-05  3674   0.668E-03    0.305E-02
RMM:  10    -0.193065012058E+03    0.82243E-05   -0.10617E-05  3672   0.510E-03    0.236E-02
RMM:  11    -0.193065002208E+03    0.98499E-05   -0.36327E-05  3677   0.901E-03    0.734E-03
RMM:  12    -0.193065002289E+03   -0.80225E-07   -0.53817E-06  3141   0.356E-03
  18 F= -.19306500E+03 E0= -.19294107E+03  d E =-.167266E-02
       N       E                     dE             d eps       ncg     rms          rms(c)
DAV:   1    -0.193064829413E+03    0.17280E-03   -0.27781E-01  3732   0.813E-01    0.377E-02
RMM:   2    -0.193065132241E+03   -0.30283E-03   -0.30427E-03  3678   0.120E-01    0.541E-02
RMM:   3    -0.193065123375E+03    0.88663E-05   -0.20157E-04  3772   0.252E-02    0.445E-02
RMM:   4    -0.193065110086E+03    0.13289E-04   -0.19446E-05  3664   0.764E-03    0.318E-02
RMM:   5    -0.193065105440E+03    0.46459E-05   -0.52378E-06  2911   0.388E-03    0.264E-02
RMM:   6    -0.193065107578E+03   -0.21377E-05   -0.29874E-05  3676   0.848E-03    0.312E-02
RMM:   7    -0.193065101638E+03    0.59404E-05   -0.41590E-05  3677   0.989E-03    0.118E-02
RMM:   8    -0.193065102719E+03   -0.10812E-05   -0.51195E-06  2896   0.366E-03    0.102E-02
RMM:   9    -0.193065101911E+03    0.80784E-06   -0.96708E-07  1953   0.185E-03
  19 F= -.19306510E+03 E0= -.19294118E+03  d E =-.177228E-02
       N       E                     dE             d eps       ncg     rms          rms(c)
DAV:   1    -0.193061717476E+03    0.33852E-02   -0.47051E+00  3672   0.335E+00    0.154E-01
RMM:   2    -0.193066699452E+03   -0.49820E-02   -0.51174E-02  3678   0.490E-01    0.157E-01
RMM:   3    -0.193066701073E+03   -0.16207E-05   -0.31279E-03  3762   0.100E-01    0.137E-01
RMM:   4    -0.193066527628E+03    0.17344E-03   -0.29102E-04  3674   0.303E-02    0.103E-01
RMM:   5    -0.193066531761E+03   -0.41324E-05   -0.12445E-04  3687   0.178E-02    0.117E-01
RMM:   6    -0.193066469482E+03    0.62278E-04   -0.44670E-04  3680   0.324E-02    0.121E-01
RMM:   7    -0.193066375036E+03    0.94447E-04   -0.43118E-04  3682   0.320E-02    0.447E-02
RMM:   8    -0.193066387799E+03   -0.12763E-04   -0.61082E-05  3680   0.125E-02    0.371E-02
RMM:   9    -0.193066376194E+03    0.11605E-04   -0.11900E-05  3644   0.568E-03    0.244E-02
RMM:  10    -0.193066370812E+03    0.53829E-05   -0.10753E-05  3672   0.509E-03    0.195E-02
RMM:  11    -0.193066365608E+03    0.52038E-05   -0.16282E-05  3675   0.607E-03    0.718E-03
RMM:  12    -0.193066365368E+03    0.24015E-06   -0.42379E-06  2768   0.322E-03
  20 F= -.19306637E+03 E0= -.19294250E+03  d E =-.126346E-02
       N       E                     dE             d eps       ncg     rms          rms(c)
DAV:   1    -0.193065872017E+03    0.49359E-03   -0.61690E-01  3672   0.121E+00    0.547E-02
RMM:   2    -0.193066519897E+03   -0.64788E-03   -0.66689E-03  3678   0.178E-01    0.600E-02
RMM:   3    -0.193066512078E+03    0.78184E-05   -0.41006E-04  3767   0.363E-02    0.506E-02
RMM:   4    -0.193066490329E+03    0.21749E-04   -0.36631E-05  3674   0.107E-02    0.398E-02
RMM:   5    -0.193066488699E+03    0.16300E-05   -0.12446E-05  3677   0.568E-03    0.416E-02
RMM:   6    -0.193066484181E+03    0.45185E-05   -0.59212E-05  3679   0.119E-02    0.434E-02
RMM:   7    -0.193066473879E+03    0.10302E-04   -0.72701E-05  3681   0.131E-02    0.168E-02
RMM:   8    -0.193066475530E+03   -0.16503E-05   -0.95913E-06  3589   0.494E-03    0.143E-02
RMM:   9    -0.193066473840E+03    0.16896E-05   -0.15733E-06  2069   0.218E-03    0.961E-03
RMM:  10    -0.193066473108E+03    0.73171E-06   -0.11804E-06  1949   0.188E-03
  21 F= -.19306647E+03 E0= -.19294264E+03  d E =-.137120E-02
       N       E                     dE             d eps       ncg     rms          rms(c)
DAV:   1    -0.193061847625E+03    0.46262E-02   -0.53528E+00  3672   0.357E+00    0.161E-01
RMM:   2    -0.193067627410E+03   -0.57798E-02   -0.59117E-02  3678   0.526E-01    0.187E-01
RMM:   3    -0.193067596285E+03    0.31125E-04   -0.37115E-03  3803   0.109E-01    0.150E-01
RMM:   4    -0.193067437934E+03    0.15835E-03   -0.33030E-04  3675   0.319E-02    0.127E-01
RMM:   5    -0.193067417670E+03    0.20264E-04   -0.14385E-04  3691   0.192E-02    0.136E-01
RMM:   6    -0.193067348768E+03    0.68902E-04   -0.53913E-04  3681   0.357E-02    0.138E-01
RMM:   7    -0.193067202015E+03    0.14675E-03   -0.63186E-04  3684   0.387E-02    0.560E-02
RMM:   8    -0.193067222398E+03   -0.20383E-04   -0.11650E-04  3682   0.170E-02    0.475E-02
RMM:   9    -0.193067204834E+03    0.17564E-04   -0.16128E-05  3677   0.665E-03    0.329E-02
RMM:  10    -0.193067192327E+03    0.12508E-04   -0.17554E-05  3672   0.648E-03    0.250E-02
RMM:  11    -0.193067182143E+03    0.10184E-04   -0.32543E-05  3674   0.848E-03    0.886E-03
RMM:  12    -0.193067181770E+03    0.37289E-06   -0.78172E-06  3628   0.420E-03
  22 F= -.19306718E+03 E0= -.19294352E+03  d E =-.708662E-03
       N       E                     dE             d eps       ncg     rms          rms(c)
DAV:   1    -0.193067092407E+03    0.89736E-04   -0.99943E-02  3732   0.488E-01    0.235E-02
RMM:   2    -0.193067200951E+03   -0.10854E-03   -0.11199E-03  3678   0.719E-02    0.259E-02
RMM:   3    -0.193067200248E+03    0.70279E-06   -0.72989E-05  3772   0.152E-02    0.213E-02
RMM:   4    -0.193067196674E+03    0.35738E-05   -0.68792E-06  3445   0.468E-03    0.155E-02
RMM:   5    -0.193067196788E+03   -0.11388E-06   -0.34330E-06  2567   0.312E-03
  23 F= -.19306720E+03 E0= -.19294351E+03  d E =-.723680E-03
       N       E                     dE             d eps       ncg     rms          rms(c)
DAV:   1    -0.193066281988E+03    0.91469E-03   -0.11977E+00  3672   0.169E+00    0.101E-01
RMM:   2    -0.193067682081E+03   -0.14001E-02   -0.13805E-02  3681   0.250E-01    0.132E-01
RMM:   3    -0.193067724375E+03   -0.42293E-04   -0.10087E-03  3737   0.550E-02    0.137E-01
RMM:   4    -0.193067565769E+03    0.15861E-03   -0.14348E-04  3682   0.200E-02    0.684E-02
RMM:   5    -0.193067544920E+03    0.20849E-04   -0.77941E-05  3683   0.142E-02    0.611E-02
RMM:   6    -0.193067557510E+03   -0.12590E-04   -0.17376E-04  3680   0.203E-02    0.703E-02
RMM:   7    -0.193067515802E+03    0.41708E-04   -0.11727E-04  3683   0.169E-02    0.230E-02
RMM:   8    -0.193067516195E+03   -0.39311E-06   -0.14031E-05  3654   0.598E-03    0.196E-02
RMM:   9    -0.193067511974E+03    0.42209E-05   -0.35747E-06  2634   0.315E-03    0.120E-02
RMM:  10    -0.193067510279E+03    0.16951E-05   -0.24709E-06  2071   0.269E-03    0.866E-03
RMM:  11    -0.193067508921E+03    0.13574E-05   -0.57047E-06  3372   0.372E-03    0.330E-03
RMM:  12    -0.193067508857E+03    0.64923E-07   -0.91588E-07  1933   0.165E-03
  24 F= -.19306751E+03 E0= -.19294394E+03  d E =-.312069E-03
