<?xml version="1.0" encoding="ISO-8859-1"?>
<modeling>
 <generator>
  <i name="program" type="string">vasp </i>
  <i name="version" type="string">5.4.1  </i>
  <i name="subversion" type="string">24Jun15 (build Mar 14 2019 10:18:33) complex                          parallel </i>
  <i name="platform" type="string">INTEL-19.0.2+OPENMPI-3.1.3 </i>
  <i name="date" type="string">2022 07 15 </i>
  <i name="time" type="string">16:44:01 </i>
 </generator>
 <incar>
  <i type="int" name="ISTART">     0</i>
  <i type="string" name="PREC">normal</i>
  <i type="string" name="ALGO"> Fast</i>
  <i type="int" name="NELM">   500</i>
  <i type="int" name="IBRION">     2</i>
  <i type="int" name="NFREE">     2</i>
  <i name="EDIFF">      0.00000100</i>
  <i name="EDIFFG">     -0.02000000</i>
  <i type="int" name="NSW">   500</i>
  <i type="int" name="ISIF">     0</i>
  <i type="int" name="ISYM">     2</i>
  <i name="ENCUT">    400.00000000</i>
  <i name="POTIM">      0.35000000</i>
  <i type="string" name="LREAL"> Auto</i>
  <i type="logical" name="LPLANE"> T  </i>
  <i type="int" name="ISMEAR">     0</i>
  <i name="SIGMA">      0.10000000</i>
  <i type="int" name="NWRITE">     1</i>
  <i type="logical" name="LWAVE"> F  </i>
  <i type="logical" name="LCHARG"> F  </i>
  <i type="logical" name="LVTOT"> F  </i>
  <i type="logical" name="LORBIT"> F  </i>
  <i type="logical" name="LAECHG"> F  </i>
  <v type="int" name="KPOINT_BSE">    -1     0     0     0</v>
  <i type="int" name="NELM">   500</i>
  <i type="string" name="GGA"> PE          ! optPBE-vdW XC-functional</i>
  <i type="int" name="VOSKOWN">     1</i>
  <i type="logical" name="LDIPOL"> T  </i>
  <i type="logical" name="LMONO"> F  </i>
  <i type="int" name="IDIPOL">     3</i>
  <v name="DIPOL">      0.00000000      0.00000000      0.50000000</v>
 </incar>
 <kpoints>
  <generation param="Monkhorst-Pack">
   <v type="int" name="divisions">       2        2        1 </v>
   <v name="usershift">      0.00000000       0.00000000       0.00000000 </v>
   <v name="genvec1">      0.50000000      -0.00000000       0.00000000 </v>
   <v name="genvec2">      0.00000000       0.50000000       0.00000000 </v>
   <v name="genvec3">      0.00000000       0.00000000       1.00000000 </v>
   <v name="shift">      0.50000000       0.50000000       0.00000000 </v>
  </generation>
  <varray name="kpointlist" >
   <v>       0.25000000       0.25000000       0.00000000 </v>
   <v>       0.00000000       0.25000000       0.00000000 </v>
   <v>      -0.25000000       0.00000000       0.00000000 </v>
   <v>      -0.25000000       0.25000000       0.00000000 </v>
   <v>       0.50000000      -0.25000000       0.00000000 </v>
   <v>      -0.25000000       0.50000000       0.00000000 </v>
  </varray>
  <varray name="weights" >
   <v>       0.16666667 </v>
   <v>       0.16666667 </v>
   <v>       0.16666667 </v>
   <v>       0.16666667 </v>
   <v>       0.16666667 </v>
   <v>       0.16666667 </v>
  </varray>
 </kpoints>
 <parameters>
  <separator name="general" >
   <i type="string" name="SYSTEM">unknown system</i>
   <i type="logical" name="LCOMPAT"> F  </i>
  </separator>
  <separator name="electronic" >
   <i type="string" name="PREC">normal</i>
   <i name="ENMAX">    400.00000000</i>
   <i name="ENAUG">    416.23000000</i>
   <i name="EDIFF">      0.00000100</i>
   <i type="int" name="IALGO">    68</i>
   <i type="int" name="IWAVPR">    11</i>
   <i type="int" name="NBANDS">   306</i>
   <i name="NELECT">    504.00000000</i>
   <i type="int" name="TURBO">     0</i>
   <i type="int" name="IRESTART">     0</i>
   <i type="int" name="NREBOOT">     0</i>
   <i type="int" name="NMIN">     0</i>
   <i name="EREF">      0.00000000</i>
   <separator name="electronic smearing" >
    <i type="int" name="ISMEAR">     0</i>
    <i name="SIGMA">      0.10000000</i>
    <i name="KSPACING">      0.50000000</i>
    <i type="logical" name="KGAMMA"> T  </i>
   </separator>
   <separator name="electronic projectors" >
    <i type="logical" name="LREAL"> T  </i>
    <v name="ROPT">     -0.00050000     -0.00050000</v>
    <i type="int" name="LMAXPAW">  -100</i>
    <i type="int" name="LMAXMIX">     2</i>
    <i type="logical" name="NLSPLINE"> F  </i>
   </separator>
   <separator name="electronic startup" >
    <i type="int" name="ISTART">     0</i>
    <i type="int" name="ICHARG">     2</i>
    <i type="int" name="INIWAV">     1</i>
   </separator>
   <separator name="electronic spin" >
    <i type="int" name="ISPIN">     1</i>
    <i type="logical" name="LNONCOLLINEAR"> F  </i>
    <v name="MAGMOM">      1.00000000      1.00000000      1.00000000      1.00000000      1.00000000      1.00000000      1.00000000      1.00000000      1.00000000      1.00000000      1.00000000      1.00000000      1.00000000      1.00000000      1.00000000      1.00000000      1.00000000      1.00000000      1.00000000      1.00000000
      1.00000000      1.00000000      1.00000000      1.00000000      1.00000000      1.00000000      1.00000000      1.00000000      1.00000000      1.00000000      1.00000000      1.00000000      1.00000000      1.00000000      1.00000000      1.00000000      1.00000000      1.00000000      1.00000000      1.00000000
      1.00000000      1.00000000      1.00000000      1.00000000      1.00000000      1.00000000      1.00000000      1.00000000</v>
    <i name="NUPDOWN">     -1.00000000</i>
    <i type="logical" name="LSORBIT"> F  </i>
    <v name="SAXIS">      0.00000000      0.00000000      1.00000000</v>
    <i type="logical" name="LSPIRAL"> F  </i>
    <v name="QSPIRAL">      0.00000000      0.00000000      0.00000000</v>
    <i type="logical" name="LZEROZ"> F  </i>
   </separator>
   <separator name="electronic exchange-correlation" >
    <i type="logical" name="LASPH"> F  </i>
    <i type="logical" name="LMETAGGA"> F  </i>
   </separator>
   <separator name="electronic convergence" >
    <i type="int" name="NELM">   500</i>
    <i type="int" name="NELMDL">    -5</i>
    <i type="int" name="NELMIN">     2</i>
    <i name="ENINI">    400.00000000</i>
    <separator name="electronic convergence detail" >
     <i type="logical" name="LDIAG"> T  </i>
     <i type="logical" name="LSUBROT"> F  </i>
     <i name="WEIMIN">      0.00100000</i>
     <i name="EBREAK">      0.00000000</i>
     <i name="DEPER">      0.30000000</i>
     <i type="int" name="NRMM">     4</i>
     <i name="TIME">      0.40000000</i>
    </separator>
   </separator>
   <separator name="electronic mixer" >
    <i name="AMIX">      0.40000000</i>
    <i name="BMIX">      1.00000000</i>
    <i name="AMIN">      0.10000000</i>
    <i name="AMIX_MAG">      1.60000000</i>
    <i name="BMIX_MAG">      1.00000000</i>
    <separator name="electronic mixer details" >
     <i type="int" name="IMIX">     4</i>
     <i type="logical" name="MIXFIRST"> F  </i>
     <i type="int" name="MAXMIX">   -45</i>
     <i name="WC">    100.00000000</i>
     <i type="int" name="INIMIX">     1</i>
     <i type="int" name="MIXPRE">     1</i>
     <i type="int" name="MREMOVE">     5</i>
    </separator>
   </separator>
   <separator name="electronic dipolcorrection" >
    <i type="logical" name="LDIPOL"> T  </i>
    <i type="logical" name="LMONO"> F  </i>
    <i type="int" name="IDIPOL">     3</i>
    <i name="EPSILON">      1.00000000</i>
    <v name="DIPOL">      0.00000000      0.00000000      0.50000000</v>
    <i name="EFIELD">      0.00000000</i>
   </separator>
  </separator>
  <separator name="grids" >
   <i type="int" name="NGX">    54</i>
   <i type="int" name="NGY">    54</i>
   <i type="int" name="NGZ">   120</i>
   <i type="int" name="NGXF">   108</i>
   <i type="int" name="NGYF">   108</i>
   <i type="int" name="NGZF">   240</i>
   <i type="logical" name="ADDGRID"> F  </i>
  </separator>
  <separator name="ionic" >
   <i type="int" name="NSW">   500</i>
   <i type="int" name="IBRION">     2</i>
   <i type="int" name="ISIF">     0</i>
   <i name="PSTRESS">      0.00000000</i>
   <i name="EDIFFG">     -0.02000000</i>
   <i type="int" name="NFREE">     2</i>
   <i name="POTIM">      0.35000000</i>
   <i name="SMASS">     -3.00000000</i>
   <i name="SCALEE">      1.00000000</i>
  </separator>
  <separator name="ionic md" >
   <i name="TEBEG">      0.00010000</i>
   <i name="TEEND">      0.00010000</i>
   <i type="int" name="NBLOCK">     1</i>
   <i type="int" name="KBLOCK">   500</i>
   <i type="int" name="NPACO">   256</i>
   <i name="APACO">     16.00000000</i>
  </separator>
  <separator name="symmetry" >
   <i type="int" name="ISYM">     2</i>
   <i name="SYMPREC">      0.00001000</i>
  </separator>
  <separator name="dos" >
   <i type="logical" name="LORBIT"> F  </i>
   <v name="RWIGS">     -1.00000000     -1.00000000</v>
   <i type="int" name="NEDOS">   301</i>
   <i name="EMIN">     10.00000000</i>
   <i name="EMAX">    -10.00000000</i>
   <i name="EFERMI">      0.00000000</i>
  </separator>
  <separator name="writing" >
   <i type="int" name="NWRITE">     1</i>
   <i type="logical" name="LWAVE"> F  </i>
   <i type="logical" name="LCHARG"> F  </i>
   <i type="logical" name="LPARD"> F  </i>
   <i type="logical" name="LVTOT"> F  </i>
   <i type="logical" name="LVHAR"> F  </i>
   <i type="logical" name="LELF"> F  </i>
   <i type="logical" name="LOPTICS"> F  </i>
   <v name="STM">      0.00000000      0.00000000      0.00000000      0.00000000      0.00000000      0.00000000      0.00000000</v>
  </separator>
  <separator name="performance" >
   <i type="int" name="NPAR">     6</i>
   <i type="int" name="NSIM">     4</i>
   <i type="int" name="NBLK">    -1</i>
   <i type="logical" name="LPLANE"> T  </i>
   <i type="logical" name="LSCALAPACK"> T  </i>
   <i type="logical" name="LSCAAWARE"> F  </i>
   <i type="logical" name="LSCALU"> F  </i>
   <i type="logical" name="LASYNC"> F  </i>
   <i type="logical" name="LORBITALREAL"> F  </i>
  </separator>
  <separator name="miscellaneous" >
   <i type="int" name="IDIOT">     3</i>
   <i type="logical" name="LMUSIC"> F  </i>
   <v name="POMASS">    196.96600000    106.42000000</v>
   <v name="DARWINR">      0.00000000      0.00000000</v>
   <v name="DARWINV">      1.00000000      1.00000000</v>
   <i type="logical" name="LCORR"> T  </i>
  </separator>
  <i type="logical" name="GGA_COMPAT"> T  </i>
  <i type="logical" name="LBERRY"> F  </i>
  <i type="int" name="ICORELEVEL">     0</i>
  <i type="logical" name="LDAU"> F  </i>
  <i type="int" name="I_CONSTRAINED_M">     0</i>
  <separator name="electronic exchange-correlation" >
   <i type="string" name="GGA">PE</i>
   <i type="int" name="VOSKOWN">     1</i>
   <i type="logical" name="LHFCALC"> F  </i>
   <i type="string" name="PRECFOCK"></i>
   <i type="logical" name="LSYMGRAD"> F  </i>
   <i type="logical" name="LHFONE"> F  </i>
   <i type="logical" name="LRHFCALC"> F  </i>
   <i type="logical" name="LTHOMAS"> F  </i>
   <i type="logical" name="LMODELHF"> F  </i>
   <i name="ENCUT4O">     -1.00000000</i>
   <i type="int" name="EXXOEP">     0</i>
   <i type="int" name="FOURORBIT">     0</i>
   <i name="AEXX">      0.00000000</i>
   <i name="HFALPHA">      0.00000000</i>
   <i name="MCALPHA">      0.00000000</i>
   <i name="ALDAX">      1.00000000</i>
   <i name="AGGAX">      1.00000000</i>
   <i name="ALDAC">      1.00000000</i>
   <i name="AGGAC">      1.00000000</i>
   <i type="int" name="NKREDX">     1</i>
   <i type="int" name="NKREDY">     1</i>
   <i type="int" name="NKREDZ">     1</i>
   <i type="logical" name="SHIFTRED"> F  </i>
   <i type="logical" name="ODDONLY"> F  </i>
   <i type="logical" name="EVENONLY"> F  </i>
   <i type="int" name="LMAXFOCK">     0</i>
   <i type="int" name="NMAXFOCKAE">     0</i>
   <i type="logical" name="LFOCKAEDFT"> F  </i>
   <i name="HFSCREEN">      0.00000000</i>
   <i name="HFSCREENC">      0.00000000</i>
   <i type="int" name="NBANDSGWLOW">     0</i>
  </separator>
  <separator name="vdW DFT" >
   <i type="logical" name="LUSE_VDW"> F  </i>
   <i name="Zab_VDW">     -0.84910000</i>
   <i name="PARAM1">      0.12340000</i>
   <i name="PARAM2">      1.00000000</i>
   <i name="PARAM3">      0.00000000</i>
  </separator>
  <separator name="model GW" >
   <i type="int" name="MODEL_GW">     0</i>
   <i name="MODEL_EPS0">     32.09595293</i>
   <i name="MODEL_ALPHA">      1.00000000</i>
  </separator>
  <separator name="linear response parameters" >
   <i type="logical" name="LEPSILON"> F  </i>
   <i type="logical" name="LRPA"> F  </i>
   <i type="logical" name="LNABLA"> F  </i>
   <i type="logical" name="LVEL"> F  </i>
   <i type="int" name="KINTER">     0</i>
   <i name="CSHIFT">      0.10000000</i>
   <i name="OMEGAMAX">     -1.00000000</i>
   <i name="DEG_THRESHOLD">      0.00200000</i>
  </separator>
  <separator name="orbital magnetization" >
   <i type="logical" name="NUCIND"> F  </i>
   <v name="MAGPOS">      0.00000000      0.00000000      0.00000000</v>
   <i type="logical" name="LNICSALL"> T  </i>
   <i type="logical" name="ORBITALMAG"> F  </i>
   <i type="logical" name="LMAGBLOCH"> F  </i>
   <i type="logical" name="LCHIMAG"> F  </i>
   <i type="logical" name="LGAUGE"> T  </i>
   <i type="int" name="MAGATOM">     0</i>
   <v name="MAGDIPOL">      0.00000000      0.00000000      0.00000000</v>
   <v name="AVECCONST">      0.00000000      0.00000000      0.00000000</v>
  </separator>
  <separator name="response functions" >
   <i type="logical" name="LADDER"> F  </i>
   <i type="logical" name="LFXC"> F  </i>
   <i type="logical" name="LHARTREE"> T  </i>
   <i type="int" name="IBSE">     0</i>
   <v type="int" name="KPOINT">    -1     0     0     0</v>
   <i type="logical" name="LTCTE"> F  </i>
   <i type="logical" name="LTETE"> F  </i>
   <i type="logical" name="LTRIPLET"> F  </i>
   <i type="logical" name="LFXCEPS"> F  </i>
   <i type="logical" name="LFXHEG"> F  </i>
   <i type="int" name="NATURALO">     0</i>
   <i type="logical" name="L2ORDER"> F  </i>
   <i type="logical" name="LUSEW"> F  </i>
   <i name="ENCUTGW">     -2.00000000</i>
   <i name="ENCUTGWSOFT">     -2.00000000</i>
   <i name="ENCUTLF">     -1.00000000</i>
   <i type="int" name="LMAXMP2">    -1</i>
   <i name="SCISSOR">      0.00000000</i>
   <i type="int" name="NOMEGA">     0</i>
   <i type="int" name="NOMEGAR">     0</i>
   <i type="int" name="NBANDSGW">    -1</i>
   <i type="int" name="NBANDSO">    -1</i>
   <i type="int" name="NBANDSV">    -1</i>
   <i type="int" name="NELM">   500</i>
   <i type="int" name="NELMHF">     1</i>
   <i type="int" name="DIM">     3</i>
   <i type="int" name="ANTIRES">     0</i>
   <i name="OMEGAMAX">    -30.00000000</i>
   <i name="OMEGAMIN">    -30.00000000</i>
   <i name="OMEGATL">   -200.00000000</i>
   <i type="int" name="OMEGAGRID">     0</i>
   <i name="CSHIFT">     -0.10000000</i>
   <i type="logical" name="SELFENERGY"> F  </i>
   <i type="logical" name="LSPECTRAL"> F  </i>
   <i type="logical" name="LSPECTRALGW"> F  </i>
   <i type="logical" name="LSINGLES"> F  </i>
   <i type="logical" name="LFERMIGW"> F  </i>
   <i type="logical" name="ODDONLYGW"> F  </i>
   <i type="logical" name="EVENONLYGW"> F  </i>
   <i type="int" name="NKREDLFX">     1</i>
   <i type="int" name="NKREDLFY">     1</i>
   <i type="int" name="NKREDLFZ">     1</i>
   <i type="int" name="MAXMEM">  1800</i>
   <i type="int" name="TELESCOPE">     0</i>
   <i type="int" name="TAUPAR">     1</i>
   <i type="int" name="OMEGAPAR">    -1</i>
   <i name="LAMBDA">      1.00000000</i>
  </separator>
  <separator name="External order field" >
   <i name="OFIELD_KAPPA">      0.00000000</i>
   <v name="OFIELD_K">      0.00000000      0.00000000      0.00000000</v>
   <i name="OFIELD_Q6_NEAR">      0.00000000</i>
   <i name="OFIELD_Q6_FAR">      0.00000000</i>
   <i name="OFIELD_A">      0.00000000</i>
  </separator>
 </parameters>
 <atominfo>
  <atoms>      48 </atoms>
  <types>       2 </types>
  <array name="atoms" >
   <dimension dim="1">ion</dimension>
   <field type="string">element</field>
   <field type="int">atomtype</field>
   <set>
    <rc><c>Au</c><c>   1</c></rc>
    <rc><c>Au</c><c>   1</c></rc>
    <rc><c>Au</c><c>   1</c></rc>
    <rc><c>Au</c><c>   1</c></rc>
    <rc><c>Au</c><c>   1</c></rc>
    <rc><c>Au</c><c>   1</c></rc>
    <rc><c>Au</c><c>   1</c></rc>
    <rc><c>Au</c><c>   1</c></rc>
    <rc><c>Au</c><c>   1</c></rc>
    <rc><c>Au</c><c>   1</c></rc>
    <rc><c>Au</c><c>   1</c></rc>
    <rc><c>Au</c><c>   1</c></rc>
    <rc><c>Au</c><c>   1</c></rc>
    <rc><c>Au</c><c>   1</c></rc>
    <rc><c>Au</c><c>   1</c></rc>
    <rc><c>Au</c><c>   1</c></rc>
    <rc><c>Au</c><c>   1</c></rc>
    <rc><c>Au</c><c>   1</c></rc>
    <rc><c>Au</c><c>   1</c></rc>
    <rc><c>Au</c><c>   1</c></rc>
    <rc><c>Au</c><c>   1</c></rc>
    <rc><c>Au</c><c>   1</c></rc>
    <rc><c>Au</c><c>   1</c></rc>
    <rc><c>Au</c><c>   1</c></rc>
    <rc><c>Pd</c><c>   2</c></rc>
    <rc><c>Pd</c><c>   2</c></rc>
    <rc><c>Pd</c><c>   2</c></rc>
    <rc><c>Pd</c><c>   2</c></rc>
    <rc><c>Pd</c><c>   2</c></rc>
    <rc><c>Pd</c><c>   2</c></rc>
    <rc><c>Pd</c><c>   2</c></rc>
    <rc><c>Pd</c><c>   2</c></rc>
    <rc><c>Pd</c><c>   2</c></rc>
    <rc><c>Pd</c><c>   2</c></rc>
    <rc><c>Pd</c><c>   2</c></rc>
    <rc><c>Pd</c><c>   2</c></rc>
    <rc><c>Pd</c><c>   2</c></rc>
    <rc><c>Pd</c><c>   2</c></rc>
    <rc><c>Pd</c><c>   2</c></rc>
    <rc><c>Pd</c><c>   2</c></rc>
    <rc><c>Pd</c><c>   2</c></rc>
    <rc><c>Pd</c><c>   2</c></rc>
    <rc><c>Pd</c><c>   2</c></rc>
    <rc><c>Pd</c><c>   2</c></rc>
    <rc><c>Pd</c><c>   2</c></rc>
    <rc><c>Pd</c><c>   2</c></rc>
    <rc><c>Pd</c><c>   2</c></rc>
    <rc><c>Pd</c><c>   2</c></rc>
   </set>
  </array>
  <array name="atomtypes" >
   <dimension dim="1">type</dimension>
   <field type="int">atomspertype</field>
   <field type="string">element</field>
   <field>mass</field>
   <field>valence</field>
   <field type="string">pseudopotential</field>
   <set>
    <rc><c>  24</c><c>Au</c><c>    196.96600000</c><c>     11.00000000</c><c>  PAW_PBE Au 04Oct2007                  </c></rc>
    <rc><c>  24</c><c>Pd</c><c>    106.42000000</c><c>     10.00000000</c><c>  PAW_PBE Pd 04Jan2005                  </c></rc>
   </set>
  </array>
 </atominfo>
 <structure name="initialpos" >
  <crystal>
   <varray name="basis" >
    <v>      11.00258152       0.00000000       0.00000000 </v>
    <v>       5.50129076       9.52851510       0.00000000 </v>
    <v>       0.00000000       0.00000000      24.49178509 </v>
   </varray>
   <i name="volume">   2567.67623402 </i>
   <varray name="rec_basis" >
    <v>       0.09088776      -0.05247407       0.00000000 </v>
    <v>       0.00000000       0.10494815       0.00000000 </v>
    <v>       0.00000000       0.00000000       0.04083002 </v>
   </varray>
  </crystal>
  <varray name="positions" >
   <v>       0.25000000       0.75000000       0.59169983 </v>
   <v>       0.58333333       0.83333333       0.40830017 </v>
   <v>       0.58333333       0.33333333       0.40830017 </v>
   <v>       0.50000000       0.00000000       0.59169983 </v>
   <v>       0.41666667       0.16666667       0.50000000 </v>
   <v>       0.50000000       0.75000000       0.59169983 </v>
   <v>       0.16666667       0.91666667       0.50000000 </v>
   <v>       0.33333333       0.83333333       0.40830017 </v>
   <v>       0.25000000       0.50000000       0.59169983 </v>
   <v>       0.83333333       0.08333333       0.40830017 </v>
   <v>       0.25000000       0.25000000       0.59169983 </v>
   <v>       0.75000000       0.00000000       0.59169983 </v>
   <v>       0.16666667       0.16666667       0.50000000 </v>
   <v>       0.58333333       0.58333333       0.40830017 </v>
   <v>       0.83333333       0.83333333       0.40830017 </v>
   <v>       0.91666667       0.16666667       0.50000000 </v>
   <v>       0.00000000       0.75000000       0.59169983 </v>
   <v>       0.00000000       0.00000000       0.59169983 </v>
   <v>       0.08333333       0.33333333       0.40830017 </v>
   <v>       0.91666667       0.41666667       0.50000000 </v>
   <v>       0.66666667       0.66666667       0.50000000 </v>
   <v>       0.75000000       0.50000000       0.59169983 </v>
   <v>       0.33333333       0.08333333       0.40830017 </v>
   <v>       0.00000000       0.25000000       0.59169983 </v>
   <v>       0.66666667       0.41666667       0.50000000 </v>
   <v>       0.83333333       0.58333333       0.40830017 </v>
   <v>       0.66666667       0.16666667       0.50000000 </v>
   <v>       0.75000000       0.25000000       0.59169983 </v>
   <v>       0.50000000       0.50000000       0.59169983 </v>
   <v>       0.41666667       0.91666667       0.50000000 </v>
   <v>       0.83333333       0.33333333       0.40830017 </v>
   <v>       0.08333333       0.08333333       0.40830017 </v>
   <v>       0.50000000       0.25000000       0.59169983 </v>
   <v>       0.41666667       0.41666667       0.50000000 </v>
   <v>       0.58333333       0.08333333       0.40830017 </v>
   <v>       0.66666667       0.91666667       0.50000000 </v>
   <v>       0.16666667       0.66666667       0.50000000 </v>
   <v>       0.33333333       0.58333333       0.40830017 </v>
   <v>       0.16666667       0.41666667       0.50000000 </v>
   <v>       0.33333333       0.33333333       0.40830017 </v>
   <v>       0.25000000       0.00000000       0.59169983 </v>
   <v>       0.91666667       0.91666667       0.50000000 </v>
   <v>       0.08333333       0.83333333       0.40830017 </v>
   <v>       0.00000000       0.50000000       0.59169983 </v>
   <v>       0.91666667       0.66666667       0.50000000 </v>
   <v>       0.08333333       0.58333333       0.40830017 </v>
   <v>       0.41666667       0.66666667       0.50000000 </v>
   <v>       0.75000000       0.75000000       0.59169983 </v>
  </varray>
 </structure>
 <calculation>
  <scstep>
   <time name="dav">    9.19    9.20</time>
   <time name="total">    9.26    9.27</time>
   <dipole>
    <v name="dipole">      0.00000000       0.00000000      -0.00000148 </v>
    <i name="Tr[quadrupol]"> -10222.67843170 </i>
    <i name="Echarged">      0.00000000 </i>
    <i name="Edipol_quadrupol">      0.00000000 </i>
    <i name="Eion">      0.00000000 </i>
   </dipole>
   <energy>
    <i name="alphaZ">    805.86936475 </i>
    <i name="ewald"> 199692.78829456 </i>
    <i name="hartreedc">-242104.99278703 </i>
    <i name="XCdc">   -327.76169723 </i>
    <i name="pawpsdc">  40340.05962942 </i>
    <i name="pawaedc"> -38292.62782345 </i>
    <i name="eentropy">     -0.14358376 </i>
    <i name="bandstr">   1428.22433705 </i>
    <i name="atom">  41659.78587232 </i>
    <i name="e_fr_energy">   3201.20160664 </i>
    <i name="e_wo_entrp">   3201.34519039 </i>
    <i name="e_0_energy">   3201.27339852 </i>
   </energy>
  </scstep>
  <scstep>
   <time name="dav">   11.61   11.65</time>
   <time name="total">   11.61   11.65</time>
   <dipole>
    <v name="dipole">      0.00000000       0.00000000      -0.00000148 </v>
    <i name="Tr[quadrupol]"> -10222.67843170 </i>
    <i name="Echarged">      0.00000000 </i>
    <i name="Edipol_quadrupol">      0.00000000 </i>
    <i name="Eion">      0.00000000 </i>
   </dipole>
   <energy>
    <i name="e_fr_energy">     14.35491747 </i>
    <i name="e_wo_entrp">     14.46810715 </i>
    <i name="e_0_energy">     14.41151231 </i>
   </energy>
  </scstep>
  <scstep>
   <time name="dav">   10.52   10.62</time>
   <time name="total">   10.53   10.62</time>
   <dipole>
    <v name="dipole">      0.00000000       0.00000000      -0.00000148 </v>
    <i name="Tr[quadrupol]"> -10222.67843170 </i>
    <i name="Echarged">      0.00000000 </i>
    <i name="Edipol_quadrupol">      0.00000000 </i>
    <i name="Eion">      0.00000000 </i>
   </dipole>
   <energy>
    <i name="e_fr_energy">   -201.61444734 </i>
    <i name="e_wo_entrp">   -201.43951108 </i>
    <i name="e_0_energy">   -201.52697921 </i>
   </energy>
  </scstep>
  <scstep>
   <time name="dav">   10.77   10.77</time>
   <time name="total">   10.77   10.78</time>
   <dipole>
    <v name="dipole">      0.00000000       0.00000000      -0.00000148 </v>
    <i name="Tr[quadrupol]"> -10222.67843170 </i>
    <i name="Echarged">      0.00000000 </i>
    <i name="Edipol_quadrupol">      0.00000000 </i>
    <i name="Eion">      0.00000000 </i>
   </dipole>
   <energy>
    <i name="e_fr_energy">   -207.44998100 </i>
    <i name="e_wo_entrp">   -207.26372949 </i>
    <i name="e_0_energy">   -207.35685524 </i>
   </energy>
  </scstep>
  <scstep>
   <time name="dav">   11.12   11.13</time>
   <time name="total">   11.44   11.45</time>
   <dipole>
    <v name="dipole">      0.00000000       0.00000000      -0.00000148 </v>
    <i name="Tr[quadrupol]"> -10222.67843170 </i>
    <i name="Echarged">      0.00000000 </i>
    <i name="Edipol_quadrupol">      0.00000000 </i>
    <i name="Eion">      0.00000000 </i>
   </dipole>
   <energy>
    <i name="e_fr_energy">   -207.64020802 </i>
    <i name="e_wo_entrp">   -207.45442420 </i>
    <i name="e_0_energy">   -207.54731611 </i>
   </energy>
  </scstep>
  <scstep>
   <time name="diag">    1.67    1.67</time>
   <time name="diis">    4.41    4.41</time>
   <time name="orth">    0.40    0.40</time>
   <time name="total">    6.85    6.86</time>
   <dipole>
    <v name="dipole">      0.00000000       0.00000000      -0.67182085 </v>
    <i name="Tr[quadrupol]"> -10225.45459362 </i>
    <i name="Echarged">      0.00000000 </i>
    <i name="Edipol_quadrupol">      0.00000000 </i>
    <i name="Eion">      0.00000000 </i>
   </dipole>
   <energy>
    <i name="e_fr_energy">   -204.54942312 </i>
    <i name="e_wo_entrp">   -204.29073728 </i>
    <i name="e_0_energy">   -204.42008020 </i>
   </energy>
  </scstep>
  <scstep>
   <time name="diag">    1.63    1.63</time>
   <time name="diis">    4.37    4.39</time>
   <time name="orth">    0.39    0.43</time>
   <time name="total">    6.74    6.84</time>
   <dipole>
    <v name="dipole">      0.00000000       0.00000000       0.88798385 </v>
    <i name="Tr[quadrupol]"> -10222.62689803 </i>
    <i name="Echarged">      0.00000000 </i>
    <i name="Edipol_quadrupol">      0.00000000 </i>
    <i name="Eion">      0.00000000 </i>
   </dipole>
   <energy>
    <i name="e_fr_energy">   -209.74901046 </i>
    <i name="e_wo_entrp">   -209.51597765 </i>
    <i name="e_0_energy">   -209.63249406 </i>
   </energy>
  </scstep>
  <scstep>
   <time name="diag">    1.63    1.63</time>
   <time name="diis">    4.68    4.70</time>
   <time name="orth">    0.49    0.49</time>
   <time name="total">    7.28    7.31</time>
   <dipole>
    <v name="dipole">      0.00000000       0.00000000      -1.77580036 </v>
    <i name="Tr[quadrupol]"> -10224.05407579 </i>
    <i name="Echarged">      0.00000000 </i>
    <i name="Edipol_quadrupol">      0.00000000 </i>
    <i name="Eion">      0.00000000 </i>
   </dipole>
   <energy>
    <i name="e_fr_energy">   -225.24185517 </i>
    <i name="e_wo_entrp">   -224.96918692 </i>
    <i name="e_0_energy">   -225.10552104 </i>
   </energy>
  </scstep>
  <scstep>
   <time name="diag">    1.64    1.66</time>
   <time name="diis">    4.33    4.33</time>
   <time name="orth">    0.41    0.41</time>
   <time name="total">    6.75    6.80</time>
   <dipole>
    <v name="dipole">      0.00000000       0.00000000       0.75268020 </v>
    <i name="Tr[quadrupol]"> -10225.31639470 </i>
    <i name="Echarged">      0.00000000 </i>
    <i name="Edipol_quadrupol">      0.00000000 </i>
    <i name="Eion">      0.00000000 </i>
   </dipole>
   <energy>
    <i name="e_fr_energy">   -209.20076906 </i>
    <i name="e_wo_entrp">   -209.02303017 </i>
    <i name="e_0_energy">   -209.11189961 </i>
   </energy>
  </scstep>
  <scstep>
   <time name="diag">    1.67    1.67</time>
   <time name="diis">    4.44    4.45</time>
   <time name="orth">    0.40    0.40</time>
   <time name="total">    6.87    6.88</time>
   <dipole>
    <v name="dipole">      0.00000000       0.00000000      -0.24494417 </v>
    <i name="Tr[quadrupol]"> -10224.26055266 </i>
    <i name="Echarged">      0.00000000 </i>
    <i name="Edipol_quadrupol">      0.00000000 </i>
    <i name="Eion">      0.00000000 </i>
   </dipole>
   <energy>
    <i name="e_fr_energy">   -194.81447059 </i>
    <i name="e_wo_entrp">   -194.61082457 </i>
    <i name="e_0_energy">   -194.71264758 </i>
   </energy>
  </scstep>
  <scstep>
   <time name="diag">    1.62    1.62</time>
   <time name="diis">    4.43    4.44</time>
   <time name="orth">    0.39    0.39</time>
   <time name="total">    6.81    6.82</time>
   <dipole>
    <v name="dipole">      0.00000000       0.00000000       0.06111816 </v>
    <i name="Tr[quadrupol]"> -10225.76233606 </i>
    <i name="Echarged">      0.00000000 </i>
    <i name="Edipol_quadrupol">      0.00000000 </i>
    <i name="Eion">      0.00000000 </i>
   </dipole>
   <energy>
    <i name="e_fr_energy">   -192.72536081 </i>
    <i name="e_wo_entrp">   -192.55555891 </i>
    <i name="e_0_energy">   -192.64045986 </i>
   </energy>
  </scstep>
  <scstep>
   <time name="diag">    1.61    1.61</time>
   <time name="diis">    4.38    4.38</time>
   <time name="orth">    0.39    0.39</time>
   <time name="total">    6.75    6.75</time>
   <dipole>
    <v name="dipole">      0.00000000       0.00000000       0.01574150 </v>
    <i name="Tr[quadrupol]"> -10225.60593338 </i>
    <i name="Echarged">      0.00000000 </i>
    <i name="Edipol_quadrupol">      0.00000000 </i>
    <i name="Eion">      0.00000000 </i>
   </dipole>
   <energy>
    <i name="e_fr_energy">   -190.12648195 </i>
    <i name="e_wo_entrp">   -189.85077017 </i>
    <i name="e_0_energy">   -189.98862606 </i>
   </energy>
  </scstep>
  <scstep>
   <time name="diag">    1.64    1.64</time>
   <time name="diis">    4.27    4.38</time>
   <time name="orth">    0.39    0.39</time>
   <time name="total">    6.67    6.78</time>
   <dipole>
    <v name="dipole">      0.00000000       0.00000000      -0.02680254 </v>
    <i name="Tr[quadrupol]"> -10225.92356876 </i>
    <i name="Echarged">      0.00000000 </i>
    <i name="Edipol_quadrupol">      0.00000000 </i>
    <i name="Eion">      0.00000000 </i>
   </dipole>
   <energy>
    <i name="e_fr_energy">   -189.82947610 </i>
    <i name="e_wo_entrp">   -189.58518724 </i>
    <i name="e_0_energy">   -189.70733167 </i>
   </energy>
  </scstep>
  <scstep>
   <time name="diag">    1.65    1.65</time>
   <time name="diis">    4.43    4.43</time>
   <time name="orth">    0.39    0.39</time>
   <time name="total">    6.84    6.84</time>
   <dipole>
    <v name="dipole">      0.00000000       0.00000000      -0.04721557 </v>
    <i name="Tr[quadrupol]"> -10226.15321887 </i>
    <i name="Echarged">      0.00000000 </i>
    <i name="Edipol_quadrupol">      0.00000000 </i>
    <i name="Eion">      0.00000000 </i>
   </dipole>
   <energy>
    <i name="e_fr_energy">   -189.96227917 </i>
    <i name="e_wo_entrp">   -189.71093115 </i>
    <i name="e_0_energy">   -189.83660516 </i>
   </energy>
  </scstep>
  <scstep>
   <time name="diag">    1.62    1.62</time>
   <time name="diis">    4.38    4.38</time>
   <time name="orth">    0.39    0.39</time>
   <time name="total">    6.75    6.76</time>
   <dipole>
    <v name="dipole">      0.00000000       0.00000000      -0.05652252 </v>
    <i name="Tr[quadrupol]"> -10226.38285321 </i>
    <i name="Echarged">      0.00000000 </i>
    <i name="Edipol_quadrupol">      0.00000000 </i>
    <i name="Eion">      0.00000000 </i>
   </dipole>
   <energy>
    <i name="e_fr_energy">   -190.04624245 </i>
    <i name="e_wo_entrp">   -189.79276883 </i>
    <i name="e_0_energy">   -189.91950564 </i>
   </energy>
  </scstep>
  <scstep>
   <time name="diag">    1.61    1.61</time>
   <time name="diis">    4.41    4.41</time>
   <time name="orth">    0.39    0.39</time>
   <time name="total">    6.77    6.78</time>
   <dipole>
    <v name="dipole">      0.00000000       0.00000000      -0.03336176 </v>
    <i name="Tr[quadrupol]"> -10226.54077682 </i>
    <i name="Echarged">      0.00000000 </i>
    <i name="Edipol_quadrupol">      0.00000000 </i>
    <i name="Eion">      0.00000000 </i>
   </dipole>
   <energy>
    <i name="e_fr_energy">   -189.71528306 </i>
    <i name="e_wo_entrp">   -189.46005532 </i>
    <i name="e_0_energy">   -189.58766919 </i>
   </energy>
  </scstep>
  <scstep>
   <time name="diag">    1.64    1.64</time>
   <time name="diis">    3.90    4.89</time>
   <time name="orth">    0.39    0.39</time>
   <time name="total">    6.29    7.29</time>
   <dipole>
    <v name="dipole">      0.00000000       0.00000000      -0.03170991 </v>
    <i name="Tr[quadrupol]"> -10226.71167807 </i>
    <i name="Echarged">      0.00000000 </i>
    <i name="Edipol_quadrupol">      0.00000000 </i>
    <i name="Eion">      0.00000000 </i>
   </dipole>
   <energy>
    <i name="e_fr_energy">   -189.65295669 </i>
    <i name="e_wo_entrp">   -189.38473432 </i>
    <i name="e_0_energy">   -189.51884550 </i>
   </energy>
  </scstep>
  <scstep>
   <time name="diag">    1.66    1.66</time>
   <time name="diis">    4.41    4.41</time>
   <time name="orth">    0.39    0.39</time>
   <time name="total">    6.82    6.82</time>
   <dipole>
    <v name="dipole">      0.00000000       0.00000000      -0.04516403 </v>
    <i name="Tr[quadrupol]"> -10226.99623494 </i>
    <i name="Echarged">      0.00000000 </i>
    <i name="Edipol_quadrupol">      0.00000000 </i>
    <i name="Eion">      0.00000000 </i>
   </dipole>
   <energy>
    <i name="e_fr_energy">   -189.61325008 </i>
    <i name="e_wo_entrp">   -189.34975306 </i>
    <i name="e_0_energy">   -189.48150157 </i>
   </energy>
  </scstep>
  <scstep>
   <time name="diag">    1.61    1.61</time>
   <time name="diis">    4.21    4.32</time>
   <time name="orth">    0.38    0.38</time>
   <time name="total">    6.57    6.69</time>
   <dipole>
    <v name="dipole">      0.00000000       0.00000000      -0.03888486 </v>
    <i name="Tr[quadrupol]"> -10227.10835258 </i>
    <i name="Echarged">      0.00000000 </i>
    <i name="Edipol_quadrupol">      0.00000000 </i>
    <i name="Eion">      0.00000000 </i>
   </dipole>
   <energy>
    <i name="e_fr_energy">   -189.58649706 </i>
    <i name="e_wo_entrp">   -189.31625901 </i>
    <i name="e_0_energy">   -189.45137803 </i>
   </energy>
  </scstep>
  <scstep>
   <time name="diag">    1.60    1.60</time>
   <time name="diis">    4.31    4.31</time>
   <time name="orth">    0.38    0.38</time>
   <time name="total">    6.65    6.66</time>
   <dipole>
    <v name="dipole">      0.00000000       0.00000000      -0.02570754 </v>
    <i name="Tr[quadrupol]"> -10227.20914951 </i>
    <i name="Echarged">      0.00000000 </i>
    <i name="Edipol_quadrupol">      0.00000000 </i>
    <i name="Eion">      0.00000000 </i>
   </dipole>
   <energy>
    <i name="e_fr_energy">   -189.57841940 </i>
    <i name="e_wo_entrp">   -189.31045273 </i>
    <i name="e_0_energy">   -189.44443607 </i>
   </energy>
  </scstep>
  <scstep>
   <time name="diag">    1.62    1.63</time>
   <time name="diis">    4.30    4.31</time>
   <time name="orth">    0.38    0.38</time>
   <time name="total">    6.67    6.69</time>
   <dipole>
    <v name="dipole">      0.00000000       0.00000000      -0.02321653 </v>
    <i name="Tr[quadrupol]"> -10227.27171903 </i>
    <i name="Echarged">      0.00000000 </i>
    <i name="Edipol_quadrupol">      0.00000000 </i>
    <i name="Eion">      0.00000000 </i>
   </dipole>
   <energy>
    <i name="e_fr_energy">   -189.57732967 </i>
    <i name="e_wo_entrp">   -189.30830923 </i>
    <i name="e_0_energy">   -189.44281945 </i>
   </energy>
  </scstep>
  <scstep>
   <time name="diag">    1.64    1.64</time>
   <time name="diis">    4.42    4.42</time>
   <time name="orth">    0.38    0.38</time>
   <time name="total">    6.81    6.81</time>
   <dipole>
    <v name="dipole">      0.00000000       0.00000000      -0.02490583 </v>
    <i name="Tr[quadrupol]"> -10227.36946381 </i>
    <i name="Echarged">      0.00000000 </i>
    <i name="Edipol_quadrupol">      0.00000000 </i>
    <i name="Eion">      0.00000000 </i>
   </dipole>
   <energy>
    <i name="e_fr_energy">   -189.57543227 </i>
    <i name="e_wo_entrp">   -189.30623375 </i>
    <i name="e_0_energy">   -189.44083301 </i>
   </energy>
  </scstep>
  <scstep>
   <time name="diag">    1.61    1.61</time>
   <time name="diis">    4.42    4.42</time>
   <time name="orth">    0.38    0.38</time>
   <time name="total">    6.78    6.78</time>
   <dipole>
    <v name="dipole">      0.00000000       0.00000000      -0.02378081 </v>
    <i name="Tr[quadrupol]"> -10227.46063461 </i>
    <i name="Echarged">      0.00000000 </i>
    <i name="Edipol_quadrupol">      0.00000000 </i>
    <i name="Eion">      0.00000000 </i>
   </dipole>
   <energy>
    <i name="e_fr_energy">   -189.57409358 </i>
    <i name="e_wo_entrp">   -189.30548867 </i>
    <i name="e_0_energy">   -189.43979113 </i>
   </energy>
  </scstep>
  <scstep>
   <time name="diag">    1.59    1.60</time>
   <time name="diis">    4.42    4.43</time>
   <time name="orth">    0.38    0.38</time>
   <time name="total">    6.76    6.77</time>
   <dipole>
    <v name="dipole">      0.00000000       0.00000000      -0.02148312 </v>
    <i name="Tr[quadrupol]"> -10227.59636378 </i>
    <i name="Echarged">      0.00000000 </i>
    <i name="Edipol_quadrupol">      0.00000000 </i>
    <i name="Eion">      0.00000000 </i>
   </dipole>
   <energy>
    <i name="e_fr_energy">   -189.57385701 </i>
    <i name="e_wo_entrp">   -189.30432255 </i>
    <i name="e_0_energy">   -189.43908978 </i>
   </energy>
  </scstep>
  <scstep>
   <time name="diag">    1.63    1.63</time>
   <time name="diis">    4.23    4.34</time>
   <time name="orth">    0.39    0.39</time>
   <time name="total">    6.61    6.72</time>
   <dipole>
    <v name="dipole">      0.00000000       0.00000000      -0.01873336 </v>
    <i name="Tr[quadrupol]"> -10227.66853281 </i>
    <i name="Echarged">      0.00000000 </i>
    <i name="Edipol_quadrupol">      0.00000000 </i>
    <i name="Eion">      0.00000000 </i>
   </dipole>
   <energy>
    <i name="e_fr_energy">   -189.57384913 </i>
    <i name="e_wo_entrp">   -189.30472281 </i>
    <i name="e_0_energy">   -189.43928597 </i>
   </energy>
  </scstep>
  <scstep>
   <time name="diag">    1.64    1.64</time>
   <time name="diis">    3.99    4.67</time>
   <time name="orth">    0.39    0.39</time>
   <time name="total">    6.38    7.06</time>
   <dipole>
    <v name="dipole">      0.00000000       0.00000000      -0.01662011 </v>
    <i name="Tr[quadrupol]"> -10227.74096558 </i>
    <i name="Echarged">      0.00000000 </i>
    <i name="Edipol_quadrupol">      0.00000000 </i>
    <i name="Eion">      0.00000000 </i>
   </dipole>
   <energy>
    <i name="e_fr_energy">   -189.57421788 </i>
    <i name="e_wo_entrp">   -189.30500247 </i>
    <i name="e_0_energy">   -189.43961017 </i>
   </energy>
  </scstep>
  <scstep>
   <time name="diag">    1.61    1.61</time>
   <time name="diis">    4.28    4.28</time>
   <time name="orth">    0.38    0.38</time>
   <time name="total">    6.63    6.64</time>
   <dipole>
    <v name="dipole">      0.00000000       0.00000000      -0.01465302 </v>
    <i name="Tr[quadrupol]"> -10227.80659581 </i>
    <i name="Echarged">      0.00000000 </i>
    <i name="Edipol_quadrupol">      0.00000000 </i>
    <i name="Eion">      0.00000000 </i>
   </dipole>
   <energy>
    <i name="e_fr_energy">   -189.57469541 </i>
    <i name="e_wo_entrp">   -189.30537673 </i>
    <i name="e_0_energy">   -189.44003607 </i>
   </energy>
  </scstep>
  <scstep>
   <time name="diag">    1.59    1.59</time>
   <time name="diis">    4.42    4.42</time>
   <time name="orth">    0.38    0.38</time>
   <time name="total">    6.76    6.76</time>
   <dipole>
    <v name="dipole">      0.00000000       0.00000000      -0.01339774 </v>
    <i name="Tr[quadrupol]"> -10227.86165349 </i>
    <i name="Echarged">      0.00000000 </i>
    <i name="Edipol_quadrupol">      0.00000000 </i>
    <i name="Eion">      0.00000000 </i>
   </dipole>
   <energy>
    <i name="e_fr_energy">   -189.57526003 </i>
    <i name="e_wo_entrp">   -189.30598342 </i>
    <i name="e_0_energy">   -189.44062172 </i>
   </energy>
  </scstep>
  <scstep>
   <time name="diag">    1.62    1.62</time>
   <time name="diis">    4.28    4.29</time>
   <time name="orth">    0.38    0.38</time>
   <time name="total">    6.66    6.66</time>
   <dipole>
    <v name="dipole">      0.00000000       0.00000000      -0.01219101 </v>
    <i name="Tr[quadrupol]"> -10227.90030820 </i>
    <i name="Echarged">      0.00000000 </i>
    <i name="Edipol_quadrupol">      0.00000000 </i>
    <i name="Eion">      0.00000000 </i>
   </dipole>
   <energy>
    <i name="e_fr_energy">   -189.57567172 </i>
    <i name="e_wo_entrp">   -189.30640184 </i>
    <i name="e_0_energy">   -189.44103678 </i>
   </energy>
  </scstep>
  <scstep>
   <time name="diag">    1.65    1.66</time>
   <time name="diis">    4.20    4.20</time>
   <time name="orth">    0.38    0.38</time>
   <time name="total">    6.60    6.61</time>
   <dipole>
    <v name="dipole">      0.00000000       0.00000000      -0.01074265 </v>
    <i name="Tr[quadrupol]"> -10227.93922263 </i>
    <i name="Echarged">      0.00000000 </i>
    <i name="Edipol_quadrupol">      0.00000000 </i>
    <i name="Eion">      0.00000000 </i>
   </dipole>
   <energy>
    <i name="e_fr_energy">   -189.57615284 </i>
    <i name="e_wo_entrp">   -189.30687341 </i>
    <i name="e_0_energy">   -189.44151313 </i>
   </energy>
  </scstep>
  <scstep>
   <time name="diag">    1.60    1.60</time>
   <time name="diis">    3.79    3.89</time>
   <time name="orth">    0.38    0.38</time>
   <time name="total">    6.14    6.25</time>
   <dipole>
    <v name="dipole">      0.00000000       0.00000000      -0.00948047 </v>
    <i name="Tr[quadrupol]"> -10227.97104877 </i>
    <i name="Echarged">      0.00000000 </i>
    <i name="Edipol_quadrupol">      0.00000000 </i>
    <i name="Eion">      0.00000000 </i>
   </dipole>
   <energy>
    <i name="e_fr_energy">   -189.57653889 </i>
    <i name="e_wo_entrp">   -189.30730202 </i>
    <i name="e_0_energy">   -189.44192046 </i>
   </energy>
  </scstep>
  <scstep>
   <time name="diag">    1.60    1.60</time>
   <time name="diis">    3.92    3.92</time>
   <time name="orth">    0.38    0.38</time>
   <time name="total">    6.27    6.27</time>
   <dipole>
    <v name="dipole">      0.00000000       0.00000000      -0.00788140 </v>
    <i name="Tr[quadrupol]"> -10228.00615083 </i>
    <i name="Echarged">      0.00000000 </i>
    <i name="Edipol_quadrupol">      0.00000000 </i>
    <i name="Eion">      0.00000000 </i>
   </dipole>
   <energy>
    <i name="e_fr_energy">   -189.57689987 </i>
    <i name="e_wo_entrp">   -189.30765291 </i>
    <i name="e_0_energy">   -189.44227639 </i>
   </energy>
  </scstep>
  <scstep>
   <time name="diag">    1.63    1.63</time>
   <time name="diis">    3.23    3.23</time>
   <time name="orth">    0.38    0.38</time>
   <time name="total">    5.61    5.61</time>
   <dipole>
    <v name="dipole">      0.00000000       0.00000000      -0.00732496 </v>
    <i name="Tr[quadrupol]"> -10228.01785106 </i>
    <i name="Echarged">      0.00000000 </i>
    <i name="Edipol_quadrupol">      0.00000000 </i>
    <i name="Eion">      0.00000000 </i>
   </dipole>
   <energy>
    <i name="e_fr_energy">   -189.57698889 </i>
    <i name="e_wo_entrp">   -189.30774854 </i>
    <i name="e_0_energy">   -189.44236872 </i>
   </energy>
  </scstep>
  <scstep>
   <time name="diag">    1.64    1.64</time>
   <time name="diis">    2.94    2.94</time>
   <time name="orth">    0.38    0.38</time>
   <time name="total">    5.33    5.34</time>
   <dipole>
    <v name="dipole">      0.00000000       0.00000000      -0.00685409 </v>
    <i name="Tr[quadrupol]"> -10228.02709102 </i>
    <i name="Echarged">      0.00000000 </i>
    <i name="Edipol_quadrupol">      0.00000000 </i>
    <i name="Eion">      0.00000000 </i>
   </dipole>
   <energy>
    <i name="e_fr_energy">   -189.57706521 </i>
    <i name="e_wo_entrp">   -189.30783585 </i>
    <i name="e_0_energy">   -189.44245053 </i>
   </energy>
  </scstep>
  <scstep>
   <time name="diag">    1.61    1.62</time>
   <time name="diis">    2.70    2.70</time>
   <time name="orth">    0.38    0.38</time>
   <time name="total">    5.06    5.20</time>
   <dipole>
    <v name="dipole">      0.00000000       0.00000000      -0.00649634 </v>
    <i name="Tr[quadrupol]"> -10228.03200321 </i>
    <i name="Echarged">      0.00000000 </i>
    <i name="Edipol_quadrupol">      0.00000000 </i>
    <i name="Eion">      0.00000000 </i>
   </dipole>
   <energy>
    <i name="e_fr_energy">   -189.57711431 </i>
    <i name="e_wo_entrp">   -189.30787258 </i>
    <i name="e_0_energy">   -189.44249344 </i>
   </energy>
  </scstep>
  <scstep>
   <time name="diag">    1.68    2.04</time>
   <time name="diis">    2.72    2.72</time>
   <time name="orth">    0.38    0.38</time>
   <time name="total">    5.14    5.53</time>
   <dipole>
    <v name="dipole">      0.00000000       0.00000000      -0.00609887 </v>
    <i name="Tr[quadrupol]"> -10228.03684868 </i>
    <i name="Echarged">      0.00000000 </i>
    <i name="Edipol_quadrupol">      0.00000000 </i>
    <i name="Eion">      0.00000000 </i>
   </dipole>
   <energy>
    <i name="e_fr_energy">   -189.57715298 </i>
    <i name="e_wo_entrp">   -189.30791060 </i>
    <i name="e_0_energy">   -189.44253179 </i>
   </energy>
  </scstep>
  <scstep>
   <time name="diag">    1.63    1.63</time>
   <time name="diis">    2.62    2.62</time>
   <time name="orth">    0.38    0.38</time>
   <time name="total">    4.99    5.00</time>
   <dipole>
    <v name="dipole">      0.00000000       0.00000000      -0.00580639 </v>
    <i name="Tr[quadrupol]"> -10228.04006105 </i>
    <i name="Echarged">      0.00000000 </i>
    <i name="Edipol_quadrupol">      0.00000000 </i>
    <i name="Eion">      0.00000000 </i>
   </dipole>
   <energy>
    <i name="e_fr_energy">   -189.57717604 </i>
    <i name="e_wo_entrp">   -189.30793227 </i>
    <i name="e_0_energy">   -189.44255416 </i>
   </energy>
  </scstep>
  <scstep>
   <time name="diag">    1.63    1.63</time>
   <time name="diis">    2.39    2.43</time>
   <time name="orth">    0.36    0.40</time>
   <time name="total">    4.75    4.85</time>
   <dipole>
    <v name="dipole">      0.00000000       0.00000000      -0.00558541 </v>
    <i name="Tr[quadrupol]"> -10228.04261035 </i>
    <i name="Echarged">      0.00000000 </i>
    <i name="Edipol_quadrupol">      0.00000000 </i>
    <i name="Eion">      0.00000000 </i>
   </dipole>
   <energy>
    <i name="e_fr_energy">   -189.57718880 </i>
    <i name="e_wo_entrp">   -189.30794543 </i>
    <i name="e_0_energy">   -189.44256711 </i>
   </energy>
  </scstep>
  <scstep>
   <time name="diag">    1.60    1.61</time>
   <time name="diis">    2.58    2.58</time>
   <time name="orth">    0.38    0.38</time>
   <time name="total">    4.93    4.94</time>
   <dipole>
    <v name="dipole">      0.00000000       0.00000000      -0.00529113 </v>
    <i name="Tr[quadrupol]"> -10228.04638688 </i>
    <i name="Echarged">      0.00000000 </i>
    <i name="Edipol_quadrupol">      0.00000000 </i>
    <i name="Eion">      0.00000000 </i>
   </dipole>
   <energy>
    <i name="e_fr_energy">   -189.57719869 </i>
    <i name="e_wo_entrp">   -189.30795599 </i>
    <i name="e_0_energy">   -189.44257734 </i>
   </energy>
  </scstep>
  <scstep>
   <time name="diag">    1.59    1.59</time>
   <time name="diis">    1.98    1.98</time>
   <time name="orth">    0.38    0.38</time>
   <time name="total">    4.31    4.32</time>
   <dipole>
    <v name="dipole">      0.00000000       0.00000000      -0.00520187 </v>
    <i name="Tr[quadrupol]"> -10228.04761853 </i>
    <i name="Echarged">      0.00000000 </i>
    <i name="Edipol_quadrupol">      0.00000000 </i>
    <i name="Eion">      0.00000000 </i>
   </dipole>
   <energy>
    <i name="e_fr_energy">   -189.57719972 </i>
    <i name="e_wo_entrp">   -189.30795765 </i>
    <i name="e_0_energy">   -189.44257868 </i>
   </energy>
  </scstep>
  <scstep>
   <time name="diag">    1.62    1.62</time>
   <time name="diis">    1.90    1.90</time>
   <time name="orth">    0.38    0.38</time>
   <time name="total">    3.95    3.96</time>
   <dipole>
    <v name="dipole">      0.00000000       0.00000000      -0.00510880 </v>
    <i name="Tr[quadrupol]"> -10228.04887178 </i>
    <i name="Echarged">      0.00000000 </i>
    <i name="Edipol_quadrupol">      0.00000000 </i>
    <i name="Eion">      0.00000000 </i>
   </dipole>
   <energy>
    <i name="alphaZ">    805.87098059 </i>
    <i name="ewald"> 199692.78829456 </i>
    <i name="hartreedc">-241881.70298628 </i>
    <i name="XCdc">   -343.72981115 </i>
    <i name="pawpsdc">  49270.56996578 </i>
    <i name="pawaedc"> -47349.08712583 </i>
    <i name="eentropy">     -0.26924263 </i>
    <i name="bandstr">  -2043.80314767 </i>
    <i name="atom">  41659.78587232 </i>
    <i name="e_fr_energy">   -189.57720030 </i>
    <i name="e_wo_entrp">   -189.30795767 </i>
    <i name="e_0_energy">   -189.44257898 </i>
   </energy>
  </scstep>
  <structure>
   <crystal>
    <varray name="basis" >
     <v>      11.00258152       0.00000000       0.00000000 </v>
     <v>       5.50129076       9.52851510       0.00000000 </v>
     <v>       0.00000000       0.00000000      24.49178509 </v>
    </varray>
    <i name="volume">   2567.67623402 </i>
    <varray name="rec_basis" >
     <v>       0.09088776      -0.05247407       0.00000000 </v>
     <v>       0.00000000       0.10494815       0.00000000 </v>
     <v>       0.00000000       0.00000000       0.04083002 </v>
    </varray>
   </crystal>
   <varray name="positions" >
    <v>       0.25000000       0.75000000       0.59169983 </v>
    <v>       0.58333333       0.83333333       0.40830017 </v>
    <v>       0.58333333       0.33333333       0.40830017 </v>
    <v>       0.50000000       0.00000000       0.59169983 </v>
    <v>       0.41666667       0.16666667       0.50000000 </v>
    <v>       0.50000000       0.75000000       0.59169983 </v>
    <v>       0.16666667       0.91666667       0.50000000 </v>
    <v>       0.33333333       0.83333333       0.40830017 </v>
    <v>       0.25000000       0.50000000       0.59169983 </v>
    <v>       0.83333333       0.08333333       0.40830017 </v>
    <v>       0.25000000       0.25000000       0.59169983 </v>
    <v>       0.75000000       0.00000000       0.59169983 </v>
    <v>       0.16666667       0.16666667       0.50000000 </v>
    <v>       0.58333333       0.58333333       0.40830017 </v>
    <v>       0.83333333       0.83333333       0.40830017 </v>
    <v>       0.91666667       0.16666667       0.50000000 </v>
    <v>       0.00000000       0.75000000       0.59169983 </v>
    <v>       0.00000000       0.00000000       0.59169983 </v>
    <v>       0.08333333       0.33333333       0.40830017 </v>
    <v>       0.91666667       0.41666667       0.50000000 </v>
    <v>       0.66666667       0.66666667       0.50000000 </v>
    <v>       0.75000000       0.50000000       0.59169983 </v>
    <v>       0.33333333       0.08333333       0.40830017 </v>
    <v>       0.00000000       0.25000000       0.59169983 </v>
    <v>       0.66666667       0.41666667       0.50000000 </v>
    <v>       0.83333333       0.58333333       0.40830017 </v>
    <v>       0.66666667       0.16666667       0.50000000 </v>
    <v>       0.75000000       0.25000000       0.59169983 </v>
    <v>       0.50000000       0.50000000       0.59169983 </v>
    <v>       0.41666667       0.91666667       0.50000000 </v>
    <v>       0.83333333       0.33333333       0.40830017 </v>
    <v>       0.08333333       0.08333333       0.40830017 </v>
    <v>       0.50000000       0.25000000       0.59169983 </v>
    <v>       0.41666667       0.41666667       0.50000000 </v>
    <v>       0.58333333       0.08333333       0.40830017 </v>
    <v>       0.66666667       0.91666667       0.50000000 </v>
    <v>       0.16666667       0.66666667       0.50000000 </v>
    <v>       0.33333333       0.58333333       0.40830017 </v>
    <v>       0.16666667       0.41666667       0.50000000 </v>
    <v>       0.33333333       0.33333333       0.40830017 </v>
    <v>       0.25000000       0.00000000       0.59169983 </v>
    <v>       0.91666667       0.91666667       0.50000000 </v>
    <v>       0.08333333       0.83333333       0.40830017 </v>
    <v>       0.00000000       0.50000000       0.59169983 </v>
    <v>       0.91666667       0.66666667       0.50000000 </v>
    <v>       0.08333333       0.58333333       0.40830017 </v>
    <v>       0.41666667       0.66666667       0.50000000 </v>
    <v>       0.75000000       0.75000000       0.59169983 </v>
   </varray>
  </structure>
  <varray name="forces" >
   <v>       0.25252609      -0.18434796       1.33191069 </v>
   <v>       0.21680817       0.13777403      -1.36982537 </v>
   <v>      -0.20775973       0.04900669      -1.12674166 </v>
   <v>       0.03057604      -0.13952670       1.34620024 </v>
   <v>       0.63634872       0.19375696      -0.24299963 </v>
   <v>      -0.12163299       0.07400247       1.31458034 </v>
   <v>      -0.00211609      -0.34235804      -0.34791052 </v>
   <v>      -0.36978908      -0.08666148      -1.35972263 </v>
   <v>       0.12324310      -0.19223647       1.08638121 </v>
   <v>       0.09154373      -0.03991736      -1.33713827 </v>
   <v>       0.03765374       0.17239177       1.58164933 </v>
   <v>      -0.11877974       0.18247486       1.12646842 </v>
   <v>       0.11638112      -0.28419451      -0.04235573 </v>
   <v>      -0.05099187      -0.30938080      -1.35553975 </v>
   <v>       0.14983413      -0.21813820      -1.09023976 </v>
   <v>      -0.59533887       0.18767423      -0.30403040 </v>
   <v>      -0.40348158      -0.23089399       1.11365028 </v>
   <v>      -0.06213943       0.15484289       1.60298329 </v>
   <v>       0.01931166       0.29258264      -1.57121472 </v>
   <v>       0.15998598       0.50408399      -0.30243302 </v>
   <v>       0.23978955       0.20624636       0.01612772 </v>
   <v>      -0.16249150      -0.07509796       1.56322104 </v>
   <v>       0.14256848       0.05955780      -1.57600525 </v>
   <v>      -0.01550199       0.04298331       1.87309161 </v>
   <v>      -0.47661369      -0.11862491       0.12958298 </v>
   <v>       0.18461901      -0.07980328      -0.84310782 </v>
   <v>      -0.13386153       0.11064708       0.17374028 </v>
   <v>      -0.34342826       0.14937852       0.73203013 </v>
   <v>      -0.03715916      -0.32400959       0.48591395 </v>
   <v>       0.02292640      -0.10010014       0.13921797 </v>
   <v>       0.04621407       0.03377180      -0.89194736 </v>
   <v>      -0.16113554      -0.02094400      -1.03432531 </v>
   <v>       0.29546131       0.21935193       0.66278966 </v>
   <v>       0.12064447       0.19126316      -0.06936893 </v>
   <v>       0.00044095       0.13240489      -0.68479078 </v>
   <v>       0.20965276      -0.00938317       0.02850425 </v>
   <v>      -0.08153285      -0.22876797      -0.54875413 </v>
   <v>      -0.34228122      -0.03181134      -0.47006239 </v>
   <v>       0.23651652       0.51942445      -0.21138041 </v>
   <v>       0.11432947       0.23350679      -0.64244158 </v>
   <v>       0.08563621      -0.05022475       0.98061529 </v>
   <v>      -0.23754258      -0.27099868      -0.22839109 </v>
   <v>       0.01751532      -0.22560511      -0.65236517 </v>
   <v>       0.03534758       0.15403786       0.77235390 </v>
   <v>       0.25503663      -0.02205890      -0.03323965 </v>
   <v>       0.21744904       0.01804174      -0.43021735 </v>
   <v>      -0.29678632      -0.38756049       0.00888181 </v>
   <v>       0.16200375      -0.04656047       0.69665425 </v>
  </varray>
  <energy>
   <i name="e_fr_energy">   -189.57720030 </i>
   <i name="e_wo_entrp">   -189.44257898 </i>
   <i name="e_0_energy">     -0.26924263 </i>
  </energy>
  <time name="totalsc">  281.21  284.46</time>
 </calculation>
 <calculation>
  <scstep>
   <time name="dav">    9.24    9.25</time>
   <time name="total">    9.61    9.62</time>
   <dipole>
    <v name="dipole">      0.00000000       0.00000000      -0.00503692 </v>
    <i name="Tr[quadrupol]"> -10238.79088230 </i>
    <i name="Echarged">      0.00000000 </i>
    <i name="Edipol_quadrupol">      0.00000000 </i>
    <i name="Eion">      0.00000000 </i>
   </dipole>
   <energy>
    <i name="alphaZ">    805.87098100 </i>
    <i name="ewald"> 197072.47922635 </i>
    <i name="hartreedc">-239276.56323284 </i>
    <i name="XCdc">   -345.85501463 </i>
    <i name="pawpsdc">  49270.56353862 </i>
    <i name="pawaedc"> -47349.08083021 </i>
    <i name="eentropy">     -0.26463786 </i>
    <i name="bandstr">  -2027.54012208 </i>
    <i name="atom">  41659.78587232 </i>
    <i name="e_fr_energy">   -190.60421933 </i>
    <i name="e_wo_entrp">   -190.33958147 </i>
    <i name="e_0_energy">   -190.47190040 </i>
   </energy>
  </scstep>
  <scstep>
   <time name="diag">    1.64    1.65</time>
   <time name="diis">    4.42    4.42</time>
   <time name="orth">    0.38    0.38</time>
   <time name="total">    6.80    6.80</time>
   <dipole>
    <v name="dipole">      0.00000000       0.00000000      -0.00196971 </v>
    <i name="Tr[quadrupol]"> -10238.54397366 </i>
    <i name="Echarged">      0.00000000 </i>
    <i name="Edipol_quadrupol">      0.00000000 </i>
    <i name="Eion">      0.00000000 </i>
   </dipole>
   <energy>
    <i name="e_fr_energy">   -190.97315711 </i>
    <i name="e_wo_entrp">   -190.70718546 </i>
    <i name="e_0_energy">   -190.84017128 </i>
   </energy>
  </scstep>
  <scstep>
   <time name="diag">    1.62    1.62</time>
   <time name="diis">    4.38    4.38</time>
   <time name="orth">    0.38    0.39</time>
   <time name="total">    6.73    6.78</time>
   <dipole>
    <v name="dipole">      0.00000000       0.00000000       0.01857466 </v>
    <i name="Tr[quadrupol]"> -10239.02783004 </i>
    <i name="Echarged">      0.00000000 </i>
    <i name="Edipol_quadrupol">      0.00000000 </i>
    <i name="Eion">      0.00000000 </i>
   </dipole>
   <energy>
    <i name="e_fr_energy">   -191.10680947 </i>
    <i name="e_wo_entrp">   -190.86126922 </i>
    <i name="e_0_energy">   -190.98403935 </i>
   </energy>
  </scstep>
  <scstep>
   <time name="diag">    1.59    1.62</time>
   <time name="diis">    4.51    4.52</time>
   <time name="orth">    0.46    0.46</time>
   <time name="total">    7.05    7.11</time>
   <dipole>
    <v name="dipole">      0.00000000       0.00000000      -0.04334723 </v>
    <i name="Tr[quadrupol]"> -10238.91835012 </i>
    <i name="Echarged">      0.00000000 </i>
    <i name="Edipol_quadrupol">      0.00000000 </i>
    <i name="Eion">      0.00000000 </i>
   </dipole>
   <energy>
    <i name="e_fr_energy">   -190.95639242 </i>
    <i name="e_wo_entrp">   -190.69312764 </i>
    <i name="e_0_energy">   -190.82476003 </i>
   </energy>
  </scstep>
  <scstep>
   <time name="diag">    1.97    1.98</time>
   <time name="diis">    4.34    4.34</time>
   <time name="orth">    0.38    0.38</time>
   <time name="total">    7.06    7.08</time>
   <dipole>
    <v name="dipole">      0.00000000       0.00000000       0.07058171 </v>
    <i name="Tr[quadrupol]"> -10238.91099720 </i>
    <i name="Echarged">      0.00000000 </i>
    <i name="Edipol_quadrupol">      0.00000000 </i>
    <i name="Eion">      0.00000000 </i>
   </dipole>
   <energy>
    <i name="e_fr_energy">   -191.01463373 </i>
    <i name="e_wo_entrp">   -190.74514789 </i>
    <i name="e_0_energy">   -190.87989081 </i>
   </energy>
  </scstep>
  <scstep>
   <time name="diag">    1.64    1.64</time>
   <time name="diis">    4.43    4.44</time>
   <time name="orth">    0.38    0.38</time>
   <time name="total">    6.81    6.82</time>
   <dipole>
    <v name="dipole">      0.00000000       0.00000000      -0.00706803 </v>
    <i name="Tr[quadrupol]"> -10238.89392819 </i>
    <i name="Echarged">      0.00000000 </i>
    <i name="Edipol_quadrupol">      0.00000000 </i>
    <i name="Eion">      0.00000000 </i>
   </dipole>
   <energy>
    <i name="e_fr_energy">   -190.94632770 </i>
    <i name="e_wo_entrp">   -190.67995017 </i>
    <i name="e_0_energy">   -190.81313893 </i>
   </energy>
  </scstep>
  <scstep>
   <time name="diag">    1.62    1.62</time>
   <time name="diis">    4.36    4.36</time>
   <time name="orth">    0.38    0.38</time>
   <time name="total">    6.72    6.73</time>
   <dipole>
    <v name="dipole">      0.00000000       0.00000000      -0.00338471 </v>
    <i name="Tr[quadrupol]"> -10238.87536264 </i>
    <i name="Echarged">      0.00000000 </i>
    <i name="Edipol_quadrupol">      0.00000000 </i>
    <i name="Eion">      0.00000000 </i>
   </dipole>
   <energy>
    <i name="e_fr_energy">   -190.93478913 </i>
    <i name="e_wo_entrp">   -190.66921526 </i>
    <i name="e_0_energy">   -190.80200220 </i>
   </energy>
  </scstep>
  <scstep>
   <time name="diag">    1.59    1.59</time>
   <time name="diis">    4.41    4.41</time>
   <time name="orth">    0.38    0.38</time>
   <time name="total">    6.74    6.74</time>
   <dipole>
    <v name="dipole">      0.00000000       0.00000000      -0.00073495 </v>
    <i name="Tr[quadrupol]"> -10238.85190523 </i>
    <i name="Echarged">      0.00000000 </i>
    <i name="Edipol_quadrupol">      0.00000000 </i>
    <i name="Eion">      0.00000000 </i>
   </dipole>
   <energy>
    <i name="e_fr_energy">   -190.93378420 </i>
    <i name="e_wo_entrp">   -190.66528695 </i>
    <i name="e_0_energy">   -190.79953557 </i>
   </energy>
  </scstep>
  <scstep>
   <time name="diag">    1.61    1.62</time>
   <time name="diis">    4.29    4.39</time>
   <time name="orth">    0.38    0.38</time>
   <time name="total">    6.64    6.76</time>
   <dipole>
    <v name="dipole">      0.00000000       0.00000000      -0.00491399 </v>
    <i name="Tr[quadrupol]"> -10238.83811442 </i>
    <i name="Echarged">      0.00000000 </i>
    <i name="Edipol_quadrupol">      0.00000000 </i>
    <i name="Eion">      0.00000000 </i>
   </dipole>
   <energy>
    <i name="e_fr_energy">   -190.93250301 </i>
    <i name="e_wo_entrp">   -190.66588743 </i>
    <i name="e_0_energy">   -190.79919522 </i>
   </energy>
  </scstep>
  <scstep>
   <time name="diag">    1.64    1.64</time>
   <time name="diis">    4.34    4.35</time>
   <time name="orth">    0.38    0.38</time>
   <time name="total">    6.71    6.73</time>
   <dipole>
    <v name="dipole">      0.00000000       0.00000000      -0.00315980 </v>
    <i name="Tr[quadrupol]"> -10238.83239433 </i>
    <i name="Echarged">      0.00000000 </i>
    <i name="Edipol_quadrupol">      0.00000000 </i>
    <i name="Eion">      0.00000000 </i>
   </dipole>
   <energy>
    <i name="e_fr_energy">   -190.93231842 </i>
    <i name="e_wo_entrp">   -190.66516036 </i>
    <i name="e_0_energy">   -190.79873939 </i>
   </energy>
  </scstep>
  <scstep>
   <time name="diag">    1.62    1.62</time>
   <time name="diis">    4.35    4.36</time>
   <time name="orth">    0.38    0.38</time>
   <time name="total">    6.71    6.72</time>
   <dipole>
    <v name="dipole">      0.00000000       0.00000000      -0.00244033 </v>
    <i name="Tr[quadrupol]"> -10238.83154279 </i>
    <i name="Echarged">      0.00000000 </i>
    <i name="Edipol_quadrupol">      0.00000000 </i>
    <i name="Eion">      0.00000000 </i>
   </dipole>
   <energy>
    <i name="e_fr_energy">   -190.93220625 </i>
    <i name="e_wo_entrp">   -190.66513735 </i>
    <i name="e_0_energy">   -190.79867180 </i>
   </energy>
  </scstep>
  <scstep>
   <time name="diag">    1.59    1.59</time>
   <time name="diis">    4.39    4.39</time>
   <time name="orth">    0.38    0.38</time>
   <time name="total">    6.72    6.73</time>
   <dipole>
    <v name="dipole">      0.00000000       0.00000000      -0.00335914 </v>
    <i name="Tr[quadrupol]"> -10238.83513371 </i>
    <i name="Echarged">      0.00000000 </i>
    <i name="Edipol_quadrupol">      0.00000000 </i>
    <i name="Eion">      0.00000000 </i>
   </dipole>
   <energy>
    <i name="e_fr_energy">   -190.93219676 </i>
    <i name="e_wo_entrp">   -190.66523787 </i>
    <i name="e_0_energy">   -190.79871731 </i>
   </energy>
  </scstep>
  <scstep>
   <time name="diag">    1.60    1.60</time>
   <time name="diis">    4.67    4.69</time>
   <time name="orth">    0.47    0.47</time>
   <time name="total">    7.23    7.26</time>
   <dipole>
    <v name="dipole">      0.00000000       0.00000000      -0.00306806 </v>
    <i name="Tr[quadrupol]"> -10238.83858177 </i>
    <i name="Echarged">      0.00000000 </i>
    <i name="Edipol_quadrupol">      0.00000000 </i>
    <i name="Eion">      0.00000000 </i>
   </dipole>
   <energy>
    <i name="e_fr_energy">   -190.93218658 </i>
    <i name="e_wo_entrp">   -190.66511067 </i>
    <i name="e_0_energy">   -190.79864862 </i>
   </energy>
  </scstep>
  <scstep>
   <time name="diag">    1.70    1.70</time>
   <time name="diis">    4.29    4.29</time>
   <time name="orth">    0.38    0.38</time>
   <time name="total">    6.75    6.75</time>
   <dipole>
    <v name="dipole">      0.00000000       0.00000000      -0.00306488 </v>
    <i name="Tr[quadrupol]"> -10238.84189149 </i>
    <i name="Echarged">      0.00000000 </i>
    <i name="Edipol_quadrupol">      0.00000000 </i>
    <i name="Eion">      0.00000000 </i>
   </dipole>
   <energy>
    <i name="e_fr_energy">   -190.93218491 </i>
    <i name="e_wo_entrp">   -190.66520944 </i>
    <i name="e_0_energy">   -190.79869718 </i>
   </energy>
  </scstep>
  <scstep>
   <time name="diag">    1.62    1.62</time>
   <time name="diis">    3.31    3.42</time>
   <time name="orth">    0.38    0.38</time>
   <time name="total">    5.68    5.78</time>
   <dipole>
    <v name="dipole">      0.00000000       0.00000000      -0.00309035 </v>
    <i name="Tr[quadrupol]"> -10238.84426000 </i>
    <i name="Echarged">      0.00000000 </i>
    <i name="Edipol_quadrupol">      0.00000000 </i>
    <i name="Eion">      0.00000000 </i>
   </dipole>
   <energy>
    <i name="e_fr_energy">   -190.93218313 </i>
    <i name="e_wo_entrp">   -190.66515704 </i>
    <i name="e_0_energy">   -190.79867008 </i>
   </energy>
  </scstep>
  <scstep>
   <time name="diag">    1.60    1.61</time>
   <time name="diis">    2.59    2.59</time>
   <time name="orth">    0.38    0.38</time>
   <time name="total">    4.63    4.63</time>
   <dipole>
    <v name="dipole">      0.00000000       0.00000000      -0.00308109 </v>
    <i name="Tr[quadrupol]"> -10238.84602817 </i>
    <i name="Echarged">      0.00000000 </i>
    <i name="Edipol_quadrupol">      0.00000000 </i>
    <i name="Eion">      0.00000000 </i>
   </dipole>
   <energy>
    <i name="alphaZ">    805.87035345 </i>
    <i name="ewald"> 197072.47922635 </i>
    <i name="hartreedc">-239279.50899900 </i>
    <i name="XCdc">   -345.79635413 </i>
    <i name="pawpsdc">  48844.67634287 </i>
    <i name="pawaedc"> -46920.11297176 </i>
    <i name="eentropy">     -0.26701260 </i>
    <i name="bandstr">  -2028.05864157 </i>
    <i name="atom">  41659.78587232 </i>
    <i name="e_fr_energy">   -190.93218407 </i>
    <i name="e_wo_entrp">   -190.66517147 </i>
    <i name="e_0_energy">   -190.79867777 </i>
   </energy>
  </scstep>
  <structure>
   <crystal>
    <varray name="basis" >
     <v>      11.00258152       0.00000000       0.00000000 </v>
     <v>       5.50129076       9.52851510       0.00000000 </v>
     <v>       0.00000000       0.00000000      24.49178509 </v>
    </varray>
    <i name="volume">   2567.67623402 </i>
    <varray name="rec_basis" >
     <v>       0.09088776      -0.05247407       0.00000000 </v>
     <v>       0.00000000       0.10494815       0.00000000 </v>
     <v>       0.00000000       0.00000000       0.04083002 </v>
    </varray>
   </crystal>
   <varray name="positions" >
    <v>       0.25110174       0.74934666       0.59353630 </v>
    <v>       0.58375463       0.83382162       0.40641142 </v>
    <v>       0.58260882       0.33350702       0.40674659 </v>
    <v>       0.50034109      -0.00049449       0.59355600 </v>
    <v>       0.41827645       0.16735336       0.49966495 </v>
    <v>       0.49949554       0.75026227       0.59351241 </v>
    <v>       0.16726684       0.91545332       0.49952029 </v>
    <v>       0.33235192       0.83302620       0.40642535 </v>
    <v>       0.25071892       0.49931870       0.59319776 </v>
    <v>       0.83368504       0.08319186       0.40645649 </v>
    <v>       0.24981008       0.25061097       0.59388065 </v>
    <v>       0.74931208       0.00064671       0.59325303 </v>
    <v>       0.16752748       0.16565946       0.49994160 </v>
    <v>       0.58372506       0.58223686       0.40643112 </v>
    <v>       0.83417976       0.83256023       0.40679692 </v>
    <v>       0.91450685       0.16733180       0.49958080 </v>
    <v>      -0.00082924       0.74918169       0.59323536 </v>
    <v>      -0.00046511       0.00054878       0.59391006 </v>
    <v>       0.08287414       0.33437027       0.40613374 </v>
    <v>       0.91626445       0.41845318       0.49958300 </v>
    <v>       0.66703717       0.66739762       0.50002224 </v>
    <v>       0.74963435       0.49973385       0.59385524 </v>
    <v>       0.33366538       0.08354441       0.40612714 </v>
    <v>      -0.00012375       0.25015234       0.59428249 </v>
    <v>       0.66541402       0.41624625       0.50017867 </v>
    <v>       0.83404139       0.58305050       0.40713767 </v>
    <v>       0.66605974       0.16705881       0.50023956 </v>
    <v>       0.74868122       0.25052941       0.59270917 </v>
    <v>       0.50046011       0.49885168       0.59236982 </v>
    <v>       0.41691442       0.91631190       0.50019196 </v>
    <v>       0.83341533       0.33345302       0.40707033 </v>
    <v>       0.08287588       0.08325911       0.40687402 </v>
    <v>       0.50051815       0.25077740       0.59261370 </v>
    <v>       0.41669803       0.41734452       0.49990435 </v>
    <v>       0.58310006       0.08380259       0.40735596 </v>
    <v>       0.66732677       0.91663341       0.50003930 </v>
    <v>       0.16682181       0.66585589       0.49924336 </v>
    <v>       0.33233915       0.58322059       0.40765204 </v>
    <v>       0.16647216       0.41850755       0.49970854 </v>
    <v>       0.33327046       0.33416090       0.40741436 </v>
    <v>       0.25035184      -0.00017800       0.59305193 </v>
    <v>       0.91641781       0.91570622       0.49968509 </v>
    <v>       0.08378687       0.83253377       0.40740067 </v>
    <v>      -0.00016447       0.50054592       0.59276477 </v>
    <v>       0.91748853       0.66658849       0.49995417 </v>
    <v>       0.08396877       0.58339727       0.40770698 </v>
    <v>       0.41644252       0.66529312       0.50001225 </v>
    <v>       0.75057974       0.74983499       0.59266039 </v>
   </varray>
  </structure>
  <varray name="forces" >
   <v>       0.04084135      -0.09938388       0.94208936 </v>
   <v>       0.08030138       0.04610585      -0.99752666 </v>
   <v>      -0.12584832      -0.00532546      -0.87931642 </v>
   <v>       0.01819179      -0.00515007       0.95477054 </v>
   <v>       0.21384119       0.09704543      -0.03446955 </v>
   <v>      -0.03869770      -0.02514646       0.95922853 </v>
   <v>      -0.09121712      -0.18226483      -0.05786963 </v>
   <v>      -0.13250781      -0.08523858      -1.01521121 </v>
   <v>       0.08757813      -0.07610607       0.81369484 </v>
   <v>       0.01550600      -0.03962764      -1.02889572 </v>
   <v>       0.04378910       0.07531452       1.04981914 </v>
   <v>      -0.04984973       0.11152711       0.85657358 </v>
   <v>       0.07262153      -0.02860533      -0.00353670 </v>
   <v>       0.00167079      -0.13551783      -0.95783462 </v>
   <v>       0.08681503      -0.13100709      -0.87019565 </v>
   <v>      -0.23427088       0.08545524      -0.04430256 </v>
   <v>      -0.13241196      -0.10981348       0.80792604 </v>
   <v>      -0.02200631       0.05852638       1.04578712 </v>
   <v>       0.03957382       0.11379843      -1.13855800 </v>
   <v>       0.07405364       0.12617346      -0.04910637 </v>
   <v>       0.01956001       0.12552497      -0.00076724 </v>
   <v>      -0.09347413      -0.04588090       1.10290420 </v>
   <v>       0.05932755       0.06230178      -1.12816927 </v>
   <v>      -0.03636114       0.04679740       1.22583476 </v>
   <v>      -0.22399183       0.02987076       0.03225403 </v>
   <v>       0.09392178      -0.00287376      -0.69535884 </v>
   <v>      -0.03973921       0.02444232       0.04664848 </v>
   <v>      -0.16168999       0.07471343       0.59809255 </v>
   <v>      -0.01235707      -0.18486833       0.44191507 </v>
   <v>       0.06777879      -0.07666097      -0.00521144 </v>
   <v>       0.02779692       0.02575326      -0.68094577 </v>
   <v>      -0.07683361       0.02883823      -0.75342033 </v>
   <v>       0.12769725       0.11652466       0.54583796 </v>
   <v>       0.05729676       0.13643289      -0.04551037 </v>
   <v>       0.05110426       0.07043411      -0.57510639 </v>
   <v>       0.13675736      -0.00465702       0.01660534 </v>
   <v>      -0.03732694      -0.09426976      -0.13272574 </v>
   <v>      -0.20216790      -0.02105246      -0.45126477 </v>
   <v>       0.12353979       0.17085144      -0.06157912 </v>
   <v>       0.03737425       0.14195759      -0.54700328 </v>
   <v>       0.00999802       0.00231688       0.70152015 </v>
   <v>      -0.12000063      -0.13468602      -0.04449923 </v>
   <v>      -0.01503697      -0.12208444      -0.57721053 </v>
   <v>      -0.02426173       0.03080534       0.57731733 </v>
   <v>       0.19570587       0.06120212      -0.02257541 </v>
   <v>       0.13655595      -0.00103727      -0.45353486 </v>
   <v>      -0.09071325      -0.20092188      -0.01911286 </v>
   <v>       0.04156593      -0.05053408       0.55199948 </v>
  </varray>
  <energy>
   <i name="e_fr_energy">   -190.93218407 </i>
   <i name="e_wo_entrp">   -190.79867777 </i>
   <i name="e_0_energy">     -0.26701260 </i>
  </energy>
  <time name="totalsc">  111.61  112.08</time>
 </calculation>
 <calculation>
  <scstep>
   <time name="dav">    9.28    9.29</time>
   <time name="total">    9.65    9.66</time>
   <dipole>
    <v name="dipole">      0.00000000       0.00000000      -0.00305872 </v>
    <i name="Tr[quadrupol]"> -10271.82618713 </i>
    <i name="Echarged">      0.00000000 </i>
    <i name="Edipol_quadrupol">      0.00000000 </i>
    <i name="Eion">      0.00000000 </i>
   </dipole>
   <energy>
    <i name="alphaZ">    805.87038842 </i>
    <i name="ewald"> 189327.10803437 </i>
    <i name="hartreedc">-231573.93487119 </i>
    <i name="XCdc">   -351.17145452 </i>
    <i name="pawpsdc">  48844.56029318 </i>
    <i name="pawaedc"> -46919.99680983 </i>
    <i name="eentropy">     -0.25032479 </i>
    <i name="bandstr">  -1981.65945758 </i>
    <i name="atom">  41659.78587232 </i>
    <i name="e_fr_energy">   -189.68832962 </i>
    <i name="e_wo_entrp">   -189.43800484 </i>
    <i name="e_0_energy">   -189.56316723 </i>
   </energy>
  </scstep>
  <scstep>
   <time name="diag">    1.61    1.61</time>
   <time name="diis">    4.43    4.43</time>
   <time name="orth">    0.38    0.38</time>
   <time name="total">    6.78    6.79</time>
   <dipole>
    <v name="dipole">      0.00000000       0.00000000      -0.00123594 </v>
    <i name="Tr[quadrupol]"> -10271.01468924 </i>
    <i name="Echarged">      0.00000000 </i>
    <i name="Edipol_quadrupol">      0.00000000 </i>
    <i name="Eion">      0.00000000 </i>
   </dipole>
   <energy>
    <i name="e_fr_energy">   -192.93930645 </i>
    <i name="e_wo_entrp">   -192.69760207 </i>
    <i name="e_0_energy">   -192.81845426 </i>
   </energy>
  </scstep>
  <scstep>
   <time name="diag">    1.64    1.64</time>
   <time name="diis">    4.56    4.56</time>
   <time name="orth">    0.38    0.38</time>
   <time name="total">    6.94    6.94</time>
   <dipole>
    <v name="dipole">      0.00000000       0.00000000       0.09081654 </v>
    <i name="Tr[quadrupol]"> -10272.22894653 </i>
    <i name="Echarged">      0.00000000 </i>
    <i name="Edipol_quadrupol">      0.00000000 </i>
    <i name="Eion">      0.00000000 </i>
   </dipole>
   <energy>
    <i name="e_fr_energy">   -193.69972241 </i>
    <i name="e_wo_entrp">   -193.51486326 </i>
    <i name="e_0_energy">   -193.60729283 </i>
   </energy>
  </scstep>
  <scstep>
   <time name="diag">    1.63    1.63</time>
   <time name="diis">    4.46    4.46</time>
   <time name="orth">    0.38    0.38</time>
   <time name="total">    6.83    6.84</time>
   <dipole>
    <v name="dipole">      0.00000000       0.00000000      -0.05602816 </v>
    <i name="Tr[quadrupol]"> -10272.00084336 </i>
    <i name="Echarged">      0.00000000 </i>
    <i name="Edipol_quadrupol">      0.00000000 </i>
    <i name="Eion">      0.00000000 </i>
   </dipole>
   <energy>
    <i name="e_fr_energy">   -192.64807689 </i>
    <i name="e_wo_entrp">   -192.39692449 </i>
    <i name="e_0_energy">   -192.52250069 </i>
   </energy>
  </scstep>
  <scstep>
   <time name="diag">    1.57    1.66</time>
   <time name="diis">    4.40    4.41</time>
   <time name="orth">    0.39    0.39</time>
   <time name="total">    6.78    6.89</time>
   <dipole>
    <v name="dipole">      0.00000000       0.00000000       0.20430945 </v>
    <i name="Tr[quadrupol]"> -10272.04454913 </i>
    <i name="Echarged">      0.00000000 </i>
    <i name="Edipol_quadrupol">      0.00000000 </i>
    <i name="Eion">      0.00000000 </i>
   </dipole>
   <energy>
    <i name="e_fr_energy">   -193.18540668 </i>
    <i name="e_wo_entrp">   -192.94326495 </i>
    <i name="e_0_energy">   -193.06433581 </i>
   </energy>
  </scstep>
  <scstep>
   <time name="diag">    2.08    2.09</time>
   <time name="diis">    4.38    4.38</time>
   <time name="orth">    0.39    0.39</time>
   <time name="total">    7.23    7.24</time>
   <dipole>
    <v name="dipole">      0.00000000       0.00000000      -0.04624063 </v>
    <i name="Tr[quadrupol]"> -10272.14097286 </i>
    <i name="Echarged">      0.00000000 </i>
    <i name="Edipol_quadrupol">      0.00000000 </i>
    <i name="Eion">      0.00000000 </i>
   </dipole>
   <energy>
    <i name="e_fr_energy">   -192.72541563 </i>
    <i name="e_wo_entrp">   -192.47639096 </i>
    <i name="e_0_energy">   -192.60090330 </i>
   </energy>
  </scstep>
  <scstep>
   <time name="diag">    1.65    1.65</time>
   <time name="diis">    4.46    4.46</time>
   <time name="orth">    0.39    0.39</time>
   <time name="total">    6.87    6.88</time>
   <dipole>
    <v name="dipole">      0.00000000       0.00000000       0.00089285 </v>
    <i name="Tr[quadrupol]"> -10272.04639293 </i>
    <i name="Echarged">      0.00000000 </i>
    <i name="Edipol_quadrupol">      0.00000000 </i>
    <i name="Eion">      0.00000000 </i>
   </dipole>
   <energy>
    <i name="e_fr_energy">   -192.59016004 </i>
    <i name="e_wo_entrp">   -192.33574327 </i>
    <i name="e_0_energy">   -192.46295165 </i>
   </energy>
  </scstep>
  <scstep>
   <time name="diag">    1.63    1.63</time>
   <time name="diis">    4.32    4.32</time>
   <time name="orth">    0.39    0.39</time>
   <time name="total">    6.70    6.71</time>
   <dipole>
    <v name="dipole">      0.00000000       0.00000000       0.00275917 </v>
    <i name="Tr[quadrupol]"> -10271.90442298 </i>
    <i name="Echarged">      0.00000000 </i>
    <i name="Edipol_quadrupol">      0.00000000 </i>
    <i name="Eion">      0.00000000 </i>
[...]
       <r>    2.2636    0.0000 </r>
       <r>    2.4093    0.0000 </r>
       <r>    2.5575    0.0000 </r>
       <r>    2.5853    0.0000 </r>
       <r>    2.7252    0.0000 </r>
       <r>    2.9894    0.0000 </r>
       <r>    3.0576    0.0000 </r>
       <r>    3.2276    0.0000 </r>
       <r>    3.5435    0.0000 </r>
       <r>    3.5621    0.0000 </r>
       <r>    3.7380    0.0000 </r>
       <r>    4.0306    0.0000 </r>
       <r>    4.1087    0.0000 </r>
       <r>    4.2125    0.0000 </r>
       <r>    4.4695    0.0000 </r>
       <r>    4.5181    0.0000 </r>
       <r>    4.5666    0.0000 </r>
       <r>    4.5906    0.0000 </r>
       <r>    4.6402    0.0000 </r>
       <r>    4.8159    0.0000 </r>
       <r>    4.8858    0.0000 </r>
       <r>    4.9437    0.0000 </r>
       <r>    4.9868    0.0000 </r>
       <r>    5.0537    0.0000 </r>
       <r>    5.0872    0.0000 </r>
       <r>    5.1021    0.0000 </r>
       <r>    5.2118    0.0000 </r>
       <r>    5.2660    0.0000 </r>
      </set>
     </set>
    </set>
   </array>
  </eigenvalues>
  <separator name="orbital magnetization" >
   <v name="MAGDIPOLOUT">      0.00000000      0.00000000      0.00000000</v>
  </separator>
  <dos>
   <i name="efermi">     -1.10650181 </i>
   <total>
    <array>
     <dimension dim="1">gridpoints</dimension>
     <dimension dim="2">spin</dimension>
     <field>energy</field>
     <field>total</field>
     <field>integrated</field>
     <set>
      <set comment="spin 1">
       <r>    -9.6585     0.0000     0.0000 </r>
       <r>    -9.6050     0.0000     0.0000 </r>
       <r>    -9.5516     0.0000     0.0000 </r>
       <r>    -9.4982     0.0000     0.0000 </r>
       <r>    -9.4448     0.0000     0.0000 </r>
       <r>    -9.3913     0.0000     0.0000 </r>
       <r>    -9.3379     0.0000     0.0000 </r>
       <r>    -9.2845     0.0000     0.0000 </r>
       <r>    -9.2310     0.0000     0.0000 </r>
       <r>    -9.1776     0.0000     0.0000 </r>
       <r>    -9.1242     0.0000     0.0000 </r>
       <r>    -9.0707     0.0000     0.0000 </r>
       <r>    -9.0173     0.0000     0.0000 </r>
       <r>    -8.9639     0.0001     0.0000 </r>
       <r>    -8.9104     0.0023     0.0001 </r>
       <r>    -8.8570     0.0316     0.0018 </r>
       <r>    -8.8036     0.2574     0.0156 </r>
       <r>    -8.7501     1.2145     0.0805 </r>
       <r>    -8.6967     3.3393     0.2589 </r>
       <r>    -8.6433     5.4316     0.5491 </r>
       <r>    -8.5899     5.6431     0.8506 </r>
       <r>    -8.5364     5.0290     1.1193 </r>
       <r>    -8.4830     5.4378     1.4099 </r>
       <r>    -8.4296     5.4608     1.7016 </r>
       <r>    -8.3761     3.6640     1.8974 </r>
       <r>    -8.3227     1.4969     1.9774 </r>
       <r>    -8.2693     0.3712     1.9972 </r>
       <r>    -8.2158     0.1068     2.0029 </r>
       <r>    -8.1624     0.3032     2.0191 </r>
       <r>    -8.1090     1.0031     2.0727 </r>
       <r>    -8.0555     2.1870     2.1896 </r>
       <r>    -8.0021     3.5323     2.3783 </r>
       <r>    -7.9487     4.8461     2.6373 </r>
       <r>    -7.8953     6.3321     2.9756 </r>
       <r>    -7.8418     8.8496     3.4484 </r>
       <r>    -7.7884    11.9812     4.0886 </r>
       <r>    -7.7350    12.9132     4.7786 </r>
       <r>    -7.6815    10.5433     5.3419 </r>
       <r>    -7.6281     6.8986     5.7105 </r>
       <r>    -7.5747     4.4277     5.9471 </r>
       <r>    -7.5212     4.8250     6.2049 </r>
       <r>    -7.4678     8.2214     6.6442 </r>
       <r>    -7.4144    11.5438     7.2610 </r>
       <r>    -7.3609    11.7087     7.8866 </r>
       <r>    -7.3075     9.9228     8.4167 </r>
       <r>    -7.2541     8.7324     8.8833 </r>
       <r>    -7.2006     9.0579     9.3673 </r>
       <r>    -7.1472    11.0931     9.9600 </r>
       <r>    -7.0938    14.4211    10.7305 </r>
       <r>    -7.0404    18.4911    11.7185 </r>
       <r>    -6.9869    22.8605    12.9400 </r>
       <r>    -6.9335    27.3825    14.4031 </r>
       <r>    -6.8801    32.5819    16.1440 </r>
       <r>    -6.8266    37.2379    18.1336 </r>
       <r>    -6.7732    39.8048    20.2604 </r>
       <r>    -6.7198    41.4043    22.4727 </r>
       <r>    -6.6663    43.6060    24.8026 </r>
       <r>    -6.6129    46.5786    27.2914 </r>
       <r>    -6.5595    49.7383    29.9489 </r>
       <r>    -6.5060    52.5806    32.7584 </r>
       <r>    -6.4526    55.1006    35.7024 </r>
       <r>    -6.3992    57.0868    38.7527 </r>
       <r>    -6.3458    59.1753    41.9144 </r>
       <r>    -6.2923    62.5514    45.2566 </r>
       <r>    -6.2389    65.7669    48.7706 </r>
       <r>    -6.1855    67.6135    52.3833 </r>
       <r>    -6.1320    70.2515    56.1369 </r>
       <r>    -6.0786    75.0684    60.1479 </r>
       <r>    -6.0252    80.4706    64.4475 </r>
       <r>    -5.9717    83.9401    68.9325 </r>
       <r>    -5.9183    83.8542    73.4129 </r>
       <r>    -5.8649    80.3283    77.7049 </r>
       <r>    -5.8114    75.0079    81.7127 </r>
       <r>    -5.7580    70.7479    85.4928 </r>
       <r>    -5.7046    69.5582    89.2094 </r>
       <r>    -5.6512    70.1795    92.9591 </r>
       <r>    -5.5977    70.4475    96.7232 </r>
       <r>    -5.5443    69.8969   100.4579 </r>
       <r>    -5.4909    68.9379   104.1413 </r>
       <r>    -5.4374    69.7759   107.8695 </r>
       <r>    -5.3840    74.3167   111.8403 </r>
       <r>    -5.3306    80.5262   116.1429 </r>
       <r>    -5.2771    85.4399   120.7080 </r>
       <r>    -5.2237    88.0135   125.4107 </r>
       <r>    -5.1703    88.4510   130.1367 </r>
       <r>    -5.1168    87.5817   134.8163 </r>
       <r>    -5.0634    86.6168   139.4443 </r>
       <r>    -5.0100    86.0887   144.0441 </r>
       <r>    -4.9565    85.4106   148.6077 </r>
       <r>    -4.9031    84.9504   153.1467 </r>
       <r>    -4.8497    86.3519   157.7605 </r>
       <r>    -4.7963    88.5928   162.4941 </r>
       <r>    -4.7428    88.4199   167.2185 </r>
       <r>    -4.6894    86.2536   171.8271 </r>
       <r>    -4.6360    85.8790   176.4157 </r>
       <r>    -4.5825    88.7343   181.1569 </r>
       <r>    -4.5291    93.0477   186.1285 </r>
       <r>    -4.4757    95.9456   191.2550 </r>
       <r>    -4.4222    95.8721   196.3775 </r>
       <r>    -4.3688    94.2372   201.4127 </r>
       <r>    -4.3154    92.9876   206.3811 </r>
       <r>    -4.2619    92.5486   211.3261 </r>
       <r>    -4.2085    91.9910   216.2413 </r>
       <r>    -4.1551    90.3875   221.0708 </r>
       <r>    -4.1017    88.0315   225.7744 </r>
       <r>    -4.0482    85.7740   230.3574 </r>
       <r>    -3.9948    84.6737   234.8816 </r>
       <r>    -3.9414    85.5302   239.4515 </r>
       <r>    -3.8879    88.3909   244.1743 </r>
       <r>    -3.8345    92.7700   249.1311 </r>
       <r>    -3.7811    97.3186   254.3310 </r>
       <r>    -3.7276   100.5122   259.7014 </r>
       <r>    -3.6742   102.1681   265.1604 </r>
       <r>    -3.6208   102.7913   270.6526 </r>
       <r>    -3.5673   102.8745   276.1493 </r>
       <r>    -3.5139   103.3515   281.6715 </r>
       <r>    -3.4605   104.0441   287.2307 </r>
       <r>    -3.4070   103.5800   292.7651 </r>
       <r>    -3.3536   101.8686   298.2080 </r>
       <r>    -3.3002   100.4668   303.5760 </r>
       <r>    -3.2468   100.2351   308.9317 </r>
       <r>    -3.1933    98.9731   314.2199 </r>
       <r>    -3.1399    94.9349   319.2924 </r>
       <r>    -3.0865    90.6088   324.1337 </r>
       <r>    -3.0330    88.1838   328.8455 </r>
       <r>    -2.9796    86.6204   333.4737 </r>
       <r>    -2.9262    85.1566   338.0237 </r>
       <r>    -2.8727    84.9775   342.5641 </r>
       <r>    -2.8193    86.3881   347.1799 </r>
       <r>    -2.7659    88.0070   351.8822 </r>
       <r>    -2.7124    89.0967   356.6427 </r>
       <r>    -2.6590    89.5061   361.4251 </r>
       <r>    -2.6056    89.9165   366.2295 </r>
       <r>    -2.5522    91.8611   371.1377 </r>
       <r>    -2.4987    94.2768   376.1750 </r>
       <r>    -2.4453    94.6785   381.2338 </r>
       <r>    -2.3919    93.7190   386.2413 </r>
       <r>    -2.3384    93.5960   391.2422 </r>
       <r>    -2.2850    94.5304   396.2930 </r>
       <r>    -2.2316    95.9054   401.4174 </r>
       <r>    -2.1781    96.4730   406.5720 </r>
       <r>    -2.1247    95.2819   411.6630 </r>
       <r>    -2.0713    94.1839   416.6954 </r>
       <r>    -2.0178    94.3726   421.7378 </r>
       <r>    -1.9644    94.5745   426.7910 </r>
       <r>    -1.9110    94.1155   431.8197 </r>
       <r>    -1.8575    93.6384   436.8229 </r>
       <r>    -1.8041    94.2899   441.8609 </r>
       <r>    -1.7507    96.1361   446.9975 </r>
       <r>    -1.6973    97.2633   452.1944 </r>
       <r>    -1.6438    96.5084   457.3509 </r>
       <r>    -1.5904    95.1907   462.4371 </r>
       <r>    -1.5370    95.1745   467.5223 </r>
       <r>    -1.4835    96.5411   472.6806 </r>
       <r>    -1.4301    97.6822   477.8999 </r>
       <r>    -1.3767    97.5728   483.1133 </r>
       <r>    -1.3232    95.3453   488.2077 </r>
       <r>    -1.2698    89.2350   492.9756 </r>
       <r>    -1.2164    79.5276   497.2248 </r>
       <r>    -1.1629    68.0452   500.8606 </r>
       <r>    -1.1095    55.9510   503.8501 </r>
       <r>    -1.0561    44.5714   506.2316 </r>
       <r>    -1.0027    33.7356   508.0341 </r>
       <r>    -0.9492    22.7126   509.2477 </r>
       <r>    -0.8958    13.8338   509.9868 </r>
       <r>    -0.8424     9.6236   510.5010 </r>
       <r>    -0.7889     8.7849   510.9704 </r>
       <r>    -0.7355     8.5557   511.4275 </r>
       <r>    -0.6821     7.9526   511.8525 </r>
       <r>    -0.6286     8.1400   512.2874 </r>
       <r>    -0.5752    10.7682   512.8627 </r>
       <r>    -0.5218    15.5462   513.6934 </r>
       <r>    -0.4683    20.0782   514.7662 </r>
       <r>    -0.4149    21.7436   515.9280 </r>
       <r>    -0.3615    19.7524   516.9834 </r>
       <r>    -0.3081    16.5090   517.8655 </r>
       <r>    -0.2546    16.3566   518.7394 </r>
       <r>    -0.2012    19.5129   519.7820 </r>
       <r>    -0.1478    20.8153   520.8942 </r>
       <r>    -0.0943    18.1172   521.8622 </r>
       <r>    -0.0409    14.3680   522.6299 </r>
       <r>     0.0125    12.5375   523.2998 </r>
       <r>     0.0660    14.5748   524.0785 </r>
       <r>     0.1194    19.0579   525.0968 </r>
       <r>     0.1728    21.0108   526.2194 </r>
       <r>     0.2263    19.7074   527.2724 </r>
       <r>     0.2797    18.5417   528.2631 </r>
       <r>     0.3331    18.0555   529.2278 </r>
       <r>     0.3866    17.0392   530.1383 </r>
       <r>     0.4400    16.0702   530.9969 </r>
       <r>     0.4934    17.1388   531.9127 </r>
       <r>     0.5468    19.5003   532.9546 </r>
       <r>     0.6003    20.0369   534.0252 </r>
       <r>     0.6537    19.7337   535.0796 </r>
       <r>     0.7071    20.8217   536.1921 </r>
       <r>     0.7606    20.8909   537.3083 </r>
       <r>     0.8140    16.9983   538.2165 </r>
       <r>     0.8674    11.0374   538.8063 </r>
       <r>     0.9209     8.0061   539.2341 </r>
       <r>     0.9743     9.7288   539.7539 </r>
       <r>     1.0277    12.7645   540.4359 </r>
       <r>     1.0812    13.6709   541.1663 </r>
       <r>     1.1346    12.2087   541.8187 </r>
       <r>     1.1880     9.6186   542.3326 </r>
       <r>     1.2414     7.6629   542.7420 </r>
       <r>     1.2949     6.9441   543.1131 </r>
       <r>     1.3483     6.2218   543.4455 </r>
       <r>     1.4017     5.9241   543.7620 </r>
       <r>     1.4552     8.6642   544.2250 </r>
       <r>     1.5086    14.0482   544.9756 </r>
       <r>     1.5620    17.8521   545.9294 </r>
       <r>     1.6155    18.6711   546.9270 </r>
       <r>     1.6689    19.2724   547.9568 </r>
       <r>     1.7223    20.3231   549.0427 </r>
       <r>     1.7758    19.6631   550.0933 </r>
       <r>     1.8292    16.4250   550.9709 </r>
       <r>     1.8826    11.8747   551.6054 </r>
       <r>     1.9361     8.3923   552.0538 </r>
       <r>     1.9895     7.6331   552.4616 </r>
       <r>     2.0429     8.4952   552.9155 </r>
       <r>     2.0963     9.4664   553.4213 </r>
       <r>     2.1498    11.1862   554.0190 </r>
       <r>     2.2032    14.7194   554.8055 </r>
       <r>     2.2566    18.8342   555.8118 </r>
       <r>     2.3101    20.9974   556.9337 </r>
       <r>     2.3635    21.8163   558.0994 </r>
       <r>     2.4169    22.3175   559.2918 </r>
       <r>     2.4704    21.3285   560.4314 </r>
       <r>     2.5238    20.4111   561.5220 </r>
       <r>     2.5772    22.4818   562.7233 </r>
       <r>     2.6307    26.3262   564.1299 </r>
       <r>     2.6841    27.9008   565.6207 </r>
       <r>     2.7375    24.6931   566.9400 </r>
       <r>     2.7909    17.8007   567.8911 </r>
       <r>     2.8444    11.2067   568.4899 </r>
       <r>     2.8978     7.9444   568.9144 </r>
       <r>     2.9512     7.7576   569.3289 </r>
       <r>     3.0047     8.6636   569.7918 </r>
       <r>     3.0581     9.7500   570.3128 </r>
       <r>     3.1115    11.3971   570.9217 </r>
       <r>     3.1650    12.7756   571.6043 </r>
       <r>     3.2184    12.0268   572.2469 </r>
       <r>     3.2718     8.9056   572.7228 </r>
       <r>     3.3253     5.8903   573.0375 </r>
       <r>     3.3787     5.4211   573.3272 </r>
       <r>     3.4321     6.7310   573.6868 </r>
       <r>     3.4856     8.4782   574.1398 </r>
       <r>     3.5390    11.3718   574.7474 </r>
       <r>     3.5924    15.2097   575.5601 </r>
       <r>     3.6458    18.5809   576.5529 </r>
       <r>     3.6993    20.8492   577.6669 </r>
       <r>     3.7527    20.7103   578.7734 </r>
       <r>     3.8061    17.3214   579.6989 </r>
       <r>     3.8596    13.1160   580.3997 </r>
       <r>     3.9130    10.4559   580.9584 </r>
       <r>     3.9664     9.7999   581.4820 </r>
       <r>     4.0199    11.4538   582.0940 </r>
       <r>     4.0733    13.5812   582.8197 </r>
       <r>     4.1267    14.1432   583.5754 </r>
       <r>     4.1802    14.0614   584.3267 </r>
       <r>     4.2336    13.5026   585.0481 </r>
       <r>     4.2870    11.0494   585.6385 </r>
       <r>     4.3404     8.6207   586.0991 </r>
       <r>     4.3939    10.0715   586.6373 </r>
       <r>     4.4473    14.3855   587.4059 </r>
       <r>     4.5007    17.9320   588.3640 </r>
       <r>     4.5542    21.0435   589.4884 </r>
       <r>     4.6076    24.7179   590.8091 </r>
       <r>     4.6610    25.8563   592.1906 </r>
       <r>     4.7145    22.4260   593.3889 </r>
       <r>     4.7679    18.7351   594.3899 </r>
       <r>     4.8213    19.5444   595.4342 </r>
       <r>     4.8748    24.0156   596.7174 </r>
       <r>     4.9282    28.8941   598.2612 </r>
       <r>     4.9816    32.3671   599.9906 </r>
       <r>     5.0350    34.4079   601.8290 </r>
       <r>     5.0885    34.5292   603.6740 </r>
       <r>     5.1419    32.2539   605.3973 </r>
       <r>     5.1953    30.2234   607.0122 </r>
       <r>     5.2488    29.5927   608.5934 </r>
       <r>     5.3022    26.4372   610.0059 </r>
       <r>     5.3556    19.2303   611.0334 </r>
       <r>     5.4091    11.1754   611.6305 </r>
       <r>     5.4625     4.9959   611.8975 </r>
       <r>     5.5159     1.5641   611.9810 </r>
       <r>     5.5694     0.3137   611.9978 </r>
       <r>     5.6228     0.0382   611.9998 </r>
       <r>     5.6762     0.0027   612.0000 </r>
       <r>     5.7297     0.0001   612.0000 </r>
       <r>     5.7831     0.0000   612.0000 </r>
       <r>     5.8365     0.0000   612.0000 </r>
       <r>     5.8899     0.0000   612.0000 </r>
       <r>     5.9434     0.0000   612.0000 </r>
       <r>     5.9968     0.0000   612.0000 </r>
       <r>     6.0502     0.0000   612.0000 </r>
       <r>     6.1037     0.0000   612.0000 </r>
       <r>     6.1571     0.0000   612.0000 </r>
       <r>     6.2105     0.0000   612.0000 </r>
       <r>     6.2640     0.0000   612.0000 </r>
       <r>     6.3174     0.0000   612.0000 </r>
       <r>     6.3708     0.0000   612.0000 </r>
      </set>
     </set>
    </array>
   </total>
  </dos>
 </calculation>
 <structure name="finalpos" >
  <crystal>
   <varray name="basis" >
    <v>      11.00258152       0.00000000       0.00000000 </v>
    <v>       5.50129076       9.52851510       0.00000000 </v>
    <v>       0.00000000       0.00000000      24.49178509 </v>
   </varray>
   <i name="volume">   2567.67623402 </i>
   <varray name="rec_basis" >
    <v>       0.09088776      -0.05247407       0.00000000 </v>
    <v>       0.00000000       0.10494815       0.00000000 </v>
    <v>       0.00000000       0.00000000       0.04083002 </v>
   </varray>
  </crystal>
  <varray name="positions" >
   <v>       0.25054772       0.74839990       0.60338577 </v>
   <v>       0.58487554       0.83407262       0.39582761 </v>
   <v>       0.58202086       0.33364099       0.39760609 </v>
   <v>       0.49903409      -0.00083806       0.59964908 </v>
   <v>       0.41879703       0.16724604       0.49863885 </v>
   <v>       0.49832631       0.74948186       0.59934030 </v>
   <v>       0.16803819       0.91371732       0.50069526 </v>
   <v>       0.33170195       0.83291247       0.39717272 </v>
   <v>       0.25128804       0.49750277       0.60146877 </v>
   <v>       0.83553857       0.08306785       0.39776903 </v>
   <v>       0.24875668       0.25009416       0.60368073 </v>
   <v>       0.74706734       0.00141380       0.59932074 </v>
   <v>       0.16789029       0.16711270       0.50038535 </v>
   <v>       0.58508612       0.58137683       0.39654610 </v>
   <v>       0.83689587       0.83120357       0.39914098 </v>
   <v>       0.91392173       0.16741818       0.50079417 </v>
   <v>      -0.00262548       0.74775491       0.60162782 </v>
   <v>      -0.00223944       0.00102207       0.60573843 </v>
   <v>       0.08335468       0.33587685       0.39674189 </v>
   <v>       0.91690236       0.41910997       0.50039090 </v>
   <v>       0.66631549       0.66853948       0.49854422 </v>
   <v>       0.74800755       0.49894475       0.60338155 </v>
   <v>       0.33371757       0.08492230       0.39473671 </v>
   <v>      -0.00210438       0.25016453       0.60860774 </v>
   <v>       0.66359946       0.41811967       0.49826831 </v>
   <v>       0.83612704       0.58299710       0.40229570 </v>
   <v>       0.66677841       0.16735645       0.49848373 </v>
   <v>       0.74678536       0.25088994       0.59634185 </v>
   <v>       0.50042205       0.49722638       0.59436788 </v>
   <v>       0.41808577       0.91629647       0.49761857 </v>
   <v>       0.83493816       0.33366070       0.40253110 </v>
   <v>       0.08304535       0.08427314       0.40310194 </v>
   <v>       0.49974972       0.25076893       0.59530327 </v>
   <v>       0.41681504       0.41855121       0.49874313 </v>
   <v>       0.58390836       0.08419495       0.40154989 </v>
   <v>       0.66889363       0.91676272       0.49857462 </v>
   <v>       0.16775601       0.66524708       0.50207638 </v>
   <v>       0.33120212       0.58377258       0.40422042 </v>
   <v>       0.16781353       0.41870234       0.50087684 </v>
   <v>       0.33323550       0.33493343       0.40277524 </v>
   <v>       0.24847001       0.00003221       0.59776699 </v>
   <v>       0.91581411       0.91555052       0.50050667 </v>
   <v>       0.08517083       0.83179599       0.40502824 </v>
   <v>      -0.00173391       0.49902999       0.59784871 </v>
   <v>       0.91925787       0.66847941       0.50022175 </v>
   <v>       0.08705824       0.58288103       0.40559275 </v>
   <v>       0.41647555       0.66563181       0.49899673 </v>
   <v>       0.74921709       0.74868812       0.59571845 </v>
  </varray>
 </structure>
</modeling>
