unknown system                          
           1
    11.002582    0.000000    0.000000
     5.501291    9.528515    0.000000
     0.000000    0.000000   24.491785
   Au   Pd
  24  24
Direct configuration=     1
   0.25000000  0.75000000  0.59169983
   0.58333333  0.83333333  0.40830017
   0.58333333  0.33333333  0.40830017
   0.50000000  0.00000000  0.59169983
   0.41666667  0.16666667  0.50000000
   0.50000000  0.75000000  0.59169983
   0.16666667  0.91666667  0.50000000
   0.33333333  0.83333333  0.40830017
   0.25000000  0.50000000  0.59169983
   0.83333333  0.08333333  0.40830017
   0.25000000  0.25000000  0.59169983
   0.75000000  0.00000000  0.59169983
   0.16666667  0.16666667  0.50000000
   0.58333333  0.58333333  0.40830017
   0.83333333  0.83333333  0.40830017
   0.91666667  0.16666667  0.50000000
   0.00000000  0.75000000  0.59169983
   0.00000000  0.00000000  0.59169983
   0.08333333  0.33333333  0.40830017
   0.91666667  0.41666667  0.50000000
   0.66666667  0.66666667  0.50000000
   0.75000000  0.50000000  0.59169983
   0.33333333  0.08333333  0.40830017
   0.00000000  0.25000000  0.59169983
   0.66666667  0.41666667  0.50000000
   0.83333333  0.58333333  0.40830017
   0.66666667  0.16666667  0.50000000
   0.75000000  0.25000000  0.59169983
   0.50000000  0.50000000  0.59169983
   0.41666667  0.91666667  0.50000000
   0.83333333  0.33333333  0.40830017
   0.08333333  0.08333333  0.40830017
   0.50000000  0.25000000  0.59169983
   0.41666667  0.41666667  0.50000000
   0.58333333  0.08333333  0.40830017
   0.66666667  0.91666667  0.50000000
   0.16666667  0.66666667  0.50000000
   0.33333333  0.58333333  0.40830017
   0.16666667  0.41666667  0.50000000
   0.33333333  0.33333333  0.40830017
   0.25000000  0.00000000  0.59169983
   0.91666667  0.91666667  0.50000000
   0.08333333  0.83333333  0.40830017
   0.00000000  0.50000000  0.59169983
   0.91666667  0.66666667  0.50000000
   0.08333333  0.58333333  0.40830017
   0.41666667  0.66666667  0.50000000
   0.75000000  0.75000000  0.59169983
Direct configuration=     2
   0.25110174  0.74934666  0.59353630
   0.58375463  0.83382162  0.40641142
   0.58260882  0.33350702  0.40674659
   0.50034109 -0.00049449  0.59355600
   0.41827645  0.16735336  0.49966495
   0.49949554  0.75026227  0.59351241
   0.16726684  0.91545332  0.49952029
   0.33235192  0.83302620  0.40642535
   0.25071892  0.49931870  0.59319776
   0.83368504  0.08319186  0.40645649
   0.24981008  0.25061097  0.59388065
   0.74931208  0.00064671  0.59325303
   0.16752748  0.16565946  0.49994160
   0.58372506  0.58223686  0.40643112
   0.83417976  0.83256023  0.40679692
   0.91450685  0.16733180  0.49958080
  -0.00082924  0.74918169  0.59323536
  -0.00046511  0.00054878  0.59391006
   0.08287414  0.33437027  0.40613374
   0.91626445  0.41845318  0.49958300
   0.66703717  0.66739762  0.50002224
   0.74963435  0.49973385  0.59385524
   0.33366538  0.08354441  0.40612714
  -0.00012375  0.25015234  0.59428249
   0.66541402  0.41624625  0.50017867
   0.83404139  0.58305050  0.40713767
   0.66605974  0.16705881  0.50023956
   0.74868122  0.25052941  0.59270917
   0.50046011  0.49885168  0.59236982
   0.41691442  0.91631190  0.50019196
   0.83341533  0.33345302  0.40707033
   0.08287588  0.08325911  0.40687402
   0.50051815  0.25077740  0.59261370
   0.41669803  0.41734452  0.49990435
   0.58310006  0.08380259  0.40735596
   0.66732677  0.91663341  0.50003930
   0.16682181  0.66585589  0.49924336
   0.33233915  0.58322059  0.40765204
   0.16647216  0.41850755  0.49970854
   0.33327046  0.33416090  0.40741436
   0.25035184 -0.00017800  0.59305193
   0.91641781  0.91570622  0.49968509
   0.08378687  0.83253377  0.40740067
  -0.00016447  0.50054592  0.59276477
   0.91748853  0.66658849  0.49995417
   0.08396877  0.58339727  0.40770698
   0.41644252  0.66529312  0.50001225
   0.75057974  0.74983499  0.59266039
Direct configuration=     3
   0.25440697  0.74738662  0.59904571
   0.58501854  0.83528646  0.40074518
   0.58043529  0.33402807  0.40208586
   0.50136437 -0.00197798  0.59912452
   0.42310578  0.16941343  0.49865979
   0.49798216  0.75104908  0.59895013
   0.16906738  0.91181328  0.49808117
   0.32940768  0.83210479  0.40080090
   0.25287567  0.49727479  0.59769154
   0.83474016  0.08276745  0.40092546
   0.24924034  0.25244388  0.60042309
   0.74724832  0.00258682  0.59791264
   0.17010990  0.16263783  0.49976640
   0.58490025  0.57894745  0.40082397
   0.83671906  0.83024093  0.40228717
   0.90802738  0.16932720  0.49832318
  -0.00331696  0.74672677  0.59784194
  -0.00186044  0.00219510  0.60054076
   0.08149655  0.33748108  0.39963446
   0.91505779  0.42381273  0.49833199
   0.66814867  0.66959048  0.50008895
   0.74853739  0.49893539  0.60032146
   0.33466150  0.08417764  0.39960803
  -0.00049499  0.25060935  0.60203048
   0.66165608  0.41498500  0.50071469
   0.83616557  0.58220202  0.40365018
   0.66423895  0.16823524  0.50095823
   0.74472489  0.25211764  0.59573719
   0.50184043  0.49540673  0.59437979
   0.41765766  0.91524761  0.50076783
   0.83366133  0.33381209  0.40338082
   0.08150352  0.08303642  0.40259556
   0.50207259  0.25310961  0.59535531
   0.41679212  0.41937808  0.49961741
   0.58240024  0.08521035  0.40452335
   0.66930710  0.91653365  0.50015721
   0.16728723  0.66342358  0.49697346
   0.32935661  0.58288237  0.40570764
   0.16588863  0.42403020  0.49883417
   0.33308183  0.33664360  0.40475691
   0.25140736 -0.00071200  0.59710821
   0.91567122  0.91282490  0.49874036
   0.08514750  0.83013508  0.40470218
  -0.00065788  0.50218369  0.59595959
   0.91995413  0.66635395  0.49981667
   0.08587509  0.58358910  0.40592739
   0.41577009  0.66117248  0.50004899
   0.75231896  0.74933994  0.59554208
Direct configuration=     4
   0.25207954  0.74784046  0.59992818
   0.58449361  0.83430976  0.39976475
   0.58117233  0.33331957  0.40094954
   0.50059734 -0.00049037  0.60001448
   0.41981662  0.16896152  0.49924677
   0.49975417  0.74955484  0.59987845
   0.16757576  0.91253215  0.49883189
   0.33150110  0.83160986  0.39956628
   0.25228320  0.49836708  0.59859588
   0.83409783  0.08256959  0.39962346
   0.24982303  0.25148119  0.60117603
   0.74788827  0.00229542  0.59889206
   0.16872247  0.16518582  0.49983624
   0.58454265  0.58050284  0.39998462
   0.83642585  0.83061276  0.40103407
   0.91079312  0.16850027  0.49886214
  -0.00143873  0.74795582  0.59866533
  -0.00129966  0.00135069  0.60129413
   0.08278729  0.33595209  0.39843694
   0.91646759  0.42015311  0.49890993
   0.66602818  0.66951616  0.50000639
   0.74869808  0.49920518  0.60135856
   0.33357611  0.08473001  0.39850297
  -0.00090837  0.25092680  0.60298122
   0.66225728  0.41703970  0.50031553
   0.83505912  0.58322689  0.40263498
   0.66596738  0.16696168  0.50059759
   0.74675425  0.25138604  0.59658232
   0.50149997  0.49668056  0.59520314
   0.41867646  0.91492957  0.50039763
   0.83376232  0.33376377  0.40264080
   0.08178151  0.08381817  0.40198960
   0.50093247  0.25203964  0.59614477
   0.41612668  0.41928414  0.49963716
   0.58351097  0.08483569  0.40362072
   0.66910762  0.91667519  0.50013970
   0.16691304  0.66494909  0.49834055
   0.33032856  0.58283667  0.40463735
   0.16709879  0.42049345  0.49932510
   0.33247390  0.33610943  0.40388424
   0.25018609  0.00021330  0.59763171
   0.91592739  0.91367483  0.49918819
   0.08415265  0.83098270  0.40362736
  -0.00076206  0.50054675  0.59648293
   0.91940354  0.66800474  0.49986705
   0.08550581  0.58320515  0.40460787
   0.41692159  0.66235644  0.49995473
   0.75093730  0.74904379  0.59620864
Direct configuration=     5
   0.25076098  0.74809758  0.60042812
   0.58419623  0.83375643  0.39920930
   0.58158988  0.33291818  0.40030579
   0.50016280  0.00035241  0.60051867
   0.41795320  0.16870550  0.49957932
   0.50075806  0.74870830  0.60040438
   0.16673071  0.91293941  0.49925720
   0.33268710  0.83132947  0.39886683
   0.25194755  0.49898590  0.59910822
   0.83373392  0.08245749  0.39888583
   0.25015314  0.25093579  0.60160260
   0.74825082  0.00213032  0.59944693
   0.16793645  0.16662933  0.49987582
   0.58434006  0.58138402  0.39950911
   0.83625973  0.83082341  0.40032415
   0.91235999  0.16803178  0.49916748
  -0.00037466  0.74865212  0.59913180
  -0.00098196  0.00087230  0.60172095
   0.08351854  0.33508587  0.39775851
   0.91726628  0.41807982  0.49923735
   0.66482685  0.66947406  0.49995962
   0.74878912  0.49935802  0.60194610
   0.33296119  0.08504294  0.39787691
  -0.00114256  0.25110665  0.60351984
   0.66259787  0.41820376  0.50008940
   0.83443229  0.58380752  0.40205984
   0.66694658  0.16624016  0.50039328
   0.74790395  0.25097156  0.59706111
   0.50130708  0.49740223  0.59566959
   0.41925365  0.91474939  0.50018790
   0.83381954  0.33373640  0.40222155
   0.08193899  0.08426105  0.40164630
   0.50028654  0.25143347  0.59659203
   0.41574969  0.41923091  0.49964834
   0.58414023  0.08462344  0.40310936
   0.66899461  0.91675538  0.50012978
   0.16670105  0.66581334  0.49911506
   0.33087920  0.58281078  0.40403099
   0.16778439  0.41848977  0.49960322
   0.33212949  0.33580681  0.40338985
   0.24949420  0.00073751  0.59792828
   0.91607251  0.91415635  0.49944190
   0.08358904  0.83146291  0.40301844
  -0.00082108  0.49961937  0.59677943
   0.91909161  0.66893996  0.49989560
   0.08529661  0.58298762  0.40386031
   0.41757395  0.66302719  0.49990133
   0.75015455  0.74887600  0.59658627
Direct configuration=     6
   0.25123258  0.74882502  0.60090030
   0.58391627  0.83429491  0.39870812
   0.58178327  0.33318417  0.39984596
   0.49999935  0.00012427  0.60090238
   0.41812865  0.16763351  0.49966859
   0.49972081  0.74934085  0.60083640
   0.16726103  0.91374425  0.49941117
   0.33219973  0.83204875  0.39844509
   0.25160209  0.49865111  0.59956757
   0.83410510  0.08267371  0.39831313
   0.24982546  0.25093357  0.60209661
   0.74851498  0.00162425  0.59987649
   0.16783326  0.16610033  0.49990087
   0.58457157  0.58115286  0.39901028
   0.83571138  0.83103893  0.39973201
   0.91336871  0.16743749  0.49940412
  -0.00108299  0.74857645  0.59957411
  -0.00082310  0.00124210  0.60215717
   0.08298049  0.33534420  0.39716003
   0.91664513  0.41870130  0.49935772
   0.66619414  0.66823884  0.49984409
   0.74919642  0.49908927  0.60246244
   0.33338310  0.08454579  0.39735132
  -0.00110615  0.25075715  0.60416129
   0.66336478  0.41814358  0.49981521
   0.83464829  0.58340040  0.40194491
   0.66690206  0.16647672  0.50021046
   0.74820937  0.25087350  0.59722353
   0.50130847  0.49745203  0.59594861
   0.41825380  0.91562536  0.49996456
   0.83381367  0.33374290  0.40200864
   0.08223673  0.08395902  0.40161775
   0.50033364  0.25134031  0.59676160
   0.41610158  0.41877436  0.49958932
   0.58373799  0.08411701  0.40290141
   0.66862319  0.91697077  0.50006891
   0.16691753  0.66552698  0.49958747
   0.33103635  0.58298786  0.40369814
   0.16731146  0.41848267  0.49979151
   0.33237638  0.33533415  0.40303555
   0.24953887  0.00033995  0.59792359
   0.91569629  0.91513779  0.49958252
   0.08396556  0.83182633  0.40273535
  -0.00087302  0.49967028  0.59687522
   0.91873269  0.66832618  0.49986928
   0.08536589  0.58272453  0.40356543
   0.41685622  0.66447542  0.49985149
   0.75038090  0.74898882  0.59674229
Direct configuration=     7
   0.25145968  0.74917532  0.60112768
   0.58378146  0.83455422  0.39846678
   0.58187639  0.33331226  0.39962453
   0.49992065  0.00001441  0.60108715
   0.41821314  0.16711729  0.49971157
   0.49922132  0.74964545  0.60104445
   0.16751641  0.91413182  0.49948532
   0.33196503  0.83239512  0.39824199
   0.25143572  0.49848989  0.59978877
   0.83428384  0.08277783  0.39803734
   0.24966766  0.25093250  0.60233450
   0.74864218  0.00138055  0.60008335
   0.16778358  0.16584558  0.49991293
   0.58468305  0.58104155  0.39877007
   0.83544732  0.83114271  0.39944686
   0.91385447  0.16715131  0.49951807
  -0.00142408  0.74854002  0.59978711
  -0.00074659  0.00142017  0.60236724
   0.08272139  0.33546860  0.39687183
   0.91634601  0.41900058  0.49941568
   0.66685257  0.66764401  0.49978846
   0.74939256  0.49895986  0.60271109
   0.33358627  0.08430639  0.39709822
  -0.00108861  0.25058884  0.60447018
   0.66373409  0.41811459  0.49968317
   0.83475231  0.58320435  0.40188957
   0.66688062  0.16659063  0.50012242
   0.74835645  0.25082628  0.59730174
   0.50130914  0.49747601  0.59608298
   0.41777232  0.91604719  0.49985701
   0.83381084  0.33374603  0.40190611
   0.08238010  0.08381358  0.40160400
   0.50035632  0.25129544  0.59684325
   0.41627103  0.41855451  0.49956090
   0.58354429  0.08387314  0.40280127
   0.66844434  0.91707450  0.50003959
   0.16702178  0.66538908  0.49981496
   0.33111202  0.58307314  0.40353785
   0.16708372  0.41847925  0.49988218
   0.33249528  0.33510653  0.40286494
   0.24956038  0.00014851  0.59792133
   0.91551512  0.91561040  0.49965023
   0.08414687  0.83200134  0.40259903
  -0.00089803  0.49969479  0.59692135
   0.91855985  0.66803061  0.49985660
   0.08539926  0.58259783  0.40342343
   0.41651059  0.66517283  0.49982749
   0.75048991  0.74904315  0.59681743
Direct configuration=     8
   0.25151798  0.74899841  0.60144645
   0.58393538  0.83433115  0.39819548
   0.58179707  0.33324925  0.39941109
   0.50001662 -0.00044105  0.60126358
   0.41866793  0.16710109  0.49967865
   0.49926928  0.74985886  0.60116081
   0.16780379  0.91373853  0.49939659
   0.33160235  0.83251602  0.39802344
   0.25142732  0.49849846  0.60005057
   0.83448377  0.08288634  0.39778544
   0.24936494  0.25086237  0.60267642
   0.74844510  0.00146583  0.60025219
   0.16763569  0.16617616  0.49986540
   0.58461040  0.58115198  0.39844825
   0.83568867  0.83113702  0.39924087
   0.91341325  0.16742778  0.49956654
  -0.00164684  0.74826939  0.60000856
  -0.00086810  0.00139025  0.60273073
   0.08250783  0.33551906  0.39654523
   0.91655385  0.41897058  0.49940986
   0.66665830  0.66820562  0.49977043
   0.74912014  0.49917466  0.60307108
   0.33343854  0.08454698  0.39670756
  -0.00084108  0.25045275  0.60500192
   0.66376794  0.41764538  0.49958306
   0.83495125  0.58301172  0.40190197
   0.66655332  0.16717491  0.49999428
   0.74787558  0.25094102  0.59720121
   0.50140265  0.49722029  0.59601306
   0.41809709  0.91577972  0.49968723
   0.83405567  0.33348792  0.40191545
   0.08239494  0.08385035  0.40165912
   0.50073711  0.25128913  0.59677297
   0.41666573  0.41837946  0.49948154
   0.58331157  0.08409083  0.40278882
   0.66847423  0.91681250  0.50000401
   0.16701346  0.66522408  0.49992094
   0.33088236  0.58326161  0.40358146
   0.16687291  0.41878078  0.49984239
   0.33275789  0.33482959  0.40283091
   0.24971672  0.00022677  0.59791956
   0.91546941  0.91553176  0.49960496
   0.08438275  0.83181878  0.40277633
  -0.00097572  0.49985360  0.59697682
   0.91869353  0.66805823  0.49971061
   0.08566402  0.58273307  0.40356992
   0.41630289  0.66543219  0.49976874
   0.75033050  0.74907881  0.59678752
Direct configuration=     9
   0.25156061  0.74886904  0.60167955
   0.58404794  0.83416802  0.39799709
   0.58173906  0.33320318  0.39925500
   0.50008680 -0.00077412  0.60139259
   0.41900051  0.16708924  0.49965457
   0.49930435  0.75001492  0.60124590
   0.16801395  0.91345093  0.49933171
   0.33133713  0.83260443  0.39786362
   0.25142117  0.49850473  0.60024202
   0.83462998  0.08296570  0.39760123
   0.24914357  0.25081109  0.60292645
   0.74830097  0.00152820  0.60037565
   0.16752755  0.16641790  0.49983064
   0.58455727  0.58123274  0.39821291
   0.83586516  0.83113286  0.39909024
   0.91309060  0.16762995  0.49960199
  -0.00180973  0.74807149  0.60017050
  -0.00095695  0.00136837  0.60299655
   0.08235166  0.33555596  0.39630638
   0.91670583  0.41894864  0.49940560
   0.66651624  0.66861631  0.49975725
   0.74892093  0.49933175  0.60333434
   0.33333051  0.08472291  0.39642189
  -0.00066006  0.25035323  0.60539076
   0.66379269  0.41730225  0.49950986
   0.83509674  0.58287087  0.40191104
   0.66631398  0.16760218  0.49990057
   0.74752392  0.25102492  0.59712770
   0.50147103  0.49703328  0.59596192
   0.41833458  0.91558412  0.49956308
   0.83423471  0.33329918  0.40192228
   0.08240579  0.08387724  0.40169943
   0.50101557  0.25128451  0.59672157
   0.41695437  0.41825144  0.49942350
   0.58314139  0.08425002  0.40277971
   0.66849608  0.91662091  0.49997799
   0.16700738  0.66510342  0.49999844
   0.33071441  0.58339943  0.40361334
   0.16671875  0.41900129  0.49981329
   0.33294993  0.33462707  0.40280602
   0.24983106  0.00028399  0.59791827
   0.91543599  0.91547425  0.49957185
   0.08455524  0.83168528  0.40290598
  -0.00103252  0.49996973  0.59701738
   0.91879130  0.66807843  0.49960385
   0.08585763  0.58283197  0.40367704
   0.41615101  0.66562185  0.49972578
   0.75021393  0.74910489  0.59676566
Direct configuration=    10
   0.25142704  0.74867926  0.60194533
   0.58418152  0.83401211  0.39774816
   0.58165401  0.33333044  0.39899868
   0.50002644 -0.00050625  0.60144874
   0.41885378  0.16730070  0.49969631
   0.49942730  0.74967963  0.60125349
   0.16776716  0.91344855  0.49937317
   0.33141707  0.83261064  0.39763635
   0.25166253  0.49824699  0.60042188
   0.83470585  0.08283136  0.39742116
   0.24942487  0.25075637  0.60320436
   0.74815700  0.00156458  0.60040159
   0.16784282  0.16653007  0.49977791
   0.58444586  0.58126250  0.39798819
   0.83604244  0.83124732  0.39898230
   0.91306765  0.16751661  0.49969624
  -0.00188040  0.74812341  0.60033875
  -0.00108590  0.00121927  0.60327555
   0.08252859  0.33556341  0.39601866
   0.91659083  0.41904623  0.49947885
   0.66627489  0.66851812  0.49971512
   0.74877694  0.49930499  0.60362000
   0.33316676  0.08485157  0.39606171
  -0.00101087  0.25049845  0.60593739
   0.66350292  0.41783116  0.49937457
   0.83520020  0.58285182  0.40196634
   0.66632160  0.16756974  0.49970224
   0.74753326  0.25104475  0.59699352
   0.50137558  0.49718836  0.59576253
   0.41842636  0.91570738  0.49934832
   0.83419127  0.33333102  0.40198304
   0.08240150  0.08399303  0.40181149
   0.50076024  0.25114339  0.59660950
   0.41683284  0.41850714  0.49934907
   0.58333472  0.08420937  0.40278230
   0.66876436  0.91664200  0.49991243
   0.16708707  0.66500652  0.50019720
   0.33074342  0.58332032  0.40376197
   0.16710830  0.41892961  0.49978527
   0.33287392  0.33464165  0.40286408
   0.24977635  0.00030160  0.59782308
   0.91535428  0.91540478  0.49955216
   0.08442052  0.83162276  0.40318876
  -0.00120749  0.49988415  0.59704542
   0.91890768  0.66834713  0.49947235
   0.08616647  0.58273182  0.40389076
   0.41654466  0.66513853  0.49969772
   0.75011581  0.74901569  0.59668600
Direct configuration=    11
   0.25133326  0.74854603  0.60213191
   0.58427529  0.83390266  0.39757340
   0.58159429  0.33341978  0.39881873
   0.49998406 -0.00031820  0.60148816
   0.41875077  0.16744915  0.49972562
   0.49951361  0.74944424  0.60125881
   0.16759390  0.91344688  0.49940229
   0.33147319  0.83261500  0.39747679
   0.25183198  0.49806605  0.60054816
   0.83475911  0.08273705  0.39729475
   0.24962234  0.25071795  0.60339946
   0.74805593  0.00159012  0.60041979
   0.16806415  0.16660881  0.49974089
   0.58436765  0.58128339  0.39783043
   0.83616689  0.83132767  0.39890653
   0.91305155  0.16743704  0.49976241
  -0.00193002  0.74815986  0.60045687
  -0.00117642  0.00111459  0.60347142
   0.08265280  0.33556863  0.39581668
   0.91651009  0.41911474  0.49953028
   0.66610545  0.66844918  0.49968555
   0.74867586  0.49928621  0.60382054
   0.33305181  0.08494189  0.39580886
  -0.00125714  0.25060039  0.60632113
   0.66329949  0.41820247  0.49927959
   0.83527283  0.58283845  0.40200516
   0.66632696  0.16754697  0.49956301
   0.74753981  0.25105867  0.59689932
   0.50130857  0.49729722  0.59562255
   0.41849078  0.91579392  0.49919755
   0.83416078  0.33335337  0.40202570
   0.08239848  0.08407432  0.40189015
   0.50058099  0.25104431  0.59653083
   0.41674752  0.41868665  0.49929682
   0.58347045  0.08418083  0.40278413
   0.66895269  0.91665680  0.49986640
   0.16714302  0.66493849  0.50033673
   0.33076378  0.58326478  0.40386630
   0.16738177  0.41887928  0.49976560
   0.33282056  0.33465188  0.40290484
   0.24973795  0.00031396  0.59775625
   0.91529692  0.91535600  0.49953833
   0.08432595  0.83157887  0.40338728
  -0.00133032  0.49982407  0.59706510
   0.91898938  0.66853577  0.49938003
   0.08638328  0.58266150  0.40404079
   0.41682102  0.66479922  0.49967802
   0.75004693  0.74895307  0.59663008
Direct configuration=    12
   0.25122745  0.74863338  0.60227029
   0.58437206  0.83403220  0.39739090
   0.58167848  0.33339974  0.39861071
   0.49989534 -0.00037684  0.60138873
   0.41870311  0.16739213  0.49972059
   0.49919527  0.74958173  0.60114961
   0.16775457  0.91350522  0.49959567
   0.33150279  0.83263827  0.39736672
   0.25172604  0.49798277  0.60064313
   0.83472658  0.08284184  0.39720990
   0.24937417  0.25078299  0.60358274
   0.74804835  0.00159295  0.60031959
   0.16793691  0.16667949  0.49977831
   0.58442084  0.58126158  0.39766601
   0.83603781  0.83122435  0.39883490
   0.91336877  0.16742047  0.49987986
  -0.00190511  0.74805911  0.60053686
  -0.00123732  0.00117042  0.60364886
   0.08265133  0.33570344  0.39566827
   0.91662879  0.41905921  0.49966454
   0.66623735  0.66836473  0.49961452
   0.74878699  0.49905996  0.60397518
   0.33333784  0.08474336  0.39555055
  -0.00134454  0.25054395  0.60674073
   0.66339988  0.41835225  0.49911986
   0.83532611  0.58291120  0.40208361
   0.66644556  0.16739172  0.49938173
   0.74759970  0.25100647  0.59673869
   0.50121399  0.49729513  0.59542552
   0.41833411  0.91595678  0.49900166
   0.83410125  0.33347639  0.40212645
   0.08234107  0.08416027  0.40203472
   0.50049025  0.25105811  0.59639215
   0.41665586  0.41872418  0.49925794
   0.58356458  0.08400477  0.40277185
   0.66891185  0.91676645  0.49978967
   0.16735694  0.66501987  0.50069256
   0.33090167  0.58329637  0.40399750
   0.16746157  0.41877339  0.49987926
   0.33285530  0.33460416  0.40293846
   0.24951612  0.00024073  0.59757825
   0.91525643  0.91552229  0.49963171
   0.08440917  0.83162505  0.40361483
  -0.00124513  0.49956898  0.59700956
   0.91889771  0.66851180  0.49940795
   0.08641652  0.58249972  0.40417984
   0.41666228  0.66502336  0.49965220
   0.75000334  0.74891410  0.59648689
Direct configuration=    13
   0.25112172  0.74872066  0.60240857
   0.58446876  0.83416164  0.39720854
   0.58176259  0.33337971  0.39840285
   0.49980669 -0.00043544  0.60128937
   0.41865550  0.16733515  0.49971556
   0.49887718  0.74971910  0.60104049
   0.16791512  0.91356351  0.49978891
   0.33153238  0.83266153  0.39725673
   0.25162018  0.49789956  0.60073803
   0.83469409  0.08294656  0.39712513
   0.24912619  0.25084798  0.60376587
   0.74804078  0.00159579  0.60021946
   0.16780977  0.16675012  0.49981570
   0.58447398  0.58123979  0.39750173
   0.83590883  0.83112111  0.39876333
   0.91368575  0.16740390  0.49999723
  -0.00188021  0.74795844  0.60061678
  -0.00129817  0.00122619  0.60382617
   0.08264987  0.33583815  0.39551999
   0.91674740  0.41900372  0.49979870
   0.66636914  0.66828035  0.49954356
   0.74889803  0.49883389  0.60412970
   0.33362364  0.08454499  0.39529245
  -0.00143186  0.25048755  0.60715999
   0.66350018  0.41850192  0.49896026
   0.83537935  0.58298389  0.40216200
   0.66656407  0.16723659  0.49920058
   0.74765954  0.25095430  0.59657818
   0.50111949  0.49729305  0.59522864
   0.41817756  0.91611951  0.49880592
   0.83404175  0.33359932  0.40222711
   0.08228370  0.08424616  0.40217917
   0.50039958  0.25107190  0.59625357
   0.41656427  0.41876169  0.49921909
   0.58365864  0.08382884  0.40275958
   0.66887105  0.91687602  0.49971299
   0.16757069  0.66510119  0.50104811
   0.33103945  0.58332794  0.40412860
   0.16754130  0.41866758  0.49999284
   0.33289001  0.33455649  0.40297205
   0.24929446  0.00016756  0.59740038
   0.91521597  0.91568844  0.49972501
   0.08449233  0.83167118  0.40384220
  -0.00116002  0.49931410  0.59695406
   0.91880610  0.66848786  0.49943585
   0.08644973  0.58233807  0.40431877
   0.41650367  0.66524731  0.49962640
   0.74995978  0.74887516  0.59634381
Direct configuration=    14
   0.25105666  0.74861218  0.60258283
   0.58444115  0.83399251  0.39700586
   0.58175445  0.33327116  0.39822073
   0.49956832 -0.00058769  0.60106440
   0.41856592  0.16721458  0.49964156
   0.49888886  0.74971360  0.60077984
   0.16800804  0.91364685  0.49994712
   0.33154271  0.83271456  0.39721616
   0.25149768  0.49790578  0.60085932
   0.83479378  0.08291284  0.39712810
   0.24893262  0.25048954  0.60388708
   0.74799327  0.00154973  0.60003191
   0.16771709  0.16700954  0.49984911
   0.58458981  0.58147350  0.39734259
   0.83624519  0.83109430  0.39877026
   0.91372421  0.16747748  0.50012763
  -0.00204943  0.74787933  0.60067421
  -0.00146383  0.00127958  0.60405704
   0.08275002  0.33561607  0.39551126
   0.91699600  0.41884200  0.49993543
   0.66621723  0.66856515  0.49943644
   0.74862579  0.49903684  0.60419366
   0.33355173  0.08464767  0.39508410
  -0.00122800  0.25018812  0.60762100
   0.66365579  0.41820188  0.49878372
   0.83536927  0.58291376  0.40223655
   0.66672154  0.16745833  0.49897132
   0.74749399  0.25093156  0.59637046
   0.50112643  0.49722498  0.59499123
   0.41825843  0.91611136  0.49853604
   0.83420740  0.33368157  0.40233923
   0.08238403  0.08432371  0.40234981
   0.50045626  0.25104729  0.59607445
   0.41683220  0.41845567  0.49914804
   0.58365290  0.08398160  0.40268019
   0.66865440  0.91683188  0.49961434
   0.16740274  0.66532692  0.50140127
   0.33102025  0.58346040  0.40428161
   0.16742462  0.41866400  0.50014876
   0.33308159  0.33438837  0.40300217
   0.24905334  0.00036240  0.59727991
   0.91544076  0.91569062  0.49986494
   0.08450095  0.83168242  0.40416512
  -0.00122243  0.49924734  0.59695201
   0.91895569  0.66846859  0.49954741
   0.08647820  0.58250261  0.40456349
   0.41642985  0.66571960  0.49955418
   0.74990253  0.74877792  0.59617610
Direct configuration=    15
   0.25104840  0.74859840  0.60260495
   0.58443764  0.83397103  0.39698012
   0.58175342  0.33325738  0.39819760
   0.49953805 -0.00060702  0.60103583
   0.41855455  0.16719927  0.49963216
   0.49889035  0.74971290  0.60074674
   0.16801983  0.91365744  0.49996721
   0.33154402  0.83272129  0.39721101
   0.25148213  0.49790657  0.60087472
   0.83480644  0.08290856  0.39712848
   0.24890804  0.25044403  0.60390247
   0.74798724  0.00154388  0.60000809
   0.16770532  0.16704248  0.49985336
   0.58460452  0.58150318  0.39732238
   0.83628790  0.83109090  0.39877114
   0.91372910  0.16748682  0.50014419
  -0.00207092  0.74786928  0.60068150
  -0.00148486  0.00128636  0.60408636
   0.08276274  0.33558788  0.39551015
   0.91702757  0.41882146  0.49995280
   0.66619793  0.66860132  0.49942284
   0.74859121  0.49906261  0.60420179
   0.33354260  0.08466071  0.39505764
  -0.00120212  0.25015009  0.60767954
   0.66367555  0.41816378  0.49876130
   0.83536799  0.58290486  0.40224602
   0.66674154  0.16748648  0.49894220
   0.74747297  0.25092867  0.59634409
   0.50112731  0.49721633  0.59496108
   0.41826870  0.91611032  0.49850177
   0.83422843  0.33369201  0.40235346
   0.08239677  0.08433356  0.40237148
   0.50046346  0.25104417  0.59605171
   0.41686622  0.41841681  0.49913902
   0.58365216  0.08400099  0.40267011
   0.66862689  0.91682628  0.49960182
   0.16738141  0.66535559  0.50144612
   0.33101782  0.58347722  0.40430104
   0.16740980  0.41866354  0.50016855
   0.33310592  0.33436702  0.40300599
   0.24902272  0.00038714  0.59726462
   0.91546931  0.91569090  0.49988271
   0.08450205  0.83168384  0.40420612
  -0.00123035  0.49923886  0.59695175
   0.91897469  0.66846614  0.49956157
   0.08648181  0.58252351  0.40459457
   0.41642048  0.66577958  0.49954501
   0.74989526  0.74876557  0.59615480
Direct configuration=    16
   0.25106809  0.74850162  0.60276813
   0.58452460  0.83396163  0.39678375
   0.58173529  0.33350217  0.39806455
   0.49946193 -0.00063522  0.60079154
   0.41857225  0.16717384  0.49951238
   0.49889512  0.74962800  0.60046514
   0.16796448  0.91384728  0.50004764
   0.33136575  0.83286347  0.39722000
   0.25156111  0.49764386  0.60097863
   0.83504816  0.08284880  0.39720736
   0.24907731  0.25024074  0.60391478
   0.74775419  0.00148942  0.59980690
   0.16782820  0.16709618  0.49986036
   0.58467431  0.58142588  0.39722962
   0.83648200  0.83114802  0.39887305
   0.91378228  0.16743514  0.50024544
  -0.00233769  0.74792504  0.60078438
  -0.00166089  0.00120633  0.60432757
   0.08290621  0.33551493  0.39564368
   0.91680146  0.41902395  0.50003895
   0.66629296  0.66846759  0.49929861
   0.74844774  0.49909513  0.60413237
   0.33341640  0.08483408  0.39498065
  -0.00144530  0.25021993  0.60801151
   0.66361611  0.41819429  0.49860033
   0.83551344  0.58280525  0.40230559
   0.66675262  0.16747173  0.49880505
   0.74734334  0.25105830  0.59624539
   0.50106130  0.49721398  0.59475499
   0.41821338  0.91623577  0.49825768
   0.83438217  0.33366575  0.40241927
   0.08254870  0.08425216  0.40250424
   0.50034245  0.25096238  0.59589755
   0.41698758  0.41831225  0.49904832
   0.58364378  0.08400380  0.40254504
   0.66863607  0.91687179  0.49945481
   0.16737615  0.66527193  0.50159171
   0.33095488  0.58353754  0.40443821
   0.16749775  0.41880868  0.50027673
   0.33311635  0.33438424  0.40302879
   0.24901503  0.00030063  0.59727215
   0.91549804  0.91566952  0.50000809
   0.08462814  0.83166803  0.40446043
  -0.00139632  0.49920090  0.59707643
   0.91906468  0.66851830  0.49963487
   0.08662563  0.58260003  0.40487032
   0.41656405  0.66578898  0.49945311
   0.74979871  0.74874595  0.59606390
Direct configuration=    17
   0.25107856  0.74845019  0.60285483
   0.58457081  0.83395663  0.39667940
   0.58172566  0.33363224  0.39799385
   0.49942147 -0.00065021  0.60066173