  48  48   0   0
  0.5349325E+02  0.1100258E-08  0.1100258E-08  0.2449179E-08  0.3500000E-15
  1.000000000000000E-004
  CAR 
 unknown system                          
      6.35682006     -9.72900907  301     -1.08667482      1.00000000
     -9.729  0.0000E+00  0.0000E+00
     -9.675  0.0000E+00  0.0000E+00
     -9.622  0.0000E+00  0.0000E+00
     -9.568  0.0000E+00  0.0000E+00
     -9.515  0.0000E+00  0.0000E+00
     -9.461  0.0000E+00  0.0000E+00
     -9.407  0.0000E+00  0.0000E+00
     -9.354  0.0000E+00  0.0000E+00
     -9.300  0.8972E-17  0.4811E-18
     -9.246  0.3537E-14  0.1901E-15
     -9.193  0.7737E-12  0.4167E-13
     -9.139  0.9632E-10  0.5206E-11
     -9.086  0.6836E-08  0.3717E-09
     -9.032  0.2771E-06  0.1523E-07
     -8.978  0.6429E-05  0.3599E-06
     -8.925  0.8558E-04  0.4949E-05
     -8.871  0.6553E-03  0.4009E-04
     -8.817  0.2893E-02  0.1952E-03
     -8.764  0.7383E-02  0.5911E-03
     -8.710  0.1098E-01  0.1180E-02
     -8.657  0.9999E-02  0.1716E-02
     -8.603  0.7607E-02  0.2124E-02
     -8.549  0.8764E-02  0.2594E-02
     -8.496  0.1099E-01  0.3183E-02
     -8.442  0.9150E-02  0.3673E-02
     -8.389  0.4546E-02  0.3917E-02
     -8.335  0.1461E-02  0.3996E-02
     -8.281  0.1102E-02  0.4055E-02
     -8.228  0.3211E-02  0.4227E-02
     -8.174  0.7137E-02  0.4609E-02
     -8.120  0.1015E-01  0.5154E-02
     -8.067  0.1005E-01  0.5693E-02
     -8.013  0.9823E-02  0.6220E-02
     -7.960  0.1385E-01  0.6962E-02
     -7.906  0.2022E-01  0.8047E-02
     -7.852  0.2307E-01  0.9284E-02
     -7.799  0.2041E-01  0.1038E-01
     -7.745  0.1487E-01  0.1118E-01
     -7.691  0.1022E-01  0.1172E-01
     -7.638  0.9733E-02  0.1225E-01
     -7.584  0.1501E-01  0.1305E-01
     -7.531  0.2227E-01  0.1424E-01
     -7.477  0.2435E-01  0.1555E-01
     -7.423  0.2072E-01  0.1666E-01
     -7.370  0.1828E-01  0.1764E-01
     -7.316  0.2083E-01  0.1876E-01
     -7.263  0.2408E-01  0.2005E-01
     -7.209  0.2429E-01  0.2135E-01
     -7.155  0.2457E-01  0.2267E-01
     -7.102  0.2923E-01  0.2424E-01
     -7.048  0.3730E-01  0.2624E-01
     -6.994  0.4447E-01  0.2862E-01
     -6.941  0.5141E-01  0.3138E-01
     -6.887  0.6061E-01  0.3463E-01
     -6.834  0.6910E-01  0.3833E-01
     -6.780  0.7494E-01  0.4235E-01
     -6.726  0.8251E-01  0.4677E-01
     -6.673  0.9338E-01  0.5178E-01
     -6.619  0.1021E+00  0.5725E-01
     -6.565  0.1048E+00  0.6287E-01
     -6.512  0.1055E+00  0.6853E-01
     -6.458  0.1100E+00  0.7443E-01
     -6.405  0.1183E+00  0.8077E-01
     -6.351  0.1256E+00  0.8751E-01
     -6.297  0.1298E+00  0.9446E-01
     -6.244  0.1340E+00  0.1016E+00
     -6.190  0.1407E+00  0.1092E+00
     -6.137  0.1477E+00  0.1171E+00
     -6.083  0.1538E+00  0.1254E+00
     -6.029  0.1591E+00  0.1339E+00
     -5.976  0.1619E+00  0.1426E+00
     -5.922  0.1600E+00  0.1512E+00
     -5.868  0.1552E+00  0.1595E+00
     -5.815  0.1516E+00  0.1676E+00
     -5.761  0.1487E+00  0.1756E+00
     -5.708  0.1430E+00  0.1832E+00
     -5.654  0.1376E+00  0.1906E+00
     -5.600  0.1378E+00  0.1980E+00
     -5.547  0.1403E+00  0.2055E+00
     -5.493  0.1405E+00  0.2131E+00
     -5.439  0.1405E+00  0.2206E+00
     -5.386  0.1438E+00  0.2283E+00
     -5.332  0.1494E+00  0.2363E+00
     -5.279  0.1531E+00  0.2445E+00
     -5.225  0.1530E+00  0.2527E+00
     -5.171  0.1538E+00  0.2610E+00
     -5.118  0.1597E+00  0.2695E+00
     -5.064  0.1654E+00  0.2784E+00
     -5.010  0.1676E+00  0.2874E+00
     -4.957  0.1692E+00  0.2965E+00
     -4.903  0.1698E+00  0.3056E+00
     -4.850  0.1689E+00  0.3146E+00
     -4.796  0.1694E+00  0.3237E+00
     -4.742  0.1705E+00  0.3329E+00
     -4.689  0.1687E+00  0.3419E+00
     -4.635  0.1647E+00  0.3507E+00
     -4.582  0.1623E+00  0.3594E+00
     -4.528  0.1631E+00  0.3682E+00
     -4.474  0.1647E+00  0.3770E+00
     -4.421  0.1663E+00  0.3859E+00
     -4.367  0.1708E+00  0.3951E+00
     -4.313  0.1781E+00  0.4046E+00
     -4.260  0.1834E+00  0.4145E+00
     -4.206  0.1859E+00  0.4244E+00
     -4.153  0.1876E+00  0.4345E+00
     -4.099  0.1897E+00  0.4447E+00
     -4.045  0.1942E+00  0.4551E+00
     -3.992  0.1998E+00  0.4658E+00
     -3.938  0.2026E+00  0.4767E+00
     -3.884  0.2017E+00  0.4875E+00
     -3.831  0.1992E+00  0.4981E+00
     -3.777  0.1976E+00  0.5087E+00
     -3.724  0.1966E+00  0.5193E+00
     -3.670  0.1953E+00  0.5298E+00
     -3.616  0.1959E+00  0.5403E+00
     -3.563  0.1998E+00  0.5510E+00
     -3.509  0.2034E+00  0.5619E+00
     -3.456  0.2043E+00  0.5728E+00
     -3.402  0.2054E+00  0.5839E+00
     -3.348  0.2062E+00  0.5949E+00
     -3.295  0.2033E+00  0.6058E+00
     -3.241  0.1988E+00  0.6165E+00
     -3.187  0.1971E+00  0.6270E+00
     -3.134  0.1974E+00  0.6376E+00
     -3.080  0.1955E+00  0.6481E+00
     -3.027  0.1878E+00  0.6582E+00
     -2.973  0.1761E+00  0.6676E+00
     -2.919  0.1663E+00  0.6765E+00
     -2.866  0.1625E+00  0.6852E+00
     -2.812  0.1659E+00  0.6941E+00
     -2.758  0.1746E+00  0.7035E+00
     -2.705  0.1819E+00  0.7133E+00
     -2.651  0.1826E+00  0.7230E+00
     -2.598  0.1783E+00  0.7326E+00
     -2.544  0.1748E+00  0.7420E+00
     -2.490  0.1759E+00  0.7514E+00
     -2.437  0.1792E+00  0.7610E+00
     -2.383  0.1810E+00  0.7707E+00
     -2.330  0.1823E+00  0.7805E+00
     -2.276  0.1853E+00  0.7904E+00
     -2.222  0.1891E+00  0.8006E+00
     -2.169  0.1925E+00  0.8109E+00
     -2.115  0.1965E+00  0.8214E+00
     -2.061  0.1991E+00  0.8321E+00
     -2.008  0.1961E+00  0.8426E+00
     -1.954  0.1893E+00  0.8528E+00
     -1.901  0.1846E+00  0.8627E+00
     -1.847  0.1847E+00  0.8726E+00
     -1.793  0.1870E+00  0.8826E+00
     -1.740  0.1886E+00  0.8927E+00
     -1.686  0.1909E+00  0.9029E+00
     -1.632  0.1929E+00  0.9133E+00
     -1.579  0.1940E+00  0.9237E+00
     -1.525  0.1968E+00  0.9342E+00
     -1.472  0.2002E+00  0.9450E+00
     -1.418  0.1995E+00  0.9557E+00
     -1.364  0.1923E+00  0.9660E+00
     -1.311  0.1806E+00  0.9757E+00
     -1.257  0.1678E+00  0.9847E+00
     -1.204  0.1549E+00  0.9930E+00
     -1.150  0.1401E+00  0.1000E+01
     -1.096  0.1208E+00  0.1007E+01
     -1.043  0.9632E-01  0.1012E+01
     -0.989  0.6788E-01  0.1016E+01
     -0.935  0.4097E-01  0.1018E+01
     -0.882  0.2350E-01  0.1019E+01
     -0.828  0.1686E-01  0.1020E+01
     -0.775  0.1604E-01  0.1021E+01
     -0.721  0.1691E-01  0.1022E+01
     -0.667  0.2052E-01  0.1023E+01
     -0.614  0.2859E-01  0.1025E+01
     -0.560  0.3819E-01  0.1027E+01
     -0.506  0.4399E-01  0.1029E+01
     -0.453  0.4398E-01  0.1031E+01
     -0.399  0.3995E-01  0.1033E+01
     -0.346  0.3371E-01  0.1035E+01
     -0.292  0.3105E-01  0.1037E+01
     -0.238  0.3687E-01  0.1039E+01
     -0.185  0.4370E-01  0.1041E+01
     -0.131  0.4127E-01  0.1043E+01
     -0.078  0.3088E-01  0.1045E+01
     -0.024  0.2220E-01  0.1046E+01
      0.030  0.2272E-01  0.1048E+01
      0.083  0.3135E-01  0.1049E+01
      0.137  0.3821E-01  0.1051E+01
      0.191  0.3539E-01  0.1053E+01
      0.244  0.2817E-01  0.1055E+01
      0.298  0.2587E-01  0.1056E+01
      0.351  0.3014E-01  0.1058E+01
      0.405  0.3680E-01  0.1060E+01
      0.459  0.3896E-01  0.1062E+01
      0.512  0.3617E-01  0.1064E+01
      0.566  0.3709E-01  0.1066E+01
      0.620  0.4368E-01  0.1068E+01
      0.673  0.4854E-01  0.1071E+01
      0.727  0.4746E-01  0.1073E+01
      0.780  0.4102E-01  0.1075E+01
      0.834  0.3089E-01  0.1077E+01
      0.888  0.2235E-01  0.1078E+01
      0.941  0.2043E-01  0.1079E+01
      0.995  0.2153E-01  0.1080E+01
      1.048  0.2067E-01  0.1082E+01
      1.102  0.1992E-01  0.1083E+01
      1.156  0.2148E-01  0.1084E+01
      1.209  0.2295E-01  0.1085E+01
      1.263  0.2179E-01  0.1086E+01
      1.317  0.1799E-01  0.1087E+01
      1.370  0.1386E-01  0.1088E+01
      1.424  0.1449E-01  0.1089E+01
      1.477  0.2242E-01  0.1090E+01
      1.531  0.3211E-01  0.1092E+01
      1.585  0.3519E-01  0.1093E+01
      1.638  0.2972E-01  0.1095E+01
      1.692  0.2381E-01  0.1096E+01
      1.746  0.2617E-01  0.1098E+01
      1.799  0.3373E-01  0.1100E+01
      1.853  0.3709E-01  0.1102E+01
      1.906  0.3315E-01  0.1103E+01
      1.960  0.2597E-01  0.1105E+01
      2.014  0.2046E-01  0.1106E+01
      2.067  0.1937E-01  0.1107E+01
      2.121  0.2319E-01  0.1108E+01
      2.175  0.2992E-01  0.1110E+01
      2.228  0.3616E-01  0.1112E+01
      2.282  0.3942E-01  0.1114E+01
      2.335  0.4043E-01  0.1116E+01
      2.389  0.4112E-01  0.1118E+01
      2.443  0.4219E-01  0.1120E+01
      2.496  0.4388E-01  0.1123E+01
      2.550  0.4580E-01  0.1125E+01
      2.603  0.4676E-01  0.1128E+01
      2.657  0.4554E-01  0.1130E+01
      2.711  0.4254E-01  0.1132E+01
      2.764  0.3815E-01  0.1134E+01
      2.818  0.3180E-01  0.1136E+01
      2.872  0.2458E-01  0.1137E+01
      2.925  0.1895E-01  0.1138E+01
      2.979  0.1476E-01  0.1139E+01
      3.032  0.1053E-01  0.1140E+01
      3.086  0.9090E-02  0.1140E+01
      3.140  0.1282E-01  0.1141E+01
      3.193  0.1913E-01  0.1142E+01
      3.247  0.2498E-01  0.1143E+01
      3.301  0.2704E-01  0.1145E+01
      3.354  0.2395E-01  0.1146E+01
      3.408  0.2018E-01  0.1147E+01
      3.461  0.2000E-01  0.1148E+01
      3.515  0.2480E-01  0.1150E+01
      3.569  0.3147E-01  0.1151E+01
      3.622  0.3385E-01  0.1153E+01
      3.676  0.3214E-01  0.1155E+01
      3.729  0.3218E-01  0.1157E+01
      3.783  0.3435E-01  0.1158E+01
      3.837  0.3227E-01  0.1160E+01
      3.890  0.2505E-01  0.1161E+01
      3.944  0.2092E-01  0.1163E+01
      3.998  0.2468E-01  0.1164E+01
      4.051  0.3000E-01  0.1166E+01
      4.105  0.2931E-01  0.1167E+01
      4.158  0.2507E-01  0.1168E+01
      4.212  0.2294E-01  0.1170E+01
      4.266  0.2121E-01  0.1171E+01
      4.319  0.1779E-01  0.1172E+01
      4.373  0.1785E-01  0.1173E+01
      4.427  0.2372E-01  0.1174E+01
      4.480  0.2904E-01  0.1176E+01
      4.534  0.3292E-01  0.1177E+01
      4.587  0.4239E-01  0.1180E+01
      4.641  0.5571E-01  0.1183E+01
      4.695  0.6110E-01  0.1186E+01
      4.748  0.5493E-01  0.1189E+01
      4.802  0.4661E-01  0.1191E+01
      4.855  0.4447E-01  0.1194E+01
      4.909  0.4840E-01  0.1196E+01
      4.963  0.5680E-01  0.1199E+01
      5.016  0.6979E-01  0.1203E+01
      5.070  0.8087E-01  0.1207E+01
      5.124  0.7859E-01  0.1212E+01
      5.177  0.6404E-01  0.1215E+01
      5.231  0.5126E-01  0.1218E+01
      5.284  0.4441E-01  0.1220E+01
      5.338  0.3559E-01  0.1222E+01
      5.392  0.2225E-01  0.1223E+01
      5.445  0.9874E-02  0.1224E+01
      5.499  0.2910E-02  0.1224E+01
      5.553  0.5412E-03  0.1224E+01
      5.606  0.6134E-04  0.1224E+01
      5.660  0.4150E-05  0.1224E+01
      5.713  0.1655E-06  0.1224E+01
      5.767  0.3856E-08  0.1224E+01
      5.821  0.5214E-10  0.1224E+01
      5.874  0.4070E-12  0.1224E+01
      5.928  0.1826E-14  0.1224E+01
      5.981  0.4141E-17  0.1224E+01
      6.035  0.0000E+00  0.1224E+01
      6.089  0.0000E+00  0.1224E+01
      6.142  0.0000E+00  0.1224E+01
      6.196  0.0000E+00  0.1224E+01
      6.250  0.0000E+00  0.1224E+01
      6.303  0.0000E+00  0.1224E+01
      6.357  0.0000E+00  0.1224E+01
