unknown system                          
           1
    11.002582    0.000000    0.000000
     5.501291    9.528515    0.000000
     0.000000    0.000000   24.491785
   Au   Pd
  24  24
Direct configuration=     1
   0.25000000  0.75000000  0.59169983
   0.25000000  0.50000000  0.59169983
   0.33333333  0.83333333  0.40830017
   0.16666667  0.91666667  0.50000000
   0.66666667  0.91666667  0.50000000
   0.58333333  0.08333333  0.40830017
   0.58333333  0.33333333  0.40830017
   0.16666667  0.66666667  0.50000000
   0.58333333  0.58333333  0.40830017
   0.41666667  0.91666667  0.50000000
   0.50000000  0.75000000  0.59169983
   0.83333333  0.08333333  0.40830017
   0.66666667  0.16666667  0.50000000
   0.75000000  0.00000000  0.59169983
   0.66666667  0.66666667  0.50000000
   0.50000000  0.50000000  0.59169983
   0.33333333  0.58333333  0.40830017
   0.75000000  0.75000000  0.59169983
   0.16666667  0.41666667  0.50000000
   0.33333333  0.33333333  0.40830017
   0.33333333  0.08333333  0.40830017
   0.00000000  0.75000000  0.59169983
   0.08333333  0.83333333  0.40830017
   0.91666667  0.41666667  0.50000000
   0.83333333  0.83333333  0.40830017
   0.75000000  0.50000000  0.59169983
   0.91666667  0.16666667  0.50000000
   0.83333333  0.58333333  0.40830017
   0.75000000  0.25000000  0.59169983
   0.66666667  0.41666667  0.50000000
   0.83333333  0.33333333  0.40830017
   0.00000000  0.00000000  0.59169983
   0.08333333  0.33333333  0.40830017
   0.00000000  0.25000000  0.59169983
   0.91666667  0.66666667  0.50000000
   0.58333333  0.83333333  0.40830017
   0.25000000  0.25000000  0.59169983
   0.41666667  0.66666667  0.50000000
   0.00000000  0.50000000  0.59169983
   0.50000000  0.25000000  0.59169983
   0.41666667  0.41666667  0.50000000
   0.50000000  0.00000000  0.59169983
   0.41666667  0.16666667  0.50000000
   0.91666667  0.91666667  0.50000000
   0.16666667  0.16666667  0.50000000
   0.25000000  0.00000000  0.59169983
   0.08333333  0.58333333  0.40830017
   0.08333333  0.08333333  0.40830017
Direct configuration=     2
   0.24974267  0.75125568  0.59388456
   0.25055459  0.49810426  0.59389052
   0.33362403  0.83360494  0.40605393
   0.16487983  0.91927915  0.50044437
   0.66716304  0.91634589  0.49959800
   0.58361683  0.08204502  0.40610898
   0.58396700  0.33388628  0.40637957
   0.16605494  0.66628438  0.49962184
   0.58449424  0.58304899  0.40640932
   0.41602688  0.91811084  0.50038208
   0.49981732  0.75038830  0.59393854
   0.83463828  0.08312868  0.40642313
   0.66637845  0.16824893  0.50082071
   0.74978359  0.00131321  0.59385492
   0.66775177  0.66519407  0.49959289
   0.50155906  0.49846414  0.59326013
   0.33314788  0.58306072  0.40636902
   0.75059358  0.74896047  0.59398024
   0.16631545  0.41568384  0.50002675
   0.33219931  0.33376473  0.40644627
   0.33229992  0.08391946  0.40637316
  -0.00058011  0.75026089  0.59367842
   0.08193193  0.83361096  0.40612520
   0.91673375  0.41570687  0.49998579
   0.83377893  0.83215142  0.40733196
   0.75091498  0.49883043  0.59286789
   0.91700296  0.16705761  0.50030625
   0.83385254  0.58341608  0.40720813
   0.75067649  0.25000908  0.59255447
   0.66726864  0.41606883  0.50030951
   0.83429561  0.33317155  0.40742654
  -0.00033836  0.00131999  0.59260183
   0.08243508  0.33340313  0.40729360
  -0.00015209  0.24988892  0.59255136
   0.91685884  0.66671762  0.49943573
   0.58428638  0.83277087  0.40686462
   0.25041851  0.24915487  0.59259755
   0.41744821  0.66541067  0.50004168
  -0.00015381  0.49917288  0.59286911
   0.49974632  0.24969751  0.59264816
   0.41753685  0.41607515  0.50030544
   0.49860594  0.00145109  0.59290145
   0.41578856  0.16729500  0.50075829
   0.91672166  0.91673711  0.49996619
   0.16608790  0.16703349  0.50028732
   0.24928651  0.00141643  0.59275851
   0.08226993  0.58351811  0.40715553
   0.08266919  0.08456147  0.40731051
Direct configuration=     3
   0.24897067  0.75502271  0.60043875
   0.25221838  0.49241703  0.60046260
   0.33449611  0.83441977  0.39931522
   0.15951934  0.92711661  0.50177749
   0.66865217  0.91538356  0.49839199
   0.58446734  0.07818007  0.39953542
   0.58586798  0.33554511  0.40061776
   0.16421976  0.66513751  0.49848736
   0.58797697  0.58219595  0.40073677
   0.41410751  0.92244335  0.50152831
   0.49926930  0.75155319  0.60065465
   0.83855313  0.08251473  0.40079203
   0.66551380  0.17299573  0.50328284
   0.74913438  0.00525282  0.60032019
   0.67100709  0.66077626  0.49837155
   0.50623623  0.49385655  0.59794104
   0.33259151  0.58224288  0.40057557
   0.75237431  0.74584187  0.60082148
   0.16526179  0.41273536  0.50010702
   0.32879723  0.33505892  0.40088458
   0.32919968  0.08567785  0.40059212
  -0.00232045  0.75104358  0.59961420
   0.07772772  0.83444383  0.39960030
   0.91693502  0.41282748  0.49994318
   0.83511573  0.82860568  0.40442735
   0.75365990  0.49532172  0.59637208
   0.91801184  0.16823045  0.50122500
   0.83541014  0.58366432  0.40393201
   0.75270597  0.25003633  0.59511839
   0.66907457  0.41427531  0.50123804
   0.83718243  0.33268621  0.40480567
  -0.00135346  0.00527997  0.59530782
   0.07974033  0.33361252  0.40427391
  -0.00060838  0.24955566  0.59510593
   0.91743537  0.66687049  0.49774290
   0.58714552  0.83108347  0.40255798
   0.25167403  0.24661949  0.59529070
   0.41979283  0.66164269  0.50016671
  -0.00061523  0.49669154  0.59637696
   0.49898530  0.24879005  0.59549315
   0.42014738  0.41430060  0.50122177
   0.49442376  0.00580436  0.59650629
   0.41315423  0.16918000  0.50303318
   0.91688664  0.91694846  0.49986475
   0.16435161  0.16813398  0.50114926
   0.24714604  0.00566571  0.59593456
   0.07907971  0.58407244  0.40372163
   0.08067678  0.08824587  0.40434153
Direct configuration=     4
   0.24869449  0.75371435  0.60127173
   0.25116759  0.49445148  0.60158538
   0.33362514  0.83438468  0.39857957
   0.16259348  0.92215396  0.50101022
   0.66809163  0.91669347  0.49906896
   0.58463553  0.07994433  0.39855443
   0.58638139  0.33343073  0.39968249
   0.16603022  0.66558465  0.49903257
   0.58764360  0.58255935  0.39945620
   0.41530429  0.91951205  0.50103597
   0.50011701  0.75132271  0.60166839
   0.83586159  0.08380939  0.39993862
   0.66665657  0.16959757  0.50215903
   0.74881681  0.00401706  0.60160987
   0.66891794  0.66302922  0.49895997
   0.50478280  0.49530819  0.59912111
   0.33211034  0.58324364  0.39958596
   0.75106781  0.74702039  0.60182766
   0.16599298  0.41407434  0.50013365
   0.32982678  0.33427293  0.40000343
   0.32978374  0.08538334  0.39960335
  -0.00097676  0.75042032  0.60056012
   0.08006665  0.83368793  0.39836787
   0.91684323  0.41405374  0.50003493
   0.83430111  0.82975204  0.40348676
   0.75354304  0.49608920  0.59721960
   0.91598500  0.16834488  0.50068388
   0.83573570  0.58281806  0.40286529
   0.75342663  0.24981029  0.59653911
   0.66811250  0.41542279  0.50072127
   0.83665889  0.33314021  0.40412636
  -0.00155944  0.00479127  0.59639898
   0.07951786  0.33432433  0.40344058
  -0.00043680  0.25011708  0.59627184
   0.91714096  0.66661268  0.49871210
   0.58619667  0.83112152  0.40188037
   0.25029757  0.24737787  0.59653911
   0.41813729  0.66362933  0.50018816
   0.00001916  0.49617982  0.59694456
   0.49935280  0.24854269  0.59685509
   0.41780123  0.41595767  0.50078212
   0.49666689  0.00391289  0.59748684
   0.41453967  0.16900286  0.50188040
   0.91598562  0.91780361  0.50001278
   0.16528029  0.16822525  0.50063213
   0.24720756  0.00562830  0.59715011
   0.08014514  0.58300766  0.40267376
   0.08190981  0.08671790  0.40365732
Direct configuration=     5
   0.24852337  0.75290366  0.60178786
   0.25051650  0.49571207  0.60228108
   0.33308547  0.83436293  0.39812375
   0.16449829  0.91907899  0.50053480
   0.66774431  0.91750511  0.49948843
   0.58473975  0.08103751  0.39794659
   0.58669951  0.33212061  0.39910297
   0.16715202  0.66586170  0.49937040
   0.58743704  0.58278452  0.39866272
   0.41604584  0.91769575  0.50073090
   0.50064227  0.75117989  0.60229654
   0.83419385  0.08461159  0.39940983
   0.66736466  0.16749200  0.50146270
   0.74862004  0.00325135  0.60240899
   0.66762345  0.66442521  0.49932456
   0.50388221  0.49620767  0.59985231
   0.33181220  0.58386374  0.39897277
   0.75025827  0.74775062  0.60245111
   0.16644605  0.41490400  0.50015015
   0.33046470  0.33378592  0.39945746
   0.33014563  0.08520085  0.39899068
  -0.00014418  0.75003413  0.60114623
   0.08151592  0.83321955  0.39760424
   0.91678636  0.41481357  0.50009179
   0.83379635  0.83046236  0.40290394
   0.75347063  0.49656475  0.59774474
   0.91472912  0.16841577  0.50034859
   0.83593743  0.58229370  0.40220433
   0.75387316  0.24967022  0.59741943
   0.66751638  0.41613379  0.50040107
   0.83633449  0.33342152  0.40370545
  -0.00168708  0.00448846  0.59707509
   0.07938001  0.33476539  0.40292423
  -0.00033049  0.25046496  0.59699426
   0.91695853  0.66645293  0.49931264
   0.58560874  0.83114510  0.40146050
   0.24944468  0.24784778  0.59731266
   0.41711147  0.66486030  0.50020145
   0.00041225  0.49586274  0.59729626
   0.49958052  0.24838942  0.59769898
   0.41634751  0.41698443  0.50050971
   0.49805678  0.00274090  0.59809441
   0.41539812  0.16889310  0.50116611
   0.91542733  0.91833349  0.50010449
   0.16585571  0.16828180  0.50031170
   0.24724567  0.00560512  0.59790329
   0.08080531  0.58234790  0.40202448
   0.08267383  0.08577113  0.40323337
Direct configuration=     6
   0.24896865  0.75279316  0.60214350
   0.25050019  0.49603076  0.60280729
   0.33337395  0.83426512  0.39778197
   0.16443875  0.91902780  0.50042796
   0.66743347  0.91718807  0.49975540
   0.58431449  0.08083896  0.39745045
   0.58551440  0.33332735  0.39874705
   0.16621272  0.66655905  0.49951963
   0.58686213  0.58251334  0.39817971
   0.41592914  0.91784884  0.50062601
   0.50000172  0.75120962  0.60274258
   0.83528246  0.08347047  0.39897648
   0.66626525  0.16844043  0.50136039
   0.74896390  0.00271810  0.60303506
   0.66710650  0.66526703  0.49954178
   0.50350367  0.49654079  0.60011778
   0.33277998  0.58304476  0.39856364
   0.75082610  0.74790680  0.60294436
   0.16705118  0.41551274  0.50019699
   0.33094569  0.33378080  0.39908078
   0.33095851  0.08471573  0.39859443
  -0.00048379  0.74997313  0.60151006
   0.08073889  0.83374590  0.39711896
   0.91649858  0.41523337  0.50016408
   0.83385991  0.83080825  0.40284949
   0.75298175  0.49712638  0.59796583
   0.91550151  0.16754689  0.50015423
   0.83564378  0.58259312  0.40199870
   0.75315751  0.24975540  0.59769529
   0.66586759  0.41659016  0.50025593
   0.83619143  0.33343478  0.40346723
  -0.00116147  0.00388765  0.59721565
   0.07967610  0.33471104  0.40263287
  -0.00020430  0.25035586  0.59731357
   0.91680430  0.66718463  0.49978881
   0.58518078  0.83180738  0.40143741
   0.24991222  0.24788643  0.59758164
   0.41739548  0.66482429  0.50022151
   0.00040036  0.49638943  0.59755090
   0.49966924  0.24874448  0.59786754
   0.41701390  0.41679455  0.50040455
   0.49813312  0.00248634  0.59822266
   0.41581294  0.16828583  0.50070457
   0.91642439  0.91742021  0.50013824
   0.16654097  0.16698554  0.50011863
   0.24767749  0.00462257  0.59801344
   0.08115253  0.58255058  0.40190271
   0.08238195  0.08525608  0.40311227
Direct configuration=     7
   0.24912024  0.75275555  0.60226457
   0.25049463  0.49613926  0.60298643
   0.33347216  0.83423182  0.39766562
   0.16441848  0.91901037  0.50039159
   0.66732765  0.91708014  0.49984628
   0.58416972  0.08077136  0.39728156
   0.58511096  0.33373816  0.39862588
   0.16589296  0.66679644  0.49957043
   0.58666642  0.58242102  0.39801528
   0.41588942  0.91790095  0.50059031
   0.49978366  0.75121974  0.60289442
   0.83565305  0.08308200  0.39882896
   0.66589098  0.16876330  0.50132556
   0.74908095  0.00253656  0.60324820
   0.66693052  0.66555361  0.49961573
   0.50337480  0.49665419  0.60020816
   0.33310943  0.58276596  0.39842436
   0.75101940  0.74795996  0.60311227
   0.16725718  0.41571998  0.50021294
   0.33110943  0.33377906  0.39895254
   0.33123524  0.08455059  0.39845953
  -0.00059940  0.74995237  0.60163392
   0.08047437  0.83392508  0.39695375
   0.91640062  0.41537627  0.50018869
   0.83388154  0.83092601  0.40283095
   0.75281532  0.49731758  0.59804110
   0.91576445  0.16725110  0.50008807
   0.83554381  0.58269505  0.40192870
   0.75291388  0.24978439  0.59778919
   0.66530630  0.41674552  0.50020653
   0.83614273  0.33343929  0.40338614
  -0.00098254  0.00368312  0.59726350
   0.07977689  0.33469253  0.40253368
  -0.00016134  0.25031872  0.59742228
   0.91675179  0.66743373  0.49995091
   0.58503509  0.83203284  0.40142955
   0.25007138  0.24789959  0.59767321
   0.41749216  0.66481204  0.50022833
   0.00039631  0.49656873  0.59763758
   0.49969944  0.24886535  0.59792492
   0.41724076  0.41672991  0.50036876
   0.49815911  0.00239968  0.59826632
   0.41595415  0.16807910  0.50054745
   0.91676381  0.91710931  0.50014973
   0.16677425  0.16654426  0.50005290
   0.24782450  0.00428808  0.59805094
   0.08127073  0.58261958  0.40186125
   0.08228259  0.08508074  0.40307105
Direct configuration=     8
   0.24912328  0.75279284  0.60251207
   0.25065317  0.49604582  0.60332768
   0.33353710  0.83405403  0.39742989
   0.16431973  0.91926606  0.50040269
   0.66760955  0.91713835  0.49998859
   0.58450824  0.08047945  0.39690571
   0.58538793  0.33348336  0.39833489
   0.16575179  0.66691697  0.49955801
   0.58674083  0.58266017  0.39776537
   0.41546693  0.91835774  0.50061127
   0.49974868  0.75129528  0.60324530
   0.83543602  0.08315344  0.39856106
   0.66596435  0.16888499  0.50139157
   0.74921545  0.00275993  0.60360786
   0.66718843  0.66519068  0.49966367
   0.50336344  0.49663681  0.60028654
   0.33277040  0.58305614  0.39821321
   0.75108044  0.74784056  0.60357649
   0.16754201  0.41535362  0.50027423
   0.33095345  0.33383379  0.39869322
   0.33106540  0.08455159  0.39815002
  -0.00054040  0.75000032  0.60197072
   0.08065151  0.83341459  0.39659382
   0.91632045  0.41519377  0.50022871
   0.83379895  0.83087795  0.40304769
   0.75248934  0.49754014  0.59804682
   0.91594215  0.16714046  0.50008778
   0.83515911  0.58319981  0.40206149
   0.75253159  0.24976722  0.59766393
   0.66507657  0.41687745  0.50017246
   0.83601662  0.33329190  0.40336098
  -0.00072603  0.00342450  0.59719259
   0.08009718  0.33444954  0.40252878
  -0.00013264  0.25019264  0.59740423
   0.91652496  0.66777140  0.50015947
   0.58520248  0.83198867  0.40153859
   0.25065547  0.24768441  0.59755554
   0.41745702  0.66472899  0.50020371
   0.00043544  0.49672307  0.59777754
   0.49970110  0.24890739  0.59780092
   0.41728166  0.41689234  0.50041804
   0.49787098  0.00257940  0.59819906
   0.41570414  0.16793176  0.50035418
   0.91658783  0.91714424  0.50022410
   0.16680929  0.16655013  0.49999365
   0.24806324  0.00388404  0.59792025
   0.08132163  0.58298608  0.40200090
   0.08227376  0.08510619  0.40299469
Direct configuration=     9
   0.24912703  0.75283898  0.60281831
   0.25084934  0.49593020  0.60374995
   0.33361745  0.83383404  0.39713820
   0.16419753  0.91958243  0.50041642
   0.66795836  0.91721037  0.50016469
   0.58492711  0.08011824  0.39644065
   0.58573064  0.33316807  0.39797483
   0.16557710  0.66706610  0.49954263
   0.58683290  0.58295610  0.39745614
   0.41494416  0.91892296  0.50063720
   0.49970540  0.75138875  0.60367946
   0.83516748  0.08324184  0.39822956
   0.66605513  0.16903558  0.50147325
   0.74938188  0.00303632  0.60405289
   0.66750756  0.66474159  0.49972299
   0.50334938  0.49661530  0.60038353
   0.33235089  0.58341520  0.39795195
   0.75115598  0.74769282  0.60415090
   0.16789444  0.41490029  0.50035008
   0.33076045  0.33390151  0.39837234
   0.33085525  0.08455283  0.39776705
  -0.00046741  0.75005967  0.60238747
   0.08087070  0.83278292  0.39614846
   0.91622125  0.41496795  0.50027823
   0.83369675  0.83081849  0.40331589
   0.75208598  0.49781554  0.59805390
   0.91616204  0.16700354  0.50008743
   0.83468310  0.58382439  0.40222580
   0.75205856  0.24974597  0.59750893
   0.66479230  0.41704069  0.50013031
   0.83586058  0.33310952  0.40332986
  -0.00040864  0.00310449  0.59710485
   0.08049349  0.33414886  0.40252271
  -0.00009712  0.25003663  0.59738189
   0.91624429  0.66818922  0.50041754
   0.58540960  0.83193401  0.40167351
   0.25137822  0.24741815  0.59740994
   0.41741354  0.66462623  0.50017324
   0.00048386  0.49691404  0.59795073
   0.49970314  0.24895941  0.59764750
   0.41733227  0.41709333  0.50047901
   0.49751445  0.00280178  0.59811584
   0.41539477  0.16774944  0.50011503
   0.91637007  0.91718746  0.50031613
   0.16685265  0.16655741  0.49992034
   0.24835866  0.00338408  0.59775853
   0.08138461  0.58343956  0.40217370
   0.08226284  0.08513768  0.40290021
Direct configuration=    10
   0.24915622  0.75262004  0.60307108
   0.25091287  0.49592198  0.60411190
   0.33356878  0.83391621  0.39692766
   0.16413743  0.91941602  0.50032070
   0.66771822  0.91749839  0.50039848
   0.58495985  0.08009559  0.39604409
   0.58568139  0.33312938  0.39766528
   0.16565963  0.66704605  0.49960745
   0.58694371  0.58297527  0.39722726
   0.41530845  0.91852733  0.50058737
   0.49991662  0.75140511  0.60402441
   0.83530528  0.08303987  0.39798844
   0.66619760  0.16886314  0.50143673
   0.74933754  0.00313836  0.60445437
   0.66727078  0.66488960  0.49984117
   0.50325131  0.49675363  0.60044797
   0.33250928  0.58327424  0.39775615
   0.75090811  0.74788512  0.60471084
   0.16768891  0.41492158  0.50042441
   0.33080537  0.33392186  0.39812573
   0.33086216  0.08439020  0.39737707
  -0.00031704  0.75008913  0.60280833
   0.08074930  0.83295298  0.39576763
   0.91648946  0.41473361  0.50030080
   0.83376478  0.83072446  0.40363307
   0.75203070  0.49776809  0.59802810
   0.91599328  0.16710086  0.50006091
   0.83484985  0.58381906  0.40249854
   0.75212003  0.24976622  0.59729817
   0.66493989  0.41703923  0.50003528
   0.83590713  0.33312714  0.40335503
  -0.00040425  0.00311083  0.59699179
   0.08032386  0.33431573  0.40262895
  -0.00006812  0.24998305  0.59726329
   0.91638729  0.66785579  0.50073105
   0.58530563  0.83205084  0.40190707
   0.25158938  0.24727313  0.59718388
   0.41720717  0.66490650  0.50013754
   0.00063327  0.49673477  0.59804012
   0.49969396  0.24877926  0.59741886
   0.41705421  0.41722642  0.50046546
   0.49770268  0.00278659  0.59799719
   0.41553018  0.16778562  0.49979315
   0.91620729  0.91756078  0.50039998
   0.16644069  0.16708884  0.49983206
   0.24838292  0.00340952  0.59761102
   0.08115830  0.58340941  0.40246398
   0.08222867  0.08497317  0.40280020
Direct configuration=    11
   0.24919255  0.75234753  0.60338571
   0.25099194  0.49591174  0.60456241
   0.33350820  0.83401848  0.39666560
   0.16406262  0.91920889  0.50020156
   0.66741933  0.91785688  0.50068947
   0.58500059  0.08006739  0.39555049
   0.58562010  0.33308121  0.39727999
   0.16576236  0.66702109  0.49968813
   0.58708163  0.58299914  0.39694238
   0.41576187  0.91803488  0.50052534
   0.50017951  0.75142548  0.60445377
   0.83547681  0.08278848  0.39768831
   0.66637494  0.16864850  0.50139128
   0.74928234  0.00326536  0.60495409
   0.66697604  0.66507382  0.49998827
   0.50312925  0.49692580  0.60052818
   0.33270641  0.58309879  0.39751243
   0.75059958  0.74812447  0.60540778
   0.16743310  0.41494808  0.50051692
   0.33086128  0.33394720  0.39781878
   0.33087078  0.08418777  0.39689166
  -0.00012988  0.75012581  0.60333218
   0.08059820  0.83316464  0.39529361
   0.91682329  0.41444193  0.50032890
   0.83384947  0.83060742  0.40402787
   0.75196190  0.49770904  0.59799598
   0.91578322  0.16722199  0.50002790
   0.83505740  0.58381243  0.40283801
   0.75219653  0.24979143  0.59703584
   0.66512359  0.41703741  0.49991699
   0.83596507  0.33314907  0.40338636
  -0.00039878  0.00311873  0.59685106
   0.08011273  0.33452344  0.40276117
  -0.00003202  0.24991636  0.59711567
   0.91656527  0.66744077  0.50112127
   0.58517622  0.83219625  0.40219779
   0.25185222  0.24709262  0.59690250
   0.41695029  0.66525535  0.50009310
   0.00081925  0.49651163  0.59815139
   0.49968252  0.24855503  0.59713428
   0.41670810  0.41739208  0.50044859
   0.49793698  0.00276769  0.59784950
   0.41569873  0.16783065  0.49939251
   0.91600468  0.91802546  0.50050435
   0.16592793  0.16775031  0.49972217
   0.24841312  0.00344118  0.59742742
   0.08087661  0.58337189  0.40282529
   0.08218614  0.08476840  0.40267571
Direct configuration=    12
   0.24935548  0.75233960  0.60351348
   0.25094069  0.49578167  0.60480084
   0.33340803  0.83405151  0.39655034
   0.16422330  0.91910218  0.50000159
   0.66754278  0.91767344  0.50092429
   0.58484948  0.08016511  0.39528862
   0.58559008  0.33318279  0.39710258
   0.16558506  0.66712586  0.49980951
   0.58715032  0.58279865  0.39687907
   0.41551077  0.91807575  0.50043104
   0.50005621  0.75147040  0.60466936
   0.83549721  0.08274003  0.39758395
   0.66613274  0.16877235  0.50110173
   0.74933415  0.00309905  0.60527179
   0.66699175  0.66518229  0.50023026
   0.50315075  0.49692539  0.60046696
   0.33283230  0.58298610  0.39744680
   0.75085867  0.74813086  0.60587172
   0.16755069  0.41540854  0.50059391
   0.33079712  0.33386472  0.39771483
   0.33086777  0.08433401  0.39660277
  -0.00033350  0.75011775  0.60368798
   0.08062917  0.83325222  0.39507715
   0.91630338  0.41499050  0.50040731
   0.83388077  0.83070986  0.40446968
   0.75229602  0.49756879  0.59794247
   0.91557156  0.16725976  0.49984161
   0.83528481  0.58348301  0.40318481
   0.75244641  0.24987468  0.59685890
   0.66500669  0.41711918  0.49972592
   0.83601032  0.33321365  0.40342681
  -0.00050443  0.00322191  0.59675862
   0.07997100  0.33460050  0.40282911
   0.00005925  0.24990802  0.59701470
   0.91648949  0.66746186  0.50163272
   0.58501860  0.83234722  0.40243403
   0.25162290  0.24712938  0.59664350
   0.41686100  0.66532389  0.50006504
   0.00076665  0.49641935  0.59822583
   0.49968701  0.24858105  0.59686006
   0.41662918  0.41734715  0.50032778
   0.49827912  0.00259092  0.59775046
   0.41582507  0.16796611  0.49890854
   0.91613193  0.91782787  0.50057634
   0.16634071  0.16706489  0.49951826
   0.24838026  0.00356338  0.59723350
   0.08092817  0.58313259  0.40315526
   0.08219313  0.08471423  0.40258818
Direct configuration=    13
   0.24949379  0.75233286  0.60362194
   0.25089718  0.49567125  0.60500325
   0.33332300  0.83407955  0.39645248
   0.16435970  0.91901159  0.49983184
   0.66764758  0.91751771  0.50112362
   0.58472121  0.08024806  0.39506632
   0.58556459  0.33326902  0.39695199
   0.16543455  0.66721480  0.49991255
   0.58720863  0.58262846  0.39682533
   0.41529762  0.91811044  0.50035099
   0.49995153  0.75150854  0.60485238
   0.83551453  0.08269890  0.39749536
   0.66592714  0.16887749  0.50085593
   0.74937813  0.00295787  0.60554148
   0.66700509  0.66527437  0.50043568
   0.50316900  0.49692504  0.60041499
   0.33293916  0.58289044  0.39739109
   0.75107860  0.74813629  0.60626554
   0.16765051  0.41579942  0.50065926
   0.33074265  0.33379471  0.39762658
   0.33086521  0.08445815  0.39635753
  -0.00050636  0.75011090  0.60399002
   0.08065545  0.83332657  0.39489341
   0.91586203  0.41545619  0.50047386
   0.83390735  0.83079682  0.40484473
   0.75257966  0.49744974  0.59789704
   0.91539188  0.16729183  0.49968348
   0.83547786  0.58320337  0.40347920
   0.75265853  0.24994535  0.59670870
   0.66490746  0.41718858  0.49956372
   0.83604872  0.33326847  0.40346115
  -0.00059411  0.00330950  0.59668014
   0.07985069  0.33466592  0.40288678
   0.00013672  0.24990094  0.59692899
   0.91642515  0.66747976  0.50206690
   0.58488479  0.83247538  0.40263457
   0.25142823  0.24716058  0.59642364
   0.41678520  0.66538207  0.50004121
   0.00072199  0.49634101  0.59828902
   0.49969082  0.24860313  0.59662728
   0.41656219  0.41730902  0.50022522
   0.49856957  0.00244085  0.59766639
   0.41593232  0.16808110  0.49849770
   0.91623996  0.91766013  0.50063744
   0.16669111  0.16648305  0.49934515
   0.24835236  0.00366710  0.59706889
   0.08097194  0.58292945  0.40343537
   0.08219906  0.08466824  0.40251388
Direct configuration=    14
   0.24932789  0.75250091  0.60361459
   0.25080751  0.49558978  0.60517607
   0.33343000  0.83397078  0.39634092
   0.16421852  0.91882856  0.49965358
   0.66773947  0.91742682  0.50138889
   0.58479419  0.08018019  0.39488259
   0.58563344  0.33316892  0.39680646
   0.16532275  0.66760522  0.50013258
   0.58719023  0.58277732  0.39689149
   0.41528497  0.91825348  0.50024537
   0.49999008  0.75153250  0.60494314
   0.83533897  0.08283910  0.39745315
   0.66589367  0.16878673  0.50049406
   0.74938372  0.00321568  0.60573384
   0.66659198  0.66566051  0.50078144
   0.50337081  0.49674540  0.60022337
   0.33272355  0.58297000  0.39742835
   0.75118632  0.74790906  0.60675641
   0.16767417  0.41570099  0.50075894
   0.33054236  0.33392358  0.39754766
   0.33071214  0.08459428  0.39607737
  -0.00033547  0.75003973  0.60433574
   0.08079284  0.83299370  0.39481871
   0.91609745  0.41533163  0.50058688
   0.83391570  0.83087573  0.40538742
   0.75271010  0.49753587  0.59791977
   0.91541683  0.16724113  0.49942014
   0.83528636  0.58323835  0.40383748
   0.75273595  0.24986321  0.59649214
   0.66447857  0.41736630  0.49935651
   0.83611457  0.33317078  0.40346589
  -0.00061016  0.00325183  0.59654058
   0.07993852  0.33445285  0.40299134
   0.00036186  0.24978724  0.59675950
   0.91622139  0.66787317  0.50268520
   0.58490333  0.83237021  0.40288508
   0.25132454  0.24710752  0.59608446
   0.41683433  0.66517627  0.50001732
   0.00071542  0.49628118  0.59843280
   0.49977312  0.24863994  0.59627501
   0.41663877  0.41751964  0.50004219
   0.49862528  0.00242205  0.59754595
   0.41588897  0.16797132  0.49801139
   0.91639197  0.91742282  0.50078792
   0.16683426  0.16642798  0.49901781
   0.24841113  0.00361505  0.59686097
   0.08117878  0.58300410  0.40375206
   0.08219883  0.08484060  0.40235947
Direct configuration=    15
   0.24921920  0.75261100  0.60360978
   0.25074876  0.49553640  0.60528929
   0.33350010  0.83389952  0.39626784
   0.16412604  0.91870866  0.49953680
   0.66779966  0.91736727  0.50156267
   0.58484199  0.08013572  0.39476223
   0.58567854  0.33310334  0.39671112
   0.16524951  0.66786099  0.50027673
   0.58717819  0.58287484  0.39693484
   0.41527668  0.91834719  0.50017617
   0.50001534  0.75154820  0.60500260
   0.83522396  0.08293095  0.39742550
   0.66587174  0.16872728  0.50025698
   0.74938739  0.00338458  0.60585986
   0.66632135  0.66591349  0.50100796
   0.50350302  0.49662772  0.60009784
   0.33258230  0.58302212  0.39745277
   0.75125690  0.74776020  0.60707799
   0.16768966  0.41563652  0.50082424
   0.33041114  0.33400801  0.39749596
   0.33061187  0.08468347  0.39589384
  -0.00022351  0.74999310  0.60456222
   0.08088284  0.83277564  0.39476976
   0.91625168  0.41525003  0.50066092
   0.83392117  0.83092742  0.40574295
   0.75279556  0.49759229  0.59793466
   0.91543317  0.16720792  0.49924763
   0.83516091  0.58326127  0.40407220
   0.75278668  0.24980939  0.59635026
   0.66419760  0.41748272  0.49922076
   0.83615770  0.33310678  0.40346900
  -0.00062067  0.00321404  0.59644914
   0.07999606  0.33431326  0.40305983
   0.00050935  0.24971275  0.59664846
   0.91608791  0.66813089  0.50309027
   0.58491547  0.83230131  0.40304919
   0.25125661  0.24707276  0.59586225
   0.41686652  0.66504144  0.50000167
   0.00071112  0.49624199  0.59852700
   0.49982704  0.24866405  0.59604424
   0.41668893  0.41765763  0.49992228
   0.49866177  0.00240973  0.59746704
   0.41586056  0.16789941  0.49769280
   0.91649156  0.91726735  0.50088650
   0.16692803  0.16639190  0.49880336
   0.24844963  0.00358095  0.59672475
   0.08131428  0.58305300  0.40395953
   0.08219867  0.08495352  0.40225831
Direct configuration=    16
   0.24921141  0.75261400  0.60350171
   0.25091491  0.49549199  0.60529507
   0.33358161  0.83390520  0.39619240
   0.16408135  0.91889829  0.49941595
   0.66760454  0.91774791  0.50180155
   0.58494783  0.07980399  0.39470634
   0.58551714  0.33324124  0.39658167
   0.16544910  0.66755085  0.50052792
   0.58709601  0.58301063  0.39709749
   0.41514678  0.91842534  0.50011729
   0.50001513  0.75153121  0.60495031
   0.83549091  0.08267992  0.39741098
   0.66612765  0.16844303  0.50008166
   0.74930601  0.00367731  0.60582775
   0.66628283  0.66577162  0.50128284
   0.50351075  0.49661957  0.59987244
   0.33256327  0.58304489  0.39754870
   0.75114581  0.74777284  0.60743619
   0.16765264  0.41558554  0.50087014
   0.33034266  0.33421330  0.39742506
   0.33073728  0.08438932  0.39564939
  -0.00006482  0.75003501  0.60483624
   0.08066166  0.83287358  0.39485674
   0.91641179  0.41501019  0.50072368
   0.83396981  0.83086777  0.40609775
   0.75261623  0.49759018  0.59802225
   0.91561116  0.16710227  0.49908917
   0.83499180  0.58360497  0.40439583
   0.75277613  0.24963164  0.59607882
   0.66439144  0.41746941  0.49913396
   0.83607921  0.33316394  0.40341729
  -0.00051249  0.00321343  0.59633249
   0.08002227  0.33439925  0.40309412
   0.00063882  0.24943459  0.59647959
   0.91609726  0.66808995  0.50349753
   0.58503560  0.83225887  0.40318710
   0.25163885  0.24682718  0.59563534
   0.41680822  0.66523216  0.49999169
   0.00080759  0.49624182  0.59874935
   0.49979368  0.24862173  0.59571493
   0.41648460  0.41780097  0.49974213
   0.49846259  0.00263219  0.59738989
   0.41586121  0.16772985  0.49746515
   0.91618866  0.91764233  0.50108484
   0.16664256  0.16668658  0.49858352
   0.24854496  0.00337398  0.59655211
   0.08109799  0.58330407  0.40422430
   0.08221760  0.08474411  0.40203134
Direct configuration=    17
   0.24920716  0.75261564  0.60344273
   0.25100559  0.49546775  0.60529823
   0.33362609  0.83390830  0.39615123
   0.16405695  0.91900179  0.49934999