  56  56   0   0
  0.4903395E+02  0.1100258E-08  0.1100258E-08  0.2619179E-08  0.3500000E-15
  1.000000000000000E-004
  CAR 
 unknown system                          
      6.46804872    -21.74807747  301     -1.46796069      1.00000000
    -21.748  0.0000E+00  0.0000E+00
    -21.654  0.0000E+00  0.0000E+00
    -21.560  0.0000E+00  0.0000E+00
    -21.466  0.0000E+00  0.0000E+00
    -21.372  0.0000E+00  0.0000E+00
    -21.278  0.0000E+00  0.0000E+00
    -21.184  0.0000E+00  0.0000E+00
    -21.090  0.0000E+00  0.0000E+00
    -20.996  0.1372E-14  0.1290E-15
    -20.902  0.1466E-10  0.1379E-11
    -20.808  0.2784E-07  0.2620E-08
    -20.713  0.9593E-05  0.9048E-06
    -20.619  0.6252E-03  0.5971E-04
    -20.525  0.8425E-02  0.8521E-03
    -20.431  0.2854E-01  0.3537E-02
    -20.337  0.3262E-01  0.6604E-02
    -20.243  0.1356E-01  0.7880E-02
    -20.149  0.6044E-02  0.8448E-02
    -20.055  0.1845E-01  0.1018E-01
    -19.961  0.1618E-01  0.1170E-01
    -19.867  0.4663E-02  0.1214E-01
    -19.773  0.1605E-01  0.1365E-01
    -19.679  0.4626E-01  0.1800E-01
    -19.585  0.4685E-01  0.2241E-01
    -19.491  0.1956E-01  0.2425E-01
    -19.397  0.1914E-01  0.2605E-01
    -19.303  0.1853E-01  0.2779E-01
    -19.209  0.1547E-01  0.2925E-01
    -19.115  0.2085E-01  0.3121E-01
    -19.021  0.7775E-02  0.3194E-01
    -18.926  0.6108E-03  0.3200E-01
    -18.832  0.9455E-05  0.3200E-01
    -18.738  0.2740E-07  0.3200E-01
    -18.644  0.1438E-10  0.3200E-01
    -18.550  0.1340E-14  0.3200E-01
    -18.456  0.0000E+00  0.3200E-01
    -18.362  0.0000E+00  0.3200E-01
    -18.268  0.0000E+00  0.3200E-01
    -18.174  0.0000E+00  0.3200E-01
    -18.080  0.0000E+00  0.3200E-01
    -17.986  0.0000E+00  0.3200E-01
    -17.892  0.0000E+00  0.3200E-01
    -17.798  0.0000E+00  0.3200E-01
    -17.704  0.0000E+00  0.3200E-01
    -17.610  0.0000E+00  0.3200E-01
    -17.516  0.0000E+00  0.3200E-01
    -17.422  0.0000E+00  0.3200E-01
    -17.328  0.0000E+00  0.3200E-01
    -17.233  0.0000E+00  0.3200E-01
    -17.139  0.0000E+00  0.3200E-01
    -17.045  0.0000E+00  0.3200E-01
    -16.951  0.0000E+00  0.3200E-01
    -16.857  0.0000E+00  0.3200E-01
    -16.763  0.0000E+00  0.3200E-01
    -16.669  0.0000E+00  0.3200E-01
    -16.575  0.0000E+00  0.3200E-01
    -16.481  0.0000E+00  0.3200E-01
    -16.387  0.0000E+00  0.3200E-01
    -16.293  0.0000E+00  0.3200E-01
    -16.199  0.0000E+00  0.3200E-01
    -16.105  0.0000E+00  0.3200E-01
    -16.011  0.0000E+00  0.3200E-01
    -15.917  0.0000E+00  0.3200E-01
    -15.823  0.0000E+00  0.3200E-01
    -15.729  0.0000E+00  0.3200E-01
    -15.635  0.0000E+00  0.3200E-01
    -15.541  0.0000E+00  0.3200E-01
    -15.446  0.0000E+00  0.3200E-01
    -15.352  0.0000E+00  0.3200E-01
    -15.258  0.0000E+00  0.3200E-01
    -15.164  0.0000E+00  0.3200E-01
    -15.070  0.0000E+00  0.3200E-01
    -14.976  0.0000E+00  0.3200E-01
    -14.882  0.0000E+00  0.3200E-01
    -14.788  0.0000E+00  0.3200E-01
    -14.694  0.0000E+00  0.3200E-01
    -14.600  0.0000E+00  0.3200E-01
    -14.506  0.0000E+00  0.3200E-01
    -14.412  0.0000E+00  0.3200E-01
    -14.318  0.0000E+00  0.3200E-01
    -14.224  0.0000E+00  0.3200E-01
    -14.130  0.0000E+00  0.3200E-01
    -14.036  0.0000E+00  0.3200E-01
    -13.942  0.0000E+00  0.3200E-01
    -13.848  0.0000E+00  0.3200E-01
    -13.754  0.0000E+00  0.3200E-01
    -13.659  0.0000E+00  0.3200E-01
    -13.565  0.0000E+00  0.3200E-01
    -13.471  0.0000E+00  0.3200E-01
    -13.377  0.0000E+00  0.3200E-01
    -13.283  0.0000E+00  0.3200E-01
    -13.189  0.0000E+00  0.3200E-01
    -13.095  0.0000E+00  0.3200E-01
    -13.001  0.0000E+00  0.3200E-01
    -12.907  0.0000E+00  0.3200E-01
    -12.813  0.0000E+00  0.3200E-01
    -12.719  0.0000E+00  0.3200E-01
    -12.625  0.0000E+00  0.3200E-01
    -12.531  0.0000E+00  0.3200E-01
    -12.437  0.0000E+00  0.3200E-01
    -12.343  0.0000E+00  0.3200E-01
    -12.249  0.0000E+00  0.3200E-01
    -12.155  0.0000E+00  0.3200E-01
    -12.061  0.0000E+00  0.3200E-01
    -11.966  0.0000E+00  0.3200E-01
    -11.872  0.0000E+00  0.3200E-01
    -11.778  0.0000E+00  0.3200E-01
    -11.684  0.0000E+00  0.3200E-01
    -11.590  0.0000E+00  0.3200E-01
    -11.496  0.0000E+00  0.3200E-01
    -11.402  0.0000E+00  0.3200E-01
    -11.308  0.0000E+00  0.3200E-01
    -11.214  0.0000E+00  0.3200E-01
    -11.120  0.0000E+00  0.3200E-01
    -11.026  0.0000E+00  0.3200E-01
    -10.932  0.0000E+00  0.3200E-01
    -10.838  0.0000E+00  0.3200E-01
    -10.744  0.0000E+00  0.3200E-01
    -10.650  0.0000E+00  0.3200E-01
    -10.556  0.0000E+00  0.3200E-01
    -10.462  0.0000E+00  0.3200E-01
    -10.368  0.0000E+00  0.3200E-01
    -10.274  0.0000E+00  0.3200E-01
    -10.179  0.0000E+00  0.3200E-01
    -10.085  0.0000E+00  0.3200E-01
     -9.991  0.0000E+00  0.3200E-01
     -9.897  0.0000E+00  0.3200E-01
     -9.803  0.6571E-16  0.3200E-01
     -9.709  0.9923E-12  0.3200E-01
     -9.615  0.2692E-08  0.3200E-01
     -9.521  0.1341E-05  0.3200E-01
     -9.427  0.1265E-03  0.3201E-01
     -9.333  0.2368E-02  0.3223E-01
     -9.239  0.9553E-02  0.3313E-01
     -9.145  0.1152E-01  0.3422E-01
     -9.051  0.1137E-01  0.3529E-01
     -8.957  0.6557E-02  0.3590E-01
     -8.863  0.1438E-02  0.3604E-01
     -8.769  0.3917E-02  0.3641E-01
     -8.675  0.1133E-01  0.3747E-01
     -8.581  0.1707E-01  0.3908E-01
     -8.486  0.2305E-01  0.4125E-01
     -8.392  0.2476E-01  0.4357E-01
     -8.298  0.2903E-01  0.4630E-01
     -8.204  0.4110E-01  0.5017E-01
     -8.110  0.4266E-01  0.5418E-01
     -8.016  0.4237E-01  0.5817E-01
     -7.922  0.4533E-01  0.6243E-01
     -7.828  0.5496E-01  0.6760E-01
     -7.734  0.6184E-01  0.7342E-01
     -7.640  0.7606E-01  0.8057E-01
     -7.546  0.9180E-01  0.8920E-01
     -7.452  0.9874E-01  0.9849E-01
     -7.358  0.1018E+00  0.1081E+00
     -7.264  0.1217E+00  0.1195E+00
     -7.170  0.1423E+00  0.1329E+00
     -7.076  0.1367E+00  0.1458E+00
     -6.982  0.1290E+00  0.1579E+00
     -6.888  0.1289E+00  0.1700E+00
     -6.794  0.1370E+00  0.1829E+00
     -6.699  0.1528E+00  0.1973E+00
     -6.605  0.1659E+00  0.2129E+00
     -6.511  0.1767E+00  0.2295E+00
     -6.417  0.1754E+00  0.2460E+00
     -6.323  0.1737E+00  0.2623E+00
     -6.229  0.1766E+00  0.2789E+00
     -6.135  0.1696E+00  0.2949E+00
     -6.041  0.1550E+00  0.3095E+00
     -5.947  0.1513E+00  0.3237E+00
     -5.853  0.1556E+00  0.3383E+00
     -5.759  0.1596E+00  0.3533E+00
     -5.665  0.1607E+00  0.3684E+00
     -5.571  0.1668E+00  0.3841E+00
     -5.477  0.1780E+00  0.4009E+00
     -5.383  0.1698E+00  0.4168E+00
     -5.289  0.1682E+00  0.4327E+00
     -5.195  0.1748E+00  0.4491E+00
     -5.101  0.1769E+00  0.4657E+00
     -5.007  0.1745E+00  0.4822E+00
     -4.912  0.1770E+00  0.4988E+00
     -4.818  0.1793E+00  0.5157E+00
     -4.724  0.1805E+00  0.5327E+00
     -4.630  0.1824E+00  0.5498E+00
     -4.536  0.1821E+00  0.5669E+00
     -4.442  0.1827E+00  0.5841E+00
     -4.348  0.1794E+00  0.6010E+00
     -4.254  0.1775E+00  0.6177E+00
     -4.160  0.1796E+00  0.6346E+00
     -4.066  0.1822E+00  0.6517E+00
     -3.972  0.1913E+00  0.6697E+00
     -3.878  0.1956E+00  0.6881E+00
     -3.784  0.1848E+00  0.7055E+00
     -3.690  0.1740E+00  0.7219E+00
     -3.596  0.1742E+00  0.7382E+00
     -3.502  0.1739E+00  0.7546E+00
     -3.408  0.1774E+00  0.7713E+00
     -3.314  0.1805E+00  0.7883E+00
     -3.219  0.1778E+00  0.8050E+00
     -3.125  0.1871E+00  0.8226E+00
     -3.031  0.1939E+00  0.8408E+00
     -2.937  0.1892E+00  0.8586E+00
     -2.843  0.1817E+00  0.8757E+00
     -2.749  0.1778E+00  0.8924E+00
     -2.655  0.1773E+00  0.9091E+00
     -2.561  0.1825E+00  0.9263E+00
     -2.467  0.1919E+00  0.9443E+00
     -2.373  0.1982E+00  0.9629E+00
     -2.279  0.2027E+00  0.9820E+00
     -2.185  0.1993E+00  0.1001E+01
     -2.091  0.1860E+00  0.1018E+01
     -1.997  0.1712E+00  0.1034E+01
     -1.903  0.1602E+00  0.1049E+01
     -1.809  0.1468E+00  0.1063E+01
     -1.715  0.1414E+00  0.1077E+01
     -1.621  0.1319E+00  0.1089E+01
     -1.527  0.1083E+00  0.1099E+01
     -1.432  0.7823E-01  0.1106E+01
     -1.338  0.5929E-01  0.1112E+01
     -1.244  0.5890E-01  0.1118E+01
     -1.150  0.5809E-01  0.1123E+01
     -1.056  0.4399E-01  0.1127E+01
     -0.962  0.3851E-01  0.1131E+01
     -0.868  0.4942E-01  0.1135E+01
     -0.774  0.5546E-01  0.1141E+01
     -0.680  0.5605E-01  0.1146E+01
     -0.586  0.5703E-01  0.1151E+01
     -0.492  0.5249E-01  0.1156E+01
     -0.398  0.4372E-01  0.1160E+01
     -0.304  0.3369E-01  0.1164E+01
     -0.210  0.2295E-01  0.1166E+01
     -0.116  0.2282E-01  0.1168E+01
     -0.022  0.2871E-01  0.1171E+01
      0.072  0.2605E-01  0.1173E+01
      0.166  0.1778E-01  0.1175E+01
      0.261  0.2177E-01  0.1177E+01
      0.355  0.3693E-01  0.1180E+01
      0.449  0.4795E-01  0.1185E+01
      0.543  0.4278E-01  0.1189E+01
      0.637  0.3474E-01  0.1192E+01
      0.731  0.3071E-01  0.1195E+01
      0.825  0.2393E-01  0.1197E+01
      0.919  0.2808E-01  0.1200E+01
      1.013  0.2250E-01  0.1202E+01
      1.107  0.2013E-01  0.1204E+01
      1.201  0.2327E-01  0.1206E+01
      1.295  0.2310E-01  0.1208E+01
      1.389  0.2209E-01  0.1210E+01
      1.483  0.2838E-01  0.1213E+01
      1.577  0.3445E-01  0.1216E+01
      1.671  0.3176E-01  0.1219E+01
      1.765  0.3234E-01  0.1222E+01
      1.859  0.3278E-01  0.1225E+01
      1.953  0.3894E-01  0.1229E+01
      2.048  0.3872E-01  0.1233E+01
      2.142  0.2837E-01  0.1235E+01
      2.236  0.2480E-01  0.1238E+01
      2.330  0.2751E-01  0.1240E+01
      2.424  0.2633E-01  0.1243E+01
      2.518  0.2693E-01  0.1245E+01
      2.612  0.2394E-01  0.1247E+01
      2.706  0.1976E-01  0.1249E+01
      2.800  0.2217E-01  0.1251E+01
      2.894  0.3038E-01  0.1254E+01
      2.988  0.2889E-01  0.1257E+01
      3.082  0.2800E-01  0.1260E+01
      3.176  0.3332E-01  0.1263E+01
      3.270  0.3335E-01  0.1266E+01
      3.364  0.2559E-01  0.1268E+01
      3.458  0.2693E-01  0.1271E+01
      3.552  0.3051E-01  0.1274E+01
      3.646  0.3155E-01  0.1277E+01
      3.740  0.2945E-01  0.1279E+01
      3.835  0.3089E-01  0.1282E+01
      3.929  0.3163E-01  0.1285E+01
      4.023  0.3338E-01  0.1288E+01
      4.117  0.3482E-01  0.1292E+01
      4.211  0.3126E-01  0.1295E+01
      4.305  0.3256E-01  0.1298E+01
      4.399  0.4433E-01  0.1302E+01
      4.493  0.4913E-01  0.1306E+01
      4.587  0.5099E-01  0.1311E+01
      4.681  0.5138E-01  0.1316E+01
      4.775  0.5027E-01  0.1321E+01
      4.869  0.5422E-01  0.1326E+01
      4.963  0.5573E-01  0.1331E+01
      5.057  0.5712E-01  0.1337E+01
      5.151  0.5195E-01  0.1341E+01
      5.245  0.2362E-01  0.1344E+01
      5.339  0.3960E-02  0.1344E+01
      5.433  0.1978E-03  0.1344E+01
      5.528  0.2402E-05  0.1344E+01
      5.622  0.6094E-08  0.1344E+01
      5.716  0.2959E-11  0.1344E+01
      5.810  0.2613E-15  0.1344E+01
      5.904  0.0000E+00  0.1344E+01
      5.998  0.0000E+00  0.1344E+01
      6.092  0.0000E+00  0.1344E+01
      6.186  0.0000E+00  0.1344E+01
      6.280  0.0000E+00  0.1344E+01
      6.374  0.0000E+00  0.1344E+01
      6.468  0.0000E+00  0.1344E+01
