unknown system                          
           1
    11.002582    0.000000    0.000000
     5.501291    9.528515    0.000000
     0.000000    0.000000   26.191785
   Au   O    Pd
  24   8  24
Direct configuration=     1
   0.25000000  0.50000000  0.55329505
   0.25000000  0.75000000  0.55329505
   0.25000000  0.25000000  0.55329505
   0.91666667  0.16666667  0.46754708
   0.00000000  0.00000000  0.55329505
   0.66666667  0.91666667  0.46754708
   0.83333333  0.58333333  0.38179910
   0.91666667  0.41666667  0.46754708
   0.33333333  0.83333333  0.38179910
   0.83333333  0.33333333  0.38179910
   0.83333333  0.08333333  0.38179910
   0.50000000  0.75000000  0.55329505
   0.91666667  0.66666667  0.46754708
   0.08333333  0.83333333  0.38179910
   0.16666667  0.66666667  0.46754708
   0.50000000  0.50000000  0.55329505
   0.58333333  0.58333333  0.38179910
   0.50000000  0.25000000  0.55329505
   0.58333333  0.33333333  0.38179910
   0.50000000  0.00000000  0.55329505
   0.41666667  0.16666667  0.46754708
   0.33333333  0.33333333  0.38179910
   0.16666667  0.41666667  0.46754708
   0.58333333  0.83333333  0.38179910
   0.33333333  0.08333333  0.61820090
   0.08333333  0.83333333  0.61820090
   0.08333333  0.33333333  0.61820090
   0.33333333  0.33333333  0.61820090
   0.83333333  0.83333333  0.61820090
   0.58333333  0.58333333  0.61820090
   0.83333333  0.33333333  0.61820090
   0.33333333  0.83333333  0.61820090
   0.41666667  0.66666667  0.46754708
   0.08333333  0.08333333  0.38179910
   0.33333333  0.08333333  0.38179910
   0.41666667  0.41666667  0.46754708
   0.25000000  0.00000000  0.55329505
   0.58333333  0.08333333  0.38179910
   0.75000000  0.75000000  0.55329505
   0.16666667  0.91666667  0.46754708
   0.16666667  0.16666667  0.46754708
   0.41666667  0.91666667  0.46754708
   0.00000000  0.50000000  0.55329505
   0.08333333  0.58333333  0.38179910
   0.66666667  0.16666667  0.46754708
   0.75000000  0.00000000  0.55329505
   0.66666667  0.41666667  0.46754708
   0.75000000  0.25000000  0.55329505
   0.00000000  0.25000000  0.55329505
   0.08333333  0.33333333  0.38179910
   0.66666667  0.66666667  0.46754708
   0.75000000  0.50000000  0.55329505
   0.83333333  0.83333333  0.38179910
   0.33333333  0.58333333  0.38179910
   0.00000000  0.75000000  0.55329505
   0.91666667  0.91666667  0.46754708
Direct configuration=     2
   0.24908604  0.50097907  0.55598514
   0.24926185  0.74987104  0.55600320
   0.24802881  0.24999088  0.55629560
   0.91756551  0.16572695  0.46831688
  -0.00117385  0.00089386  0.55560453
   0.66717333  0.91694235  0.46767851
   0.83333333  0.58333333  0.38179910
   0.91605926  0.41652099  0.46823792
   0.33333333  0.83333333  0.38179910
   0.83333333  0.33333333  0.38179910
   0.83333333  0.08333333  0.38179910
   0.50157301  0.75027950  0.55566707
   0.91629960  0.66780443  0.46820494
   0.08333333  0.83333333  0.38179910
   0.16741987  0.66714398  0.46777679
   0.50164405  0.49841587  0.55523650
   0.58333333  0.58333333  0.38179910
   0.50284969  0.24942403  0.55563447
   0.58333333  0.33333333  0.38179910
   0.50122982 -0.00136396  0.55583871
   0.41674256  0.16597811  0.46692175
   0.33333333  0.33333333  0.38179910
   0.16637481  0.41592410  0.46722846
   0.58333333  0.83333333  0.38179910
   0.33369074  0.08104963  0.61553565
   0.08278226  0.83325725  0.61520986
   0.08037409  0.33528704  0.61475705
   0.33440536  0.33437733  0.61586760
   0.83229659  0.83349499  0.61373908
   0.58419697  0.58265527  0.61530914
   0.83308680  0.33312512  0.61380431
   0.33270803  0.83495883  0.61547795
   0.41663735  0.66677660  0.46738523
   0.08333333  0.08333333  0.38179910
   0.33333333  0.08333333  0.38179910
   0.41816052  0.41725479  0.46753163
   0.25000000  0.00058564  0.55621703
   0.58333333  0.08333333  0.38179910
   0.75118345  0.75033033  0.55561516
   0.16782781  0.91738160  0.46761961
   0.16719890  0.16520643  0.46807305
   0.41558082  0.91623732  0.46763238
  -0.00043909  0.49941318  0.55588091
   0.08333333  0.58333333  0.38179910
   0.66672354  0.16691883  0.46876315
   0.75138492 -0.00187862  0.55555650
   0.66584783  0.41703938  0.46777370
   0.75022438  0.25042075  0.55534168
  -0.00053709  0.25084694  0.55686677
   0.08333333  0.33333333  0.38179910
   0.66580475  0.66641982  0.46891938
   0.75079402  0.49866999  0.55679847
   0.83333333  0.83333333  0.38179910
   0.33333333  0.58333333  0.38179910
  -0.00206650  0.75148032  0.55698363
   0.91619006  0.91695340  0.46754395
Direct configuration=     3
   0.24754570  0.50262914  0.56051884
   0.24801782  0.74965370  0.56056734
   0.24470669  0.24997552  0.56135253
   0.91908037  0.16414321  0.46961426
  -0.00315217  0.00240032  0.55949677
   0.66802724  0.91740696  0.46790002
   0.83333333  0.58333333  0.38179910
   0.91503558  0.41627549  0.46940223
   0.33333333  0.83333333  0.38179910
   0.83333333  0.33333333  0.38179910
   0.83333333  0.08333333  0.38179910
   0.50422407  0.75075055  0.55966473
   0.91568098  0.66972194  0.46931365
   0.08333333  0.83333333  0.38179910
   0.16868928  0.66794841  0.46816392
   0.50441483  0.49574608  0.55850848
   0.58333333  0.58333333  0.38179910
   0.50765238  0.24845334  0.55957719
   0.58333333  0.33333333  0.38179910
   0.50330247 -0.00366269  0.56012562
   0.41687045  0.16481766  0.46586787
   0.33333333  0.33333333  0.38179910
   0.16588294  0.41467262  0.46669149
   0.58333333  0.83333333  0.38179910
   0.33429309  0.07720081  0.61104381
   0.08185353  0.83312901  0.61016896
   0.07538677  0.33857969  0.60895301
   0.33621208  0.33613682  0.61193520
   0.83054934  0.83376744  0.60621940
   0.58565250  0.58151250  0.61043555
   0.83267130  0.33277420  0.60639459
   0.33165418  0.83769833  0.61088886
   0.41658793  0.66696187  0.46711247
   0.08333333  0.08333333  0.38179910
   0.33333333  0.08333333  0.38179910
   0.42067818  0.41824598  0.46750559
   0.25000000  0.00157264  0.56114156
   0.58333333  0.08333333  0.38179910
   0.75317795  0.75088706  0.55952532
   0.16978472  0.91858650  0.46774184
   0.16809588  0.16274545  0.46895949
   0.41375081  0.91551372  0.46777616
  -0.00117912  0.49842420  0.56023896
   0.08333333  0.58333333  0.38179910
   0.66681938  0.16734380  0.47081264
   0.75371898 -0.00504473  0.55936781
   0.66446783  0.41766752  0.46815565
   0.75060253  0.25112984  0.55879093
  -0.00144226  0.25227432  0.56288631
   0.08333333  0.33333333  0.38179910
   0.66435214  0.66600380  0.47123218
   0.75213221  0.49642848  0.56270291
   0.83333333  0.83333333  0.38179910
   0.33333333  0.58333333  0.38179910
  -0.00554926  0.75397517  0.56320013
   0.91538681  0.91743664  0.46753869
Direct configuration=     4
   0.24777494  0.50238358  0.55984413
   0.24820296  0.74968605  0.55988810
   0.24520109  0.24997781  0.56059995
   0.91885493  0.16437891  0.46942119
  -0.00285775  0.00217613  0.55891752
   0.66790016  0.91733781  0.46786706
   0.83333333  0.58333333  0.38179910
   0.91518793  0.41631202  0.46922896
   0.33333333  0.83333333  0.38179910
   0.83333333  0.33333333  0.38179910
   0.83333333  0.08333333  0.38179910
   0.50382953  0.75068045  0.55906979
   0.91577304  0.66943657  0.46914865
   0.08333333  0.83333333  0.38179910
   0.16850036  0.66782869  0.46810631
   0.50400248  0.49614340  0.55802154
   0.58333333  0.58333333  0.38179910
   0.50693764  0.24859780  0.55899043
   0.58333333  0.33333333  0.38179910
   0.50299402 -0.00332059  0.55948764
   0.41685142  0.16499036  0.46602471
   0.33333333  0.33333333  0.38179910
   0.16595615  0.41485887  0.46677140
   0.58333333  0.83333333  0.38179910
   0.33420345  0.07777360  0.61171229
   0.08199174  0.83314809  0.61091916
   0.07612899  0.33808967  0.60981678
   0.33594320  0.33587497  0.61252043
   0.83080937  0.83372689  0.60733849
   0.58543589  0.58168257  0.61116084
   0.83273313  0.33282642  0.60749732
   0.33181101  0.83729063  0.61157182
   0.41659529  0.66693430  0.46715307
   0.08333333  0.08333333  0.38179910
   0.33333333  0.08333333  0.38179910
   0.42030350  0.41809847  0.46750947
   0.25000000  0.00142575  0.56040868
   0.58333333  0.08333333  0.38179910
   0.75288113  0.75080421  0.55894340
   0.16949349  0.91840718  0.46772365
   0.16796239  0.16311170  0.46882757
   0.41402316  0.91562141  0.46775476
  -0.00106898  0.49857138  0.55959039
   0.08333333  0.58333333  0.38179910
   0.66680512  0.16728056  0.47050763
   0.75337162 -0.00457355  0.55880061
   0.66467320  0.41757404  0.46809881
   0.75054626  0.25102431  0.55827761
  -0.00130755  0.25206189  0.56199047
   0.08333333  0.33333333  0.38179910
   0.66456832  0.66606571  0.47088799
   0.75193306  0.49676206  0.56182421
   0.83333333  0.83333333  0.38179910
   0.33333333  0.58333333  0.38179910
  -0.00503095  0.75360388  0.56227498
   0.91550635  0.91736473  0.46753947
Direct configuration=     5
   0.24543263  0.50655453  0.56075397
   0.25110464  0.74439008  0.56022362
   0.24811437  0.24961449  0.55971710
   0.91942109  0.16395445  0.47106846
  -0.00586088  0.00827894  0.55964825
   0.66691654  0.91771393  0.46921195
   0.83333333  0.58333333  0.38179910
   0.91486341  0.41614233  0.47096488
   0.33333333  0.83333333  0.38179910
   0.83333333  0.33333333  0.38179910
   0.83333333  0.08333333  0.38179910
   0.50656493  0.75160639  0.55956255
   0.91648021  0.66895515  0.47076088
   0.08333333  0.83333333  0.38179910
   0.16862107  0.66779102  0.47002979
   0.50151339  0.49462618  0.55830158
   0.58333333  0.58333333  0.38179910
   0.51063874  0.24557735  0.56011991
   0.58333333  0.33333333  0.38179910
   0.50840636 -0.00423660  0.56020202
   0.41691012  0.16466402  0.46782949
   0.33333333  0.33333333  0.38179910
   0.16604273  0.41476541  0.46840963
   0.58333333  0.83333333  0.38179910
   0.33465603  0.07400439  0.61121463
   0.08075116  0.83278481  0.61054872
   0.06985350  0.34269470  0.60918881
   0.33854327  0.33717561  0.61193070
   0.82842654  0.83381843  0.60594858
   0.58742565  0.58072296  0.61046105
   0.83196461  0.33057919  0.60567566
   0.33077310  0.84023064  0.60994746
   0.41657159  0.66722330  0.46865501
   0.08333333  0.08333333  0.38179910
   0.33333333  0.08333333  0.38179910
   0.42016288  0.41800148  0.46902635
   0.24726470  0.00225915  0.56225661
   0.58333333  0.08333333  0.38179910
   0.75153547  0.74781681  0.55971022
   0.16953872  0.91825956  0.46917732
   0.16794757  0.16297727  0.47026832
   0.41455537  0.91529663  0.46925526
  -0.00328151  0.50289727  0.56065615
   0.08333333  0.58333333  0.38179910
   0.66694582  0.16734169  0.47242500
   0.74998467  0.00063856  0.55944094
   0.66518926  0.41758234  0.46920006
   0.75014604  0.24833907  0.55913964
   0.00041047  0.24719451  0.56364091
   0.08333333  0.33333333  0.38179910
   0.66445069  0.66613997  0.47290086
   0.75259703  0.50065704  0.56343636
   0.83333333  0.83333333  0.38179910
   0.33333333  0.58333333  0.38179910
  -0.00113802  0.74878451  0.56384352
   0.91628324  0.91748423  0.46860356
Direct configuration=     6
   0.24399873  0.50910788  0.56131096
   0.25288098  0.74114803  0.56042901
   0.24989780  0.24939208  0.55917664
   0.91976768  0.16369461  0.47207687
  -0.00769932  0.01201492  0.56009558
   0.66631439  0.91794418  0.47003526
   0.83333333  0.58333333  0.38179910
   0.91466476  0.41603845  0.47202757
   0.33333333  0.83333333  0.38179910
   0.83333333  0.33333333  0.38179910
   0.83333333  0.08333333  0.38179910
   0.50823947  0.75217323  0.55986419
   0.91691313  0.66866044  0.47174784
   0.08333333  0.83333333  0.38179910
   0.16869496  0.66776796  0.47120730
   0.49998963  0.49369738  0.55847302
   0.58333333  0.58333333  0.38179910
   0.51290446  0.24372831  0.56081136
   0.58333333  0.33333333  0.38179910
   0.51171965 -0.00479735  0.56063935
   0.41694606  0.16446425  0.46893433
   0.33333333  0.33333333  0.38179910
   0.16609574  0.41470821  0.46941251
   0.58333333  0.83333333  0.38179910
   0.33493310  0.07169698  0.61090997
   0.07999171  0.83256242  0.61032195
   0.06601180  0.34551377  0.60880439
   0.34013496  0.33797182  0.61156969
   0.82696783  0.83387447  0.60509772
   0.58864373  0.58013551  0.61003265
   0.83149414  0.32920349  0.60456049
   0.33013771  0.84203044  0.60895307
   0.41655708  0.66740022  0.46957447
   0.08333333  0.08333333  0.38179910
   0.33333333  0.08333333  0.38179910
   0.42007680  0.41794211  0.46995495
   0.24559022  0.00276934  0.56338786
   0.58333333  0.08333333  0.38179910
   0.75071170  0.74598800  0.56017965
   0.16956642  0.91816919  0.47006722
   0.16793849  0.16289498  0.47115032
   0.41488117  0.91509781  0.47017382
  -0.00463596  0.50554546  0.56130858
   0.08333333  0.58333333  0.38179910
   0.66703196  0.16737911  0.47359876
   0.74791127  0.00382927  0.55983293
   0.66550518  0.41758743  0.46987422
   0.74990104  0.24669523  0.55966735
   0.00146219  0.24421482  0.56465126
   0.08333333  0.33333333  0.38179910
   0.66437869  0.66618543  0.47413309
   0.75300350  0.50304144  0.56442328
   0.83333333  0.83333333  0.38179910
   0.33333333  0.58333333  0.38179910
   0.00124513  0.74583422  0.56480373
   0.91675884  0.91755739  0.46925498
Direct configuration=     7
   0.24382444  0.50701063  0.56224563
   0.25420904  0.74206542  0.56103130
   0.25083872  0.24989710  0.55852597
   0.91946612  0.16464393  0.47239991
  -0.00673558  0.00887969  0.56132104
   0.66704879  0.91722846  0.47065232
   0.83333333  0.58333333  0.38179910
   0.91487448  0.41583885  0.47339358
   0.33333333  0.83333333  0.38179910
   0.83333333  0.33333333  0.38179910
   0.83333333  0.08333333  0.38179910
   0.50678374  0.75395805  0.56027266
   0.91696332  0.66879463  0.47259640
   0.08333333  0.83333333  0.38179910
   0.16813399  0.66784783  0.47182656
   0.50075504  0.49237807  0.55862486
   0.58333333  0.58333333  0.38179910
   0.51177434  0.24393116  0.56212998
   0.58333333  0.33333333  0.38179910
   0.51324455 -0.00472124  0.56159354
   0.41697752  0.16474522  0.46997196
   0.33333333  0.33333333  0.38179910
   0.16610254  0.41484614  0.47054479
   0.58333333  0.83333333  0.38179910
   0.33654092  0.07036138  0.61142620
   0.07950985  0.83394984  0.61071151
   0.06251069  0.34938787  0.60912240
   0.34220808  0.33887622  0.61151123
   0.82527934  0.83474490  0.60511018
   0.58827686  0.57993022  0.61075261
   0.82890371  0.32816358  0.60556039
   0.33070900  0.84062924  0.60882667
   0.41687064  0.66745164  0.47067262
   0.08333333  0.08333333  0.38179910
   0.33333333  0.08333333  0.38179910
   0.41964276  0.41717944  0.47099577
   0.24231799  0.00513139  0.56302655
   0.58333333  0.08333333  0.38179910
   0.75090277  0.74501841  0.56036249
   0.16948936  0.91757675  0.47136733
   0.16770668  0.16285980  0.47210093
   0.41498115  0.91523903  0.47151130
  -0.00559595  0.50689946  0.56200373
   0.08333333  0.58333333  0.38179910
   0.66746259  0.16730881  0.47418197
   0.75009935  0.00296631  0.56030263
   0.66627684  0.41742848  0.47086527
   0.74704977  0.24786840  0.55972415
   0.00540934  0.24216752  0.56478447
   0.08333333  0.33333333  0.38179910
   0.66519455  0.66588365  0.47467161
   0.75571614  0.50313519  0.56466524
   0.83333333  0.83333333  0.38179910
   0.33333333  0.58333333  0.38179910
   0.00001037  0.74540245  0.56534027
   0.91720354  0.91719174  0.47032330
Direct configuration=     8
   0.24377681  0.50643744  0.56250108
   0.25457201  0.74231615  0.56119591
   0.25109587  0.25003513  0.55834813
   0.91938371  0.16490338  0.47248819
  -0.00647219  0.00802282  0.56165596
   0.66724951  0.91703285  0.47082096
   0.83333333  0.58333333  0.38179910
   0.91493180  0.41578430  0.47376692
   0.33333333  0.83333333  0.38179910
   0.83333333  0.33333333  0.38179910
   0.83333333  0.08333333  0.38179910
   0.50638589  0.75444585  0.56038430
   0.91697703  0.66883130  0.47282832
   0.08333333  0.83333333  0.38179910
   0.16798067  0.66786966  0.47199580
   0.50096423  0.49201750  0.55866636
   0.58333333  0.58333333  0.38179910
   0.51146547  0.24398659  0.56249037
   0.58333333  0.33333333  0.38179910
   0.51366131 -0.00470044  0.56185432
   0.41698612  0.16482201  0.47025555
   0.33333333  0.33333333  0.38179910
   0.16610440  0.41488384  0.47085425
   0.58333333  0.83333333  0.38179910
   0.33698035  0.06999635  0.61156729
   0.07937816  0.83432903  0.61081798
   0.06155383  0.35044668  0.60920931
   0.34277467  0.33912340  0.61149525
   0.82481787  0.83498280  0.60511358
   0.58817659  0.57987411  0.61094938
   0.82819573  0.32787937  0.60583367
   0.33086514  0.84024628  0.60879213
   0.41695633  0.66746569  0.47097274
   0.08333333  0.08333333  0.38179910
   0.33333333  0.08333333  0.38179910
   0.41952413  0.41697100  0.47128023
   0.24142367  0.00577694  0.56292780
   0.58333333  0.08333333  0.38179910
   0.75095499  0.74475341  0.56041246
   0.16946830  0.91741483  0.47172266
   0.16764332  0.16285018  0.47236073
   0.41500848  0.91527763  0.47187684
  -0.00585833  0.50726951  0.56219371
   0.08333333  0.58333333  0.38179910
   0.66758028  0.16728959  0.47434136
   0.75069736  0.00273046  0.56043100
   0.66648775  0.41738504  0.47113612
   0.74627051  0.24818903  0.55973968
   0.00648811  0.24160798  0.56482087
   0.08333333  0.33333333  0.38179910
   0.66541752  0.66580117  0.47481879
   0.75645752  0.50316081  0.56473137
   0.83333333  0.83333333  0.38179910
   0.33333333  0.58333333  0.38179910
  -0.00032710  0.74528445  0.56548690
   0.91732508  0.91709181  0.47061528
Direct configuration=     9
   0.24276889  0.50750752  0.56313177
   0.25412865  0.74139794  0.56170704
   0.25086825  0.24986730  0.55836665
   0.91924090  0.16495563  0.47280549
  -0.00697531  0.00702980  0.56260368
   0.66792229  0.91669874  0.47101478
   0.83333333  0.58333333  0.38179910
   0.91547814  0.41574251  0.47457450
   0.33333333  0.83333333  0.38179910
   0.83333333  0.33333333  0.38179910
   0.83333333  0.08333333  0.38179910
   0.50606829  0.75451864  0.56097502
   0.91706224  0.66876793  0.47303343
   0.08333333  0.83333333  0.38179910
   0.16809650  0.66763275  0.47241657
   0.50229007  0.49250205  0.55921926
   0.58333333  0.58333333  0.38179910
   0.51216804  0.24282773  0.56345352
   0.58333333  0.33333333  0.38179910
   0.51360704 -0.00439059  0.56324257
   0.41777126  0.16451346  0.47049852
   0.33333333  0.33333333  0.38179910
   0.16570357  0.41537968  0.47118233
   0.58333333  0.83333333  0.38179910
   0.33809844  0.06943940  0.61175590
   0.07954896  0.83479570  0.61168216
   0.05952793  0.35317926  0.60995646
   0.34397631  0.33934686  0.61284268
   0.82342621  0.83564138  0.60604662
   0.58819987  0.57964018  0.61121535
   0.82790220  0.32648595  0.60637103
   0.33103802  0.84032887  0.60914370
   0.41738537  0.66713373  0.47156152
   0.08333333  0.08333333  0.38179910
   0.33333333  0.08333333  0.38179910
   0.41931285  0.41633818  0.47186379
   0.24181732  0.00611062  0.56299017
   0.58333333  0.08333333  0.38179910
   0.75031142  0.74528941  0.56054698
   0.16924353  0.91705536  0.47255851
   0.16757523  0.16261775  0.47267930
   0.41492080  0.91567286  0.47275488
  -0.00580363  0.50730316  0.56299613
   0.08333333  0.58333333  0.38179910
   0.66758499  0.16706429  0.47446973
   0.75247367  0.00196246  0.56072368
   0.66683698  0.41746617  0.47169202
   0.74644058  0.24908113  0.55988467
   0.00459745  0.24301847  0.56555866
   0.08333333  0.33333333  0.38179910
   0.66587480  0.66560390  0.47487260
   0.75743483  0.50102518  0.56564566
   0.83333333  0.83333333  0.38179910
   0.33333333  0.58333333  0.38179910
  -0.00056809  0.74533615  0.56587481
   0.91756930  0.91711636  0.47136784
Direct configuration=    10
   0.24159237  0.50875661  0.56386797
   0.25361113  0.74032614  0.56230368
   0.25060255  0.24967138  0.55838827
   0.91907421  0.16501663  0.47317586
  -0.00756260  0.00587066  0.56370995
   0.66870761  0.91630874  0.47124101
   0.83333333  0.58333333  0.38179910
   0.91611588  0.41569373  0.47551718
   0.33333333  0.83333333  0.38179910
   0.83333333  0.33333333  0.38179910
   0.83333333  0.08333333  0.38179910
   0.50569756  0.75460361  0.56166456
   0.91716169  0.66869395  0.47327285
   0.08333333  0.83333333  0.38179910
   0.16823171  0.66735619  0.47290774
   0.50383771  0.49306765  0.55986465
   0.58333333  0.58333333  0.38179910
   0.51298814  0.24147500  0.56457779
   0.58333333  0.33333333  0.38179910
   0.51354369 -0.00402891  0.56486305
   0.41868773  0.16415328  0.47078213
   0.33333333  0.33333333  0.38179910
   0.16523567  0.41595847  0.47156528
   0.58333333  0.83333333  0.38179910
   0.33940357  0.06878927  0.61197607
   0.07974834  0.83534044  0.61269091
   0.05716313  0.35636897  0.61082859
   0.34537897  0.33960770  0.61441553
   0.82180173  0.83641013  0.60713574
   0.58822705  0.57936712  0.61152581
   0.82755956  0.32485943  0.60699829
   0.33123982  0.84042526  0.60955409
   0.41788618  0.66674625  0.47224879
   0.08333333  0.08333333  0.38179910
   0.33333333  0.08333333  0.38179910
   0.41906622  0.41559950  0.47254497
   0.24227682  0.00650011  0.56306298
   0.58333333  0.08333333  0.38179910
   0.74956017  0.74591506  0.56070399
   0.16898115  0.91663577  0.47353418
   0.16749575  0.16234643  0.47305115
   0.41481846  0.91613422  0.47377980
  -0.00573979  0.50734245  0.56393278
   0.08333333  0.58333333  0.38179910
   0.66759049  0.16680130  0.47461958
   0.75454714  0.00106598  0.56106533
   0.66724465  0.41756087  0.47234090
   0.74663909  0.25012247  0.56005391
   0.00239050  0.24466491  0.56641986
   0.08333333  0.33333333  0.38179910
   0.66640858  0.66537363  0.47493542
   0.75857564  0.49853230  0.56671288
   0.83333333  0.83333333  0.38179910
   0.33333333  0.58333333  0.38179910
  -0.00084939  0.74539651  0.56632761
   0.91785438  0.91714503  0.47224630
Direct configuration=    11
   0.24217693  0.50773131  0.56475120
   0.25336528  0.74007533  0.56297148
   0.25004945  0.25038961  0.55873826
   0.91922889  0.16465896  0.47347426
  -0.00787683  0.00677975  0.56446161
   0.66884056  0.91630367  0.47142177
   0.83333333  0.58333333  0.38179910
   0.91648368  0.41562450  0.47595418
   0.33333333  0.83333333  0.38179910
   0.83333333  0.33333333  0.38179910
   0.83333333  0.08333333  0.38179910
   0.50633228  0.75418231  0.56208332
   0.91729296  0.66861425  0.47334565
   0.08333333  0.83333333  0.38179910
   0.16854830  0.66711875  0.47307892
   0.50389391  0.49294506  0.56026370
   0.58333333  0.58333333  0.38179910
   0.51346426  0.24131166  0.56546760
   0.58333333  0.33333333  0.38179910
   0.51470358 -0.00436749  0.56603242
   0.41924721  0.16373672  0.47086004
   0.33333333  0.33333333  0.38179910
   0.16521318  0.41597527  0.47164118
   0.58333333  0.83333333  0.38179910
   0.33950783  0.06891928  0.61233391
   0.08002021  0.83505414  0.61363195
   0.05614386  0.35738928  0.61187625
   0.34599046  0.34016998  0.61544805
   0.82117003  0.83642307  0.60787541
   0.58847500  0.57943422  0.61200897
   0.82780854  0.32358911  0.60809576
   0.33069580  0.84108023  0.60988864
   0.41813433  0.66643695  0.47254925
   0.08333333  0.08333333  0.38179910
   0.33333333  0.08333333  0.38179910
   0.41922300  0.41527109  0.47306061
   0.24264818  0.00614725  0.56329221
   0.58333333  0.08333333  0.38179910
   0.74914667  0.74640281  0.56096174
   0.16886533  0.91646122  0.47407785
   0.16742436  0.16223434  0.47312354
   0.41490071  0.91632954  0.47430298
  -0.00618321  0.50841624  0.56445686
   0.08333333  0.58333333  0.38179910
   0.66754351  0.16675307  0.47479429
   0.75455820  0.00074622  0.56136288
   0.66733886  0.41762859  0.47253342
   0.74690299  0.24936365  0.55993515
   0.00179550  0.24498595  0.56718855
   0.08333333  0.33333333  0.38179910
   0.66648097  0.66531391  0.47506927
   0.75842505  0.49830416  0.56752215
   0.83333333  0.83333333  0.38179910
   0.33333333  0.58333333  0.38179910
  -0.00175043  0.74600489  0.56701177
   0.91814525  0.91714260  0.47263622
Direct configuration=    12
   0.24364480  0.50515674  0.56696903
   0.25274796  0.73944555  0.56464837
   0.24866057  0.25219312  0.55961708
   0.91961729  0.16376085  0.47422356
  -0.00866585  0.00906252  0.56634908
   0.66917440  0.91629093  0.47187567
   0.83333333  0.58333333  0.38179910
   0.91740723  0.41545066  0.47705152
   0.33333333  0.83333333  0.38179910
   0.83333333  0.33333333  0.38179910
   0.83333333  0.08333333  0.38179910
   0.50792609  0.75312440  0.56313484
   0.91762257  0.66841413  0.47352845
   0.08333333  0.83333333  0.38179910
   0.16934326  0.66652252  0.47350878
   0.50403502  0.49263724  0.56126571
   0.58333333  0.58333333  0.38179910
   0.51465983  0.24090153  0.56770193
   0.58333333  0.33333333  0.38179910
   0.51761613 -0.00521768  0.56896874
   0.42065208  0.16269071  0.47105570
   0.33333333  0.33333333  0.38179910
   0.16515670  0.41601746  0.47183174
   0.58333333  0.83333333  0.38179910
   0.33976965  0.06924575  0.61323246
   0.08070287  0.83433524  0.61599495
   0.05358444  0.35995134  0.61450696
   0.34752593  0.34158188  0.61804076
   0.81958380  0.83645558  0.60973274
   0.58909763  0.57960272  0.61322221
   0.82843376  0.32039927  0.61085155
   0.32932974  0.84272488  0.61072872
   0.41875745  0.66566030  0.47330371
   0.08333333  0.08333333  0.38179910
   0.33333333  0.08333333  0.38179910
   0.41961670  0.41444642  0.47435541
   0.24358068  0.00526120  0.56386780
   0.58333333  0.08333333  0.38179910
   0.74810834  0.74762756  0.56160895
   0.16857450  0.91602293  0.47544302
   0.16724509  0.16195287  0.47330531
   0.41510724  0.91681999  0.47561671
  -0.00729666  0.51111257  0.56577286
   0.08333333  0.58333333  0.38179910
   0.66742553  0.16663195  0.47523299
   0.75458599 -0.00005672  0.56211003
   0.66757543  0.41779863  0.47301682
   0.74756564  0.24745824  0.55963693
   0.00030145  0.24579209  0.56911875
   0.08333333  0.33333333  0.38179910
   0.66666276  0.66516396  0.47540539
   0.75804690  0.49773128  0.56955426
   0.83333333  0.83333333  0.38179910
   0.33333333  0.58333333  0.38179910
  -0.00401297  0.74753255  0.56872974
   0.91887566  0.91713650  0.47361532
Direct configuration=    13
   0.24435122  0.50448266  0.56786444
   0.25210172  0.73976224  0.56553464
   0.24792022  0.25267213  0.56021885
   0.92015858  0.16362680  0.47430306
  -0.00762226  0.00930125  0.56731512
   0.66889184  0.91633311  0.47203251
   0.83333333  0.58333333  0.38179910
   0.91708633  0.41519308  0.47726783
   0.33333333  0.83333333  0.38179910
   0.83333333  0.33333333  0.38179910
   0.83333333  0.08333333  0.38179910
   0.50758951  0.75318814  0.56342916
   0.91777547  0.66862136  0.47365779
   0.08333333  0.83333333  0.38179910
   0.16984076  0.66603560  0.47383206
   0.50298676  0.49201791  0.56146232
   0.58333333  0.58333333  0.38179910
   0.51392994  0.24153301  0.56862658
   0.58333333  0.33333333  0.38179910
   0.51826106 -0.00502725  0.57005249
   0.41997764  0.16277587  0.47137261
   0.33333333  0.33333333  0.38179910
   0.16613195  0.41519305  0.47185119
   0.58333333  0.83333333  0.38179910
   0.33845655  0.07033212  0.61359673
   0.08051115  0.83376273  0.61652482
   0.05278017  0.36040165  0.61493814
   0.34813520  0.34186894  0.61889861
   0.81934915  0.83596715  0.61010454
   0.58920180  0.58002811  0.61419993
   0.82754550  0.31949556  0.61145012
   0.32888455  0.84299363  0.61104407
   0.41848614  0.66587077  0.47335805
   0.08333333  0.08333333  0.38179910
   0.33333333  0.08333333  0.38179910
   0.42005692  0.41446580  0.47473156
   0.24344636  0.00594258  0.56416196
   0.58333333  0.08333333  0.38179910
   0.74908134  0.74709426  0.56198548
   0.16910581  0.91576406  0.47562922
   0.16749119  0.16204014  0.47334115
   0.41553706  0.91637019  0.47573373
  -0.00740107  0.51047658  0.56660856
   0.08333333  0.58333333  0.38179910
   0.66742139  0.16676196  0.47550160
   0.75328286  0.00003624  0.56247755
   0.66762652  0.41766940  0.47285860
   0.74857328  0.24723622  0.56010532
   0.00218582  0.24585526  0.57033438
   0.08333333  0.33333333  0.38179910
   0.66653898  0.66515938  0.47570366
   0.75826422  0.49770042  0.57048999
   0.83333333  0.83333333  0.38179910
   0.33333333  0.58333333  0.38179910
  -0.00317353  0.74814274  0.56984938
   0.91920707  0.91675896  0.47363497
Direct configuration=    14
   0.24497096  0.50389129  0.56864998
   0.25153477  0.74004007  0.56631218
   0.24727070  0.25309237  0.56074680
   0.92063346  0.16350920  0.47437280
  -0.00670671  0.00951068  0.56816263
   0.66864394  0.91637011  0.47217010
   0.83333333  0.58333333  0.38179910
   0.91680481  0.41496710  0.47745759
   0.33333333  0.83333333  0.38179910
   0.83333333  0.33333333  0.38179910
   0.83333333  0.08333333  0.38179910
   0.50729422  0.75324406  0.56368736
   0.91790961  0.66880317  0.47377126
   0.08333333  0.83333333  0.38179910
   0.17027722  0.66560842  0.47411568
   0.50206711  0.49147456  0.56163480
   0.58333333  0.58333333  0.38179910
   0.51328959  0.24208700  0.56943779
   0.58333333  0.33333333  0.38179910
   0.51882686 -0.00486018  0.57100327
   0.41938594  0.16285058  0.47165063
   0.33333333  0.33333333  0.38179910
   0.16698755  0.41446978  0.47186825
   0.58333333  0.83333333  0.38179910
   0.33730455  0.07128521  0.61391631
   0.08034295  0.83326047  0.61698969
   0.05207457  0.36079670  0.61531641
   0.34866971  0.34212079  0.61965122
   0.81914328  0.83553864  0.61043072
   0.58929319  0.58040132  0.61505769
   0.82676622  0.31870273  0.61197526
   0.32849398  0.84322941  0.61132073
   0.41824812  0.66605543  0.47340571
   0.08333333  0.08333333  0.38179910
   0.33333333  0.08333333  0.38179910
   0.42044313  0.41448281  0.47506156
   0.24332852  0.00654036  0.56442003
   0.58333333  0.08333333  0.38179910
   0.74993497  0.74662638  0.56231580
   0.16957194  0.91553695  0.47579256
   0.16770710  0.16211671  0.47337259
   0.41591414  0.91597558  0.47583638
  -0.00749267  0.50991863  0.56734174
   0.08333333  0.58333333  0.38179910
   0.66741776  0.16687602  0.47573725