  56  56   0   0
  0.4903395E+02  0.1100258E-08  0.1100258E-08  0.2619179E-08  0.3500000E-15
  1.000000000000000E-004
  CAR 
 unknown system                          
      6.45054360    -21.45376679  301     -1.40224781      1.00000000
    -21.454  0.0000E+00  0.0000E+00
    -21.361  0.0000E+00  0.0000E+00
    -21.268  0.0000E+00  0.0000E+00
    -21.175  0.0000E+00  0.0000E+00
    -21.082  0.0000E+00  0.0000E+00
    -20.989  0.0000E+00  0.0000E+00
    -20.896  0.0000E+00  0.0000E+00
    -20.803  0.0000E+00  0.0000E+00
    -20.710  0.2542E-14  0.2365E-15
    -20.617  0.2233E-10  0.2078E-11
    -20.524  0.3621E-07  0.3370E-08
    -20.431  0.1105E-04  0.1031E-05
    -20.338  0.6554E-03  0.6200E-04
    -20.245  0.7934E-02  0.7999E-03
    -20.152  0.2074E-01  0.2729E-02
    -20.059  0.1214E-01  0.3857E-02
    -19.966  0.3699E-02  0.4202E-02
    -19.873  0.2102E-01  0.6157E-02
    -19.780  0.5349E-01  0.1113E-01
    -19.686  0.5234E-01  0.1600E-01
    -19.593  0.4606E-01  0.2028E-01
    -19.500  0.4010E-01  0.2401E-01
    -19.407  0.4216E-01  0.2794E-01
    -19.314  0.3493E-01  0.3119E-01
    -19.221  0.8300E-02  0.3196E-01
    -19.128  0.4559E-03  0.3200E-01
    -19.035  0.5341E-05  0.3200E-01
    -18.942  0.1255E-07  0.3200E-01
    -18.849  0.5666E-11  0.3200E-01
    -18.756  0.4790E-15  0.3200E-01
    -18.663  0.0000E+00  0.3200E-01
    -18.570  0.0000E+00  0.3200E-01
    -18.477  0.0000E+00  0.3200E-01
    -18.384  0.0000E+00  0.3200E-01
    -18.291  0.0000E+00  0.3200E-01
    -18.198  0.0000E+00  0.3200E-01
    -18.105  0.0000E+00  0.3200E-01
    -18.012  0.0000E+00  0.3200E-01
    -17.919  0.0000E+00  0.3200E-01
    -17.826  0.0000E+00  0.3200E-01
    -17.733  0.0000E+00  0.3200E-01
    -17.640  0.0000E+00  0.3200E-01
    -17.547  0.0000E+00  0.3200E-01
    -17.454  0.0000E+00  0.3200E-01
    -17.361  0.0000E+00  0.3200E-01
    -17.268  0.0000E+00  0.3200E-01
    -17.175  0.0000E+00  0.3200E-01
    -17.082  0.0000E+00  0.3200E-01
    -16.989  0.0000E+00  0.3200E-01
    -16.896  0.0000E+00  0.3200E-01
    -16.803  0.0000E+00  0.3200E-01
    -16.710  0.0000E+00  0.3200E-01
    -16.617  0.0000E+00  0.3200E-01
    -16.524  0.0000E+00  0.3200E-01
    -16.431  0.0000E+00  0.3200E-01
    -16.338  0.0000E+00  0.3200E-01
    -16.245  0.0000E+00  0.3200E-01
    -16.152  0.0000E+00  0.3200E-01
    -16.059  0.0000E+00  0.3200E-01
    -15.966  0.0000E+00  0.3200E-01
    -15.873  0.0000E+00  0.3200E-01
    -15.780  0.0000E+00  0.3200E-01
    -15.687  0.0000E+00  0.3200E-01
    -15.594  0.0000E+00  0.3200E-01
    -15.501  0.0000E+00  0.3200E-01
    -15.408  0.0000E+00  0.3200E-01
    -15.315  0.0000E+00  0.3200E-01
    -15.222  0.0000E+00  0.3200E-01
    -15.129  0.0000E+00  0.3200E-01
    -15.036  0.0000E+00  0.3200E-01
    -14.943  0.0000E+00  0.3200E-01
    -14.850  0.0000E+00  0.3200E-01
    -14.757  0.0000E+00  0.3200E-01
    -14.664  0.0000E+00  0.3200E-01
    -14.571  0.0000E+00  0.3200E-01
    -14.478  0.0000E+00  0.3200E-01
    -14.385  0.0000E+00  0.3200E-01
    -14.292  0.0000E+00  0.3200E-01
    -14.199  0.0000E+00  0.3200E-01
    -14.106  0.0000E+00  0.3200E-01
    -14.013  0.0000E+00  0.3200E-01
    -13.920  0.0000E+00  0.3200E-01
    -13.827  0.0000E+00  0.3200E-01
    -13.734  0.0000E+00  0.3200E-01
    -13.641  0.0000E+00  0.3200E-01
    -13.548  0.0000E+00  0.3200E-01
    -13.455  0.0000E+00  0.3200E-01
    -13.362  0.0000E+00  0.3200E-01
    -13.269  0.0000E+00  0.3200E-01
    -13.175  0.0000E+00  0.3200E-01
    -13.082  0.0000E+00  0.3200E-01
    -12.989  0.0000E+00  0.3200E-01
    -12.896  0.0000E+00  0.3200E-01
    -12.803  0.0000E+00  0.3200E-01
    -12.710  0.0000E+00  0.3200E-01
    -12.617  0.0000E+00  0.3200E-01
    -12.524  0.0000E+00  0.3200E-01
    -12.431  0.0000E+00  0.3200E-01
    -12.338  0.0000E+00  0.3200E-01
    -12.245  0.0000E+00  0.3200E-01
    -12.152  0.0000E+00  0.3200E-01
    -12.059  0.0000E+00  0.3200E-01
    -11.966  0.0000E+00  0.3200E-01
    -11.873  0.0000E+00  0.3200E-01
    -11.780  0.0000E+00  0.3200E-01
    -11.687  0.0000E+00  0.3200E-01
    -11.594  0.0000E+00  0.3200E-01
    -11.501  0.0000E+00  0.3200E-01
    -11.408  0.0000E+00  0.3200E-01
    -11.315  0.0000E+00  0.3200E-01
    -11.222  0.0000E+00  0.3200E-01
    -11.129  0.0000E+00  0.3200E-01
    -11.036  0.0000E+00  0.3200E-01
    -10.943  0.0000E+00  0.3200E-01
    -10.850  0.0000E+00  0.3200E-01
    -10.757  0.0000E+00  0.3200E-01
    -10.664  0.0000E+00  0.3200E-01
    -10.571  0.0000E+00  0.3200E-01
    -10.478  0.0000E+00  0.3200E-01
    -10.385  0.0000E+00  0.3200E-01
    -10.292  0.0000E+00  0.3200E-01
    -10.199  0.0000E+00  0.3200E-01
    -10.106  0.0000E+00  0.3200E-01
    -10.013  0.0000E+00  0.3200E-01
     -9.920  0.0000E+00  0.3200E-01
     -9.827  0.0000E+00  0.3200E-01
     -9.734  0.0000E+00  0.3200E-01
     -9.641  0.5136E-15  0.3200E-01
     -9.548  0.5231E-11  0.3200E-01
     -9.455  0.9839E-08  0.3200E-01
     -9.362  0.3484E-05  0.3200E-01
     -9.269  0.2395E-03  0.3202E-01
     -9.176  0.3357E-02  0.3233E-01
     -9.083  0.1044E-01  0.3331E-01
     -8.990  0.1083E-01  0.3431E-01
     -8.897  0.1132E-01  0.3537E-01
     -8.804  0.6022E-02  0.3593E-01
     -8.711  0.1019E-02  0.3602E-01
     -8.618  0.2894E-02  0.3629E-01
     -8.525  0.1219E-01  0.3742E-01
     -8.432  0.2634E-01  0.3987E-01
     -8.339  0.2782E-01  0.4246E-01
     -8.246  0.2281E-01  0.4458E-01
     -8.153  0.2923E-01  0.4730E-01
     -8.060  0.3299E-01  0.5037E-01
     -7.967  0.3852E-01  0.5395E-01
     -7.874  0.3328E-01  0.5705E-01
     -7.781  0.3103E-01  0.5994E-01
     -7.688  0.4822E-01  0.6442E-01
     -7.595  0.5825E-01  0.6984E-01
     -7.502  0.6381E-01  0.7577E-01
     -7.409  0.7449E-01  0.8270E-01
     -7.316  0.9676E-01  0.9170E-01
     -7.223  0.1200E+00  0.1029E+00
     -7.130  0.1332E+00  0.1153E+00
     -7.037  0.1379E+00  0.1281E+00
     -6.944  0.1346E+00  0.1406E+00
     -6.851  0.1363E+00  0.1533E+00
     -6.757  0.1416E+00  0.1665E+00
     -6.664  0.1567E+00  0.1810E+00
     -6.571  0.1690E+00  0.1967E+00
     -6.478  0.1686E+00  0.2124E+00
     -6.385  0.1647E+00  0.2277E+00
     -6.292  0.1649E+00  0.2431E+00
     -6.199  0.1700E+00  0.2589E+00
     -6.106  0.1713E+00  0.2748E+00
     -6.013  0.1636E+00  0.2900E+00
     -5.920  0.1605E+00  0.3050E+00
     -5.827  0.1673E+00  0.3205E+00
     -5.734  0.1699E+00  0.3363E+00
     -5.641  0.1644E+00  0.3516E+00
     -5.548  0.1662E+00  0.3671E+00
     -5.455  0.1737E+00  0.3832E+00
     -5.362  0.1806E+00  0.4000E+00
     -5.269  0.1802E+00  0.4168E+00
     -5.176  0.1767E+00  0.4332E+00
     -5.083  0.1814E+00  0.4501E+00
     -4.990  0.1758E+00  0.4665E+00
     -4.897  0.1704E+00  0.4823E+00
     -4.804  0.1764E+00  0.4987E+00
     -4.711  0.1802E+00  0.5155E+00
     -4.618  0.1800E+00  0.5322E+00
     -4.525  0.1795E+00  0.5489E+00
     -4.432  0.1834E+00  0.5660E+00
     -4.339  0.1823E+00  0.5829E+00
     -4.246  0.1846E+00  0.6001E+00
     -4.153  0.1858E+00  0.6174E+00
     -4.060  0.1864E+00  0.6347E+00
     -3.967  0.1837E+00  0.6518E+00
     -3.874  0.1861E+00  0.6691E+00
     -3.781  0.1867E+00  0.6865E+00
     -3.688  0.1901E+00  0.7042E+00
     -3.595  0.1886E+00  0.7217E+00
     -3.502  0.1858E+00  0.7390E+00
     -3.409  0.1906E+00  0.7567E+00
     -3.316  0.1952E+00  0.7749E+00
     -3.223  0.1923E+00  0.7928E+00
     -3.130  0.1774E+00  0.8093E+00
     -3.037  0.1701E+00  0.8251E+00
     -2.944  0.1768E+00  0.8415E+00
     -2.851  0.1843E+00  0.8587E+00
     -2.758  0.1919E+00  0.8765E+00
     -2.665  0.1906E+00  0.8942E+00
     -2.572  0.1824E+00  0.9112E+00
     -2.479  0.1896E+00  0.9289E+00
     -2.386  0.1996E+00  0.9474E+00
     -2.293  0.1993E+00  0.9660E+00
     -2.200  0.1908E+00  0.9837E+00
     -2.107  0.1883E+00  0.1001E+01
     -2.014  0.1889E+00  0.1019E+01
     -1.921  0.1748E+00  0.1035E+01
     -1.828  0.1611E+00  0.1050E+01
     -1.735  0.1497E+00  0.1064E+01
     -1.642  0.1442E+00  0.1077E+01
     -1.549  0.1285E+00  0.1089E+01
     -1.456  0.1064E+00  0.1099E+01
     -1.363  0.8435E-01  0.1107E+01
     -1.270  0.6173E-01  0.1113E+01
     -1.177  0.5368E-01  0.1118E+01
     -1.084  0.4938E-01  0.1122E+01
     -0.991  0.5047E-01  0.1127E+01
     -0.898  0.5609E-01  0.1132E+01
     -0.805  0.5742E-01  0.1138E+01
     -0.712  0.5513E-01  0.1143E+01
     -0.619  0.5551E-01  0.1148E+01
     -0.526  0.5469E-01  0.1153E+01
     -0.433  0.4730E-01  0.1157E+01
     -0.340  0.4018E-01  0.1161E+01
     -0.246  0.2694E-01  0.1164E+01
     -0.153  0.1619E-01  0.1165E+01
     -0.060  0.1410E-01  0.1166E+01
      0.033  0.2149E-01  0.1168E+01
      0.126  0.3001E-01  0.1171E+01
      0.219  0.3119E-01  0.1174E+01
      0.312  0.3316E-01  0.1177E+01
      0.405  0.3415E-01  0.1180E+01
      0.498  0.3251E-01  0.1183E+01
      0.591  0.3320E-01  0.1187E+01
      0.684  0.3206E-01  0.1190E+01
      0.777  0.3080E-01  0.1192E+01
      0.870  0.2750E-01  0.1195E+01
      0.963  0.2573E-01  0.1197E+01
      1.056  0.2711E-01  0.1200E+01
      1.149  0.2210E-01  0.1202E+01
      1.242  0.2091E-01  0.1204E+01
      1.335  0.2272E-01  0.1206E+01
      1.428  0.2849E-01  0.1209E+01
      1.521  0.3178E-01  0.1212E+01
      1.614  0.2785E-01  0.1214E+01
      1.707  0.2830E-01  0.1217E+01
      1.800  0.3426E-01  0.1220E+01
      1.893  0.3254E-01  0.1223E+01
      1.986  0.3447E-01  0.1226E+01
      2.079  0.3913E-01  0.1230E+01
      2.172  0.3618E-01  0.1233E+01
      2.265  0.3408E-01  0.1236E+01
      2.358  0.2968E-01  0.1239E+01
      2.451  0.2724E-01  0.1242E+01
      2.544  0.2568E-01  0.1244E+01
      2.637  0.2377E-01  0.1246E+01
      2.730  0.2426E-01  0.1249E+01
      2.823  0.2542E-01  0.1251E+01
      2.916  0.2489E-01  0.1253E+01
      3.009  0.2794E-01  0.1256E+01
      3.102  0.3188E-01  0.1259E+01
      3.195  0.3076E-01  0.1262E+01
      3.288  0.3075E-01  0.1265E+01
      3.381  0.3364E-01  0.1268E+01
      3.474  0.2895E-01  0.1270E+01
      3.567  0.3058E-01  0.1273E+01
      3.660  0.2753E-01  0.1276E+01
      3.753  0.2657E-01  0.1278E+01
      3.846  0.3490E-01  0.1281E+01
      3.939  0.3651E-01  0.1285E+01
      4.032  0.3517E-01  0.1288E+01
      4.125  0.3917E-01  0.1292E+01
      4.218  0.4189E-01  0.1296E+01
      4.311  0.4155E-01  0.1300E+01
      4.404  0.4681E-01  0.1304E+01
      4.497  0.4592E-01  0.1308E+01
      4.590  0.4658E-01  0.1312E+01
      4.683  0.4757E-01  0.1317E+01
      4.776  0.5250E-01  0.1322E+01
      4.869  0.6093E-01  0.1327E+01
      4.962  0.5191E-01  0.1332E+01
      5.055  0.5241E-01  0.1337E+01
      5.148  0.4749E-01  0.1342E+01
      5.241  0.2175E-01  0.1344E+01
      5.334  0.4092E-02  0.1344E+01
      5.427  0.2444E-03  0.1344E+01
      5.520  0.3538E-05  0.1344E+01
      5.613  0.1064E-07  0.1344E+01
      5.706  0.6195E-11  0.1344E+01
      5.799  0.6748E-15  0.1344E+01
      5.892  0.0000E+00  0.1344E+01
      5.985  0.0000E+00  0.1344E+01
      6.078  0.0000E+00  0.1344E+01
      6.172  0.0000E+00  0.1344E+01
      6.265  0.0000E+00  0.1344E+01
      6.358  0.0000E+00  0.1344E+01
      6.451  0.0000E+00  0.1344E+01
