       N       E                     dE             d eps       ncg     rms          rms(c)
DAV:   1     0.366431326200E+04    0.36643E+04   -0.21071E+05  4068   0.112E+03
DAV:   2     0.540211572000E+02   -0.36103E+04   -0.33580E+04  4872   0.272E+02
DAV:   3    -0.251318973663E+03   -0.30534E+03   -0.28031E+03  4524   0.754E+01
DAV:   4    -0.262712413317E+03   -0.11393E+02   -0.11201E+02  4440   0.156E+01
DAV:   5    -0.263051575663E+03   -0.33916E+00   -0.33848E+00  4668   0.254E+00    0.710E+01
RMM:   6    -0.382468907707E+03   -0.11942E+03   -0.18328E+02  4032   0.197E+01    0.107E+02
RMM:   7    -0.259692364958E+03    0.12278E+03   -0.11620E+02  4032   0.139E+01    0.697E+01
RMM:   8    -0.243674385359E+03    0.16018E+02   -0.56673E+01  4038   0.112E+01    0.475E+01
RMM:   9    -0.269941457110E+03   -0.26267E+02   -0.97292E+01  4041   0.153E+01    0.580E+01
RMM:  10    -0.244379820304E+03    0.25562E+02   -0.24319E+01  4033   0.704E+00    0.431E+01
RMM:  11    -0.237438411369E+03    0.69414E+01   -0.18655E+01  4041   0.576E+00    0.385E+01
RMM:  12    -0.225497925325E+03    0.11940E+02   -0.14845E+01  4039   0.544E+00    0.176E+01
RMM:  13    -0.222571136288E+03    0.29268E+01   -0.23732E+00  4039   0.210E+00    0.116E+01
RMM:  14    -0.222125614771E+03    0.44552E+00   -0.65264E-01  4040   0.115E+00    0.105E+01
RMM:  15    -0.221619168288E+03    0.50645E+00   -0.21116E-01  4040   0.650E-01    0.694E+00
RMM:  16    -0.221582992771E+03    0.36176E-01   -0.21751E-01  4038   0.644E-01    0.684E+00
RMM:  17    -0.221780967537E+03   -0.19797E+00   -0.23506E-01  4043   0.692E-01    0.827E+00
RMM:  18    -0.221553845453E+03    0.22712E+00   -0.22612E-01  4038   0.704E-01    0.491E+00
RMM:  19    -0.221580003639E+03   -0.26158E-01   -0.29545E-01  4039   0.736E-01    0.670E+00
RMM:  20    -0.221470639372E+03    0.10936E+00   -0.19623E-01  4042   0.610E-01    0.442E+00
RMM:  21    -0.221386489024E+03    0.84150E-01   -0.59176E-02  4039   0.372E-01    0.259E+00
RMM:  22    -0.221366091054E+03    0.20398E-01   -0.20499E-02  4040   0.209E-01    0.199E+00
RMM:  23    -0.221359677657E+03    0.64134E-02   -0.13132E-02  4038   0.181E-01    0.155E+00
RMM:  24    -0.221346052581E+03    0.13625E-01   -0.11596E-02  4045   0.162E-01    0.869E-01
RMM:  25    -0.221343733744E+03    0.23188E-02   -0.45554E-03  4039   0.102E-01    0.583E-01
RMM:  26    -0.221343139027E+03    0.59472E-03   -0.18086E-03  4040   0.609E-02    0.421E-01
RMM:  27    -0.221343019410E+03    0.11962E-03   -0.10421E-03  4045   0.492E-02    0.256E-01
RMM:  28    -0.221343240546E+03   -0.22114E-03   -0.57911E-04  4039   0.372E-02    0.131E-01
RMM:  29    -0.221343657240E+03   -0.41669E-03   -0.25718E-04  4041   0.252E-02    0.123E-01
RMM:  30    -0.221344023002E+03   -0.36576E-03   -0.14625E-04  4039   0.186E-02    0.810E-02
RMM:  31    -0.221344318193E+03   -0.29519E-03   -0.71927E-05  4037   0.125E-02    0.481E-02
RMM:  32    -0.221344585697E+03   -0.26750E-03   -0.32953E-05  4032   0.794E-03    0.275E-02
RMM:  33    -0.221344907696E+03   -0.32200E-03   -0.25727E-05  4020   0.672E-03    0.309E-02
RMM:  34    -0.221345238707E+03   -0.33101E-03   -0.22603E-05  3988   0.623E-03    0.235E-02
RMM:  35    -0.221345602542E+03   -0.36384E-03   -0.32304E-05  3988   0.706E-03    0.291E-02
RMM:  36    -0.221345759468E+03   -0.15693E-03   -0.13915E-05  3581   0.450E-03    0.213E-02
RMM:  37    -0.221345887718E+03   -0.12825E-03   -0.11260E-05  3445   0.405E-03    0.126E-02
RMM:  38    -0.221345965936E+03   -0.78218E-04   -0.93365E-06  3312   0.361E-03    0.107E-02
RMM:  39    -0.221345993863E+03   -0.27927E-04   -0.18863E-06  2541   0.181E-03    0.730E-03
RMM:  40    -0.221346022124E+03   -0.28262E-04   -0.98390E-07  2371   0.141E-03    0.535E-03
RMM:  41    -0.221346057605E+03   -0.35481E-04   -0.75475E-07  2341   0.132E-03    0.356E-03
RMM:  42    -0.221346083139E+03   -0.25533E-04   -0.47492E-07  2313   0.105E-03    0.369E-03
RMM:  43    -0.221346105477E+03   -0.22339E-04   -0.35794E-07  2307   0.929E-04    0.367E-03
RMM:  44    -0.221346125682E+03   -0.20204E-04   -0.35962E-07  2318   0.909E-04    0.251E-03
RMM:  45    -0.221346139353E+03   -0.13671E-04   -0.32995E-07  2311   0.841E-04    0.161E-03
RMM:  46    -0.221346144266E+03   -0.49131E-05   -0.13321E-07  1394   0.506E-04    0.106E-03
RMM:  47    -0.221346145960E+03   -0.16941E-05   -0.54173E-08  1308   0.433E-04    0.555E-04
RMM:  48    -0.221346147177E+03   -0.12167E-05   -0.24555E-08  1069   0.368E-04    0.356E-04
RMM:  49    -0.221346147811E+03   -0.63467E-06   -0.14456E-08   795   0.316E-04
   1 F= -.22134615E+03 E0= -.22117800E+03  d E =-.221346E+03
       N       E                     dE             d eps       ncg     rms          rms(c)
DAV:   1    -0.223551784697E+03   -0.22056E+01   -0.91935E+02  4152   0.527E+01    0.693E+00
RMM:   2    -0.228848979478E+03   -0.52972E+01   -0.26026E+01  4042   0.853E+00    0.226E+01
RMM:   3    -0.225930297203E+03    0.29187E+01   -0.16203E+00  4053   0.199E+00    0.689E+00
RMM:   4    -0.226714077808E+03   -0.78378E+00   -0.12364E+00  4034   0.160E+00    0.130E+01
RMM:   5    -0.226168585392E+03    0.54549E+00   -0.28603E-01  4044   0.824E-01    0.103E+01
RMM:   6    -0.225948205815E+03    0.22038E+00   -0.23201E-01  4039   0.737E-01    0.866E+00
RMM:   7    -0.225685821113E+03    0.26238E+00   -0.21205E-01  4038   0.671E-01    0.543E+00
RMM:   8    -0.225525144508E+03    0.16068E+00   -0.13542E-01  4039   0.534E-01    0.251E+00
RMM:   9    -0.225507528967E+03    0.17616E-01   -0.50858E-02  4041   0.331E-01    0.192E+00
RMM:  10    -0.225493382770E+03    0.14146E-01   -0.15197E-02  4040   0.187E-01    0.100E+00
RMM:  11    -0.225489368636E+03    0.40141E-02   -0.79525E-03  4041   0.134E-01    0.716E-01
RMM:  12    -0.225489659199E+03   -0.29056E-03   -0.34830E-03  4040   0.868E-02    0.751E-01
RMM:  13    -0.225488126928E+03    0.15323E-02   -0.32161E-03  4041   0.834E-02    0.543E-01
RMM:  14    -0.225486875719E+03    0.12512E-02   -0.18444E-03  4038   0.666E-02    0.261E-01
RMM:  15    -0.225486678645E+03    0.19707E-03   -0.53993E-04  4038   0.359E-02    0.179E-01
RMM:  16    -0.225486682970E+03   -0.43256E-05   -0.13516E-04  4045   0.171E-02    0.141E-01
RMM:  17    -0.225486717670E+03   -0.34700E-04   -0.74448E-05  4037   0.135E-02    0.939E-02
RMM:  18    -0.225486797297E+03   -0.79627E-04   -0.46062E-05  4032   0.991E-03    0.616E-02
RMM:  19    -0.225486881472E+03   -0.84174E-04   -0.26168E-05  4027   0.751E-03    0.308E-02
RMM:  20    -0.225486936880E+03   -0.55408E-04   -0.94285E-06  3662   0.459E-03    0.142E-02
RMM:  21    -0.225487009462E+03   -0.72582E-04   -0.39390E-06  2979   0.293E-03    0.103E-02
RMM:  22    -0.225487084604E+03   -0.75141E-04   -0.27211E-06  2575   0.250E-03    0.778E-03
RMM:  23    -0.225487150057E+03   -0.65453E-04   -0.19936E-06  2460   0.202E-03    0.766E-03
RMM:  24    -0.225487196904E+03   -0.46847E-04   -0.11030E-06  2387   0.150E-03    0.362E-03
RMM:  25    -0.225487237639E+03   -0.40735E-04   -0.89813E-07  2359   0.133E-03    0.371E-03
RMM:  26    -0.225487286914E+03   -0.49275E-04   -0.11461E-06  2438   0.138E-03    0.337E-03
RMM:  27    -0.225487328069E+03   -0.41155E-04   -0.17756E-06  2496   0.162E-03    0.312E-03
RMM:  28    -0.225487344028E+03   -0.15960E-04   -0.87647E-07  2389   0.111E-03    0.225E-03
RMM:  29    -0.225487349889E+03   -0.58605E-05   -0.21168E-07  1574   0.573E-04    0.131E-03
RMM:  30    -0.225487355099E+03   -0.52103E-05   -0.11006E-07  1833   0.534E-04    0.986E-04
RMM:  31    -0.225487358687E+03   -0.35884E-05   -0.42222E-08  1152   0.395E-04    0.896E-04
RMM:  32    -0.225487360825E+03   -0.21380E-05   -0.19580E-08   915   0.363E-04    0.855E-04
RMM:  33    -0.225487363555E+03   -0.27292E-05   -0.27892E-08  1255   0.443E-04    0.783E-04
RMM:  34    -0.225487364907E+03   -0.13528E-05   -0.26045E-08  1211   0.379E-04    0.591E-04
RMM:  35    -0.225487365661E+03   -0.75387E-06   -0.88179E-09   635   0.276E-04
   2 F= -.22548737E+03 E0= -.22533952E+03  d E =-.414122E+01
       N       E                     dE             d eps       ncg     rms          rms(c)
DAV:   1    -0.222624799331E+03    0.28626E+01   -0.24589E+03  4032   0.877E+01    0.158E+01
RMM:   2    -0.243214213270E+03   -0.20589E+02   -0.82038E+01  4032   0.146E+01    0.470E+01
RMM:   3    -0.232059934541E+03    0.11154E+02   -0.32256E+00  4032   0.287E+00    0.267E+01
RMM:   4    -0.239012275177E+03   -0.69523E+01   -0.56069E+00  4038   0.356E+00    0.412E+01
RMM:   5    -0.231845995676E+03    0.71663E+01   -0.64133E+00  4038   0.368E+00    0.215E+01
RMM:   6    -0.228799071088E+03    0.30469E+01   -0.28620E+00  4038   0.247E+00    0.909E+00
RMM:   7    -0.228755615937E+03    0.43455E-01   -0.11855E+00  4038   0.161E+00    0.948E+00
RMM:   8    -0.228516360776E+03    0.23926E+00   -0.38660E-01  4038   0.961E-01    0.659E+00
RMM:   9    -0.228437516597E+03    0.78844E-01   -0.18658E-01  4038   0.655E-01    0.512E+00
RMM:  10    -0.228389925196E+03    0.47591E-01   -0.81892E-02  4038   0.431E-01    0.388E+00
RMM:  11    -0.228347366515E+03    0.42559E-01   -0.46399E-02  4038   0.323E-01    0.311E+00
RMM:  12    -0.228337512935E+03    0.98536E-02   -0.12284E-02  4038   0.169E-01    0.245E+00
RMM:  13    -0.228324210016E+03    0.13303E-01   -0.96033E-03  4038   0.148E-01    0.198E+00
RMM:  14    -0.228311304344E+03    0.12906E-01   -0.11349E-02  4038   0.154E-01    0.137E+00
RMM:  15    -0.228305019769E+03    0.62846E-02   -0.35425E-03  4038   0.880E-02    0.102E+00
RMM:  16    -0.228302587732E+03    0.24320E-02   -0.14039E-03  4039   0.533E-02    0.849E-01
RMM:  17    -0.228300892661E+03    0.16951E-02   -0.61593E-04  4038   0.346E-02    0.675E-01
RMM:  18    -0.228299811320E+03    0.10813E-02   -0.92796E-04  4038   0.437E-02    0.476E-01
RMM:  19    -0.228299309742E+03    0.50158E-03   -0.88225E-04  4038   0.435E-02    0.309E-01
RMM:  20    -0.228299143503E+03    0.16624E-03   -0.45033E-04  4038   0.314E-02    0.161E-01
RMM:  21    -0.228299182644E+03   -0.39141E-04   -0.17761E-04  4038   0.192E-02    0.791E-02
RMM:  22    -0.228299253415E+03   -0.70771E-04   -0.78667E-05  4038   0.123E-02    0.399E-02
RMM:  23    -0.228299323594E+03   -0.70180E-04   -0.23524E-05  4030   0.656E-03    0.220E-02
RMM:  24    -0.228299368232E+03   -0.44637E-04   -0.47707E-06  2984   0.306E-03    0.105E-02
RMM:  25    -0.228299445261E+03   -0.77029E-04   -0.28570E-06  2667   0.240E-03    0.800E-03
RMM:  26    -0.228299494347E+03   -0.49086E-04   -0.12228E-06  2384   0.177E-03    0.508E-03
RMM:  27    -0.228299557006E+03   -0.62660E-04   -0.14323E-06  2432   0.175E-03    0.691E-03
RMM:  28    -0.228299586698E+03   -0.29691E-04   -0.58577E-07  2346   0.114E-03    0.312E-03
RMM:  29    -0.228299619791E+03   -0.33093E-04   -0.60099E-07  2364   0.108E-03    0.209E-03
RMM:  30    -0.228299657603E+03   -0.37812E-04   -0.78729E-07  2399   0.116E-03    0.238E-03
RMM:  31    -0.228299692816E+03   -0.35213E-04   -0.13104E-06  2462   0.141E-03    0.217E-03
RMM:  32    -0.228299700874E+03   -0.80584E-05   -0.36889E-07  2346   0.743E-04    0.187E-03
RMM:  33    -0.228299704668E+03   -0.37935E-05   -0.13705E-07  1418   0.492E-04    0.143E-03
RMM:  34    -0.228299706861E+03   -0.21932E-05   -0.72166E-08  1605   0.485E-04    0.900E-04
RMM:  35    -0.228299708281E+03   -0.14205E-05   -0.33936E-08  1223   0.380E-04    0.695E-04
RMM:  36    -0.228299709052E+03   -0.77079E-06   -0.43617E-09   610   0.296E-04
   3 F= -.22829971E+03 E0= -.22818454E+03  d E =-.695356E+01
       N       E                     dE             d eps       ncg     rms          rms(c)
DAV:   1    -0.228248441340E+03    0.51267E-01   -0.42232E+01  4176   0.115E+01    0.234E+00
RMM:   2    -0.228639129133E+03   -0.39069E+00   -0.12813E+00  4039   0.188E+00    0.597E+00
RMM:   3    -0.228393828220E+03    0.24530E+00   -0.63704E-02  4050   0.403E-01    0.335E+00
RMM:   4    -0.228396909652E+03   -0.30814E-02   -0.55560E-02  4040   0.366E-01    0.328E+00
RMM:   5    -0.228361239619E+03    0.35670E-01   -0.41204E-02  4038   0.301E-01    0.189E+00
RMM:   6    -0.228350317399E+03    0.10922E-01   -0.31403E-02  4038   0.260E-01    0.158E+00
RMM:   7    -0.228337060396E+03    0.13257E-01   -0.10212E-02  4038   0.157E-01    0.560E-01
RMM:   8    -0.228335675097E+03    0.13853E-02   -0.28668E-03  4038   0.847E-02    0.341E-01
RMM:   9    -0.228335046055E+03    0.62904E-03   -0.62879E-04  4039   0.377E-02    0.198E-01
RMM:  10    -0.228334923184E+03    0.12287E-03   -0.50754E-04  4039   0.331E-02    0.126E-01
RMM:  11    -0.228334882988E+03    0.40196E-04   -0.22139E-04  4040   0.227E-02    0.841E-02
RMM:  12    -0.228334862801E+03    0.20187E-04   -0.68569E-05  4039   0.127E-02    0.356E-02
RMM:  13    -0.228334886491E+03   -0.23690E-04   -0.22129E-05  4027   0.733E-03    0.240E-02
RMM:  14    -0.228334911128E+03   -0.24637E-04   -0.69820E-06  3590   0.400E-03    0.125E-02
RMM:  15    -0.228334928458E+03   -0.17330E-04   -0.27162E-06  2565   0.257E-03    0.625E-03
RMM:  16    -0.228334952855E+03   -0.24396E-04   -0.16457E-06  2426   0.182E-03    0.497E-03
RMM:  17    -0.228334965617E+03   -0.12762E-04   -0.81365E-07  2361   0.127E-03    0.391E-03
RMM:  18    -0.228334979517E+03   -0.13900E-04   -0.61804E-07  2356   0.988E-04    0.327E-03
RMM:  19    -0.228334991400E+03   -0.11883E-04   -0.49535E-07  2345   0.819E-04    0.194E-03
RMM:  20    -0.228335004772E+03   -0.13372E-04   -0.61710E-07  2384   0.868E-04    0.153E-03
RMM:  21    -0.228335015099E+03   -0.10327E-04   -0.51165E-07  2328   0.735E-04    0.118E-03
RMM:  22    -0.228335023291E+03   -0.81920E-05   -0.45615E-07  2156   0.681E-04    0.121E-03
RMM:  23    -0.228335027568E+03   -0.42770E-05   -0.26151E-07  1626   0.550E-04    0.621E-04
RMM:  24    -0.228335030221E+03   -0.26530E-05   -0.17821E-07  1695   0.495E-04    0.315E-04
RMM:  25    -0.228335031624E+03   -0.14027E-05   -0.54279E-08   952   0.345E-04    0.211E-04
RMM:  26    -0.228335032638E+03   -0.10142E-05   -0.25829E-08   794   0.343E-04    0.225E-04
RMM:  27    -0.228335033475E+03   -0.83687E-06   -0.30240E-08   942   0.372E-04
   4 F= -.22833503E+03 E0= -.22821683E+03  d E =-.698889E+01
       N       E                     dE             d eps       ncg     rms          rms(c)
DAV:   1    -0.228671560293E+03   -0.33653E+00   -0.57002E+02  4032   0.392E+01    0.507E+00
RMM:   2    -0.229742445043E+03   -0.10709E+01   -0.10825E+01  4042   0.592E+00    0.564E+00
RMM:   3    -0.229666738916E+03    0.75706E-01   -0.58582E-01  4047   0.125E+00    0.378E+00
RMM:   4    -0.229783321990E+03   -0.11658E+00   -0.25184E-01  4042   0.759E-01    0.565E+00
RMM:   5    -0.229800389798E+03   -0.17068E-01   -0.27299E-01  4038   0.745E-01    0.524E+00
RMM:   6    -0.229616259585E+03    0.18413E+00   -0.12694E-01  4038   0.521E-01    0.298E+00
RMM:   7    -0.229569303353E+03    0.46956E-01   -0.76470E-02  4038   0.419E-01    0.157E+00
RMM:   8    -0.229558042611E+03    0.11261E-01   -0.20511E-02  4039   0.220E-01    0.899E-01
RMM:   9    -0.229554388117E+03    0.36545E-02   -0.26186E-03  4039   0.784E-02    0.677E-01
RMM:  10    -0.229552121824E+03    0.22663E-02   -0.15708E-03  4038   0.600E-02    0.414E-01
RMM:  11    -0.229550933287E+03    0.11885E-02   -0.16293E-03  4038   0.599E-02    0.175E-01
RMM:  12    -0.229550825910E+03    0.10738E-03   -0.59849E-04  4040   0.363E-02    0.983E-02
RMM:  13    -0.229550796684E+03    0.29226E-04   -0.15337E-04  4040   0.195E-02    0.549E-02
RMM:  14    -0.229550784223E+03    0.12461E-04   -0.40908E-05  4037   0.102E-02    0.249E-02
RMM:  15    -0.229550790036E+03   -0.58128E-05   -0.12683E-05  4009   0.555E-03    0.159E-02
RMM:  16    -0.229550797841E+03   -0.78055E-05   -0.39277E-06  2979   0.318E-03    0.802E-03
RMM:  17    -0.229550805312E+03   -0.74711E-05   -0.13093E-06  2325   0.188E-03    0.541E-03
RMM:  18    -0.229550814927E+03   -0.96147E-05   -0.71745E-07  2293   0.140E-03    0.325E-03
RMM:  19    -0.229550822128E+03   -0.72011E-05   -0.36193E-07  2262   0.908E-04    0.203E-03
RMM:  20    -0.229550829280E+03   -0.71515E-05   -0.26446E-07  2266   0.730E-04    0.140E-03
RMM:  21    -0.229550836747E+03   -0.74675E-05   -0.22577E-07  2237   0.625E-04    0.119E-03
RMM:  22    -0.229550844971E+03   -0.82240E-05   -0.25921E-07  2187   0.611E-04    0.101E-03
RMM:  23    -0.229550851212E+03   -0.62407E-05   -0.24947E-07  1946   0.585E-04    0.782E-04
RMM:  24    -0.229550855021E+03   -0.38090E-05   -0.19415E-07  1648   0.537E-04    0.573E-04
RMM:  25    -0.229550856862E+03   -0.18405E-05   -0.10389E-07  1440   0.435E-04    0.383E-04
RMM:  26    -0.229550858042E+03   -0.11807E-05   -0.46580E-08   933   0.342E-04    0.283E-04
RMM:  27    -0.229550858599E+03   -0.55673E-06   -0.17288E-08   717   0.324E-04
   5 F= -.22955086E+03 E0= -.22943983E+03  d E =-.121583E+01
       N       E                     dE             d eps       ncg     rms          rms(c)
DAV:   1    -0.229458363089E+03    0.92495E-01   -0.17964E+02  4032   0.220E+01    0.297E+00
RMM:   2    -0.229790068397E+03   -0.33171E+00   -0.34095E+00  4044   0.332E+00    0.269E+00
RMM:   3    -0.229781243950E+03    0.88244E-02   -0.19986E-01  4046   0.726E-01    0.237E+00
RMM:   4    -0.229811882168E+03   -0.30638E-01   -0.83910E-02  4041   0.433E-01    0.285E+00
RMM:   5    -0.229810895051E+03    0.98712E-03   -0.91092E-02  4038   0.426E-01    0.290E+00
RMM:   6    -0.229748153504E+03    0.62742E-01   -0.38080E-02  4038   0.291E-01    0.136E+00
RMM:   7    -0.229739058280E+03    0.90952E-02   -0.19596E-02  4038   0.214E-01    0.767E-01
RMM:   8    -0.229735440640E+03    0.36176E-02   -0.53263E-03  4038   0.113E-01    0.328E-01
RMM:   9    -0.229734772110E+03    0.66853E-03   -0.66608E-04  4038   0.396E-02    0.230E-01
RMM:  10    -0.229734457352E+03    0.31476E-03   -0.37831E-04  4038   0.296E-02    0.128E-01
RMM:  11    -0.229734343498E+03    0.11385E-03   -0.30566E-04  4038   0.261E-02    0.689E-02
RMM:  12    -0.229734333644E+03    0.98545E-05   -0.93321E-05  4035   0.146E-02    0.460E-02
RMM:  13    -0.229734323932E+03    0.97123E-05   -0.23407E-05  4027   0.759E-03    0.253E-02
RMM:  14    -0.229734322545E+03    0.13863E-05   -0.60145E-06  3472   0.391E-03    0.109E-02
RMM:  15    -0.229734325111E+03   -0.25662E-05   -0.20961E-06  2428   0.241E-03    0.645E-03
RMM:  16    -0.229734329022E+03   -0.39109E-05   -0.82324E-07  2248   0.155E-03    0.343E-03
RMM:  17    -0.229734331501E+03   -0.24783E-05   -0.27162E-07  2211   0.859E-04    0.180E-03
RMM:  18    -0.229734335161E+03   -0.36600E-05   -0.15895E-07  2084   0.612E-04    0.146E-03
RMM:  19    -0.229734338291E+03   -0.31299E-05   -0.88434E-08  1413   0.489E-04    0.814E-04
RMM:  20    -0.229734341540E+03   -0.32499E-05   -0.14454E-07  1831   0.538E-04    0.707E-04
RMM:  21    -0.229734344702E+03   -0.31620E-05   -0.10603E-07  1338   0.469E-04    0.685E-04
RMM:  22    -0.229734346837E+03   -0.21346E-05   -0.10591E-07  1558   0.456E-04    0.523E-04
RMM:  23    -0.229734348694E+03   -0.18574E-05   -0.90857E-08  1188   0.387E-04    0.410E-04
RMM:  24    -0.229734349751E+03   -0.10564E-05   -0.44368E-08   911   0.382E-04    0.219E-04
RMM:  25    -0.229734350333E+03   -0.58197E-06   -0.47395E-08   988   0.388E-04
   6 F= -.22973435E+03 E0= -.22962618E+03  d E =-.139932E+01
       N       E                     dE             d eps       ncg     rms          rms(c)
DAV:   1    -0.229732266476E+03    0.20833E-02   -0.17276E+02  4032   0.224E+01    0.345E+00
RMM:   2    -0.230166488814E+03   -0.43422E+00   -0.40790E+00  4038   0.343E+00    0.448E+00
RMM:   3    -0.230117153972E+03    0.49335E-01   -0.23680E-01  4047   0.767E-01    0.284E+00
RMM:   4    -0.230308990796E+03   -0.19184E+00   -0.19055E-01  4039   0.614E-01    0.486E+00
RMM:   5    -0.230100472235E+03    0.20852E+00   -0.12369E-01  4038   0.504E-01    0.296E+00
RMM:   6    -0.230065767862E+03    0.34704E-01   -0.68577E-02  4038   0.411E-01    0.159E+00
RMM:   7    -0.230052132637E+03    0.13635E-01   -0.29091E-02  4038   0.270E-01    0.830E-01
RMM:   8    -0.230046973688E+03    0.51589E-02   -0.62688E-03  4038   0.122E-01    0.287E-01
RMM:   9    -0.230046456059E+03    0.51763E-03   -0.90622E-04  4040   0.468E-02    0.166E-01
RMM:  10    -0.230046293111E+03    0.16295E-03   -0.50532E-04  4038   0.340E-02    0.128E-01
RMM:  11    -0.230046213800E+03    0.79311E-04   -0.43566E-04  4039   0.308E-02    0.888E-02
RMM:  12    -0.230046200520E+03    0.13280E-04   -0.13552E-04  4038   0.173E-02    0.535E-02
RMM:  13    -0.230046208906E+03   -0.83858E-05   -0.41557E-05  4038   0.986E-03    0.366E-02
RMM:  14    -0.230046209120E+03   -0.21384E-06   -0.12593E-05  4020   0.569E-03    0.131E-02
RMM:  15    -0.230046217744E+03   -0.86243E-05   -0.35041E-06  2829   0.294E-03    0.859E-03
RMM:  16    -0.230046229028E+03   -0.11284E-04   -0.20679E-06  2431   0.228E-03    0.582E-03
RMM:  17    -0.230046236996E+03   -0.79680E-05   -0.94185E-07  2325   0.160E-03    0.394E-03
RMM:  18    -0.230046243417E+03   -0.64206E-05   -0.41634E-07  2270   0.955E-04    0.240E-03
RMM:  19    -0.230046249315E+03   -0.58981E-05   -0.27595E-07  2251   0.697E-04    0.137E-03
RMM:  20    -0.230046254319E+03   -0.50037E-05   -0.17928E-07  1699   0.546E-04    0.103E-03
RMM:  21    -0.230046259792E+03   -0.54730E-05   -0.25932E-07  2087   0.606E-04    0.685E-04
RMM:  22    -0.230046265742E+03   -0.59504E-05   -0.34478E-07  2121   0.642E-04    0.683E-04
RMM:  23    -0.230046269000E+03   -0.32581E-05   -0.20388E-07  1460   0.511E-04    0.420E-04
RMM:  24    -0.230046270720E+03   -0.17200E-05   -0.17923E-07  1683   0.489E-04    0.375E-04
RMM:  25    -0.230046271545E+03   -0.82472E-06   -0.58400E-08   913   0.334E-04
   7 F= -.23004627E+03 E0= -.22993771E+03  d E =-.311921E+00
       N       E                     dE             d eps       ncg     rms          rms(c)
DAV:   1    -0.230029428736E+03    0.16842E-01   -0.21130E+01  4032   0.783E+00    0.113E+00
RMM:   2    -0.230081768470E+03   -0.52340E-01   -0.48986E-01  4040   0.119E+00    0.146E+00
RMM:   3    -0.230077014695E+03    0.47538E-02   -0.29226E-02  4047   0.270E-01    0.103E+00
RMM:   4    -0.230093528257E+03   -0.16514E-01   -0.20281E-02  4039   0.201E-01    0.163E+00
RMM:   5    -0.230072701881E+03    0.20826E-01   -0.13057E-02  4038   0.166E-01    0.954E-01
RMM:   6    -0.230068953907E+03    0.37480E-02   -0.70848E-03  4038   0.132E-01    0.491E-01
RMM:   7    -0.230067762673E+03    0.11912E-02   -0.31131E-03  4038   0.881E-02    0.267E-01
RMM:   8    -0.230067238569E+03    0.52410E-03   -0.75324E-04  4038   0.422E-02    0.855E-02
RMM:   9    -0.230067191463E+03    0.47106E-04   -0.95771E-05  4040   0.153E-02    0.475E-02
RMM:  10    -0.230067175712E+03    0.15751E-04   -0.38836E-05  4032   0.946E-03    0.366E-02
RMM:  11    -0.230067170469E+03    0.52435E-05   -0.45205E-05  4036   0.986E-03    0.288E-02
RMM:  12    -0.230067169298E+03    0.11709E-05   -0.17642E-05  4032   0.614E-03    0.158E-02
RMM:  13    -0.230067170675E+03   -0.13771E-05   -0.41721E-06  2927   0.327E-03    0.108E-02
RMM:  14    -0.230067171432E+03   -0.75691E-06   -0.11094E-06  2231   0.187E-03
   8 F= -.23006717E+03 E0= -.22995831E+03  d E =-.332821E+00
       N       E                     dE             d eps       ncg     rms          rms(c)
DAV:   1    -0.230056711039E+03    0.10460E-01   -0.97348E+01  4032   0.168E+01    0.193E+00
RMM:   2    -0.230378486187E+03   -0.32178E+00   -0.21552E+00  4040   0.251E+00    0.428E+00
RMM:   3    -0.230253534444E+03    0.12495E+00   -0.14594E-01  4050   0.589E-01    0.179E+00
RMM:   4    -0.230255677244E+03   -0.21428E-02   -0.53305E-02  4045   0.356E-01    0.193E+00
RMM:   5    -0.230234594970E+03    0.21082E-01   -0.26248E-02  4039   0.248E-01    0.142E+00
RMM:   6    -0.230228871541E+03    0.57234E-02   -0.14729E-02  4038   0.187E-01    0.917E-01
RMM:   7    -0.230225583532E+03    0.32880E-02   -0.91461E-03  4038   0.145E-01    0.535E-01
RMM:   8    -0.230223638989E+03    0.19445E-02   -0.30279E-03  4038   0.848E-02    0.212E-01
RMM:   9    -0.230223336734E+03    0.30225E-03   -0.55749E-04  4039   0.369E-02    0.108E-01
RMM:  10    -0.230223276793E+03    0.59941E-04   -0.20791E-04  4038   0.213E-02    0.872E-02
RMM:  11    -0.230223244153E+03    0.32639E-04   -0.24330E-04  4038   0.235E-02    0.670E-02
RMM:  12    -0.230223217459E+03    0.26694E-04   -0.93927E-05  4038   0.147E-02    0.302E-02
RMM:  13    -0.230223218277E+03   -0.81720E-06   -0.13603E-05  4023   0.582E-03    0.169E-02
RMM:  14    -0.230223221407E+03   -0.31303E-05   -0.35698E-06  2813   0.312E-03    0.677E-03
RMM:  15    -0.230223225909E+03   -0.45019E-05   -0.94414E-07  2265   0.165E-03    0.449E-03
RMM:  16    -0.230223232407E+03   -0.64981E-05   -0.54988E-07  2294   0.120E-03    0.245E-03
RMM:  17    -0.230223235371E+03   -0.29645E-05   -0.20034E-07  2217   0.702E-04    0.157E-03
RMM:  18    -0.230223239621E+03   -0.42499E-05   -0.12968E-07  1585   0.533E-04    0.156E-03
RMM:  19    -0.230223243656E+03   -0.40351E-05   -0.16698E-07  1907   0.559E-04    0.113E-03
RMM:  20    -0.230223247746E+03   -0.40894E-05   -0.15226E-07  1477   0.506E-04    0.689E-04
RMM:  21    -0.230223250221E+03   -0.24754E-05   -0.13335E-07  1583   0.480E-04    0.411E-04
RMM:  22    -0.230223251972E+03   -0.17509E-05   -0.88532E-08  1203   0.386E-04    0.324E-04
RMM:  23    -0.230223253268E+03   -0.12960E-05   -0.49075E-08   898   0.378E-04    0.208E-04
RMM:  24    -0.230223254430E+03   -0.11622E-05   -0.10113E-07  1521   0.449E-04    0.217E-04
RMM:  25    -0.230223254897E+03   -0.46685E-06   -0.39981E-08   958   0.316E-04
   9 F= -.23022325E+03 E0= -.23011656E+03  d E =-.156083E+00
       N       E                     dE             d eps       ncg     rms          rms(c)
DAV:   1    -0.230151242024E+03    0.72012E-01   -0.63002E+01  4032   0.135E+01    0.158E+00
RMM:   2    -0.230363926995E+03   -0.21268E+00   -0.13918E+00  4039   0.202E+00    0.359E+00
RMM:   3    -0.230273699072E+03    0.90228E-01   -0.90839E-02  4050   0.466E-01    0.135E+00
RMM:   4    -0.230287109370E+03   -0.13410E-01   -0.36665E-02  4042   0.295E-01    0.181E+00
RMM:   5    -0.230267401321E+03    0.19708E-01   -0.18911E-02  4039   0.210E-01    0.126E+00
RMM:   6    -0.230262934623E+03    0.44667E-02   -0.10452E-02  4038   0.158E-01    0.804E-01
RMM:   7    -0.230260260732E+03    0.26739E-02   -0.63620E-03  4038   0.122E-01    0.432E-01
RMM:   8    -0.230258942071E+03    0.13187E-02   -0.19667E-03  4038   0.678E-02    0.162E-01
RMM:   9    -0.230258768180E+03    0.17389E-03   -0.33837E-04  4039   0.287E-02    0.847E-02
RMM:  10    -0.230258727935E+03    0.40244E-04   -0.14902E-04  4038   0.181E-02    0.669E-02
RMM:  11    -0.230258717816E+03    0.10120E-04   -0.16951E-04  4038   0.194E-02    0.569E-02
RMM:  12    -0.230258698583E+03    0.19233E-04   -0.53014E-05  4038   0.111E-02    0.248E-02
RMM:  13    -0.230258700293E+03   -0.17100E-05   -0.86192E-06  3939   0.464E-03    0.141E-02
RMM:  14    -0.230258702909E+03   -0.26160E-05   -0.24305E-06  2444   0.262E-03    0.546E-03
RMM:  15    -0.230258706549E+03   -0.36396E-05   -0.67358E-07  2241   0.139E-03    0.359E-03
RMM:  16    -0.230258712061E+03   -0.55126E-05   -0.41370E-07  2266   0.102E-03    0.235E-03
RMM:  17    -0.230258714622E+03   -0.25605E-05   -0.14257E-07  1954   0.604E-04    0.120E-03
RMM:  18    -0.230258718188E+03   -0.35662E-05   -0.98799E-08  1434   0.485E-04    0.125E-03
RMM:  19    -0.230258721659E+03   -0.34713E-05   -0.14738E-07  1837   0.522E-04    0.896E-04
RMM:  20    -0.230258724595E+03   -0.29363E-05   -0.89098E-08  1241   0.431E-04    0.560E-04
RMM:  21    -0.230258726835E+03   -0.22400E-05   -0.12519E-07  1563   0.459E-04    0.336E-04
RMM:  22    -0.230258728349E+03   -0.15134E-05   -0.63926E-08  1064   0.375E-04    0.263E-04
RMM:  23    -0.230258729461E+03   -0.11126E-05   -0.57691E-08  1056   0.383E-04    0.189E-04
RMM:  24    -0.230258730304E+03   -0.84301E-06   -0.71445E-08  1202   0.393E-04
  10 F= -.23025873E+03 E0= -.23015372E+03  d E =-.191559E+00
       N       E                     dE             d eps       ncg     rms          rms(c)
DAV:   1    -0.230236590956E+03    0.22139E-01   -0.68260E+01  4032   0.149E+01    0.181E+00
RMM:   2    -0.230423160508E+03   -0.18657E+00   -0.17762E+00  4047   0.217E+00    0.199E+00
RMM:   3    -0.230458869784E+03   -0.35709E-01   -0.13252E-01  4044   0.556E-01    0.293E+00
RMM:   4    -0.230386366980E+03    0.72503E-01   -0.34229E-02  4060   0.278E-01    0.106E+00
RMM:   5    -0.230388432291E+03   -0.20653E-02   -0.19486E-02  4041   0.215E-01    0.122E+00
RMM:   6    -0.230379609508E+03    0.88228E-02   -0.11599E-02  4038   0.162E-01    0.629E-01
RMM:   7    -0.230378626305E+03    0.98320E-03   -0.66605E-03  4038   0.126E-01    0.437E-01
RMM:   8    -0.230377397598E+03    0.12287E-02   -0.20534E-03  4038   0.686E-02    0.181E-01
RMM:   9    -0.230377244736E+03    0.15286E-03   -0.33625E-04  4040   0.288E-02    0.951E-02
RMM:  10    -0.230377171880E+03    0.72856E-04   -0.85177E-05  4039   0.145E-02    0.519E-02
RMM:  11    -0.230377166782E+03    0.50979E-05   -0.12396E-04  4032   0.166E-02    0.431E-02
RMM:  12    -0.230377162538E+03    0.42436E-05   -0.44984E-05  4032   0.101E-02    0.280E-02
RMM:  13    -0.230377164429E+03   -0.18909E-05   -0.98490E-06  4008   0.484E-03    0.129E-02
RMM:  14    -0.230377166525E+03   -0.20964E-05   -0.21646E-06  2439   0.248E-03    0.543E-03
RMM:  15    -0.230377170464E+03   -0.39388E-05   -0.65710E-07  2245   0.132E-03    0.377E-03
RMM:  16    -0.230377175043E+03   -0.45789E-05   -0.41161E-07  2261   0.101E-03    0.181E-03
RMM:  17    -0.230377177485E+03   -0.24417E-05   -0.15179E-07  2072   0.602E-04    0.126E-03
RMM:  18    -0.230377180599E+03   -0.31145E-05   -0.88312E-08  1293   0.449E-04    0.129E-03
RMM:  19    -0.230377183666E+03   -0.30671E-05   -0.14100E-07  1725   0.493E-04    0.953E-04
RMM:  20    -0.230377187273E+03   -0.36068E-05   -0.17781E-07  1583   0.520E-04    0.525E-04
RMM:  21    -0.230377189465E+03   -0.21922E-05   -0.16071E-07  1554   0.484E-04    0.329E-04
RMM:  22    -0.230377190795E+03   -0.13300E-05   -0.83846E-08  1055   0.379E-04    0.239E-04
RMM:  23    -0.230377191669E+03   -0.87374E-06   -0.61261E-08  1048   0.387E-04
  11 F= -.23037719E+03 E0= -.23027259E+03  d E =-.118461E+00
       N       E                     dE             d eps       ncg     rms          rms(c)
DAV:   1    -0.229161090411E+03    0.12161E+01   -0.58641E+02  4032   0.435E+01    0.530E+00
RMM:   2    -0.230975169357E+03   -0.18141E+01   -0.16634E+01  4047   0.641E+00    0.661E+00
RMM:   3    -0.231245515905E+03   -0.27035E+00   -0.12092E+00  4044   0.166E+00    0.777E+00
RMM:   4    -0.230530767314E+03    0.71475E+00   -0.29492E-01  4057   0.822E-01    0.263E+00
RMM:   5    -0.230555437971E+03   -0.24671E-01   -0.12608E-01  4042   0.555E-01    0.319E+00
RMM:   6    -0.230494532816E+03    0.60905E-01   -0.90011E-02  4039   0.448E-01    0.165E+00
RMM:   7    -0.230487547026E+03    0.69858E-02   -0.53392E-02  4038   0.353E-01    0.111E+00
RMM:   8    -0.230481049543E+03    0.64975E-02   -0.19612E-02  4039   0.212E-01    0.650E-01
RMM:   9    -0.230478959020E+03    0.20905E-02   -0.37299E-03  4039   0.944E-02    0.352E-01
RMM:  10    -0.230477901469E+03    0.10576E-02   -0.11623E-03  4038   0.533E-02    0.193E-01
RMM:  11    -0.230477688641E+03    0.21283E-03   -0.99928E-04  4039   0.475E-02    0.130E-01
RMM:  12    -0.230477644723E+03    0.43919E-04   -0.51319E-04  4038   0.344E-02    0.915E-02
RMM:  13    -0.230477628761E+03    0.15961E-04   -0.11454E-04  4038   0.167E-02    0.425E-02
RMM:  14    -0.230477645452E+03   -0.16690E-04   -0.32612E-05  4022   0.905E-03    0.219E-02
RMM:  15    -0.230477666011E+03   -0.20559E-04   -0.10359E-05  4015   0.504E-03    0.153E-02
RMM:  16    -0.230477683505E+03   -0.17494E-04   -0.35084E-06  2792   0.288E-03    0.724E-03
RMM:  17    -0.230477698751E+03   -0.15246E-04   -0.14234E-06  2380   0.193E-03    0.478E-03
RMM:  18    -0.230477716214E+03   -0.17462E-04   -0.86215E-07  2362   0.131E-03    0.404E-03
RMM:  19    -0.230477726727E+03   -0.10514E-04   -0.46980E-07  2323   0.898E-04    0.295E-03
RMM:  20    -0.230477745261E+03   -0.18534E-04   -0.90806E-07  2399   0.110E-03    0.158E-03
RMM:  21    -0.230477757395E+03   -0.12134E-04   -0.67369E-07  2356   0.889E-04    0.126E-03
RMM:  22    -0.230477764749E+03   -0.73539E-05   -0.37588E-07  2189   0.653E-04    0.974E-04
RMM:  23    -0.230477772464E+03   -0.77149E-05   -0.49046E-07  2362   0.751E-04    0.101E-03
RMM:  24    -0.230477775836E+03   -0.33725E-05   -0.21211E-07  1463   0.523E-04    0.820E-04
RMM:  25    -0.230477777332E+03   -0.14957E-05   -0.12661E-07  1640   0.482E-04    0.590E-04
RMM:  26    -0.230477778184E+03   -0.85210E-06   -0.40807E-08   889   0.319E-04
  12 F= -.23047778E+03 E0= -.23037392E+03  d E =-.219048E+00
       N       E                     dE             d eps       ncg     rms          rms(c)
DAV:   1    -0.230421502940E+03    0.56274E-01   -0.70465E+01  4032   0.150E+01    0.176E+00
RMM:   2    -0.230646606173E+03   -0.22510E+00   -0.17898E+00  4047   0.220E+00    0.266E+00
RMM:   3    -0.230665329704E+03   -0.18724E-01   -0.15687E-01  4047   0.595E-01    0.315E+00
RMM:   4    -0.230569866958E+03    0.95463E-01   -0.33620E-02  4052   0.289E-01    0.915E-01
RMM:   5    -0.230570441384E+03   -0.57443E-03   -0.16850E-02  4039   0.201E-01    0.110E+00
RMM:   6    -0.230565382320E+03    0.50591E-02   -0.98051E-03  4038   0.151E-01    0.572E-01
RMM:   7    -0.230564679063E+03    0.70326E-03   -0.64580E-03  4039   0.124E-01    0.383E-01
RMM:   8    -0.230563831077E+03    0.84799E-03   -0.17326E-03  4038   0.630E-02    0.190E-01
RMM:   9    -0.230563652148E+03    0.17893E-03   -0.33884E-04  4040   0.294E-02    0.911E-02
RMM:  10    -0.230563592197E+03    0.59950E-04   -0.92056E-05  4039   0.149E-02    0.547E-02
RMM:  11    -0.230563579299E+03    0.12898E-04   -0.10372E-04  4038   0.152E-02    0.444E-02
RMM:  12    -0.230563571878E+03    0.74210E-05   -0.48564E-05  4037   0.105E-02    0.263E-02
RMM:  13    -0.230563573793E+03   -0.19147E-05   -0.12436E-05  4027   0.537E-03    0.162E-02
RMM:  14    -0.230563574401E+03   -0.60836E-06   -0.26646E-06  2553   0.277E-03
  13 F= -.23056357E+03 E0= -.23045945E+03  d E =-.857962E-01
       N       E                     dE             d eps       ncg     rms          rms(c)
DAV:   1    -0.229475966100E+03    0.10876E+01   -0.53722E+02  4032   0.413E+01    0.491E+00
RMM:   2    -0.231415054773E+03   -0.19391E+01   -0.14879E+01  4048   0.614E+00    0.845E+00
RMM:   3    -0.231363802439E+03    0.51252E-01   -0.12250E+00  4045   0.165E+00    0.736E+00
RMM:   4    -0.230693169129E+03    0.67063E+00   -0.25971E-01  4049   0.799E-01    0.248E+00
RMM:   5    -0.230689025882E+03    0.41432E-02   -0.11833E-01  4039   0.531E-01    0.292E+00
RMM:   6    -0.230648863645E+03    0.40162E-01   -0.60690E-02  4038   0.373E-01    0.146E+00
RMM:   7    -0.230646198770E+03    0.26649E-02   -0.47794E-02  4038   0.334E-01    0.111E+00
RMM:   8    -0.230641674848E+03    0.45239E-02   -0.17431E-02  4038   0.198E-01    0.713E-01
RMM:   9    -0.230639215101E+03    0.24597E-02   -0.45986E-03  4039   0.107E-01    0.379E-01
RMM:  10    -0.230638190249E+03    0.10249E-02   -0.13087E-03  4038   0.566E-02    0.182E-01
RMM:  11    -0.230637980655E+03    0.20959E-03   -0.80877E-04  4039   0.431E-02    0.133E-01
RMM:  12    -0.230637872727E+03    0.10793E-03   -0.42654E-04  4038   0.314E-02    0.721E-02
RMM:  13    -0.230637888682E+03   -0.15955E-04   -0.14150E-04  4039   0.180E-02    0.484E-02
RMM:  14    -0.230637890741E+03   -0.20589E-05   -0.31885E-05  4037   0.912E-03    0.207E-02
RMM:  15    -0.230637908842E+03   -0.18101E-04   -0.97254E-06  3969   0.482E-03    0.162E-02
RMM:  16    -0.230637920394E+03   -0.11551E-04   -0.39046E-06  2924   0.317E-03    0.673E-03
RMM:  17    -0.230637932860E+03   -0.12466E-04   -0.12435E-06  2360   0.181E-03    0.423E-03
RMM:  18    -0.230637946565E+03   -0.13705E-04   -0.69750E-07  2346   0.123E-03    0.322E-03
RMM:  19    -0.230637954450E+03   -0.78851E-05   -0.33690E-07  2286   0.783E-04    0.278E-03
RMM:  20    -0.230637967750E+03   -0.13300E-04   -0.53819E-07  2364   0.851E-04    0.183E-03
RMM:  21    -0.230637977225E+03   -0.94751E-05   -0.44882E-07  2324   0.751E-04    0.999E-04
RMM:  22    -0.230637983086E+03   -0.58607E-05   -0.22900E-07  1663   0.544E-04    0.743E-04
RMM:  23    -0.230637989483E+03   -0.63972E-05   -0.37375E-07  2320   0.730E-04    0.703E-04
RMM:  24    -0.230637993773E+03   -0.42897E-05   -0.26609E-07  2192   0.590E-04    0.718E-04
RMM:  25    -0.230637995310E+03   -0.15373E-05   -0.78403E-08   950   0.374E-04    0.449E-04
RMM:  26    -0.230637995971E+03   -0.66096E-06   -0.35207E-08   866   0.392E-04
  14 F= -.23063800E+03 E0= -.23053222E+03  d E =-.160218E+00
       N       E                     dE             d eps       ncg     rms          rms(c)
DAV:   1    -0.230614402156E+03    0.23593E-01   -0.13666E+01  4080   0.659E+00    0.727E-01
RMM:   2    -0.230653372143E+03   -0.38970E-01   -0.32717E-01  4047   0.956E-01    0.100E+00
RMM:   3    -0.230660594421E+03   -0.72223E-02   -0.28024E-02  4047   0.253E-01    0.149E+00
RMM:   4    -0.230642780398E+03    0.17814E-01   -0.65545E-03  4053   0.127E-01    0.448E-01
RMM:   5    -0.230642130144E+03    0.65025E-03   -0.32368E-03  4039   0.894E-02    0.414E-01
RMM:   6    -0.230641604024E+03    0.52612E-03   -0.17841E-03  4038   0.646E-02    0.256E-01
RMM:   7    -0.230641544739E+03    0.59285E-04   -0.12768E-03  4039   0.553E-02    0.179E-01
RMM:   8    -0.230641358958E+03    0.18578E-03   -0.33547E-04  4038   0.279E-02    0.877E-02
RMM:   9    -0.230641320545E+03    0.38413E-04   -0.64171E-05  4041   0.127E-02    0.394E-02
RMM:  10    -0.230641309007E+03    0.11538E-04   -0.16420E-05  4032   0.622E-03    0.240E-02
RMM:  11    -0.230641306406E+03    0.26015E-05   -0.18483E-05  4032   0.645E-03    0.192E-02
RMM:  12    -0.230641306105E+03    0.30014E-06   -0.10577E-05  4002   0.484E-03    0.127E-02
RMM:  13    -0.230641306316E+03   -0.21029E-06   -0.20107E-06  2382   0.234E-03
  15 F= -.23064131E+03 E0= -.23053590E+03  d E =-.163528E+00
       N       E                     dE             d eps       ncg     rms          rms(c)
DAV:   1    -0.230671304839E+03   -0.29999E-01   -0.21267E+01  4032   0.746E+00    0.101E+00
RMM:   2    -0.230752018296E+03   -0.80713E-01   -0.43692E-01  4039   0.118E+00    0.247E+00
RMM:   3    -0.230708444026E+03    0.43574E-01   -0.30872E-02  4050   0.273E-01    0.861E-01
RMM:   4    -0.230718725897E+03   -0.10282E-01   -0.15501E-02  4039   0.192E-01    0.131E+00
RMM:   5    -0.230708243230E+03    0.10483E-01   -0.92197E-03  4038   0.144E-01    0.855E-01
RMM:   6    -0.230706676021E+03    0.15672E-02   -0.53385E-03  4038   0.113E-01    0.563E-01
RMM:   7    -0.230705002440E+03    0.16736E-02   -0.31683E-03  4038   0.865E-02    0.266E-01
RMM:   8    -0.230704453086E+03    0.54935E-03   -0.79854E-04  4038   0.439E-02    0.971E-02
RMM:   9    -0.230704387224E+03    0.65862E-04   -0.13979E-04  4039   0.181E-02    0.604E-02
RMM:  10    -0.230704355917E+03    0.31307E-04   -0.77553E-05  4038   0.134E-02    0.394E-02
RMM:  11    -0.230704348359E+03    0.75576E-05   -0.67508E-05  4038   0.122E-02    0.324E-02
RMM:  12    -0.230704341782E+03    0.65769E-05   -0.24083E-05  4033   0.742E-03    0.132E-02
RMM:  13    -0.230704341769E+03    0.13475E-07   -0.23500E-06  2403   0.265E-03
  16 F= -.23070434E+03 E0= -.23059906E+03  d E =-.630355E-01
       N       E                     dE             d eps       ncg     rms          rms(c)
DAV:   1    -0.230693064156E+03    0.11278E-01   -0.19713E+01  4032   0.719E+00    0.100E+00
RMM:   2    -0.230768358017E+03   -0.75294E-01   -0.40722E-01  4039   0.113E+00    0.243E+00
RMM:   3    -0.230727342698E+03    0.41015E-01   -0.27762E-02  4051   0.259E-01    0.867E-01
RMM:   4    -0.230739577281E+03   -0.12235E-01   -0.15200E-02  4039   0.189E-01    0.138E+00
RMM:   5    -0.230727775686E+03    0.11802E-01   -0.93779E-03  4038   0.145E-01    0.877E-01
RMM:   6    -0.230726105361E+03    0.16703E-02   -0.54428E-03  4038   0.114E-01    0.572E-01
RMM:   7    -0.230724314318E+03    0.17910E-02   -0.30775E-03  4038   0.853E-02    0.257E-01
RMM:   8    -0.230723797550E+03    0.51677E-03   -0.74520E-04  4038   0.422E-02    0.962E-02
RMM:   9    -0.230723733309E+03    0.64241E-04   -0.13181E-04  4038   0.175E-02    0.589E-02
RMM:  10    -0.230723705699E+03    0.27610E-04   -0.78392E-05  4038   0.134E-02    0.396E-02
RMM:  11    -0.230723698762E+03    0.69362E-05   -0.67002E-05  4038   0.121E-02    0.321E-02
RMM:  12    -0.230723693127E+03    0.56349E-05   -0.23397E-05  4034   0.732E-03    0.130E-02
RMM:  13    -0.230723693662E+03   -0.53491E-06   -0.23754E-06  2399   0.265E-03
  17 F= -.23072369E+03 E0= -.23061847E+03  d E =-.823873E-01
       N       E                     dE             d eps       ncg     rms          rms(c)
DAV:   1    -0.230729610121E+03   -0.59170E-02   -0.12569E+01  4032   0.610E+00    0.738E-01
RMM:   2    -0.230759315784E+03   -0.29706E-01   -0.28445E-01  4040   0.911E-01    0.817E-01
RMM:   3    -0.230763920279E+03   -0.46045E-02   -0.18644E-02  4047   0.216E-01    0.104E+00
RMM:   4    -0.230761125913E+03    0.27944E-02   -0.96237E-03  4040   0.140E-01    0.987E-01
RMM:   5    -0.230753917206E+03    0.72087E-02   -0.34953E-03  4038   0.897E-02    0.435E-01
RMM:   6    -0.230753342148E+03    0.57506E-03   -0.20717E-03  4038   0.685E-02    0.325E-01
RMM:   7    -0.230753003283E+03    0.33887E-03   -0.15745E-03  4038   0.613E-02    0.181E-01
RMM:   8    -0.230752754564E+03    0.24872E-03   -0.32010E-04  4038   0.270E-02    0.708E-02
RMM:   9    -0.230752725083E+03    0.29481E-04   -0.56612E-05  4039   0.117E-02    0.386E-02
RMM:  10    -0.230752711977E+03    0.13106E-04   -0.22093E-05  4026   0.714E-03    0.243E-02
RMM:  11    -0.230752710334E+03    0.16429E-05   -0.23122E-05  4038   0.700E-03    0.209E-02
RMM:  12    -0.230752708694E+03    0.16398E-05   -0.12074E-05  4020   0.506E-03    0.104E-02
RMM:  13    -0.230752708897E+03   -0.20253E-06   -0.17893E-06  2360   0.225E-03
  18 F= -.23075271E+03 E0= -.23064711E+03  d E =-.290152E-01
       N       E                     dE             d eps       ncg     rms          rms(c)
DAV:   1    -0.230725008755E+03    0.27700E-01   -0.21888E+01  4032   0.806E+00    0.958E-01
RMM:   2    -0.230776612417E+03   -0.51604E-01   -0.49541E-01  4039   0.120E+00    0.105E+00
RMM:   3    -0.230784761411E+03   -0.81490E-02   -0.32449E-02  4047   0.286E-01    0.137E+00
RMM:   4    -0.230779389761E+03    0.53717E-02   -0.16176E-02  4039   0.182E-01    0.127E+00
RMM:   5    -0.230767231924E+03    0.12158E-01   -0.58147E-03  4038   0.115E-01    0.553E-01
RMM:   6    -0.230766386610E+03    0.84531E-03   -0.35131E-03  4038   0.894E-02    0.423E-01
RMM:   7    -0.230765839854E+03    0.54676E-03   -0.27476E-03  4038   0.811E-02    0.241E-01
RMM:   8    -0.230765386652E+03    0.45320E-03   -0.58220E-04  4038   0.365E-02    0.932E-02
RMM:   9    -0.230765336822E+03    0.49830E-04   -0.10144E-04  4039   0.157E-02    0.527E-02
RMM:  10    -0.230765314010E+03    0.22812E-04   -0.39076E-05  4032   0.952E-03    0.328E-02
RMM:  11    -0.230765312974E+03    0.10357E-05   -0.40635E-05  4038   0.931E-03    0.287E-02
RMM:  12    -0.230765311860E+03    0.11140E-05   -0.22513E-05  4032   0.693E-03    0.143E-02
RMM:  13    -0.230765313535E+03   -0.16755E-05   -0.37799E-06  2851   0.316E-03    0.855E-03
RMM:  14    -0.230765314205E+03   -0.66968E-06   -0.99599E-07  2221   0.176E-03
  19 F= -.23076531E+03 E0= -.23065915E+03  d E =-.416205E-01
       N       E                     dE             d eps       ncg     rms          rms(c)
DAV:   1    -0.230759207770E+03    0.61058E-02   -0.15045E+01  4032   0.662E+00    0.771E-01
RMM:   2    -0.230797291116E+03   -0.38083E-01   -0.33431E-01  4040   0.100E+00    0.111E+00
RMM:   3    -0.230793804521E+03    0.34866E-02   -0.21634E-02  4047   0.232E-01    0.908E-01
RMM:   4    -0.230793421252E+03    0.38327E-03   -0.83071E-03  4047   0.134E-01    0.886E-01
RMM:   5    -0.230788229512E+03    0.51917E-02   -0.52412E-03  4038   0.108E-01    0.588E-01
RMM:   6    -0.230787283421E+03    0.94609E-03   -0.32012E-03  4038   0.875E-02    0.352E-01
RMM:   7    -0.230786643917E+03    0.63950E-03   -0.19895E-03  4038   0.690E-02    0.154E-01
RMM:   8    -0.230786460231E+03    0.18369E-03   -0.33307E-04  4038   0.281E-02    0.773E-02
RMM:   9    -0.230786433628E+03    0.26603E-04   -0.50641E-05  4040   0.113E-02    0.496E-02
RMM:  10    -0.230786414987E+03    0.18641E-04   -0.31801E-05  4033   0.844E-03    0.345E-02
RMM:  11    -0.230786411511E+03    0.34767E-05   -0.47051E-05  4038   0.100E-02    0.263E-02
RMM:  12    -0.230786411200E+03    0.31041E-06   -0.19999E-05  4032   0.657E-03    0.120E-02
RMM:  13    -0.230786412354E+03   -0.11541E-05   -0.23411E-06  2429   0.262E-03    0.623E-03
RMM:  14    -0.230786413377E+03   -0.10225E-05   -0.64914E-07  2201   0.146E-03    0.217E-03
RMM:  15    -0.230786415220E+03   -0.18437E-05   -0.28950E-07  2190   0.887E-04    0.233E-03
RMM:  16    -0.230786417592E+03   -0.23713E-05   -0.21006E-07  2215   0.721E-04    0.118E-03
RMM:  17    -0.230786419094E+03   -0.15020E-05   -0.52530E-08  1161   0.439E-04    0.684E-04
RMM:  18    -0.230786420529E+03   -0.14348E-05   -0.24570E-08   839   0.388E-04    0.481E-04
RMM:  19    -0.230786422284E+03   -0.17558E-05   -0.10724E-07  1594   0.459E-04    0.491E-04
RMM:  20    -0.230786423724E+03   -0.14399E-05   -0.72593E-08  1151   0.381E-04    0.360E-04
RMM:  21    -0.230786424430E+03   -0.70529E-06   -0.36154E-08   783   0.333E-04
  20 F= -.23078642E+03 E0= -.23068010E+03  d E =-.211102E-01
       N       E                     dE             d eps       ncg     rms          rms(c)
DAV:   1    -0.230762744932E+03    0.23679E-01   -0.16721E+01  4032   0.698E+00    0.815E-01
RMM:   2    -0.230805528282E+03   -0.42783E-01   -0.37178E-01  4040   0.106E+00    0.120E+00
RMM:   3    -0.230800705446E+03    0.48228E-02   -0.23850E-02  4047   0.244E-01    0.936E-01
RMM:   4    -0.230801069532E+03   -0.36409E-03   -0.93069E-03  4047   0.142E-01    0.954E-01
RMM:   5    -0.230794996269E+03    0.60733E-02   -0.58540E-03  4038   0.114E-01    0.626E-01
RMM:   6    -0.230793954420E+03    0.10418E-02   -0.36205E-03  4038   0.930E-02    0.378E-01
RMM:   7    -0.230793235408E+03    0.71901E-03   -0.22653E-03  4038   0.736E-02    0.167E-01
RMM:   8    -0.230793018367E+03    0.21704E-03   -0.38188E-04  4038   0.300E-02    0.873E-02
RMM:   9    -0.230792982636E+03    0.35731E-04   -0.60349E-05  4039   0.122E-02    0.532E-02
RMM:  10    -0.230792961392E+03    0.21243E-04   -0.36553E-05  4036   0.906E-03    0.366E-02
RMM:  11    -0.230792956714E+03    0.46787E-05   -0.55527E-05  4035   0.109E-02    0.277E-02
RMM:  12    -0.230792956299E+03    0.41455E-06   -0.22712E-05  4032   0.701E-03    0.127E-02
RMM:  13    -0.230792957453E+03   -0.11542E-05   -0.27079E-06  2525   0.280E-03    0.673E-03
RMM:  14    -0.230792958584E+03   -0.11307E-05   -0.72481E-07  2208   0.153E-03    0.243E-03
RMM:  15    -0.230792960544E+03   -0.19597E-05   -0.32393E-07  2188   0.949E-04    0.250E-03
RMM:  16    -0.230792963303E+03   -0.27592E-05   -0.24497E-07  2211   0.779E-04    0.124E-03
RMM:  17    -0.230792964994E+03   -0.16909E-05   -0.65865E-08  1329   0.468E-04    0.713E-04
RMM:  18    -0.230792966639E+03   -0.16451E-05   -0.26078E-08   849   0.387E-04    0.486E-04
RMM:  19    -0.230792968616E+03   -0.19766E-05   -0.10971E-07  1600   0.464E-04    0.509E-04
RMM:  20    -0.230792970209E+03   -0.15936E-05   -0.76547E-08  1166   0.390E-04    0.358E-04
RMM:  21    -0.230792971077E+03   -0.86745E-06   -0.42335E-08   841   0.347E-04
  21 F= -.23079297E+03 E0= -.23068644E+03  d E =-.276569E-01
       N       E                     dE             d eps       ncg     rms          rms(c)
DAV:   1    -0.230776012639E+03    0.16958E-01   -0.21543E+01  4032   0.770E+00    0.851E-01
RMM:   2    -0.230836011545E+03   -0.59999E-01   -0.44500E-01  4039   0.119E+00    0.176E+00
RMM:   3    -0.230820729537E+03    0.15282E-01   -0.32212E-02  4050   0.280E-01    0.968E-01
RMM:   4    -0.230819988725E+03    0.74081E-03   -0.11174E-02  4045   0.160E-01    0.944E-01
RMM:   5    -0.230812710657E+03    0.72781E-02   -0.46430E-03  4039   0.103E-01    0.499E-01
RMM:   6    -0.230812802263E+03   -0.91606E-04   -0.38672E-03  4038   0.948E-02    0.423E-01
RMM:   7    -0.230812192545E+03    0.60972E-03   -0.29329E-03  4038   0.827E-02    0.246E-01
RMM:   8    -0.230811725443E+03    0.46710E-03   -0.70099E-04  4038   0.408E-02    0.969E-02
RMM:   9    -0.230811668085E+03    0.57358E-04   -0.10502E-04  4039   0.161E-02    0.577E-02
RMM:  10    -0.230811636881E+03    0.31204E-04   -0.63569E-05  4035   0.119E-02    0.392E-02
RMM:  11    -0.230811629411E+03    0.74709E-05   -0.69770E-05  4036   0.122E-02    0.280E-02
RMM:  12    -0.230811628095E+03    0.13159E-05   -0.18708E-05  4020   0.647E-03    0.141E-02
RMM:  13    -0.230811627359E+03    0.73574E-06   -0.30296E-06  2604   0.291E-03
  22 F= -.23081163E+03 E0= -.23070459E+03  d E =-.186563E-01
       N       E                     dE             d eps       ncg     rms          rms(c)
DAV:   1    -0.230794830823E+03    0.16797E-01   -0.12751E+01  4032   0.592E+00    0.654E-01
RMM:   2    -0.230829873836E+03   -0.35043E-01   -0.26260E-01  4039   0.913E-01    0.134E+00
RMM:   3    -0.230820967280E+03    0.89066E-02   -0.18821E-02  4050   0.214E-01    0.735E-01
RMM:   4    -0.230821020158E+03   -0.52877E-04   -0.66641E-03  4045   0.124E-01    0.746E-01
RMM:   5    -0.230816456430E+03    0.45637E-02   -0.28033E-03  4039   0.803E-02    0.390E-01
RMM:   6    -0.230816556707E+03   -0.10028E-03   -0.23115E-03  4038   0.733E-02    0.330E-01
RMM:   7    -0.230816212810E+03    0.34390E-03   -0.17594E-03  4038   0.641E-02    0.195E-01
RMM:   8    -0.230815923085E+03    0.28972E-03   -0.42248E-04  4038   0.317E-02    0.756E-02
RMM:   9    -0.230815889035E+03    0.34051E-04   -0.63458E-05  4039   0.125E-02    0.450E-02
RMM:  10    -0.230815871753E+03    0.17282E-04   -0.38796E-05  4032   0.928E-03    0.307E-02
RMM:  11    -0.230815868777E+03    0.29763E-05   -0.42813E-05  4038   0.957E-03    0.212E-02
RMM:  12    -0.230815869977E+03   -0.12004E-05   -0.11072E-05  4019   0.497E-03    0.108E-02
RMM:  13    -0.230815870173E+03   -0.19576E-06   -0.17242E-06  2350   0.223E-03
  23 F= -.23081587E+03 E0= -.23070841E+03  d E =-.228991E-01
       N       E                     dE             d eps       ncg     rms          rms(c)
DAV:   1    -0.230788699687E+03    0.27170E-01   -0.27803E+01  4032   0.886E+00    0.108E+00
RMM:   2    -0.230853119262E+03   -0.64420E-01   -0.59101E-01  4039   0.135E+00    0.138E+00
RMM:   3    -0.230853660501E+03   -0.54124E-03   -0.43717E-02  4049   0.326E-01    0.146E+00
RMM:   4    -0.230846812407E+03    0.68481E-02   -0.13210E-02  4046   0.171E-01    0.103E+00
RMM:   5    -0.230839886632E+03    0.69258E-02   -0.90003E-03  4039   0.140E-01    0.729E-01
RMM:   6    -0.230836872141E+03    0.30145E-02   -0.46004E-03  4038   0.103E-01    0.402E-01
RMM:   7    -0.230836779649E+03    0.92492E-04   -0.33689E-03  4038   0.880E-02    0.325E-01
RMM:   8    -0.230835882195E+03    0.89745E-03   -0.10289E-03  4038   0.496E-02    0.974E-02
RMM:   9    -0.230835825608E+03    0.56587E-04   -0.12001E-04  4039   0.171E-02    0.577E-02
RMM:  10    -0.230835798698E+03    0.26909E-04   -0.51941E-05  4037   0.108E-02    0.382E-02
RMM:  11    -0.230835797472E+03    0.12262E-05   -0.63356E-05  4033   0.117E-02    0.320E-02
RMM:  12    -0.230835794167E+03    0.33050E-05   -0.21750E-05  4026   0.698E-03    0.145E-02
RMM:  13    -0.230835794462E+03   -0.29516E-06   -0.37765E-06  2815   0.312E-03
  24 F= -.23083579E+03 E0= -.23072824E+03  d E =-.199243E-01
       N       E                     dE             d eps       ncg     rms          rms(c)
DAV:   1    -0.230803710009E+03    0.32084E-01   -0.21942E+01  4032   0.788E+00    0.949E-01
RMM:   2    -0.230853348923E+03   -0.49639E-01   -0.46465E-01  4039   0.120E+00    0.117E+00
RMM:   3    -0.230853320917E+03    0.28006E-04   -0.33348E-02  4049   0.286E-01    0.123E+00
RMM:   4    -0.230850036893E+03    0.32840E-02   -0.10079E-02  4046   0.149E-01    0.933E-01
RMM:   5    -0.230844181935E+03    0.58550E-02   -0.71213E-03  4039   0.124E-01    0.653E-01
RMM:   6    -0.230841715211E+03    0.24667E-02   -0.35725E-03  4038   0.912E-02    0.354E-01
RMM:   7    -0.230841664747E+03    0.50464E-04   -0.26756E-03  4038   0.785E-02    0.288E-01
RMM:   8    -0.230840958477E+03    0.70627E-03   -0.80568E-04  4038   0.438E-02    0.853E-02
RMM:   9    -0.230840915549E+03    0.42928E-04   -0.93452E-05  4039   0.151E-02    0.514E-02
RMM:  10    -0.230840894378E+03    0.21171E-04   -0.40323E-05  4032   0.952E-03    0.337E-02
RMM:  11    -0.230840894099E+03    0.27874E-06   -0.50226E-05  4038   0.104E-02    0.282E-02
RMM:  12    -0.230840892383E+03    0.17165E-05   -0.17671E-05  4026   0.626E-03    0.129E-02
RMM:  13    -0.230840892898E+03   -0.51585E-06   -0.29503E-06  2553   0.280E-03
  25 F= -.23084089E+03 E0= -.23073330E+03  d E =-.250227E-01
       N       E                     dE             d eps       ncg     rms          rms(c)
DAV:   1    -0.230835888964E+03    0.50034E-02   -0.12215E+01  4032   0.565E+00    0.577E-01
RMM:   2    -0.230862456700E+03   -0.26568E-01   -0.22158E-01  4039   0.866E-01    0.972E-01
RMM:   3    -0.230861760285E+03    0.69642E-03   -0.17325E-02  4051   0.206E-01    0.895E-01
RMM:   4    -0.230855703708E+03    0.60566E-02   -0.43360E-03  4045   0.101E-01    0.458E-01
RMM:   5    -0.230854299227E+03    0.14045E-02   -0.17097E-03  4039   0.629E-02    0.283E-01
RMM:   6    -0.230854337709E+03   -0.38482E-04   -0.17190E-03  4038   0.613E-02    0.267E-01
RMM:   7    -0.230854080574E+03    0.25713E-03   -0.14519E-03  4038   0.570E-02    0.146E-01
RMM:   8    -0.230853924493E+03    0.15608E-03   -0.34340E-04  4038   0.286E-02    0.589E-02
RMM:   9    -0.230853905678E+03    0.18815E-04   -0.39043E-05  4041   0.981E-03    0.401E-02
RMM:  10    -0.230853893498E+03    0.12180E-04   -0.23400E-05  4032   0.720E-03    0.265E-02
RMM:  11    -0.230853893281E+03    0.21783E-06   -0.35649E-05  4032   0.852E-03    0.235E-02
RMM:  12    -0.230853892373E+03    0.90802E-06   -0.94324E-06  4007   0.464E-03
  26 F= -.23085389E+03 E0= -.23074679E+03  d E =-.129995E-01
       N       E                     dE             d eps       ncg     rms          rms(c)
DAV:   1    -0.230716193641E+03    0.13770E+00   -0.10802E+02  4032   0.168E+01    0.174E+00
RMM:   2    -0.230950727627E+03   -0.23453E+00   -0.19987E+00  4040   0.259E+00    0.274E+00
RMM:   3    -0.230956616633E+03   -0.58890E-02   -0.15323E-01  4050   0.610E-01    0.266E+00
RMM:   4    -0.230893548432E+03    0.63068E-01   -0.38252E-02  4045   0.297E-01    0.127E+00
RMM:   5    -0.230882894746E+03    0.10654E-01   -0.14463E-02  4039   0.183E-01    0.843E-01
RMM:   6    -0.230882142041E+03    0.75270E-03   -0.14928E-02  4038   0.180E-01    0.765E-01
RMM:   7    -0.230879681486E+03    0.24606E-02   -0.12139E-02  4038   0.164E-01    0.436E-01
RMM:   8    -0.230878256153E+03    0.14253E-02   -0.31363E-03  4038   0.865E-02    0.177E-01
RMM:   9    -0.230878082026E+03    0.17413E-03   -0.35884E-04  4041   0.299E-02    0.123E-01
RMM:  10    -0.230877963174E+03    0.11885E-03   -0.21533E-04  4038   0.219E-02    0.815E-02
RMM:  11    -0.230877953706E+03    0.94681E-05   -0.28675E-04  4038   0.241E-02    0.726E-02
RMM:  12    -0.230877935351E+03    0.18354E-04   -0.86083E-05  4038   0.140E-02    0.249E-02
RMM:  13    -0.230877938096E+03   -0.27442E-05   -0.14720E-05  4008   0.610E-03    0.141E-02
RMM:  14    -0.230877941143E+03   -0.30476E-05   -0.32320E-06  2766   0.296E-03    0.614E-03
RMM:  15    -0.230877946263E+03   -0.51202E-05   -0.14059E-06  2273   0.192E-03    0.516E-03
RMM:  16    -0.230877952990E+03   -0.67263E-05   -0.88344E-07  2269   0.152E-03    0.293E-03
RMM:  17    -0.230877957374E+03   -0.43844E-05   -0.37136E-07  2225   0.100E-03    0.191E-03
RMM:  18    -0.230877961919E+03   -0.45449E-05   -0.14785E-07  1942   0.575E-04    0.123E-03
RMM:  19    -0.230877966095E+03   -0.41762E-05   -0.10031E-07  1440   0.473E-04    0.746E-04
RMM:  20    -0.230877971656E+03   -0.55611E-05   -0.24259E-07  2030   0.604E-04    0.741E-04
RMM:  21    -0.230877975551E+03   -0.38949E-05   -0.10807E-07  1209   0.453E-04    0.536E-04
RMM:  22    -0.230877978399E+03   -0.28475E-05   -0.20426E-07  1865   0.521E-04    0.404E-04
RMM:  23    -0.230877979569E+03   -0.11704E-05   -0.36577E-08   770   0.312E-04    0.354E-04
RMM:  24    -0.230877980476E+03   -0.90721E-06   -0.31939E-08   810   0.352E-04
  27 F= -.23087798E+03 E0= -.23077228E+03  d E =-.370876E-01
       N       E                     dE             d eps       ncg     rms          rms(c)
DAV:   1    -0.230178781137E+03    0.69920E+00   -0.44009E+02  4032   0.340E+01    0.358E+00
RMM:   2    -0.231116725446E+03   -0.93794E+00   -0.84693E+00  4041   0.530E+00    0.479E+00
RMM:   3    -0.231239652811E+03   -0.12293E+00   -0.62295E-01  4049   0.122E+00    0.533E+00
RMM:   4    -0.230915793659E+03    0.32386E+00   -0.15383E-01  4046   0.591E-01    0.219E+00
RMM:   5    -0.230888007395E+03    0.27786E-01   -0.52861E-02  4039   0.349E-01    0.168E+00
RMM:   6    -0.230881395406E+03    0.66120E-02   -0.55459E-02  4038   0.348E-01    0.143E+00
RMM:   7    -0.230873932445E+03    0.74630E-02   -0.44155E-02  4038   0.312E-01    0.913E-01
RMM:   8    -0.230867432560E+03    0.64999E-02   -0.13906E-02  4038   0.181E-01    0.371E-01
RMM:   9    -0.230866586052E+03    0.84651E-03   -0.18489E-03  4039   0.686E-02    0.262E-01
RMM:  10    -0.230866037545E+03    0.54851E-03   -0.87987E-04  4038   0.452E-02    0.162E-01
RMM:  11    -0.230866015053E+03    0.22492E-04   -0.97596E-04  4038   0.445E-02    0.149E-01
RMM:  12    -0.230865914812E+03    0.10024E-03   -0.34299E-04  4038   0.278E-02    0.597E-02
RMM:  13    -0.230865908274E+03    0.65378E-05   -0.65243E-05  4039   0.128E-02    0.305E-02
RMM:  14    -0.230865914507E+03   -0.62331E-05   -0.16374E-05  4020   0.644E-03    0.169E-02
RMM:  15    -0.230865926568E+03   -0.12060E-04   -0.80264E-06  3853   0.423E-03    0.119E-02
RMM:  16    -0.230865938550E+03   -0.11982E-04   -0.31389E-06  2677   0.269E-03    0.571E-03
RMM:  17    -0.230865951121E+03   -0.12571E-04   -0.12764E-06  2318   0.185E-03    0.431E-03
RMM:  18    -0.230865964179E+03   -0.13058E-04   -0.52383E-07  2302   0.110E-03    0.217E-03
RMM:  19    -0.230865973919E+03   -0.97401E-05   -0.31134E-07  2257   0.723E-04    0.160E-03
RMM:  20    -0.230865986035E+03   -0.12116E-04   -0.33987E-07  2310   0.698E-04    0.118E-03
RMM:  21    -0.230865998724E+03   -0.12689E-04   -0.45320E-07  2357   0.715E-04    0.117E-03
RMM:  22    -0.230866006239E+03   -0.75152E-05   -0.28334E-07  1846   0.573E-04    0.100E-03
RMM:  23    -0.230866010437E+03   -0.41983E-05   -0.17826E-07  1557   0.501E-04    0.684E-04
RMM:  24    -0.230866013289E+03   -0.28521E-05   -0.15181E-07  1605   0.470E-04    0.393E-04
RMM:  25    -0.230866014810E+03   -0.15207E-05   -0.45456E-08   860   0.360E-04    0.235E-04
RMM:  26    -0.230866015818E+03   -0.10076E-05   -0.41822E-08   987   0.386E-04    0.176E-04
RMM:  27    -0.230866016378E+03   -0.56031E-06   -0.25397E-08   860   0.359E-04
  28 F= -.23086602E+03 E0= -.23076248E+03  d E =-.251235E-01
       N       E                     dE             d eps       ncg     rms          rms(c)
DAV:   1    -0.230603101272E+03    0.26291E+00   -0.18599E+02  4032   0.221E+01    0.209E+00
RMM:   2    -0.230920272255E+03   -0.31717E+00   -0.32737E+00  4039   0.338E+00    0.162E+00
RMM:   3    -0.230936128366E+03   -0.15856E-01   -0.19375E-01  4050   0.726E-01    0.240E+00
RMM:   4    -0.230913716180E+03    0.22412E-01   -0.40904E-02  4051   0.312E-01    0.165E+00
RMM:   5    -0.230900298365E+03    0.13418E-01   -0.25246E-02  4039   0.228E-01    0.142E+00
RMM:   6    -0.230888979032E+03    0.11319E-01   -0.26504E-02  4038   0.241E-01    0.835E-01
RMM:   7    -0.230885817546E+03    0.31615E-02   -0.19140E-02  4038   0.206E-01    0.523E-01
RMM:   8    -0.230883517537E+03    0.23000E-02   -0.36014E-03  4038   0.934E-02    0.195E-01
RMM:   9    -0.230883158900E+03    0.35864E-03   -0.48866E-04  4039   0.348E-02    0.120E-01
RMM:  10    -0.230883042242E+03    0.11666E-03   -0.33041E-04  4038   0.275E-02    0.865E-02
RMM:  11    -0.230883052224E+03   -0.99820E-05   -0.40243E-04  4038   0.289E-02    0.731E-02
RMM:  12    -0.230883036002E+03    0.16221E-04   -0.12025E-04  4038   0.164E-02    0.305E-02
RMM:  13    -0.230883036365E+03   -0.36282E-06   -0.17064E-05  4026   0.659E-03    0.155E-02
RMM:  14    -0.230883040438E+03   -0.40725E-05   -0.42116E-06  3098   0.330E-03    0.665E-03
RMM:  15    -0.230883050814E+03   -0.10376E-04   -0.29651E-06  2501   0.261E-03    0.606E-03
RMM:  16    -0.230883059687E+03   -0.88734E-05   -0.15577E-06  2332   0.205E-03    0.320E-03
RMM:  17    -0.230883065486E+03   -0.57993E-05   -0.46723E-07  2259   0.113E-03    0.202E-03
RMM:  18    -0.230883071729E+03   -0.62422E-05   -0.26577E-07  2270   0.682E-04    0.141E-03
RMM:  19    -0.230883075918E+03   -0.41899E-05   -0.12415E-07  1428   0.486E-04    0.104E-03
RMM:  20    -0.230883083811E+03   -0.78925E-05   -0.45064E-07  2330   0.781E-04    0.868E-04
RMM:  21    -0.230883089106E+03   -0.52950E-05   -0.27366E-07  1851   0.560E-04    0.711E-04
RMM:  22    -0.230883092034E+03   -0.29282E-05   -0.17343E-07  1521   0.496E-04    0.619E-04
RMM:  23    -0.230883093700E+03   -0.16657E-05   -0.12752E-07  1490   0.435E-04    0.532E-04
RMM:  24    -0.230883095260E+03   -0.15599E-05   -0.89132E-08  1068   0.417E-04    0.302E-04
RMM:  25    -0.230883095958E+03   -0.69798E-06   -0.50346E-08  1168   0.421E-04
  29 F= -.23088310E+03 E0= -.23077826E+03  d E =-.422031E-01
       N       E                     dE             d eps       ncg     rms          rms(c)
DAV:   1    -0.230875804311E+03    0.72909E-02   -0.19935E+01  4032   0.705E+00    0.665E-01
RMM:   2    -0.230910420567E+03   -0.34616E-01   -0.33471E-01  4041   0.109E+00    0.801E-01
RMM:   3    -0.230912837001E+03   -0.24164E-02   -0.23016E-02  4050   0.244E-01    0.943E-01
RMM:   4    -0.230906438176E+03    0.63988E-02   -0.57065E-03  4051   0.114E-01    0.574E-01
RMM:   5    -0.230903987208E+03    0.24510E-02   -0.25211E-03  4039   0.773E-02    0.324E-01
RMM:   6    -0.230904456675E+03   -0.46947E-03   -0.33275E-03  4038   0.863E-02    0.377E-01
RMM:   7    -0.230903609055E+03    0.84762E-03   -0.25085E-03  4038   0.752E-02    0.150E-01
RMM:   8    -0.230903467301E+03    0.14175E-03   -0.36196E-04  4038   0.300E-02    0.779E-02
RMM:   9    -0.230903419906E+03    0.47395E-04   -0.55447E-05  4040   0.117E-02    0.522E-02
RMM:  10    -0.230903395107E+03    0.24799E-04   -0.54618E-05  4032   0.108E-02    0.364E-02
RMM:  11    -0.230903391949E+03    0.31572E-05   -0.62708E-05  4039   0.113E-02    0.283E-02
RMM:  12    -0.230903388285E+03    0.36642E-05   -0.18318E-05  4026   0.635E-03    0.121E-02
RMM:  13    -0.230903387846E+03    0.43925E-06   -0.24244E-06  2440   0.264E-03
  30 F= -.23090339E+03 E0= -.23079908E+03  d E =-.202919E-01
       N       E                     dE             d eps       ncg     rms          rms(c)
DAV:   1    -0.230690843275E+03    0.21255E+00   -0.18166E+02  4032   0.213E+01    0.207E+00
RMM:   2    -0.231019417436E+03   -0.32857E+00   -0.31398E+00  4041   0.334E+00    0.251E+00
RMM:   3    -0.231041919822E+03   -0.22502E-01   -0.21417E-01  4050   0.740E-01    0.284E+00
RMM:   4    -0.230973679355E+03    0.68240E-01   -0.53408E-02  4049   0.348E-01    0.166E+00
RMM:   5    -0.230953442572E+03    0.20237E-01   -0.23141E-02  4039   0.235E-01    0.101E+00
RMM:   6    -0.230956356899E+03   -0.29143E-02   -0.29787E-02  4038   0.258E-01    0.113E+00
RMM:   7    -0.230947983060E+03    0.83738E-02   -0.22797E-02  4038   0.227E-01    0.441E-01
RMM:   8    -0.230946685017E+03    0.12980E-02   -0.34074E-03  4038   0.914E-02    0.249E-01
RMM:   9    -0.230946179325E+03    0.50569E-03   -0.58616E-04  4039   0.383E-02    0.157E-01
RMM:  10    -0.230945980227E+03    0.19910E-03   -0.51825E-04  4038   0.332E-02    0.116E-01
RMM:  11    -0.230945946568E+03    0.33659E-04   -0.51237E-04  4038   0.324E-02    0.918E-02
RMM:  12    -0.230945904378E+03    0.42189E-04   -0.17746E-04  4039   0.197E-02    0.400E-02
RMM:  13    -0.230945897129E+03    0.72491E-05   -0.27128E-05  4026   0.829E-03    0.200E-02
RMM:  14    -0.230945898124E+03   -0.99418E-06   -0.65561E-06  3805   0.394E-03
  31 F= -.23094590E+03 E0= -.23084282E+03  d E =-.628022E-01
       N       E                     dE             d eps       ncg     rms          rms(c)
DAV:   1    -0.229801217674E+03    0.11447E+01   -0.75549E+02  4032   0.437E+01    0.450E+00
RMM:   2    -0.231314093767E+03   -0.15129E+01   -0.14053E+01  4042   0.704E+00    0.562E+00
RMM:   3    -0.231409661641E+03   -0.95568E-01   -0.96514E-01  4046   0.155E+00    0.586E+00
RMM:   4    -0.231040635462E+03    0.36903E+00   -0.25136E-01  4050   0.748E-01    0.319E+00
RMM:   5    -0.230969922264E+03    0.70713E-01   -0.97179E-02  4039   0.488E-01    0.215E+00
RMM:   6    -0.230974136800E+03   -0.42145E-02   -0.11225E-01  4038   0.499E-01    0.224E+00
RMM:   7    -0.230940351207E+03    0.33786E-01   -0.85001E-02  4038   0.439E-01    0.886E-01
RMM:   8    -0.230936515552E+03    0.38357E-02   -0.17574E-02  4038   0.204E-01    0.621E-01
RMM:   9    -0.230933309441E+03    0.32061E-02   -0.42873E-03  4038   0.104E-01    0.335E-01
RMM:  10    -0.230932681602E+03    0.62784E-03   -0.18585E-03  4038   0.645E-02    0.252E-01
RMM:  11    -0.230932497855E+03    0.18375E-03   -0.15833E-03  4038   0.582E-02    0.198E-01
RMM:  12    -0.230932324822E+03    0.17303E-03   -0.89181E-04  4038   0.439E-02    0.102E-01
RMM:  13    -0.230932253271E+03    0.71551E-04   -0.14749E-04  4038   0.189E-02    0.504E-02
RMM:  14    -0.230932249711E+03    0.35593E-05   -0.31183E-05  4033   0.863E-03    0.250E-02
RMM:  15    -0.230932263114E+03   -0.13403E-04   -0.19254E-05  4032   0.642E-03    0.167E-02
RMM:  16    -0.230932279954E+03   -0.16840E-04   -0.83803E-06  3866   0.406E-03    0.909E-03
RMM:  17    -0.230932296071E+03   -0.16117E-04   -0.19189E-06  2378   0.216E-03    0.673E-03
RMM:  18    -0.230932311571E+03   -0.15501E-04   -0.72047E-07  2290   0.133E-03    0.301E-03
RMM:  19    -0.230932326717E+03   -0.15146E-04   -0.42209E-07  2294   0.888E-04    0.207E-03
RMM:  20    -0.230932344848E+03   -0.18131E-04   -0.48308E-07  2327   0.885E-04    0.197E-03
RMM:  21    -0.230932364312E+03   -0.19464E-04   -0.61156E-07  2363   0.895E-04    0.161E-03
RMM:  22    -0.230932376863E+03   -0.12551E-04   -0.46678E-07  2316   0.756E-04    0.174E-03
RMM:  23    -0.230932384827E+03   -0.79639E-05   -0.32335E-07  2049   0.637E-04    0.125E-03
RMM:  24    -0.230932389207E+03   -0.43800E-05   -0.17639E-07  1549   0.522E-04    0.647E-04
RMM:  25    -0.230932391949E+03   -0.27419E-05   -0.13382E-07  1721   0.487E-04    0.458E-04
RMM:  26    -0.230932393685E+03   -0.17359E-05   -0.43416E-08   963   0.353E-04    0.377E-04
RMM:  27    -0.230932394782E+03   -0.10975E-05   -0.20384E-08   823   0.354E-04    0.375E-04
RMM:  28    -0.230932395681E+03   -0.89905E-06   -0.19223E-08   852   0.379E-04
  32 F= -.23093240E+03 E0= -.23082966E+03  d E =-.492997E-01
       N       E                     dE             d eps       ncg     rms          rms(c)
DAV:   1    -0.230566327395E+03    0.36607E+00   -0.27777E+02  4032   0.263E+01    0.244E+00
RMM:   2    -0.231021817470E+03   -0.45549E+00   -0.46931E+00  4043   0.413E+00    0.246E+00
RMM:   3    -0.231034881876E+03   -0.13064E-01   -0.28338E-01  4049   0.891E-01    0.254E+00
RMM:   4    -0.231035275353E+03   -0.39348E-03   -0.79057E-02  4052   0.419E-01    0.272E+00
RMM:   5    -0.230974362324E+03    0.60913E-01   -0.44009E-02  4039   0.311E-01    0.142E+00
RMM:   6    -0.230969031420E+03    0.53309E-02   -0.49546E-02  4038   0.332E-01    0.115E+00
RMM:   7    -0.230960700407E+03    0.83310E-02   -0.30268E-02  4038   0.264E-01    0.523E-01
RMM:   8    -0.230959187985E+03    0.15124E-02   -0.40869E-03  4038   0.971E-02    0.354E-01
RMM:   9    -0.230958231312E+03    0.95667E-03   -0.79912E-04  4039   0.447E-02    0.182E-01
RMM:  10    -0.230957964002E+03    0.26731E-03   -0.97740E-04  4038   0.453E-02    0.141E-01
RMM:  11    -0.230957863519E+03    0.10048E-03   -0.98697E-04  4038   0.449E-02    0.928E-02
RMM:  12    -0.230957838861E+03    0.24658E-04   -0.21860E-04  4038   0.220E-02    0.463E-02
RMM:  13    -0.230957828490E+03    0.10372E-04   -0.37769E-05  4028   0.979E-03    0.236E-02
RMM:  14    -0.230957829311E+03   -0.82112E-06   -0.10265E-05  3999   0.498E-03    0.104E-02
RMM:  15    -0.230957839317E+03   -0.10007E-04   -0.62474E-06  3594   0.355E-03    0.991E-03
RMM:  16    -0.230957849768E+03   -0.10451E-04   -0.29761E-06  2558   0.258E-03    0.427E-03
RMM:  17    -0.230957855578E+03   -0.58091E-05   -0.76818E-07  2288   0.149E-03    0.283E-03
RMM:  18    -0.230957862076E+03   -0.64986E-05   -0.38030E-07  2281   0.891E-04    0.157E-03
RMM:  19    -0.230957867090E+03   -0.50138E-05   -0.25594E-07  2198   0.660E-04    0.122E-03
RMM:  20    -0.230957874725E+03   -0.76353E-05   -0.35465E-07  2308   0.717E-04    0.121E-03
RMM:  21    -0.230957881327E+03   -0.66020E-05   -0.39101E-07  2256   0.685E-04    0.105E-03
RMM:  22    -0.230957885027E+03   -0.36999E-05   -0.21718E-07  1610   0.535E-04    0.974E-04
RMM:  23    -0.230957887529E+03   -0.25018E-05   -0.20389E-07  1854   0.560E-04    0.789E-04
RMM:  24    -0.230957889640E+03   -0.21111E-05   -0.16223E-07  1591   0.522E-04    0.451E-04
RMM:  25    -0.230957890304E+03   -0.66380E-06   -0.46957E-08  1105   0.390E-04
  33 F= -.23095789E+03 E0= -.23085532E+03  d E =-.747943E-01
       N       E                     dE             d eps       ncg     rms          rms(c)
DAV:   1    -0.230880469392E+03    0.77420E-01   -0.76853E+01  4032   0.141E+01    0.146E+00
RMM:   2    -0.231011944051E+03   -0.13147E+00   -0.13741E+00  4040   0.216E+00    0.115E+00
RMM:   3    -0.231010606782E+03    0.13373E-02   -0.78247E-02  4048   0.465E-01    0.138E+00
RMM:   4    -0.230999647840E+03    0.10959E-01   -0.16705E-02  4052   0.206E-01    0.892E-01
RMM:   5    -0.231001760367E+03   -0.21125E-02   -0.88104E-03  4044   0.132E-01    0.942E-01
RMM:   6    -0.230997482507E+03    0.42779E-02   -0.11926E-02  4038   0.161E-01    0.761E-01
RMM:   7    -0.230993339502E+03    0.41430E-02   -0.72423E-03  4038   0.130E-01    0.294E-01
RMM:   8    -0.230992666234E+03    0.67327E-03   -0.12019E-03  4038   0.543E-02    0.143E-01
RMM:   9    -0.230992503384E+03    0.16285E-03   -0.24603E-04  4038   0.242E-02    0.896E-02
RMM:  10    -0.230992435691E+03    0.67693E-04   -0.18718E-04  4039   0.200E-02    0.502E-02
RMM:  11    -0.230992446443E+03   -0.10752E-04   -0.13475E-04  4038   0.166E-02    0.461E-02
RMM:  12    -0.230992434601E+03    0.11842E-04   -0.36226E-05  4032   0.906E-03    0.166E-02
RMM:  13    -0.230992435490E+03   -0.88863E-06   -0.60803E-06  3479   0.394E-03
  34 F= -.23099244E+03 E0= -.23088968E+03  d E =-.345452E-01
       N       E                     dE             d eps       ncg     rms          rms(c)
DAV:   1    -0.230608633051E+03    0.38380E+00   -0.26849E+02  4032   0.264E+01    0.281E+00
RMM:   2    -0.231083549121E+03   -0.47492E+00   -0.49319E+00  4039   0.408E+00    0.222E+00
RMM:   3    -0.231077157561E+03    0.63916E-02   -0.27963E-01  4048   0.876E-01    0.272E+00
RMM:   4    -0.231037288019E+03    0.39870E-01   -0.56810E-02  4052   0.380E-01    0.156E+00
RMM:   5    -0.231070024937E+03   -0.32737E-01   -0.45290E-02  4039   0.306E-01    0.239E+00
RMM:   6    -0.231020382241E+03    0.49643E-01   -0.40145E-02  4038   0.285E-01    0.103E+00
RMM:   7    -0.231015134524E+03    0.52477E-02   -0.25768E-02  4037   0.244E-01    0.633E-01
RMM:   8    -0.231011848036E+03    0.32865E-02   -0.44041E-03  4037   0.104E-01    0.313E-01
RMM:   9    -0.231011118241E+03    0.72980E-03   -0.99214E-04  4038   0.482E-02    0.199E-01
RMM:  10    -0.231010806131E+03    0.31211E-03   -0.77305E-04  4038   0.401E-02    0.106E-01
RMM:  11    -0.231010833927E+03   -0.27796E-04   -0.47244E-04  4039   0.312E-02    0.962E-02
RMM:  12    -0.231010785820E+03    0.48107E-04   -0.13974E-04  4038   0.178E-02    0.396E-02
RMM:  13    -0.231010784440E+03    0.13801E-05   -0.27838E-05  4032   0.829E-03    0.256E-02
RMM:  14    -0.231010786789E+03   -0.23496E-05   -0.97735E-06  3968   0.484E-03    0.115E-02
RMM:  15    -0.231010794880E+03   -0.80913E-05   -0.44356E-06  3141   0.315E-03    0.778E-03
RMM:  16    -0.231010805561E+03   -0.10681E-04   -0.21153E-06  2358   0.226E-03    0.423E-03
RMM:  17    -0.231010810430E+03   -0.48694E-05   -0.57108E-07  2238   0.131E-03    0.191E-03
RMM:  18    -0.231010817100E+03   -0.66697E-05   -0.21370E-07  2250   0.677E-04    0.137E-03
RMM:  19    -0.231010823757E+03   -0.66569E-05   -0.16898E-07  1910   0.555E-04    0.114E-03
RMM:  20    -0.231010831570E+03   -0.78133E-05   -0.25620E-07  2277   0.638E-04    0.121E-03
RMM:  21    -0.231010837095E+03   -0.55244E-05   -0.13875E-07  1294   0.475E-04    0.874E-04
RMM:  22    -0.231010840528E+03   -0.34334E-05   -0.17922E-07  1895   0.541E-04    0.737E-04
RMM:  23    -0.231010843191E+03   -0.26631E-05   -0.11182E-07  1189   0.413E-04    0.567E-04
RMM:  24    -0.231010845046E+03   -0.18545E-05   -0.98571E-08  1419   0.459E-04    0.404E-04
RMM:  25    -0.231010845780E+03   -0.73423E-06   -0.68685E-08  1248   0.368E-04
  35 F= -.23101085E+03 E0= -.23090703E+03  d E =-.529555E-01
       N       E                     dE             d eps       ncg     rms          rms(c)
DAV:   1    -0.230882971322E+03    0.12787E+00   -0.11722E+02  4032   0.171E+01    0.163E+00
RMM:   2    -0.231080947757E+03   -0.19798E+00   -0.19367E+00  4039   0.262E+00    0.173E+00
RMM:   3    -0.231132569526E+03   -0.51622E-01   -0.13269E-01  4048   0.579E-01    0.285E+00
RMM:   4    -0.231051580876E+03    0.80989E-01   -0.34305E-02  4044   0.282E-01    0.102E+00
RMM:   5    -0.231046178915E+03    0.54020E-02   -0.14163E-02  4039   0.180E-01    0.832E-01
RMM:   6    -0.231046218679E+03   -0.39764E-04   -0.18343E-02  4038   0.199E-01    0.811E-01
RMM:   7    -0.231041835044E+03    0.43836E-02   -0.10976E-02  4038   0.158E-01    0.330E-01
RMM:   8    -0.231040912651E+03    0.92239E-03   -0.18563E-03  4038   0.669E-02    0.158E-01
RMM:   9    -0.231040662304E+03    0.25035E-03   -0.39930E-04  4038   0.305E-02    0.910E-02
RMM:  10    -0.231040610737E+03    0.51567E-04   -0.31232E-04  4039   0.257E-02    0.594E-02
RMM:  11    -0.231040639927E+03   -0.29190E-04   -0.17979E-04  4038   0.192E-02    0.548E-02
RMM:  12    -0.231040621603E+03    0.18324E-04   -0.41572E-05  4032   0.987E-03    0.212E-02
RMM:  13    -0.231040626882E+03   -0.52791E-05   -0.79755E-06  3764   0.441E-03    0.131E-02
RMM:  14    -0.231040631461E+03   -0.45785E-05   -0.30634E-06  2712   0.277E-03    0.616E-03
RMM:  15    -0.231040639930E+03   -0.84691E-05   -0.16970E-06  2304   0.204E-03    0.574E-03
RMM:  16    -0.231040647414E+03   -0.74842E-05   -0.90895E-07  2262   0.150E-03    0.273E-03
RMM:  17    -0.231040652547E+03   -0.51333E-05   -0.27293E-07  2218   0.810E-04    0.186E-03
RMM:  18    -0.231040660140E+03   -0.75931E-05   -0.23126E-07  2141   0.629E-04    0.109E-03
RMM:  19    -0.231040665524E+03   -0.53841E-05   -0.13709E-07  1561   0.512E-04    0.925E-04
RMM:  20    -0.231040673764E+03   -0.82400E-05   -0.34903E-07  2214   0.683E-04    0.870E-04
RMM:  21    -0.231040677901E+03   -0.41370E-05   -0.15852E-07  1332   0.487E-04    0.718E-04
RMM:  22    -0.231040680105E+03   -0.22038E-05   -0.15586E-07  1764   0.491E-04    0.665E-04
RMM:  23    -0.231040681595E+03   -0.14894E-05   -0.70597E-08  1072   0.354E-04    0.477E-04
RMM:  24    -0.231040682701E+03   -0.11064E-05   -0.34826E-08   794   0.360E-04    0.265E-04
RMM:  25    -0.231040683282E+03   -0.58053E-06   -0.23611E-08   773   0.386E-04
  36 F= -.23104068E+03 E0= -.23093567E+03  d E =-.298375E-01
       N       E                     dE             d eps       ncg     rms          rms(c)
DAV:   1    -0.231004293178E+03    0.36390E-01   -0.30375E+01  4032   0.868E+00    0.820E-01
RMM:   2    -0.231052871742E+03   -0.48579E-01   -0.49312E-01  4039   0.133E+00    0.769E-01
RMM:   3    -0.231066460941E+03   -0.13589E-01   -0.32488E-02  4048   0.290E-01    0.144E+00
RMM:   4    -0.231047417915E+03    0.19043E-01   -0.82498E-03  4046   0.139E-01    0.544E-01
RMM:   5    -0.231046115304E+03    0.13026E-02   -0.38449E-03  4038   0.933E-02    0.448E-01
RMM:   6    -0.231045924869E+03    0.19044E-03   -0.48515E-03  4038   0.102E-01    0.408E-01
RMM:   7    -0.231044839275E+03    0.10856E-02   -0.29672E-03  4038   0.820E-02    0.163E-01
RMM:   8    -0.231044617338E+03    0.22194E-03   -0.43805E-04  4038   0.325E-02    0.799E-02
RMM:   9    -0.231044557683E+03    0.59655E-04   -0.88308E-05  4038   0.143E-02    0.482E-02
RMM:  10    -0.231044544881E+03    0.12802E-04   -0.94449E-05  4026   0.139E-02    0.339E-02
RMM:  11    -0.231044552329E+03   -0.74473E-05   -0.57277E-05  4032   0.108E-02    0.311E-02
RMM:  12    -0.231044547255E+03    0.50734E-05   -0.11784E-05  3999   0.525E-03    0.109E-02
RMM:  13    -0.231044549758E+03   -0.25029E-05   -0.22950E-06  2459   0.251E-03    0.770E-03
RMM:  14    -0.231044551147E+03   -0.13891E-05   -0.81885E-07  2217   0.156E-03    0.342E-03
RMM:  15    -0.231044554052E+03   -0.29047E-05   -0.53168E-07  2225   0.112E-03    0.282E-03
RMM:  16    -0.231044557338E+03   -0.32859E-05   -0.30636E-07  2232   0.833E-04    0.137E-03
RMM:  17    -0.231044559092E+03   -0.17544E-05   -0.72038E-08  1381   0.469E-04    0.876E-04
RMM:  18    -0.231044561657E+03   -0.25652E-05   -0.54249E-08  1166   0.431E-04    0.607E-04
RMM:  19    -0.231044563726E+03   -0.20689E-05   -0.11832E-07  1683   0.470E-04    0.517E-04
RMM:  20    -0.231044566240E+03   -0.25135E-05   -0.88539E-08  1224   0.420E-04    0.470E-04
RMM:  21    -0.231044567593E+03   -0.13530E-05   -0.76621E-08  1106   0.401E-04    0.362E-04
RMM:  22    -0.231044568503E+03   -0.91000E-06   -0.83768E-08  1249   0.407E-04
  37 F= -.23104457E+03 E0= -.23093886E+03  d E =-.337227E-01
       N       E                     dE             d eps       ncg     rms          rms(c)
DAV:   1    -0.231054522283E+03   -0.99547E-02   -0.11639E+01  4080   0.553E+00    0.665E-01
RMM:   2    -0.231083785666E+03   -0.29263E-01   -0.22183E-01  4043   0.849E-01    0.112E+00
RMM:   3    -0.231076260415E+03    0.75253E-02   -0.14438E-02  4047   0.187E-01    0.623E-01
RMM:   4    -0.231078544562E+03   -0.22841E-02   -0.67764E-03  4043   0.124E-01    0.791E-01
RMM:   5    -0.231074114097E+03    0.44305E-02   -0.43188E-03  4038   0.100E-01    0.479E-01
RMM:   6    -0.231073515804E+03    0.59829E-03   -0.25080E-03  4038   0.771E-02    0.308E-01
RMM:   7    -0.231072828539E+03    0.68727E-03   -0.12782E-03  4038   0.554E-02    0.108E-01
RMM:   8    -0.231072745191E+03    0.83348E-04   -0.18998E-04  4038   0.218E-02    0.520E-02
RMM:   9    -0.231072721217E+03    0.23973E-04   -0.37706E-05  4039   0.930E-03    0.340E-02
RMM:  10    -0.231072712268E+03    0.89494E-05   -0.29943E-05  4032   0.807E-03    0.245E-02
RMM:  11    -0.231072709216E+03    0.30522E-05   -0.25965E-05  4028   0.749E-03    0.158E-02
RMM:  12    -0.231072708262E+03    0.95341E-06   -0.50152E-06  3247   0.346E-03
  38 F= -.23107271E+03 E0= -.23096663E+03  d E =-.281398E-01
       N       E                     dE             d eps       ncg     rms          rms(c)
DAV:   1    -0.231057319415E+03    0.15390E-01   -0.17738E+01  4032   0.682E+00    0.834E-01
[...]
RMM:   6    -0.232237046058E+03   -0.36126E-04   -0.15921E-04  4038   0.191E-02    0.953E-02
RMM:   7    -0.232236994680E+03    0.51378E-04   -0.11802E-04  4036   0.166E-02    0.388E-02
RMM:   8    -0.232236988807E+03    0.58726E-05   -0.26580E-05  4032   0.815E-03    0.194E-02
RMM:   9    -0.232236985822E+03    0.29850E-05   -0.42053E-06  2999   0.329E-03    0.121E-02
RMM:  10    -0.232236984524E+03    0.12982E-05   -0.16939E-06  2185   0.220E-03    0.771E-03
RMM:  11    -0.232236984212E+03    0.31164E-06   -0.19887E-06  2194   0.236E-03
 219 F= -.23223698E+03 E0= -.23213267E+03  d E =-.112688E-02
       N       E                     dE             d eps       ncg     rms          rms(c)
DAV:   1    -0.232235607008E+03    0.13775E-02   -0.94145E-01  4032   0.171E+00    0.164E-01
RMM:   2    -0.232237675939E+03   -0.20689E-02   -0.21265E-02  4040   0.244E-01    0.131E-01
RMM:   3    -0.232238032389E+03   -0.35645E-03   -0.11102E-03  4040   0.526E-02    0.244E-01
RMM:   4    -0.232237568101E+03    0.46429E-03   -0.35482E-04  4043   0.278E-02    0.142E-01
RMM:   5    -0.232237405333E+03    0.16277E-03   -0.11945E-04  4039   0.171E-02    0.630E-02
RMM:   6    -0.232237429425E+03   -0.24092E-04   -0.98329E-05  4038   0.150E-02    0.741E-02
RMM:   7    -0.232237398788E+03    0.30637E-04   -0.71147E-05  4033   0.129E-02    0.308E-02
RMM:   8    -0.232237394869E+03    0.39195E-05   -0.15949E-05  4014   0.631E-03    0.149E-02
RMM:   9    -0.232237393123E+03    0.17463E-05   -0.23311E-06  2466   0.252E-03    0.922E-03
RMM:  10    -0.232237392505E+03    0.61769E-06   -0.10389E-06  2152   0.178E-03
 220 F= -.23223739E+03 E0= -.23213314E+03  d E =-.153517E-02
       N       E                     dE             d eps       ncg     rms          rms(c)
DAV:   1    -0.232237107032E+03    0.28609E-03   -0.17334E-01  4056   0.736E-01    0.716E-02
RMM:   2    -0.232237488917E+03   -0.38189E-03   -0.39419E-03  4040   0.105E-01    0.561E-02
RMM:   3    -0.232237554566E+03   -0.65649E-04   -0.21144E-04  4040   0.230E-02    0.105E-01
RMM:   4    -0.232237473186E+03    0.81380E-04   -0.66960E-05  4042   0.121E-02    0.636E-02
RMM:   5    -0.232237440969E+03    0.32217E-04   -0.25509E-05  4031   0.786E-03    0.277E-02
RMM:   6    -0.232237445776E+03   -0.48075E-05   -0.19239E-05  4032   0.672E-03    0.302E-02
RMM:   7    -0.232237439965E+03    0.58106E-05   -0.13514E-05  4032   0.563E-03    0.975E-03
RMM:   8    -0.232237439854E+03    0.11118E-06   -0.17822E-06  2298   0.223E-03
 221 F= -.23223744E+03 E0= -.23213322E+03  d E =-.158252E-02
       N       E                     dE             d eps       ncg     rms          rms(c)
DAV:   1    -0.232235901956E+03    0.15380E-02   -0.13352E+00  4032   0.204E+00    0.205E-01
RMM:   2    -0.232238904759E+03   -0.30028E-02   -0.30575E-02  4040   0.292E-01    0.179E-01
RMM:   3    -0.232238868898E+03    0.35861E-04   -0.17205E-03  4040   0.657E-02    0.213E-01
RMM:   4    -0.232238712176E+03    0.15672E-03   -0.41427E-04  4045   0.315E-02    0.162E-01
RMM:   5    -0.232238571115E+03    0.14106E-03   -0.18611E-04  4039   0.197E-02    0.127E-01
RMM:   6    -0.232238498561E+03    0.72554E-04   -0.12614E-04  4038   0.166E-02    0.762E-02
RMM:   7    -0.232238476523E+03    0.22038E-04   -0.11705E-04  4036   0.167E-02    0.446E-02
RMM:   8    -0.232238463779E+03    0.12744E-04   -0.34606E-05  4032   0.919E-03    0.207E-02
RMM:   9    -0.232238460220E+03    0.35589E-05   -0.50310E-06  3210   0.352E-03    0.113E-02
RMM:  10    -0.232238459181E+03    0.10394E-05   -0.15290E-06  2186   0.211E-03    0.716E-03
RMM:  11    -0.232238458878E+03    0.30312E-06   -0.14107E-06  2176   0.200E-03
 222 F= -.23223846E+03 E0= -.23213433E+03  d E =-.101902E-02
       N       E                     dE             d eps       ncg     rms          rms(c)
DAV:   1    -0.232236639167E+03    0.18200E-02   -0.11185E+00  4032   0.187E+00    0.187E-01
RMM:   2    -0.232239164983E+03   -0.25258E-02   -0.25625E-02  4040   0.268E-01    0.168E-01
RMM:   3    -0.232239105969E+03    0.59014E-04   -0.14409E-03  4040   0.602E-02    0.192E-01
RMM:   4    -0.232238951326E+03    0.15464E-03   -0.33467E-04  4044   0.287E-02    0.137E-01
RMM:   5    -0.232238889534E+03    0.61792E-04   -0.14870E-04  4039   0.176E-02    0.122E-01
RMM:   6    -0.232238812469E+03    0.77065E-04   -0.10878E-04  4038   0.153E-02    0.704E-02
RMM:   7    -0.232238793172E+03    0.19296E-04   -0.10059E-04  4033   0.155E-02    0.405E-02
RMM:   8    -0.232238782147E+03    0.11026E-04   -0.28238E-05  4032   0.829E-03    0.182E-02
RMM:   9    -0.232238779381E+03    0.27657E-05   -0.38372E-06  2862   0.311E-03    0.102E-02
RMM:  10    -0.232238778552E+03    0.82880E-06   -0.13272E-06  2171   0.200E-03
 223 F= -.23223878E+03 E0= -.23213472E+03  d E =-.133870E-02
       N       E                     dE             d eps       ncg     rms          rms(c)
DAV:   1    -0.232236309232E+03    0.24701E-02   -0.15297E+00  4032   0.226E+00    0.245E-01
RMM:   2    -0.232240118668E+03   -0.38094E-02   -0.38427E-02  4039   0.319E-01    0.218E-01
RMM:   3    -0.232240428900E+03   -0.31023E-03   -0.21210E-03  4040   0.731E-02    0.309E-01
RMM:   4    -0.232240353820E+03    0.75080E-04   -0.85645E-04  4041   0.428E-02    0.294E-01
RMM:   5    -0.232239515072E+03    0.83875E-03   -0.30893E-04  4039   0.263E-02    0.954E-02
RMM:   6    -0.232239575980E+03   -0.60909E-04   -0.19649E-04  4038   0.209E-02    0.104E-01
RMM:   7    -0.232239501734E+03    0.74246E-04   -0.13488E-04  4037   0.181E-02    0.456E-02
RMM:   8    -0.232239494145E+03    0.75890E-05   -0.28193E-05  4026   0.817E-03    0.261E-02
RMM:   9    -0.232239489486E+03    0.46590E-05   -0.50748E-06  3330   0.358E-03    0.119E-02
RMM:  10    -0.232239488414E+03    0.10724E-05   -0.18284E-06  2282   0.222E-03    0.777E-03
RMM:  11    -0.232239488213E+03    0.20041E-06   -0.19294E-06  2228   0.231E-03
 224 F= -.23223949E+03 E0= -.23213544E+03  d E =-.709661E-03
       N       E                     dE             d eps       ncg     rms          rms(c)
DAV:   1    -0.232239368966E+03    0.11945E-03   -0.73326E-02  4104   0.495E-01    0.539E-02
RMM:   2    -0.232239553344E+03   -0.18438E-03   -0.18535E-03  4039   0.701E-02    0.507E-02
RMM:   3    -0.232239577045E+03   -0.23701E-04   -0.10471E-04  4040   0.162E-02    0.751E-02
RMM:   4    -0.232239560092E+03    0.16953E-04   -0.44244E-05  4041   0.968E-03    0.634E-02
RMM:   5    -0.232239522167E+03    0.37925E-04   -0.16264E-05  4027   0.609E-03    0.218E-02
RMM:   6    -0.232239525845E+03   -0.36784E-05   -0.10134E-05  4021   0.478E-03    0.236E-02
RMM:   7    -0.232239522070E+03    0.37752E-05   -0.69207E-06  3784   0.413E-03    0.115E-02
RMM:   8    -0.232239521325E+03    0.74465E-06   -0.15015E-06  2248   0.202E-03
 225 F= -.23223952E+03 E0= -.23213547E+03  d E =-.742773E-03
       N       E                     dE             d eps       ncg     rms          rms(c)
DAV:   1    -0.232239033982E+03    0.48809E-03   -0.48816E-01  4032   0.127E+00    0.128E-01
RMM:   2    -0.232240272523E+03   -0.12385E-02   -0.11991E-02  4039   0.178E-01    0.136E-01
RMM:   3    -0.232240465670E+03   -0.19315E-03   -0.71929E-04  4040   0.416E-02    0.198E-01
RMM:   4    -0.232240202469E+03    0.26320E-03   -0.26699E-04  4039   0.238E-02    0.140E-01
RMM:   5    -0.232240037489E+03    0.16498E-03   -0.92947E-05  4039   0.151E-02    0.520E-02
RMM:   6    -0.232240052092E+03   -0.14603E-04   -0.50726E-05  4034   0.109E-02    0.530E-02
RMM:   7    -0.232240038911E+03    0.13181E-04   -0.40379E-05  4035   0.983E-03    0.259E-02
RMM:   8    -0.232240035148E+03    0.37630E-05   -0.98053E-06  3977   0.473E-03    0.123E-02
RMM:   9    -0.232240033876E+03    0.12721E-05   -0.17709E-06  2280   0.218E-03    0.630E-03
RMM:  10    -0.232240033573E+03    0.30291E-06   -0.65889E-07  2131   0.144E-03
 226 F= -.23224003E+03 E0= -.23213605E+03  d E =-.512247E-03
       N       E                     dE             d eps       ncg     rms          rms(c)
DAV:   1    -0.232239237298E+03    0.79658E-03   -0.50795E-01  4032   0.130E+00    0.130E-01
RMM:   2    -0.232240514622E+03   -0.12773E-02   -0.12498E-02  4039   0.182E-01    0.135E-01
RMM:   3    -0.232240686344E+03   -0.17172E-03   -0.73576E-04  4040   0.423E-02    0.193E-01
RMM:   4    -0.232240477095E+03    0.20925E-03   -0.27320E-04  4039   0.240E-02    0.149E-01
RMM:   5    -0.232240283220E+03    0.19388E-03   -0.99663E-05  4039   0.155E-02    0.532E-02
RMM:   6    -0.232240299277E+03   -0.16057E-04   -0.53962E-05  4036   0.113E-02    0.541E-02
RMM:   7    -0.232240284703E+03    0.14574E-04   -0.42732E-05  4034   0.101E-02    0.252E-02
RMM:   8    -0.232240281437E+03    0.32659E-05   -0.97309E-06  3978   0.473E-03    0.129E-02
RMM:   9    -0.232240280055E+03    0.13824E-05   -0.18489E-06  2319   0.223E-03    0.649E-03
RMM:  10    -0.232240279790E+03    0.26543E-06   -0.68738E-07  2137   0.147E-03
 227 F= -.23224028E+03 E0= -.23213637E+03  d E =-.758464E-03
       N       E                     dE             d eps       ncg     rms          rms(c)
DAV:   1    -0.232239418986E+03    0.86107E-03   -0.63718E-01  4032   0.147E+00    0.161E-01
RMM:   2    -0.232241012549E+03   -0.15936E-02   -0.16107E-02  4040   0.206E-01    0.146E-01
RMM:   3    -0.232241271663E+03   -0.25911E-03   -0.90713E-04  4040   0.469E-02    0.221E-01
RMM:   4    -0.232241094689E+03    0.17697E-03   -0.39428E-04  4041   0.285E-02    0.184E-01
RMM:   5    -0.232240790117E+03    0.30457E-03   -0.16588E-04  4039   0.195E-02    0.837E-02
RMM:   6    -0.232240791065E+03   -0.94788E-06   -0.86762E-05  4038   0.140E-02    0.657E-02
RMM:   7    -0.232240769329E+03    0.21736E-04   -0.56226E-05  4032   0.117E-02    0.342E-02
RMM:   8    -0.232240762231E+03    0.70985E-05   -0.14470E-05  4026   0.592E-03    0.138E-02
RMM:   9    -0.232240761017E+03    0.12133E-05   -0.21237E-06  2405   0.237E-03    0.792E-03
RMM:  10    -0.232240760557E+03    0.46071E-06   -0.90300E-07  2161   0.169E-03
 228 F= -.23224076E+03 E0= -.23213694E+03  d E =-.480767E-03
       N       E                     dE             d eps       ncg     rms          rms(c)
DAV:   1    -0.232240614357E+03    0.14666E-03   -0.93852E-02  4056   0.563E-01    0.625E-02
RMM:   2    -0.232240847881E+03   -0.23352E-03   -0.23877E-03  4040   0.791E-02    0.538E-02
RMM:   3    -0.232240891793E+03   -0.43913E-04   -0.13507E-04  4040   0.181E-02    0.870E-02
RMM:   4    -0.232240859333E+03    0.32460E-04   -0.57945E-05  4037   0.110E-02    0.689E-02
RMM:   5    -0.232240818180E+03    0.41153E-04   -0.24658E-05  4031   0.753E-03    0.324E-02
RMM:   6    -0.232240818369E+03   -0.18878E-06   -0.12971E-05  4026   0.545E-03    0.249E-02
RMM:   7    -0.232240815110E+03    0.32591E-05   -0.82645E-06  3973   0.447E-03    0.118E-02
RMM:   8    -0.232240814403E+03    0.70611E-06   -0.17565E-06  2322   0.218E-03
 229 F= -.23224081E+03 E0= -.23213703E+03  d E =-.534614E-03
       N       E                     dE             d eps       ncg     rms          rms(c)
DAV:   1    -0.232239686108E+03    0.11290E-02   -0.70370E-01  4032   0.155E+00    0.158E-01
RMM:   2    -0.232241379020E+03   -0.16929E-02   -0.17758E-02  4039   0.215E-01    0.104E-01
RMM:   3    -0.232241364037E+03    0.14983E-04   -0.77880E-04  4040   0.446E-02    0.143E-01
RMM:   4    -0.232241330620E+03    0.33418E-04   -0.21942E-04  4043   0.228E-02    0.131E-01
RMM:   5    -0.232241206516E+03    0.12410E-03   -0.83145E-05  4039   0.132E-02    0.662E-02
RMM:   6    -0.232241204918E+03    0.15971E-05   -0.73277E-05  4038   0.132E-02    0.588E-02
RMM:   7    -0.232241186996E+03    0.17923E-04   -0.51420E-05  4032   0.111E-02    0.340E-02
RMM:   8    -0.232241178980E+03    0.80160E-05   -0.14809E-05  4024   0.605E-03    0.109E-02
RMM:   9    -0.232241178323E+03    0.65707E-06   -0.16883E-06  2308   0.215E-03
 230 F= -.23224118E+03 E0= -.23213745E+03  d E =-.363919E-03
       N       E                     dE             d eps       ncg     rms          rms(c)
DAV:   1    -0.232240928063E+03    0.25092E-03   -0.13645E-01  4032   0.682E-01    0.708E-02
RMM:   2    -0.232241258049E+03   -0.32999E-03   -0.34754E-03  4039   0.949E-02    0.459E-02
RMM:   3    -0.232241255288E+03    0.27616E-05   -0.15435E-04  4040   0.199E-02    0.631E-02
RMM:   4    -0.232241245565E+03    0.97229E-05   -0.42771E-05  4043   0.102E-02    0.552E-02
RMM:   5    -0.232241226963E+03    0.18602E-04   -0.15926E-05  4031   0.575E-03    0.310E-02
RMM:   6    -0.232241226740E+03    0.22341E-06   -0.14553E-05  4026   0.582E-03    0.276E-02
RMM:   7    -0.232241222257E+03    0.44826E-05   -0.10140E-05  4003   0.495E-03    0.139E-02
RMM:   8    -0.232241220949E+03    0.13080E-05   -0.26313E-06  2499   0.266E-03    0.436E-03
RMM:   9    -0.232241220928E+03    0.21173E-07   -0.45154E-07  2135   0.120E-03
 231 F= -.23224122E+03 E0= -.23213750E+03  d E =-.406525E-03
       N       E                     dE             d eps       ncg     rms          rms(c)
DAV:   1    -0.232240572088E+03    0.64886E-03   -0.46490E-01  4032   0.125E+00    0.125E-01
RMM:   2    -0.232241688048E+03   -0.11160E-02   -0.11339E-02  4039   0.172E-01    0.110E-01
RMM:   3    -0.232241622190E+03    0.65858E-04   -0.56150E-04  4040   0.375E-02    0.104E-01
RMM:   4    -0.232241560630E+03    0.61561E-04   -0.12308E-04  4042   0.176E-02    0.716E-02
RMM:   5    -0.232241579320E+03   -0.18690E-04   -0.57335E-05  4039   0.110E-02    0.852E-02
RMM:   6    -0.232241542618E+03    0.36701E-04   -0.43197E-05  4032   0.948E-03    0.549E-02
RMM:   7    -0.232241527982E+03    0.14636E-04   -0.42222E-05  4032   0.102E-02    0.258E-02
RMM:   8    -0.232241523425E+03    0.45572E-05   -0.96583E-06  3982   0.479E-03    0.112E-02
RMM:   9    -0.232241522430E+03    0.99531E-06   -0.14713E-06  2230   0.199E-03
 232 F= -.23224152E+03 E0= -.23213785E+03  d E =-.301502E-03
       N       E                     dE             d eps       ncg     rms          rms(c)
DAV:   1    -0.232239394364E+03    0.21291E-02   -0.11364E+00  4032   0.196E+00    0.196E-01
RMM:   2    -0.232242132534E+03   -0.27382E-02   -0.27758E-02  4039   0.270E-01    0.172E-01
RMM:   3    -0.232241989053E+03    0.14348E-03   -0.13847E-03  4040   0.589E-02    0.166E-01
RMM:   4    -0.232241906612E+03    0.82441E-04   -0.33140E-04  4042   0.283E-02    0.142E-01
RMM:   5    -0.232241824515E+03    0.82096E-04   -0.15085E-04  4039   0.178E-02    0.121E-01
RMM:   6    -0.232241765142E+03    0.59373E-04   -0.10403E-04  4038   0.150E-02    0.820E-02
RMM:   7    -0.232241735258E+03    0.29884E-04   -0.10330E-04  4032   0.160E-02    0.399E-02
RMM:   8    -0.232241724405E+03    0.10853E-04   -0.24078E-05  4032   0.754E-03    0.176E-02
RMM:   9    -0.232241721923E+03    0.24823E-05   -0.37626E-06  2845   0.311E-03    0.990E-03
RMM:  10    -0.232241721024E+03    0.89801E-06   -0.14554E-06  2168   0.210E-03
 233 F= -.23224172E+03 E0= -.23213809E+03  d E =-.500096E-03
       N       E                     dE             d eps       ncg     rms          rms(c)
DAV:   1    -0.232240904601E+03    0.81732E-03   -0.53954E-01  4032   0.137E+00    0.142E-01
RMM:   2    -0.232242432653E+03   -0.15281E-02   -0.13742E-02  4040   0.188E-01    0.189E-01
RMM:   3    -0.232242537797E+03   -0.10514E-03   -0.83663E-04  4039   0.444E-02    0.215E-01
RMM:   4    -0.232242282157E+03    0.25564E-03   -0.33905E-04  4039   0.267E-02    0.163E-01
RMM:   5    -0.232242047951E+03    0.23421E-03   -0.11947E-04  4038   0.171E-02    0.577E-02
RMM:   6    -0.232242067032E+03   -0.19081E-04   -0.64225E-05  4035   0.124E-02    0.570E-02
RMM:   7    -0.232242048506E+03    0.18526E-04   -0.46113E-05  4035   0.106E-02    0.226E-02
RMM:   8    -0.232242045838E+03    0.26685E-05   -0.90845E-06  3676   0.465E-03    0.125E-02
RMM:   9    -0.232242044491E+03    0.13470E-05   -0.17126E-06  2278   0.219E-03    0.631E-03
RMM:  10    -0.232242044235E+03    0.25579E-06   -0.68947E-07  2141   0.146E-03
 234 F= -.23224204E+03 E0= -.23213857E+03  d E =-.323210E-03
       N       E                     dE             d eps       ncg     rms          rms(c)
DAV:   1    -0.232241747169E+03    0.29732E-03   -0.17825E-01  4032   0.788E-01    0.816E-02
RMM:   2    -0.232242244699E+03   -0.49753E-03   -0.45425E-03  4040   0.108E-01    0.104E-01
RMM:   3    -0.232242294955E+03   -0.50256E-04   -0.27587E-04  4039   0.255E-02    0.126E-01
RMM:   4    -0.232242199211E+03    0.95744E-04   -0.11131E-04  4039   0.153E-02    0.923E-02
RMM:   5    -0.232242125346E+03    0.73865E-04   -0.37994E-05  4033   0.964E-03    0.331E-02
RMM:   6    -0.232242132451E+03   -0.71048E-05   -0.22121E-05  4032   0.727E-03    0.323E-02
RMM:   7    -0.232242126244E+03    0.62072E-05   -0.15463E-05  4032   0.614E-03    0.125E-02
RMM:   8    -0.232242125485E+03    0.75852E-06   -0.27727E-06  2717   0.262E-03
 235 F= -.23224213E+03 E0= -.23213873E+03  d E =-.404461E-03
       N       E                     dE             d eps       ncg     rms          rms(c)
DAV:   1    -0.232240555613E+03    0.15706E-02   -0.71264E-01  4032   0.158E+00    0.163E-01
RMM:   2    -0.232242573856E+03   -0.20182E-02   -0.18121E-02  4039   0.216E-01    0.216E-01
RMM:   3    -0.232242730875E+03   -0.15702E-03   -0.11067E-03  4040   0.509E-02    0.250E-01
RMM:   4    -0.232242361493E+03    0.36938E-03   -0.44758E-04  4039   0.307E-02    0.184E-01
RMM:   5    -0.232242065349E+03    0.29614E-03   -0.15610E-04  4038   0.195E-02    0.666E-02
RMM:   6    -0.232242088316E+03   -0.22967E-04   -0.84251E-05  4038   0.142E-02    0.637E-02
RMM:   7    -0.232242064765E+03    0.23551E-04   -0.59077E-05  4032   0.120E-02    0.261E-02
RMM:   8    -0.232242061027E+03    0.37381E-05   -0.12114E-05  3958   0.536E-03    0.141E-02
RMM:   9    -0.232242059375E+03    0.16519E-05   -0.22731E-06  2489   0.247E-03    0.744E-03
RMM:  10    -0.232242059025E+03    0.35021E-06   -0.91848E-07  2162   0.167E-03
 236 F= -.23224206E+03 E0= -.23213885E+03  d E =-.338001E-03
       N       E                     dE             d eps       ncg     rms          rms(c)
DAV:   1    -0.232241321830E+03    0.73755E-03   -0.39092E-01  4032   0.117E+00    0.120E-01
RMM:   2    -0.232242441858E+03   -0.11200E-02   -0.98872E-03  4040   0.159E-01    0.167E-01
RMM:   3    -0.232242480869E+03   -0.39010E-04   -0.60283E-04  4039   0.375E-02    0.179E-01
RMM:   4    -0.232242308110E+03    0.17276E-03   -0.24269E-04  4039   0.227E-02    0.138E-01
RMM:   5    -0.232242140053E+03    0.16806E-03   -0.85754E-05  4038   0.144E-02    0.487E-02
RMM:   6    -0.232242155926E+03   -0.15873E-04   -0.46686E-05  4032   0.106E-02    0.498E-02
RMM:   7    -0.232242142102E+03    0.13824E-04   -0.34359E-05  4032   0.916E-03    0.201E-02
RMM:   8    -0.232242139469E+03    0.26327E-05   -0.70846E-06  3363   0.415E-03    0.102E-02
RMM:   9    -0.232242138732E+03    0.73698E-06   -0.13454E-06  2215   0.196E-03
 237 F= -.23224214E+03 E0= -.23213880E+03  d E =-.417708E-03
       N       E                     dE             d eps       ncg     rms          rms(c)
DAV:   1    -0.232241464778E+03    0.67469E-03   -0.45255E-01  4032   0.126E+00    0.124E-01
RMM:   2    -0.232242531095E+03   -0.10663E-02   -0.11109E-02  4039   0.168E-01    0.839E-02
RMM:   3    -0.232242734793E+03   -0.20370E-03   -0.52753E-04  4040   0.360E-02    0.181E-01
RMM:   4    -0.232242489026E+03    0.24577E-03   -0.18011E-04  4040   0.198E-02    0.101E-01
RMM:   5    -0.232242404815E+03    0.84212E-04   -0.50082E-05  4039   0.109E-02    0.370E-02
RMM:   6    -0.232242418368E+03   -0.13553E-04   -0.52155E-05  4032   0.111E-02    0.379E-02
RMM:   7    -0.232242406188E+03    0.12180E-04   -0.21846E-05  4032   0.711E-03    0.151E-02
RMM:   8    -0.232242405061E+03    0.11267E-05   -0.33983E-06  2748   0.299E-03    0.896E-03
RMM:   9    -0.232242404385E+03    0.67594E-06   -0.84006E-07  2155   0.162E-03
 238 F= -.23224240E+03 E0= -.23213917E+03  d E =-.265653E-03
