unknown system                          
           1
    11.002582    0.000000    0.000000
     5.501291    9.528515    0.000000
     0.000000    0.000000   26.191785
   Au   O    Pd
  24   8  24
Direct configuration=     1
   0.08333333  0.08333333  0.38179910
   0.33333333  0.83333333  0.38179910
   0.50000000  0.75000000  0.55329505
   0.91666667  0.16666667  0.46754708
   0.75000000  0.50000000  0.55329505
   0.66666667  0.41666667  0.46754708
   0.91666667  0.41666667  0.46754708
   0.00000000  0.25000000  0.55329505
   0.83333333  0.33333333  0.38179910
   0.08333333  0.58333333  0.38179910
   0.91666667  0.66666667  0.46754708
   0.91666667  0.91666667  0.46754708
   0.75000000  0.00000000  0.55329505
   0.58333333  0.58333333  0.38179910
   0.50000000  0.25000000  0.55329505
   0.41666667  0.41666667  0.46754708
   0.25000000  0.00000000  0.55329505
   0.58333333  0.33333333  0.38179910
   0.33333333  0.33333333  0.38179910
   0.50000000  0.00000000  0.55329505
   0.41666667  0.16666667  0.46754708
   0.33333333  0.58333333  0.38179910
   0.58333333  0.08333333  0.38179910
   0.25000000  0.75000000  0.55329505
   0.33333333  0.33333333  0.61820090
   0.08333333  0.83333333  0.61820090
   0.08333333  0.33333333  0.61820090
   0.33333333  0.83333333  0.61820090
   0.83333333  0.58333333  0.61820090
   0.58333333  0.08333333  0.61820090
   0.58333333  0.33333333  0.61820090
   0.83333333  0.08333333  0.61820090
   0.58333333  0.83333333  0.38179910
   0.16666667  0.16666667  0.46754708
   0.33333333  0.08333333  0.38179910
   0.00000000  0.75000000  0.55329505
   0.16666667  0.66666667  0.46754708
   0.41666667  0.66666667  0.46754708
   0.50000000  0.50000000  0.55329505
   0.75000000  0.75000000  0.55329505
   0.25000000  0.50000000  0.55329505
   0.08333333  0.83333333  0.38179910
   0.41666667  0.91666667  0.46754708
   0.83333333  0.08333333  0.38179910
   0.66666667  0.16666667  0.46754708
   0.00000000  0.50000000  0.55329505
   0.08333333  0.33333333  0.38179910
   0.75000000  0.25000000  0.55329505
   0.83333333  0.58333333  0.38179910
   0.66666667  0.66666667  0.46754708
   0.00000000  0.00000000  0.55329505
   0.83333333  0.83333333  0.38179910
   0.66666667  0.91666667  0.46754708
   0.16666667  0.91666667  0.46754708
   0.16666667  0.41666667  0.46754708
   0.25000000  0.25000000  0.55329505
Direct configuration=     2
   0.08333333  0.08333333  0.38179910
   0.33333333  0.83333333  0.38179910
   0.50103361  0.74924864  0.55529875
   0.91709452  0.16494795  0.46841237
   0.74917184  0.50100715  0.55592120
   0.66595588  0.41711481  0.46858476
   0.91826650  0.41742097  0.46710098
   0.00053329  0.24921363  0.55589485
   0.83333333  0.33333333  0.38179910
   0.08333333  0.58333333  0.38179910
   0.91623283  0.66701250  0.46816651
   0.91680617  0.91635578  0.46722443
   0.75181088 -0.00212451  0.55611423
   0.58333333  0.58333333  0.38179910
   0.49861324  0.25212274  0.55634862
   0.41554529  0.41779460  0.46834889
   0.24941801  0.00113158  0.55525714
   0.58333333  0.33333333  0.38179910
   0.33333333  0.33333333  0.38179910
   0.50040033 -0.00109215  0.55566149
   0.41529403  0.16611704  0.46781493
   0.33333333  0.58333333  0.38179910
   0.58333333  0.08333333  0.38179910
   0.24977364  0.74803785  0.55573999
   0.33044341  0.33531387  0.61477189
   0.08140674  0.83330315  0.61454112
   0.08405813  0.33320016  0.61457930
   0.33456737  0.83345552  0.61563622
   0.83324155  0.58500961  0.61440995
   0.58301146  0.08077437  0.61590363
   0.58420719  0.33606578  0.61464776
   0.83531065  0.08342778  0.61470917
   0.58333333  0.83333333  0.38179910
   0.16818957  0.16615920  0.46789539
   0.33333333  0.08333333  0.38179910
   0.00117105  0.74961354  0.55560477
   0.16729447  0.66673989  0.46836638
   0.41579708  0.66736680  0.46830453
   0.50000202  0.49913514  0.55554147
   0.75097182  0.74836652  0.55539766
   0.24967521  0.49927191  0.55539241
   0.08333333  0.83333333  0.38179910
   0.41710520  0.91664059  0.46730554
   0.83333333  0.08333333  0.38179910
   0.66707887  0.16617955  0.46754361
   0.00017430  0.50032414  0.55702300
   0.08333333  0.33333333  0.38179910
   0.74946287  0.25006828  0.55713052
   0.83333333  0.58333333  0.38179910
   0.66540174  0.66863988  0.46756331
  -0.00079300 -0.00040381  0.55688842
   0.83333333  0.83333333  0.38179910
   0.66720839  0.91525005  0.46773112
   0.16681189  0.91644968  0.46761484
   0.16584813  0.41666759  0.46796891
   0.24922431  0.25186848  0.55670903
Direct configuration=     3
   0.08333333  0.08333333  0.38179910
   0.33333333  0.83333333  0.38179910
   0.50271038  0.74802975  0.55854924
   0.91778860  0.16215975  0.46981610
   0.74782835  0.50264100  0.56018147
   0.66480280  0.41784182  0.47026815
   0.92086183  0.41864465  0.46637729
   0.00139842  0.24793793  0.56011237
   0.83333333  0.33333333  0.38179910
   0.08333333  0.58333333  0.38179910
   0.91552903  0.66757352  0.46917140
   0.91703248  0.91585145  0.46670101
   0.75474859 -0.00557102  0.56068765
   0.58333333  0.58333333  0.38179910
   0.49636356  0.25556637  0.56130228
   0.41372613  0.41962440  0.46964963
   0.24847386  0.00296728  0.55844015
   0.58333333  0.33333333  0.38179910
   0.33333333  0.33333333  0.38179910
   0.50104977 -0.00286388  0.55950046
   0.41306727  0.16522540  0.46824947
   0.33333333  0.58333333  0.38179910
   0.58333333  0.08333333  0.38179910
   0.24940643  0.74485474  0.55970631
   0.32575522  0.33852679  0.60920918
   0.07828133  0.83325417  0.60860403
   0.08523393  0.33298413  0.60870416
   0.33656930  0.83365373  0.61147566
   0.83309265  0.58772896  0.60826007
   0.58248930  0.07662309  0.61217687
   0.58562481  0.34049850  0.60888368
   0.83851837  0.08358101  0.60904470
   0.58333333  0.83333333  0.38179910
   0.17066010  0.16533596  0.46846044
   0.33333333  0.08333333  0.38179910
   0.00307078  0.74898660  0.55935171
   0.16831292  0.66685868  0.46969549
   0.41438639  0.66850259  0.46953331
   0.50000530  0.49773212  0.55918572
   0.75254836  0.74571661  0.55880861
   0.24914833  0.49809076  0.55879485
   0.08333333  0.83333333  0.38179910
   0.41781662  0.91659829  0.46691371
   0.83333333  0.08333333  0.38179910
   0.66774757  0.16538933  0.46753799
   0.00045706  0.50084997  0.56307069
   0.08333333  0.33333333  0.38179910
   0.74859151  0.25017905  0.56335263
   0.83333333  0.58333333  0.38179910
   0.66334970  0.67184094  0.46758964
  -0.00207943 -0.00105889  0.56271776
   0.83333333  0.83333333  0.38179910
   0.66808719  0.91295195  0.46802967
   0.16704748  0.91609767  0.46772477
   0.16452024  0.41666909  0.46865322
   0.24796595  0.25489962  0.56224737
Direct configuration=     4
   0.08333333  0.08333333  0.38179910
   0.33333333  0.83333333  0.38179910
   0.50248854  0.74819101  0.55811920
   0.91769677  0.16252863  0.46963038
   0.74800610  0.50242483  0.55961783
   0.66495536  0.41774563  0.47004543
   0.92051846  0.41848276  0.46647303
   0.00128396  0.24810671  0.55955438
   0.83333333  0.33333333  0.38179910
   0.08333333  0.58333333  0.38179910
   0.91562214  0.66749930  0.46903845
   0.91700254  0.91591818  0.46677026
   0.75435992 -0.00511504  0.56008257
   0.58333333  0.58333333  0.38179910
   0.49666120  0.25511077  0.56064690
   0.41396681  0.41938231  0.46947754
   0.24859878  0.00272442  0.55801903
   0.58333333  0.33333333  0.38179910
   0.33333333  0.33333333  0.38179910
   0.50096385 -0.00262948  0.55899256
   0.41336188  0.16534337  0.46819198
   0.33333333  0.58333333  0.38179910
   0.58333333  0.08333333  0.38179910
   0.24945501  0.74527588  0.55918156
   0.32637548  0.33810172  0.60994513
   0.07869483  0.83326065  0.60938952
   0.08507837  0.33301271  0.60948145
   0.33630444  0.83362750  0.61202611
   0.83311235  0.58736919  0.60907371
   0.58255838  0.07717231  0.61266992
   0.58543725  0.33991204  0.60964628
   0.83809398  0.08356074  0.60979412
   0.58333333  0.83333333  0.38179910
   0.17033325  0.16544488  0.46838568
   0.33333333  0.08333333  0.38179910
   0.00281944  0.74906954  0.55885598
   0.16817818  0.66684296  0.46951965
   0.41457303  0.66835232  0.46937074
   0.50000487  0.49791774  0.55870358
   0.75233978  0.74606720  0.55835734
   0.24921804  0.49824703  0.55834470
   0.08333333  0.83333333  0.38179910
   0.41772250  0.91660388  0.46696555
   0.83333333  0.08333333  0.38179910
   0.66765910  0.16549387  0.46753874
   0.00041965  0.50078040  0.56227057
   0.08333333  0.33333333  0.38179910
   0.74870679  0.25016439  0.56252943
   0.83333333  0.58333333  0.38179910
   0.66362119  0.67141744  0.46758615
  -0.00190924 -0.00097222  0.56194653
   0.83333333  0.83333333  0.38179910
   0.66797093  0.91325599  0.46799017
   0.16701631  0.91614424  0.46771022
   0.16469593  0.41666889  0.46856268
   0.24813244  0.25449859  0.56151464
Direct configuration=     5
   0.08333333  0.08333333  0.38179910
   0.33333333  0.83333333  0.38179910
   0.50461485  0.74695892  0.55894607
   0.91802683  0.16302311  0.47191749
   0.74545084  0.49849473  0.56014508
   0.66620697  0.41787838  0.47207634
   0.92018860  0.41797311  0.46793911
  -0.00255085  0.24531642  0.55997992
   0.83333333  0.33333333  0.38179910
   0.08333333  0.58333333  0.38179910
   0.91628577  0.66775175  0.47066299
   0.91721401  0.91516504  0.46801001
   0.75566687 -0.01226221  0.56050499
   0.58333333  0.58333333  0.38179910
   0.49674953  0.25261868  0.55956434
   0.41350279  0.41874808  0.47098786
   0.24755368  0.00529329  0.55865455
   0.58333333  0.33333333  0.38179910
   0.33333333  0.33333333  0.38179910
   0.49958435 -0.00479462  0.55975723
   0.41396265  0.16551112  0.47007925
   0.33333333  0.58333333  0.38179910
   0.58333333  0.08333333  0.38179910
   0.25397707  0.73982344  0.55946977
   0.31958581  0.34336866  0.60905253
   0.07612802  0.83246103  0.60801623
   0.08598240  0.33326923  0.60842434
   0.33802155  0.83405004  0.61131941
   0.83337831  0.59113572  0.60801508
   0.58260715  0.07345517  0.61247023
   0.58764507  0.34480685  0.60883430
   0.83980313  0.08574123  0.60881345
   0.58333333  0.83333333  0.38179910
   0.16970341  0.16517102  0.46991219
   0.33333333  0.08333333  0.38179910
   0.00121729  0.74640210  0.55973369
   0.16768898  0.66709772  0.47098945
   0.41403263  0.66911200  0.47107100
   0.49833111  0.50190114  0.55974973
   0.75197476  0.74881169  0.55913011
   0.24676843  0.50201076  0.55956840
   0.08333333  0.83333333  0.38179910
   0.41766480  0.91636450  0.46806866
   0.83333333  0.08333333  0.38179910
   0.66676402  0.16525267  0.46921533
   0.00125539  0.50365492  0.56431530
   0.08333333  0.33333333  0.38179910
   0.75173821  0.25218577  0.56447934
   0.83333333  0.58333333  0.38179910
   0.66309746  0.67136300  0.46871783
   0.00058761  0.00107856  0.56335892
   0.83333333  0.83333333  0.38179910
   0.66790090  0.91340425  0.46939384
   0.16755416  0.91593547  0.46902974
   0.16475071  0.41685106  0.46992696
   0.25088600  0.25022193  0.56300912
Direct configuration=     6
   0.08333333  0.08333333  0.38179910
   0.33333333  0.83333333  0.38179910
   0.50581079  0.74626593  0.55941114
   0.91821247  0.16330122  0.47320386
   0.74401365  0.49628427  0.56044163
   0.66691094  0.41795305  0.47321861
   0.92000307  0.41768646  0.46876369
  -0.00470772  0.24374705  0.56021927
   0.83333333  0.33333333  0.38179910
   0.08333333  0.58333333  0.38179910
   0.91665902  0.66789375  0.47157670
   0.91733296  0.91474145  0.46870731
   0.75640196 -0.01628209  0.56074257
   0.58333333  0.58333333  0.38179910
   0.49679921  0.25121702  0.55895547
   0.41324180  0.41839136  0.47183733
   0.24696588  0.00673814  0.55901199
   0.58333333  0.33333333  0.38179910
   0.33333333  0.33333333  0.38179910
   0.49880846 -0.00601239  0.56018732
   0.41430055  0.16560548  0.47114073
   0.33333333  0.58333333  0.38179910
   0.58333333  0.08333333  0.38179910
   0.25652047  0.73675676  0.55963188
   0.31576700  0.34633102  0.60855050
   0.07468434  0.83201129  0.60724383
   0.08649087  0.33341351  0.60782978
   0.33898733  0.83428769  0.61092194
   0.83352790  0.59325418  0.60741966
   0.58263458  0.07136449  0.61235792
   0.58888685  0.34755990  0.60837761
   0.84076443  0.08696764  0.60826187
   0.58333333  0.83333333  0.38179910
   0.16934917  0.16501699  0.47077077
   0.33333333  0.08333333  0.38179910
   0.00031617  0.74490182  0.56022735
   0.16741383  0.66724101  0.47181613
   0.41372869  0.66953927  0.47202730
   0.49738972  0.50414158  0.56033813
   0.75176946  0.75035531  0.55956476
   0.24539066  0.50412764  0.56025666
   0.08333333  0.83333333  0.38179910
   0.41763234  0.91622986  0.46868909
   0.83333333  0.08333333  0.38179910
   0.66626059  0.16511701  0.47015831
   0.00172545  0.50527168  0.56546534
   0.08333333  0.33333333  0.38179910
   0.75344321  0.25332268  0.56557604
   0.83333333  0.58333333  0.38179910
   0.66280289  0.67133238  0.46935433
   0.00199195  0.00223201  0.56415330
   0.83333333  0.83333333  0.38179910
   0.66786152  0.91348764  0.47018333
   0.16785667  0.91581805  0.46977190
   0.16478152  0.41695352  0.47069428
   0.25243473  0.24781655  0.56384968
Direct configuration=     7
   0.08333333  0.08333333  0.38179910
   0.33333333  0.83333333  0.38179910
   0.50837834  0.74562773  0.55970571
   0.91750891  0.16283147  0.47379530
   0.74538514  0.49693717  0.56132871
   0.66661573  0.41728651  0.47371460
   0.91981896  0.41797887  0.46999353
  -0.00439342  0.24603920  0.56110110
   0.83333333  0.33333333  0.38179910
   0.08333333  0.58333333  0.38179910
   0.91697587  0.66685715  0.47227813
   0.91770380  0.91527358  0.46970808
   0.75839797 -0.01712065  0.56122525
   0.58333333  0.58333333  0.38179910
   0.49940308  0.24993782  0.55822467
   0.41345620  0.41870544  0.47260334
   0.24676118  0.00634863  0.55934730
   0.58333333  0.33333333  0.38179910
   0.33333333  0.33333333  0.38179910
   0.49728870 -0.00772905  0.56050470
   0.41421398  0.16524993  0.47186719
   0.33333333  0.58333333  0.38179910
   0.58333333  0.08333333  0.38179910
   0.25620019  0.73752931  0.55991691
   0.31233820  0.35113919  0.60946534
   0.07441521  0.83026639  0.60744489
   0.08503833  0.33257097  0.60826335
   0.33937314  0.83530681  0.61138395
   0.83154146  0.59554738  0.60837493
   0.58277847  0.06926761  0.61299247
   0.58823463  0.35092386  0.60948496
   0.83967840  0.08723913  0.60951671
   0.58333333  0.83333333  0.38179910
   0.16877941  0.16537330  0.47171132
   0.33333333  0.08333333  0.38179910
  -0.00077167  0.74464374  0.56041342
   0.16710900  0.66732436  0.47239817
   0.41418047  0.66909521  0.47252930
   0.49605211  0.50519387  0.56074093
   0.74995728  0.75026785  0.55946462
   0.24402571  0.50536160  0.56088405
   0.08333333  0.83333333  0.38179910
   0.41731242  0.91623194  0.46956495
   0.83333333  0.08333333  0.38179910
   0.66664635  0.16491289  0.47147508
   0.00378534  0.50486867  0.56559683
   0.08333333  0.33333333  0.38179910
   0.75323262  0.25399340  0.56556133
   0.83333333  0.58333333  0.38179910
   0.66343019  0.67079113  0.47028035
   0.00670065 -0.00046457  0.56381347
   0.83333333  0.83333333  0.38179910
   0.66721672  0.91368416  0.47078992
   0.16800170  0.91567047  0.47086565
   0.16482902  0.41680805  0.47179450
   0.25324031  0.24428628  0.56367868
Direct configuration=     8
   0.08333333  0.08333333  0.38179910
   0.33333333  0.83333333  0.38179910
   0.50927668  0.74540443  0.55980878
   0.91726275  0.16266711  0.47400223
   0.74586500  0.49716561  0.56163908
   0.66651244  0.41705330  0.47388814
   0.91975454  0.41808118  0.47042383
  -0.00428345  0.24684118  0.56140963
   0.83333333  0.33333333  0.38179910
   0.08333333  0.58333333  0.38179910
   0.91708673  0.66649447  0.47252354
   0.91783355  0.91545976  0.47005824
   0.75909633 -0.01741404  0.56139413
   0.58333333  0.58333333  0.38179910
   0.50031411  0.24949026  0.55796898
   0.41353121  0.41881534  0.47287135
   0.24668956  0.00621235  0.55946461
   0.58333333  0.33333333  0.38179910
   0.33333333  0.33333333  0.38179910
   0.49675696 -0.00832967  0.56061574
   0.41418370  0.16512553  0.47212136
   0.33333333  0.58333333  0.38179910
   0.58333333  0.08333333  0.38179910
   0.25608813  0.73779961  0.56001664
   0.31113853  0.35282147  0.60978542
   0.07432105  0.82965589  0.60751524
   0.08453012  0.33227618  0.60841504
   0.33950813  0.83566338  0.61154560
   0.83084644  0.59634972  0.60870915
   0.58282881  0.06853396  0.61321448
   0.58800643  0.35210084  0.60987240
   0.83929843  0.08733412  0.60995576
   0.58333333  0.83333333  0.38179910
   0.16858007  0.16549797  0.47204040
   0.33333333  0.08333333  0.38179910
  -0.00115229  0.74455344  0.56047852
   0.16700235  0.66735352  0.47260181
   0.41433854  0.66893984  0.47270494
   0.49558410  0.50556204  0.56088187
   0.74932323  0.75023725  0.55942959
   0.24354814  0.50579333  0.56110356
   0.08333333  0.83333333  0.38179910
   0.41720048  0.91623267  0.46987140
   0.83333333  0.08333333  0.38179910
   0.66678132  0.16484147  0.47193578
   0.00450605  0.50472766  0.56564283
   0.08333333  0.33333333  0.38179910
   0.75315894  0.25422806  0.56555618
   0.83333333  0.58333333  0.38179910
   0.66364967  0.67060176  0.47060434
   0.00834813 -0.00140805  0.56369457
   0.83333333  0.83333333  0.38179910
   0.66699112  0.91375292  0.47100216
   0.16805245  0.91561883  0.47124833
   0.16484564  0.41675715  0.47217944
   0.25352217  0.24305111  0.56361886
Direct configuration=     9
   0.08333333  0.08333333  0.38179910
   0.33333333  0.83333333  0.38179910
   0.50939744  0.74423156  0.56043581
   0.91698634  0.16275261  0.47436074
   0.74775770  0.49772907  0.56277215
   0.66626644  0.41659512  0.47414057
   0.91945938  0.41796375  0.47119447
  -0.00458458  0.24781186  0.56212852
   0.83333333  0.33333333  0.38179910
   0.08333333  0.58333333  0.38179910
   0.91704452  0.66618052  0.47270553
   0.91798214  0.91538370  0.47058598
   0.75951284 -0.01590805  0.56260781
   0.58333333  0.58333333  0.38179910
   0.50149183  0.24874140  0.55866578
   0.41338280  0.41935713  0.47317443
   0.24686339  0.00442764  0.56007632
   0.58333333  0.33333333  0.38179910
   0.33333333  0.33333333  0.38179910
   0.49717357 -0.00789181  0.56151137
   0.41387242  0.16486024  0.47225826
   0.33333333  0.58333333  0.38179910
   0.58333333  0.08333333  0.38179910
   0.25569651  0.73932472  0.56048492
   0.30880840  0.35521609  0.60994689
   0.07441046  0.82803429  0.60807833
   0.08460851  0.33146011  0.60918908
   0.34011235  0.83653536  0.61211888
   0.83037600  0.59771441  0.60973406
   0.58268787  0.06654983  0.61328459
   0.58794685  0.35464423  0.61090600
   0.84064317  0.08635390  0.61012893
   0.58333333  0.83333333  0.38179910
   0.16791070  0.16577864  0.47249392
   0.33333333  0.08333333  0.38179910
  -0.00204227  0.74468185  0.56072124
   0.16678113  0.66733883  0.47282411
   0.41486877  0.66855013  0.47289189
   0.49558927  0.50531022  0.56141474
   0.74877281  0.75016846  0.55935300
   0.24340653  0.50538099  0.56187259
   0.08333333  0.83333333  0.38179910
   0.41675456  0.91599643  0.47034411
   0.83333333  0.08333333  0.38179910
   0.66757162  0.16413902  0.47254185
   0.00458046  0.50430349  0.56622484
   0.08333333  0.33333333  0.38179910
   0.75187271  0.25394604  0.56621035
   0.83333333  0.58333333  0.38179910
   0.66435951  0.66976647  0.47101239
   0.00742839 -0.00159131  0.56438268
   0.83333333  0.83333333  0.38179910
   0.66681244  0.91380358  0.47133939
   0.16832869  0.91540295  0.47184470
   0.16534975  0.41635160  0.47298536
   0.25422832  0.24408007  0.56458558
Direct configuration=    10
   0.08333333  0.08333333  0.38179910
   0.33333333  0.83333333  0.38179910
   0.50949461  0.74328787  0.56094032
   0.91676395  0.16282140  0.47464920
   0.74928055  0.49818242  0.56368381
   0.66606851  0.41622646  0.47434367
   0.91922189  0.41786927  0.47181453
  -0.00482687  0.24859286  0.56270694
   0.83333333  0.33333333  0.38179910
   0.08333333  0.58333333  0.38179910
   0.91701055  0.66592792  0.47285196
   0.91810169  0.91532251  0.47101060
   0.75984796 -0.01469634  0.56358433
   0.58333333  0.58333333  0.38179910
   0.50243941  0.24813887  0.55922642
   0.41326338  0.41979306  0.47341829
   0.24700324  0.00299167  0.56056850
   0.58333333  0.33333333  0.38179910
   0.33333333  0.33333333  0.38179910
   0.49750877 -0.00753951  0.56223199
   0.41362197  0.16464680  0.47236840
   0.33333333  0.58333333  0.38179910
   0.58333333  0.08333333  0.38179910
   0.25538141  0.74055181  0.56086169
   0.30693358  0.35714280  0.61007680
   0.07448240  0.82672957  0.60853139
   0.08467158  0.33080350  0.60981187
   0.34059849  0.83723696  0.61258014
   0.82999749  0.59881243  0.61055869
   0.58257447  0.06495342  0.61334101
   0.58789890  0.35669063  0.61173764
   0.84172515  0.08556522  0.61026826
   0.58333333  0.83333333  0.38179910
   0.16737213  0.16600447  0.47285882
   0.33333333  0.08333333  0.38179910
  -0.00275835  0.74478517  0.56091653
   0.16660314  0.66732702  0.47300297
   0.41529539  0.66823657  0.47304231
   0.49559342  0.50510761  0.56184349
   0.74832995  0.75011311  0.55929138
   0.24329259  0.50504921  0.56249135
   0.08333333  0.83333333  0.38179910
   0.41639576  0.91580636  0.47072445
   0.83333333  0.08333333  0.38179910
   0.66820749  0.16357382  0.47302949
   0.00464033  0.50396221  0.56669312
   0.08333333  0.33333333  0.38179910
   0.75083782  0.25371913  0.56673670
   0.83333333  0.58333333  0.38179910
   0.66493065  0.66909441  0.47134070
   0.00668836 -0.00173875  0.56493633
   0.83333333  0.83333333  0.38179910
   0.66666867  0.91384435  0.47161073
   0.16855096  0.91522926  0.47232454
   0.16575535  0.41602529  0.47363380
   0.25479648  0.24490797  0.56536341
Direct configuration=    11
   0.08333333  0.08333333  0.38179910
   0.33333333  0.83333333  0.38179910
   0.50933609  0.74245537  0.56151292
   0.91688918  0.16304361  0.47502113
   0.74998775  0.49774449  0.56463501
   0.66616071  0.41603827  0.47476424
   0.91905443  0.41758241  0.47221221
  -0.00503682  0.24766432  0.56319748
   0.83333333  0.33333333  0.38179910
   0.08333333  0.58333333  0.38179910
   0.91703280  0.66583334  0.47283229
   0.91816214  0.91499238  0.47125494
   0.75990726 -0.01480549  0.56450151
   0.58333333  0.58333333  0.38179910
   0.50231898  0.24850118  0.55995635
   0.41319775  0.41973722  0.47367618
   0.24680835  0.00333024  0.56100193
   0.58333333  0.33333333  0.38179910
   0.33333333  0.33333333  0.38179910
   0.49715756 -0.00772380  0.56264434
   0.41354082  0.16453454  0.47246951
   0.33333333  0.58333333  0.38179910
   0.58333333  0.08333333  0.38179910
   0.25518074  0.74048135  0.56116500
   0.30614594  0.35761930  0.61094782
   0.07446534  0.82533708  0.60919586
   0.08517286  0.33035752  0.61079560
   0.34141395  0.83767774  0.61352669
   0.83030190  0.60023993  0.61145509
   0.58268397  0.06381770  0.61408325
   0.58815706  0.35844542  0.61293058
   0.84291051  0.08510376  0.61086542
   0.58333333  0.83333333  0.38179910
   0.16697267  0.16597700  0.47329202
   0.33333333  0.08333333  0.38179910
  -0.00315640  0.74464455  0.56115834
   0.16654119  0.66732426  0.47322908
   0.41557963  0.66809216  0.47320875
   0.49590322  0.50494309  0.56219838
   0.74840802  0.75072163  0.55937046
   0.24282080  0.50685405  0.56267017
   0.08333333  0.83333333  0.38179910
   0.41626732  0.91552247  0.47111874
   0.83333333  0.08333333  0.38179910
   0.66851412  0.16297750  0.47329156
   0.00396605  0.50403315  0.56755592
   0.08333333  0.33333333  0.38179910
   0.74983220  0.25467955  0.56739694
   0.83333333  0.58333333  0.38179910
   0.66520584  0.66837324  0.47150221
   0.00581948 -0.00148401  0.56553770
   0.83333333  0.83333333  0.38179910
   0.66663638  0.91391171  0.47191841
   0.16855167  0.91513652  0.47259542
   0.16601656  0.41571231  0.47416368
   0.25515066  0.24523962  0.56626547
Direct configuration=    12
   0.08333333  0.08333333  0.38179910
   0.33333333  0.83333333  0.38179910
   0.50887103  0.74001304  0.56319277
   0.91725658  0.16369549  0.47611227
   0.75206245  0.49645974  0.56742557
   0.66643118  0.41548617  0.47599808
   0.91856317  0.41674085  0.47337887
  -0.00565275  0.24494026  0.56463658
   0.83333333  0.33333333  0.38179910
   0.08333333  0.58333333  0.38179910
   0.91709807  0.66555586  0.47277461
   0.91833946  0.91402387  0.47197177
   0.76008122 -0.01512572  0.56719226
   0.58333333  0.58333333  0.38179910
   0.50196565  0.24956411  0.56209777
   0.41300519  0.41957339  0.47443276
   0.24623659  0.00432352  0.56227350
   0.58333333  0.33333333  0.38179910
   0.33333333  0.33333333  0.38179910
   0.49612723 -0.00826446  0.56385406
   0.41330276  0.16420519  0.47276612
   0.33333333  0.58333333  0.38179910
   0.58333333  0.08333333  0.38179910
   0.25459203  0.74027466  0.56205484
   0.30383524  0.35901722  0.61350312
   0.07441531  0.82125194  0.61114523
   0.08664349  0.32904914  0.61368158
   0.34380628  0.83897086  0.61630357
   0.83119495  0.60442780  0.61408486
   0.58300521  0.06048584  0.61626076
   0.58891441  0.36359349  0.61643032
   0.84638802  0.08374996  0.61261731
   0.58333333  0.83333333  0.38179910
   0.16580078  0.16589642  0.47456290
   0.33333333  0.08333333  0.38179910
  -0.00432415  0.74423200  0.56186776
   0.16635944  0.66731619  0.47389244
   0.41641350  0.66766850  0.47369706
   0.49681206  0.50446043  0.56323952
   0.74863705  0.75250687  0.55960247
   0.24143670  0.51214890  0.56319477
   0.08333333  0.83333333  0.38179910
   0.41589049  0.91468962  0.47227544
   0.83333333  0.08333333  0.38179910
   0.66941368  0.16122807  0.47406041
   0.00198792  0.50424128  0.57008713
   0.08333333  0.33333333  0.38179910
   0.74688199  0.25749714  0.56933389
   0.83333333  0.58333333  0.38179910
   0.66601316  0.66625756  0.47197606
   0.00327045 -0.00073666  0.56730196
   0.83333333  0.83333333  0.38179910
   0.66654167  0.91410933  0.47282106
   0.16855377  0.91486446  0.47339013
   0.16678288  0.41479411  0.47571820
   0.25618971  0.24621258  0.56891185
Direct configuration=    13
   0.08333333  0.08333333  0.38179910
   0.33333333  0.83333333  0.38179910
   0.50877276  0.73979657  0.56380272
   0.91726972  0.16353504  0.47644536
   0.75210356  0.49644771  0.56840874
   0.66660532  0.41527150  0.47646347
   0.91865045  0.41660901  0.47365698
  -0.00511708  0.24423843  0.56533650
   0.83333333  0.33333333  0.38179910
   0.08333333  0.58333333  0.38179910
   0.91718251  0.66518724  0.47273319
   0.91829068  0.91399258  0.47212366
   0.75964266 -0.01544080  0.56812772
   0.58333333  0.58333333  0.38179910
   0.50118416  0.25024567  0.56286259
   0.41321982  0.41899177  0.47470666
   0.24615345  0.00467487  0.56282344
   0.58333333  0.33333333  0.38179910
   0.33333333  0.33333333  0.38179910
   0.49569121 -0.00854215  0.56409660
   0.41338018  0.16414932  0.47300891
   0.33333333  0.58333333  0.38179910
   0.58333333  0.08333333  0.38179910
   0.25444634  0.74092652  0.56247287
   0.30337144  0.36037532  0.61420760
   0.07426530  0.82016106  0.61165553
   0.08677048  0.32857523  0.61448927
   0.34451289  0.83944795  0.61714216
   0.83133483  0.60637865  0.61471203
   0.58308269  0.05970755  0.61722864
   0.58925177  0.36532250  0.61757801
   0.84597444  0.08480588  0.61363213
   0.58333333  0.83333333  0.38179910
   0.16585960  0.16573255  0.47497042
   0.33333333  0.08333333  0.38179910
  -0.00445070  0.74423191  0.56215336
   0.16643699  0.66725651  0.47404046
   0.41644502  0.66758126  0.47392327
   0.49732362  0.50392986  0.56367769
   0.74877871  0.75235619  0.55989998
   0.24168384  0.51185733  0.56372996
   0.08333333  0.83333333  0.38179910
   0.41605128  0.91441188  0.47263885
   0.83333333  0.08333333  0.38179910
   0.66923416  0.16101510  0.47431263
   0.00172978  0.50387257  0.57119456
   0.08333333  0.33333333  0.38179910
   0.74618220  0.25804401  0.57030810
   0.83333333  0.58333333  0.38179910
   0.66597143  0.66589160  0.47215953
   0.00433598 -0.00207686  0.56768457
   0.83333333  0.83333333  0.38179910
   0.66643052  0.91408059  0.47309299
   0.16836418  0.91483442  0.47356387
   0.16658025  0.41465345  0.47616581
   0.25576219  0.24657525  0.56982554
Direct configuration=    14
   0.08333333  0.08333333  0.38179910
   0.33333333  0.83333333  0.38179910
   0.50850144  0.73919893  0.56548670
   0.91730600  0.16309205  0.47736498
   0.75221703  0.49641451  0.57112314
   0.66708608  0.41467882  0.47774835
   0.91889140  0.41624502  0.47442480
  -0.00363817  0.24230079  0.56726889
   0.83333333  0.33333333  0.38179910
   0.08333333  0.58333333  0.38179910
   0.91741563  0.66416951  0.47261883
   0.91815598  0.91390619  0.47254301
   0.75843186 -0.01631069  0.57071039
   0.58333333  0.58333333  0.38179910
   0.49902657  0.25212737  0.56497418
   0.41381237  0.41738600  0.47546285
   0.24592392  0.00564490  0.56434177
   0.58333333  0.33333333  0.38179910
   0.33333333  0.33333333  0.38179910
   0.49448743 -0.00930879  0.56476619
   0.41359391  0.16399508  0.47367921
   0.33333333  0.58333333  0.38179910
   0.58333333  0.08333333  0.38179910
   0.25404411  0.74272622  0.56362699
   0.30209094  0.36412483  0.61615259
   0.07385114  0.81714927  0.61306439
   0.08712110  0.32726683  0.61671919
   0.34646377  0.84076510  0.61945739
   0.83172101  0.61176466  0.61644355
   0.58329661  0.05755881  0.61990082
   0.59018319  0.37009607  0.62074663
   0.84483260  0.08772114  0.61643393
   0.58333333  0.83333333  0.38179910
   0.16602202  0.16528014  0.47609552
   0.33333333  0.08333333  0.38179910
  -0.00480009  0.74423169  0.56294186
   0.16665109  0.66709174  0.47444912
   0.41653205  0.66734042  0.47454780
   0.49873596  0.50246503  0.56488741
   0.74916979  0.75194020  0.56072136
   0.24236617  0.51105235  0.56520758
   0.08333333  0.83333333  0.38179910
   0.41649522  0.91364510  0.47364217
   0.83333333  0.08333333  0.38179910
   0.66873853  0.16042710  0.47500898