  48  48   0   0
  0.5349325E+02  0.1100258E-08  0.1100258E-08  0.2449179E-08  0.3500000E-15
  1.000000000000000E-004
  CAR 
 unknown system                          
      6.39811389     -9.81751977  301     -1.10919057      1.00000000
     -9.818  0.0000E+00  0.0000E+00
     -9.763  0.0000E+00  0.0000E+00
     -9.709  0.0000E+00  0.0000E+00
     -9.655  0.0000E+00  0.0000E+00
     -9.601  0.0000E+00  0.0000E+00
     -9.547  0.0000E+00  0.0000E+00
     -9.493  0.0000E+00  0.0000E+00
     -9.439  0.0000E+00  0.0000E+00
     -9.385  0.7531E-17  0.4071E-18
     -9.331  0.2785E-14  0.1510E-15
     -9.277  0.6203E-12  0.3368E-13
     -9.223  0.7848E-10  0.4275E-11
     -9.169  0.5658E-08  0.3101E-09
     -9.115  0.2332E-06  0.1292E-07
     -9.061  0.5512E-05  0.3108E-06
     -9.007  0.7494E-04  0.4362E-05
     -8.953  0.5879E-03  0.3614E-04
     -8.899  0.2668E-02  0.1803E-03
     -8.845  0.7029E-02  0.5603E-03
     -8.791  0.1088E-01  0.1149E-02
     -8.736  0.1060E-01  0.1721E-02
     -8.682  0.8754E-02  0.2194E-02
     -8.628  0.9378E-02  0.2701E-02
     -8.574  0.1019E-01  0.3252E-02
     -8.520  0.7972E-02  0.3683E-02
     -8.466  0.4159E-02  0.3908E-02
     -8.412  0.1550E-02  0.3991E-02
     -8.358  0.1068E-02  0.4049E-02
     -8.304  0.2241E-02  0.4170E-02
     -8.250  0.3716E-02  0.4371E-02
     -8.196  0.4313E-02  0.4604E-02
     -8.142  0.5296E-02  0.4891E-02
     -8.088  0.8141E-02  0.5331E-02
     -8.034  0.1190E-01  0.5974E-02
     -7.980  0.1611E-01  0.6845E-02
     -7.926  0.1922E-01  0.7884E-02
     -7.872  0.1774E-01  0.8843E-02
     -7.818  0.1255E-01  0.9522E-02
     -7.764  0.8116E-02  0.9960E-02
     -7.709  0.7967E-02  0.1039E-01
     -7.655  0.1182E-01  0.1103E-01
     -7.601  0.1566E-01  0.1188E-01
     -7.547  0.1671E-01  0.1278E-01
     -7.493  0.1561E-01  0.1362E-01
     -7.439  0.1633E-01  0.1451E-01
     -7.385  0.2279E-01  0.1574E-01
     -7.331  0.3149E-01  0.1744E-01
     -7.277  0.3495E-01  0.1933E-01
     -7.223  0.3216E-01  0.2107E-01
     -7.169  0.2920E-01  0.2265E-01
     -7.115  0.3023E-01  0.2428E-01
     -7.061  0.3442E-01  0.2614E-01
     -7.007  0.4267E-01  0.2845E-01
     -6.953  0.5526E-01  0.3143E-01
     -6.899  0.6595E-01  0.3500E-01
     -6.845  0.6915E-01  0.3874E-01
     -6.791  0.6676E-01  0.4235E-01
     -6.737  0.6533E-01  0.4588E-01
     -6.682  0.7104E-01  0.4972E-01
     -6.628  0.8404E-01  0.5426E-01
     -6.574  0.9538E-01  0.5941E-01
     -6.520  0.9864E-01  0.6475E-01
     -6.466  0.1002E+00  0.7016E-01
     -6.412  0.1097E+00  0.7609E-01
     -6.358  0.1275E+00  0.8298E-01
     -6.304  0.1453E+00  0.9084E-01
     -6.250  0.1556E+00  0.9925E-01
     -6.196  0.1593E+00  0.1079E+00
     -6.142  0.1612E+00  0.1166E+00
     -6.088  0.1636E+00  0.1254E+00
     -6.034  0.1673E+00  0.1345E+00
     -5.980  0.1688E+00  0.1436E+00
     -5.926  0.1658E+00  0.1525E+00
     -5.872  0.1633E+00  0.1614E+00
     -5.818  0.1631E+00  0.1702E+00
     -5.764  0.1597E+00  0.1788E+00
     -5.710  0.1505E+00  0.1870E+00
     -5.656  0.1379E+00  0.1944E+00
     -5.601  0.1283E+00  0.2014E+00
     -5.547  0.1258E+00  0.2082E+00
     -5.493  0.1250E+00  0.2149E+00
     -5.439  0.1215E+00  0.2215E+00
     -5.385  0.1219E+00  0.2281E+00
     -5.331  0.1333E+00  0.2353E+00
     -5.277  0.1509E+00  0.2434E+00
     -5.223  0.1653E+00  0.2524E+00
     -5.169  0.1725E+00  0.2617E+00
     -5.115  0.1736E+00  0.2711E+00
     -5.061  0.1730E+00  0.2804E+00
     -5.007  0.1742E+00  0.2898E+00
     -4.953  0.1760E+00  0.2993E+00
     -4.899  0.1756E+00  0.3088E+00
     -4.845  0.1747E+00  0.3183E+00
     -4.791  0.1754E+00  0.3278E+00
     -4.737  0.1757E+00  0.3373E+00
     -4.683  0.1759E+00  0.3468E+00
     -4.629  0.1765E+00  0.3563E+00
     -4.574  0.1747E+00  0.3657E+00
     -4.520  0.1723E+00  0.3751E+00
     -4.466  0.1740E+00  0.3845E+00
     -4.412  0.1788E+00  0.3941E+00
     -4.358  0.1827E+00  0.4040E+00
     -4.304  0.1842E+00  0.4140E+00
     -4.250  0.1831E+00  0.4239E+00
     -4.196  0.1803E+00  0.4336E+00
     -4.142  0.1789E+00  0.4433E+00
     -4.088  0.1787E+00  0.4529E+00
     -4.034  0.1760E+00  0.4624E+00
     -3.980  0.1725E+00  0.4718E+00
     -3.926  0.1732E+00  0.4811E+00
     -3.872  0.1771E+00  0.4907E+00
     -3.818  0.1797E+00  0.5004E+00
     -3.764  0.1798E+00  0.5101E+00
     -3.710  0.1799E+00  0.5199E+00
     -3.656  0.1820E+00  0.5297E+00
     -3.602  0.1844E+00  0.5397E+00
     -3.547  0.1852E+00  0.5497E+00
     -3.493  0.1865E+00  0.5598E+00
     -3.439  0.1881E+00  0.5699E+00
     -3.385  0.1875E+00  0.5801E+00
     -3.331  0.1857E+00  0.5901E+00
     -3.277  0.1860E+00  0.6001E+00
     -3.223  0.1876E+00  0.6103E+00
     -3.169  0.1858E+00  0.6203E+00
     -3.115  0.1810E+00  0.6301E+00
     -3.061  0.1770E+00  0.6397E+00
     -3.007  0.1763E+00  0.6492E+00
     -2.953  0.1816E+00  0.6590E+00
     -2.899  0.1918E+00  0.6694E+00
     -2.845  0.1990E+00  0.6801E+00
     -2.791  0.1998E+00  0.6909E+00
     -2.737  0.1982E+00  0.7017E+00
     -2.683  0.1989E+00  0.7124E+00
     -2.629  0.2004E+00  0.7232E+00
     -2.575  0.1996E+00  0.7340E+00
     -2.520  0.1951E+00  0.7446E+00
     -2.466  0.1871E+00  0.7547E+00
     -2.412  0.1794E+00  0.7644E+00
     -2.358  0.1770E+00  0.7740E+00
     -2.304  0.1786E+00  0.7836E+00
     -2.250  0.1792E+00  0.7933E+00
     -2.196  0.1806E+00  0.8031E+00
     -2.142  0.1869E+00  0.8132E+00
     -2.088  0.1960E+00  0.8238E+00
     -2.034  0.2033E+00  0.8347E+00
     -1.980  0.2068E+00  0.8459E+00
     -1.926  0.2075E+00  0.8571E+00
     -1.872  0.2075E+00  0.8684E+00
     -1.818  0.2075E+00  0.8796E+00
     -1.764  0.2100E+00  0.8909E+00
     -1.710  0.2169E+00  0.9026E+00
     -1.656  0.2223E+00  0.9147E+00
     -1.602  0.2190E+00  0.9265E+00
     -1.548  0.2080E+00  0.9377E+00
     -1.493  0.1965E+00  0.9484E+00
     -1.439  0.1901E+00  0.9586E+00
     -1.385  0.1867E+00  0.9687E+00
     -1.331  0.1794E+00  0.9784E+00
     -1.277  0.1653E+00  0.9874E+00
     -1.223  0.1464E+00  0.9953E+00
     -1.169  0.1243E+00  0.1002E+01
     -1.115  0.1014E+00  0.1007E+01
     -1.061  0.8091E-01  0.1012E+01
     -1.007  0.6221E-01  0.1015E+01
     -0.953  0.4355E-01  0.1018E+01
     -0.899  0.2772E-01  0.1019E+01
     -0.845  0.1887E-01  0.1020E+01
     -0.791  0.1617E-01  0.1021E+01
     -0.737  0.1534E-01  0.1022E+01
     -0.683  0.1537E-01  0.1023E+01
     -0.629  0.1795E-01  0.1024E+01
     -0.575  0.2450E-01  0.1025E+01
     -0.521  0.3503E-01  0.1027E+01
     -0.467  0.4502E-01  0.1029E+01
     -0.412  0.4889E-01  0.1032E+01
     -0.358  0.4644E-01  0.1034E+01
     -0.304  0.4338E-01  0.1037E+01
     -0.250  0.4335E-01  0.1039E+01
     -0.196  0.4222E-01  0.1041E+01
     -0.142  0.3613E-01  0.1043E+01
     -0.088  0.2734E-01  0.1045E+01
     -0.034  0.2022E-01  0.1046E+01
      0.020  0.1799E-01  0.1047E+01
      0.074  0.2060E-01  0.1048E+01
      0.128  0.2513E-01  0.1049E+01
      0.182  0.2814E-01  0.1051E+01
      0.236  0.2877E-01  0.1052E+01
      0.290  0.3091E-01  0.1054E+01
      0.344  0.3718E-01  0.1056E+01
      0.398  0.4407E-01  0.1058E+01
      0.452  0.4559E-01  0.1061E+01
      0.506  0.4308E-01  0.1063E+01
      0.560  0.4318E-01  0.1066E+01
      0.615  0.4705E-01  0.1068E+01
      0.669  0.5000E-01  0.1071E+01
      0.723  0.4822E-01  0.1073E+01
      0.777  0.4228E-01  0.1076E+01
      0.831  0.3462E-01  0.1078E+01
      0.885  0.2802E-01  0.1079E+01
      0.939  0.2449E-01  0.1080E+01
      0.993  0.2322E-01  0.1082E+01
      1.047  0.2108E-01  0.1083E+01
      1.101  0.1718E-01  0.1084E+01
      1.155  0.1414E-01  0.1085E+01
      1.209  0.1278E-01  0.1085E+01
      1.263  0.1167E-01  0.1086E+01
      1.317  0.1192E-01  0.1086E+01
      1.371  0.1433E-01  0.1087E+01
      1.425  0.1734E-01  0.1088E+01
      1.479  0.2220E-01  0.1089E+01
      1.533  0.2963E-01  0.1091E+01
      1.587  0.3478E-01  0.1093E+01
      1.642  0.3475E-01  0.1095E+01
      1.696  0.3233E-01  0.1097E+01
      1.750  0.3081E-01  0.1098E+01
      1.804  0.3199E-01  0.1100E+01
      1.858  0.3232E-01  0.1102E+01
      1.912  0.2663E-01  0.1103E+01
      1.966  0.1895E-01  0.1104E+01
      2.020  0.1627E-01  0.1105E+01
      2.074  0.1849E-01  0.1106E+01
      2.128  0.2475E-01  0.1107E+01
      2.182  0.3439E-01  0.1109E+01
      2.236  0.4188E-01  0.1111E+01
      2.290  0.4593E-01  0.1114E+01
      2.344  0.4952E-01  0.1117E+01
      2.398  0.5146E-01  0.1119E+01
      2.452  0.5163E-01  0.1122E+01
      2.506  0.5023E-01  0.1125E+01
      2.560  0.4562E-01  0.1127E+01
      2.614  0.4264E-01  0.1130E+01
      2.669  0.4493E-01  0.1132E+01
      2.723  0.4479E-01  0.1135E+01
      2.777  0.3514E-01  0.1136E+01
      2.831  0.2052E-01  0.1138E+01
      2.885  0.1081E-01  0.1138E+01
      2.939  0.9615E-02  0.1139E+01
      2.993  0.1125E-01  0.1139E+01
      3.047  0.1037E-01  0.1140E+01
      3.101  0.9948E-02  0.1140E+01
      3.155  0.1441E-01  0.1141E+01
      3.209  0.2133E-01  0.1142E+01
      3.263  0.2499E-01  0.1144E+01
      3.317  0.2333E-01  0.1145E+01
      3.371  0.1969E-01  0.1146E+01
      3.425  0.1875E-01  0.1147E+01
      3.479  0.2110E-01  0.1148E+01
      3.533  0.2442E-01  0.1149E+01
      3.587  0.2941E-01  0.1151E+01
      3.641  0.3676E-01  0.1153E+01
      3.696  0.4201E-01  0.1155E+01
      3.750  0.4108E-01  0.1157E+01
      3.804  0.3457E-01  0.1159E+01
      3.858  0.2588E-01  0.1161E+01
      3.912  0.1964E-01  0.1162E+01
      3.966  0.2090E-01  0.1163E+01
      4.020  0.2892E-01  0.1165E+01
      4.074  0.3252E-01  0.1166E+01
      4.128  0.2679E-01  0.1168E+01
      4.182  0.2253E-01  0.1169E+01
      4.236  0.2346E-01  0.1170E+01
      4.290  0.2079E-01  0.1171E+01
      4.344  0.1547E-01  0.1172E+01
      4.398  0.1674E-01  0.1173E+01
      4.452  0.2464E-01  0.1174E+01
      4.506  0.3301E-01  0.1176E+01
      4.560  0.4012E-01  0.1178E+01
      4.614  0.4686E-01  0.1181E+01
      4.668  0.5095E-01  0.1184E+01
      4.722  0.5042E-01  0.1186E+01
      4.777  0.4867E-01  0.1189E+01
      4.831  0.5036E-01  0.1192E+01
      4.885  0.5447E-01  0.1195E+01
      4.939  0.5742E-01  0.1198E+01
      4.993  0.6036E-01  0.1201E+01
      5.047  0.6491E-01  0.1205E+01
      5.101  0.6674E-01  0.1208E+01
      5.155  0.6309E-01  0.1212E+01
      5.209  0.6022E-01  0.1215E+01
      5.263  0.5943E-01  0.1218E+01
      5.317  0.5047E-01  0.1221E+01
      5.371  0.3261E-01  0.1223E+01
      5.425  0.1688E-01  0.1223E+01
      5.479  0.7475E-02  0.1224E+01
      5.533  0.2552E-02  0.1224E+01
      5.587  0.5725E-03  0.1224E+01
      5.641  0.7712E-04  0.1224E+01
      5.695  0.6023E-05  0.1224E+01
      5.749  0.2690E-06  0.1224E+01
      5.804  0.6831E-08  0.1224E+01
      5.858  0.9824E-10  0.1224E+01
      5.912  0.7983E-12  0.1224E+01
      5.966  0.3659E-14  0.1224E+01
      6.020  0.8216E-17  0.1224E+01
      6.074  0.0000E+00  0.1224E+01
      6.128  0.0000E+00  0.1224E+01
      6.182  0.0000E+00  0.1224E+01
      6.236  0.0000E+00  0.1224E+01
      6.290  0.0000E+00  0.1224E+01
      6.344  0.0000E+00  0.1224E+01
      6.398  0.0000E+00  0.1224E+01
