       N       E                     dE             d eps       ncg     rms          rms(c)
DAV:   1     0.320073657491E+04    0.32007E+04   -0.18991E+05  3672   0.112E+03
DAV:   2     0.107889648405E+02   -0.31899E+04   -0.29347E+04  4392   0.263E+02
DAV:   3    -0.203238313954E+03   -0.21403E+03   -0.19946E+03  4128   0.650E+01
DAV:   4    -0.208904351358E+03   -0.56660E+01   -0.56060E+01  4236   0.107E+01
DAV:   5    -0.209089137408E+03   -0.18479E+00   -0.18413E+00  4380   0.196E+00    0.618E+01
RMM:   6    -0.212626722339E+03   -0.35376E+01   -0.11334E+02  3672   0.163E+01    0.600E+01
RMM:   7    -0.207499950206E+03    0.51268E+01   -0.58097E+01  3679   0.123E+01    0.451E+01
RMM:   8    -0.221286879247E+03   -0.13787E+02   -0.95221E+01  3672   0.144E+01    0.449E+01
RMM:   9    -0.215552745428E+03    0.57341E+01   -0.45679E+01  3678   0.106E+01    0.373E+01
RMM:  10    -0.200452994822E+03    0.15100E+02   -0.19949E+01  3678   0.739E+00    0.222E+01
RMM:  11    -0.196379902183E+03    0.40731E+01   -0.16879E+01  3678   0.657E+00    0.173E+01
RMM:  12    -0.191742967890E+03    0.46369E+01   -0.59288E+00  3678   0.382E+00    0.126E+01
RMM:  13    -0.190747828675E+03    0.99514E+00   -0.21657E+00  3679   0.227E+00    0.821E+00
RMM:  14    -0.190369716175E+03    0.37811E+00   -0.10566E+00  3678   0.148E+00    0.657E+00
RMM:  15    -0.190387861612E+03   -0.18145E-01   -0.40576E-01  3679   0.970E-01    0.599E+00
RMM:  16    -0.190166100277E+03    0.22176E+00   -0.28744E-01  3678   0.847E-01    0.404E+00
RMM:  17    -0.190052621670E+03    0.11348E+00   -0.33110E-01  3678   0.874E-01    0.247E+00
RMM:  18    -0.189985035135E+03    0.67587E-01   -0.70427E-02  3678   0.402E-01    0.120E+00
RMM:  19    -0.189974221947E+03    0.10813E-01   -0.21017E-02  3679   0.224E-01    0.782E-01
RMM:  20    -0.189971672401E+03    0.25495E-02   -0.50544E-03  3679   0.107E-01    0.664E-01
RMM:  21    -0.189969732878E+03    0.19395E-02   -0.38231E-03  3680   0.932E-02    0.541E-01
RMM:  22    -0.189967473549E+03    0.22593E-02   -0.26985E-03  3679   0.793E-02    0.309E-01
RMM:  23    -0.189966592655E+03    0.88089E-03   -0.17974E-03  3678   0.620E-02    0.186E-01
RMM:  24    -0.189966360443E+03    0.23221E-03   -0.53960E-04  3680   0.350E-02    0.844E-02
RMM:  25    -0.189966554151E+03   -0.19371E-03   -0.21083E-04  3678   0.218E-02    0.761E-02
RMM:  26    -0.189966763572E+03   -0.20942E-03   -0.11962E-04  3678   0.166E-02    0.544E-02
RMM:  27    -0.189967266258E+03   -0.50269E-03   -0.85740E-05  3678   0.132E-02    0.505E-02
RMM:  28    -0.189967451814E+03   -0.18556E-03   -0.34837E-05  3672   0.854E-03    0.266E-02
RMM:  29    -0.189967805595E+03   -0.35378E-03   -0.22862E-05  3631   0.692E-03    0.282E-02
RMM:  30    -0.189968313918E+03   -0.50832E-03   -0.23431E-05  3640   0.660E-03    0.129E-02
RMM:  31    -0.189969041569E+03   -0.72765E-03   -0.46503E-05  3672   0.903E-03    0.171E-02
RMM:  32    -0.189969350501E+03   -0.30893E-03   -0.24399E-05  3427   0.630E-03    0.834E-03
RMM:  33    -0.189969522348E+03   -0.17185E-03   -0.98260E-06  2815   0.385E-03    0.729E-03
RMM:  34    -0.189969594173E+03   -0.71825E-04   -0.28998E-06  2431   0.221E-03    0.325E-03
RMM:  35    -0.189969683525E+03   -0.89352E-04   -0.19836E-06  2313   0.193E-03    0.230E-03
RMM:  36    -0.189969715174E+03   -0.31649E-04   -0.65781E-07  2138   0.112E-03    0.194E-03
RMM:  37    -0.189969755639E+03   -0.40466E-04   -0.62356E-07  2158   0.111E-03    0.194E-03
RMM:  38    -0.189969769775E+03   -0.14136E-04   -0.28510E-07  1831   0.719E-04    0.157E-03
RMM:  39    -0.189969782545E+03   -0.12770E-04   -0.31820E-07  2067   0.791E-04    0.863E-04
RMM:  40    -0.189969784655E+03   -0.21105E-05   -0.78060E-08   943   0.353E-04    0.653E-04
RMM:  41    -0.189969786401E+03   -0.17461E-05   -0.38632E-08   774   0.349E-04    0.327E-04
RMM:  42    -0.189969787218E+03   -0.81684E-06   -0.21085E-08   653   0.352E-04
   1 F= -.18996979E+03 E0= -.18983069E+03  d E =-.189970E+03
       N       E                     dE             d eps       ncg     rms          rms(c)
DAV:   1    -0.190935072625E+03   -0.96529E+00   -0.33078E+02  3672   0.278E+01    0.337E+00
RMM:   2    -0.191295841915E+03   -0.36077E+00   -0.34798E+00  3678   0.405E+00    0.256E+00
RMM:   3    -0.191454461746E+03   -0.15862E+00   -0.42146E-01  3703   0.112E+00    0.475E+00
RMM:   4    -0.191272485466E+03    0.18198E+00   -0.15309E-01  3686   0.645E-01    0.163E+00
RMM:   5    -0.191295627779E+03   -0.23142E-01   -0.97885E-02  3681   0.478E-01    0.210E+00
RMM:   6    -0.191264032655E+03    0.31595E-01   -0.52542E-02  3681   0.359E-01    0.134E+00
RMM:   7    -0.191246948566E+03    0.17084E-01   -0.17364E-02  3684   0.213E-01    0.468E-01
RMM:   8    -0.191244973341E+03    0.19752E-02   -0.53679E-03  3679   0.115E-01    0.297E-01
RMM:   9    -0.191244178134E+03    0.79521E-03   -0.25179E-03  3681   0.779E-02    0.195E-01
RMM:  10    -0.191243851784E+03    0.32635E-03   -0.93921E-04  3682   0.480E-02    0.103E-01
RMM:  11    -0.191243766187E+03    0.85597E-04   -0.20128E-04  3687   0.226E-02    0.551E-02
RMM:  12    -0.191243753535E+03    0.12652E-04   -0.49317E-05  3682   0.113E-02    0.360E-02
RMM:  13    -0.191243746308E+03    0.72269E-05   -0.22328E-05  3676   0.776E-03    0.201E-02
RMM:  14    -0.191243746352E+03   -0.44070E-07   -0.10913E-05  3586   0.542E-03    0.148E-02
RMM:  15    -0.191243744772E+03    0.15800E-05   -0.35231E-06  2580   0.312E-03    0.600E-03
RMM:  16    -0.191243745415E+03   -0.64255E-06   -0.90630E-07  2004   0.169E-03
   2 F= -.19124375E+03 E0= -.19110519E+03  d E =-.127396E+01
       N       E                     dE             d eps       ncg     rms          rms(c)
DAV:   1    -0.190034196818E+03    0.12095E+01   -0.30843E+03  3672   0.870E+01    0.833E+00
RMM:   2    -0.193154556046E+03   -0.31204E+01   -0.30424E+01  3672   0.120E+01    0.647E+00
RMM:   3    -0.194003251730E+03   -0.84870E+00   -0.28984E+00  3706   0.290E+00    0.103E+01
RMM:   4    -0.192849891148E+03    0.11534E+01   -0.78497E-01  3683   0.148E+00    0.372E+00
RMM:   5    -0.193065849703E+03   -0.21596E+00   -0.54696E-01  3681   0.114E+00    0.535E+00
RMM:   6    -0.192894620741E+03    0.17123E+00   -0.43913E-01  3681   0.104E+00    0.342E+00
RMM:   7    -0.192765026597E+03    0.12959E+00   -0.13766E-01  3682   0.590E-01    0.136E+00
RMM:   8    -0.192759781363E+03    0.52452E-02   -0.57040E-02  3679   0.370E-01    0.133E+00
RMM:   9    -0.192740001709E+03    0.19780E-01   -0.23149E-02  3680   0.241E-01    0.347E-01
RMM:  10    -0.192739640751E+03    0.36096E-03   -0.49188E-03  3684   0.108E-01    0.295E-01
RMM:  11    -0.192738987218E+03    0.65353E-03   -0.15252E-03  3679   0.623E-02    0.183E-01
RMM:  12    -0.192738905756E+03    0.81461E-04   -0.59224E-04  3680   0.387E-02    0.135E-01
RMM:  13    -0.192738783674E+03    0.12208E-03   -0.28325E-04  3681   0.275E-02    0.679E-02
RMM:  14    -0.192738788021E+03   -0.43470E-05   -0.11127E-04  3678   0.171E-02    0.566E-02
RMM:  15    -0.192738757194E+03    0.30827E-04   -0.38203E-05  3674   0.993E-03    0.199E-02
RMM:  16    -0.192738760690E+03   -0.34961E-05   -0.95979E-06  3375   0.493E-03    0.145E-02
RMM:  17    -0.192738763379E+03   -0.26893E-05   -0.35698E-06  2661   0.313E-03    0.695E-03
RMM:  18    -0.192738767364E+03   -0.39849E-05   -0.12087E-06  2098   0.188E-03    0.551E-03
RMM:  19    -0.192738771720E+03   -0.43556E-05   -0.51190E-07  2069   0.130E-03    0.254E-03
RMM:  20    -0.192738775067E+03   -0.33475E-05   -0.19944E-07  1891   0.715E-04    0.181E-03
RMM:  21    -0.192738778657E+03   -0.35892E-05   -0.11890E-07  1463   0.554E-04    0.786E-04
RMM:  22    -0.192738781379E+03   -0.27229E-05   -0.65845E-08  1003   0.436E-04    0.737E-04
RMM:  23    -0.192738786178E+03   -0.47987E-05   -0.19551E-07  1611   0.546E-04    0.880E-04
RMM:  24    -0.192738789654E+03   -0.34758E-05   -0.19305E-07  1410   0.501E-04    0.543E-04
RMM:  25    -0.192738790925E+03   -0.12708E-05   -0.78622E-08   919   0.394E-04    0.405E-04
RMM:  26    -0.192738791786E+03   -0.86155E-06   -0.70396E-08   866   0.385E-04
   3 F= -.19273879E+03 E0= -.19260572E+03  d E =-.276900E+01
       N       E                     dE             d eps       ncg     rms          rms(c)
DAV:   1    -0.192878191163E+03   -0.13940E+00   -0.24542E+02  3684   0.242E+01    0.212E+00
RMM:   2    -0.193149877014E+03   -0.27169E+00   -0.28078E+00  3679   0.357E+00    0.170E+00
RMM:   3    -0.193210796802E+03   -0.60920E-01   -0.23155E-01  3708   0.828E-01    0.297E+00
RMM:   4    -0.193141742138E+03    0.69055E-01   -0.60616E-02  3684   0.409E-01    0.125E+00
RMM:   5    -0.193135291107E+03    0.64510E-02   -0.27433E-02  3681   0.257E-01    0.997E-01
RMM:   6    -0.193134726079E+03    0.56503E-03   -0.33973E-02  3679   0.289E-01    0.943E-01
RMM:   7    -0.193125849104E+03    0.88770E-02   -0.12767E-02  3679   0.181E-01    0.351E-01
RMM:   8    -0.193125122044E+03    0.72706E-03   -0.35867E-03  3678   0.947E-02    0.290E-01
RMM:   9    -0.193124089065E+03    0.10330E-02   -0.14880E-03  3679   0.614E-02    0.109E-01
RMM:  10    -0.193123995768E+03    0.93297E-04   -0.34647E-04  3682   0.288E-02    0.659E-02
RMM:  11    -0.193123957411E+03    0.38357E-04   -0.86501E-05  3684   0.144E-02    0.348E-02
RMM:  12    -0.193123954390E+03    0.30208E-05   -0.52474E-05  3679   0.112E-02    0.287E-02
RMM:  13    -0.193123949487E+03    0.49034E-05   -0.18052E-05  3673   0.685E-03    0.136E-02
RMM:  14    -0.193123949851E+03   -0.36423E-06   -0.40779E-06  2717   0.343E-03
   4 F= -.19312395E+03 E0= -.19299502E+03  d E =-.385158E+00
       N       E                     dE             d eps       ncg     rms          rms(c)
DAV:   1    -0.193109619032E+03    0.14330E-01   -0.58018E+01  3732   0.118E+01    0.956E-01
RMM:   2    -0.193175176780E+03   -0.65558E-01   -0.67182E-01  3679   0.174E+00    0.862E-01
RMM:   3    -0.193187389381E+03   -0.12213E-01   -0.54040E-02  3709   0.401E-01    0.139E+00
RMM:   4    -0.193172539124E+03    0.14850E-01   -0.13119E-02  3683   0.190E-01    0.599E-01
RMM:   5    -0.193170190989E+03    0.23481E-02   -0.51637E-03  3681   0.113E-01    0.412E-01
RMM:   6    -0.193170623915E+03   -0.43293E-03   -0.82689E-03  3679   0.143E-01    0.445E-01
RMM:   7    -0.193168748611E+03    0.18753E-02   -0.31336E-03  3679   0.892E-02    0.171E-01
RMM:   8    -0.193168568154E+03    0.18046E-03   -0.80993E-04  3678   0.452E-02    0.134E-01
RMM:   9    -0.193168336014E+03    0.23214E-03   -0.34539E-04  3679   0.295E-02    0.524E-02
RMM:  10    -0.193168311771E+03    0.24243E-04   -0.82186E-05  3681   0.140E-02    0.308E-02
RMM:  11    -0.193168303489E+03    0.82815E-05   -0.21382E-05  3674   0.707E-03    0.165E-02
RMM:  12    -0.193168303434E+03    0.55130E-07   -0.14908E-05  3677   0.590E-03    0.128E-02
RMM:  13    -0.193168303255E+03    0.17884E-06   -0.42888E-06  2744   0.342E-03
   5 F= -.19316830E+03 E0= -.19304133E+03  d E =-.429511E+00
       N       E                     dE             d eps       ncg     rms          rms(c)
DAV:   1    -0.193179725432E+03   -0.11422E-01   -0.31951E+01  3672   0.872E+00    0.718E-01
RMM:   2    -0.193214762346E+03   -0.35037E-01   -0.35799E-01  3680   0.128E+00    0.610E-01
RMM:   3    -0.193222090814E+03   -0.73285E-02   -0.28285E-02  3710   0.292E-01    0.103E+00
RMM:   4    -0.193213552024E+03    0.85388E-02   -0.72697E-03  3681   0.141E-01    0.437E-01
RMM:   5    -0.193213044194E+03    0.50783E-03   -0.40932E-03  3680   0.999E-02    0.386E-01
RMM:   6    -0.193212832494E+03    0.21170E-03   -0.44030E-03  3679   0.105E-01    0.351E-01
RMM:   7    -0.193211631178E+03    0.12013E-02   -0.18764E-03  3678   0.692E-02    0.119E-01
RMM:   8    -0.193211527878E+03    0.10330E-03   -0.39123E-04  3681   0.315E-02    0.784E-02
RMM:   9    -0.193211449868E+03    0.78010E-04   -0.16840E-04  3678   0.208E-02    0.430E-02
RMM:  10    -0.193211425121E+03    0.24747E-04   -0.52406E-05  3681   0.111E-02    0.194E-02
RMM:  11    -0.193211422388E+03    0.27325E-05   -0.11391E-05  3671   0.521E-03    0.129E-02
RMM:  12    -0.193211421568E+03    0.82064E-06   -0.90806E-06  3672   0.458E-03
   6 F= -.19321142E+03 E0= -.19308572E+03  d E =-.431183E-01
       N       E                     dE             d eps       ncg     rms          rms(c)
DAV:   1    -0.193210114140E+03    0.13082E-02   -0.54987E+00  3744   0.361E+00    0.292E-01
RMM:   2    -0.193216163542E+03   -0.60494E-02   -0.61754E-02  3679   0.533E-01    0.257E-01
RMM:   3    -0.193217351801E+03   -0.11883E-02   -0.48650E-03  3713   0.121E-01    0.421E-01
RMM:   4    -0.193215900194E+03    0.14516E-02   -0.12200E-03  3682   0.577E-02    0.180E-01
RMM:   5    -0.193215821830E+03    0.78363E-04   -0.67959E-04  3681   0.409E-02    0.155E-01
RMM:   6    -0.193215795826E+03    0.26005E-04   -0.75901E-04  3678   0.438E-02    0.143E-01
RMM:   7    -0.193215599512E+03    0.19631E-03   -0.32071E-04  3678   0.286E-02    0.504E-02
RMM:   8    -0.193215581170E+03    0.18342E-04   -0.66122E-05  3682   0.130E-02    0.312E-02
RMM:   9    -0.193215569556E+03    0.11615E-04   -0.28417E-05  3672   0.851E-03    0.193E-02
RMM:  10    -0.193215564569E+03    0.49867E-05   -0.96766E-06  3672   0.481E-03    0.876E-03
RMM:  11    -0.193215563935E+03    0.63398E-06   -0.18059E-06  2110   0.222E-03
   7 F= -.19321556E+03 E0= -.19309040E+03  d E =-.472607E-01
       N       E                     dE             d eps       ncg     rms          rms(c)
DAV:   1    -0.193218050990E+03   -0.24864E-02   -0.56366E+00  3684   0.364E+00    0.240E-01
RMM:   2    -0.193223946611E+03   -0.58956E-02   -0.62223E-02  3678   0.536E-01    0.190E-01
RMM:   3    -0.193224103868E+03   -0.15726E-03   -0.36145E-03  3723   0.109E-01    0.179E-01
RMM:   4    -0.193224160041E+03   -0.56172E-04   -0.86815E-04  3675   0.481E-02    0.227E-01
RMM:   5    -0.193223869965E+03    0.29008E-03   -0.56403E-04  3683   0.374E-02    0.173E-01
RMM:   6    -0.193223738025E+03    0.13194E-03   -0.72205E-04  3679   0.426E-02    0.118E-01
RMM:   7    -0.193223678420E+03    0.59605E-04   -0.29506E-04  3679   0.275E-02    0.718E-02
RMM:   8    -0.193223630056E+03    0.48364E-04   -0.74091E-05  3683   0.139E-02    0.303E-02
RMM:   9    -0.193223616754E+03    0.13303E-04   -0.33280E-05  3678   0.887E-03    0.220E-02
RMM:  10    -0.193223609346E+03    0.74077E-05   -0.14108E-05  3672   0.579E-03    0.859E-03
RMM:  11    -0.193223608750E+03    0.59597E-06   -0.51284E-06  3261   0.343E-03
   8 F= -.19322361E+03 E0= -.19309845E+03  d E =-.804482E-02
       N       E                     dE             d eps       ncg     rms          rms(c)
DAV:   1    -0.193222839263E+03    0.77008E-03   -0.25459E+00  3720   0.244E+00    0.159E-01
RMM:   2    -0.193225500722E+03   -0.26615E-02   -0.28112E-02  3678   0.361E-01    0.127E-01
RMM:   3    -0.193225573183E+03   -0.72461E-04   -0.16302E-03  3724   0.729E-02    0.121E-01
RMM:   4    -0.193225589767E+03   -0.16584E-04   -0.38124E-04  3675   0.319E-02    0.151E-01
RMM:   5    -0.193225460991E+03    0.12878E-03   -0.25096E-04  3683   0.250E-02    0.116E-01
RMM:   6    -0.193225404857E+03    0.56134E-04   -0.32602E-04  3679   0.286E-02    0.797E-02
RMM:   7    -0.193225378952E+03    0.25905E-04   -0.13646E-04  3680   0.187E-02    0.487E-02
RMM:   8    -0.193225356694E+03    0.22259E-04   -0.34327E-05  3680   0.947E-03    0.203E-02
RMM:   9    -0.193225350395E+03    0.62988E-05   -0.15371E-05  3672   0.603E-03    0.143E-02
RMM:  10    -0.193225347259E+03    0.31353E-05   -0.60126E-06  3468   0.379E-03    0.577E-03
RMM:  11    -0.193225346971E+03    0.28843E-06   -0.23498E-06  2048   0.248E-03
   9 F= -.19322535E+03 E0= -.19310020E+03  d E =-.978304E-02
       N       E                     dE             d eps       ncg     rms          rms(c)
DAV:   1    -0.193225346561E+03    0.69882E-06   -0.50949E+00  3672   0.346E+00    0.203E-01
RMM:   2    -0.193230776417E+03   -0.54299E-02   -0.55850E-02  3678   0.511E-01    0.207E-01
RMM:   3    -0.193231079987E+03   -0.30357E-03   -0.35946E-03  3762   0.107E-01    0.238E-01
RMM:   4    -0.193230681500E+03    0.39849E-03   -0.62485E-04  3674   0.414E-02    0.166E-01
RMM:   5    -0.193230564548E+03    0.11695E-03   -0.44288E-04  3681   0.334E-02    0.143E-01
RMM:   6    -0.193230483128E+03    0.81420E-04   -0.66956E-04  3678   0.401E-02    0.114E-01
RMM:   7    -0.193230430157E+03    0.52971E-04   -0.42403E-04  3681   0.324E-02    0.706E-02
RMM:   8    -0.193230390296E+03    0.39860E-04   -0.74541E-05  3683   0.140E-02    0.365E-02
RMM:   9    -0.193230375393E+03    0.14903E-04   -0.26026E-05  3672   0.805E-03    0.289E-02
RMM:  10    -0.193230362409E+03    0.12984E-04   -0.20531E-05  3679   0.688E-03    0.136E-02
RMM:  11    -0.193230360239E+03    0.21705E-05   -0.10763E-05  3672   0.491E-03    0.886E-03
RMM:  12    -0.193230359459E+03    0.77956E-06   -0.57364E-06  3447   0.359E-03
  10 F= -.19323036E+03 E0= -.19310494E+03  d E =-.501249E-02
       N       E                     dE             d eps       ncg     rms          rms(c)
DAV:   1    -0.193228620819E+03    0.17394E-02   -0.30216E+00  3696   0.267E+00    0.154E-01
RMM:   2    -0.193231836777E+03   -0.32160E-02   -0.33087E-02  3678   0.394E-01    0.160E-01
RMM:   3    -0.193232006916E+03   -0.17014E-03   -0.21283E-03  3763   0.823E-02    0.182E-01
RMM:   4    -0.193231771722E+03    0.23519E-03   -0.36155E-04  3674   0.315E-02    0.126E-01
RMM:   5    -0.193231701759E+03    0.69963E-04   -0.25541E-04  3681   0.254E-02    0.109E-01
RMM:   6    -0.193231660053E+03    0.41706E-04   -0.40372E-04  3678   0.312E-02    0.879E-02
RMM:   7    -0.193231629827E+03    0.30225E-04   -0.25427E-04  3681   0.251E-02    0.552E-02
RMM:   8    -0.193231605565E+03    0.24262E-04   -0.45376E-05  3680   0.110E-02    0.279E-02
RMM:   9    -0.193231596796E+03    0.87694E-05   -0.15614E-05  3672   0.622E-03    0.226E-02
RMM:  10    -0.193231589125E+03    0.76707E-05   -0.11784E-05  3672   0.523E-03    0.107E-02
RMM:  11    -0.193231587812E+03    0.13133E-05   -0.67215E-06  3614   0.389E-03    0.680E-03
RMM:  12    -0.193231587347E+03    0.46453E-06   -0.31105E-06  2118   0.283E-03
  11 F= -.19323159E+03 E0= -.19310595E+03  d E =-.624038E-02
       N       E                     dE             d eps       ncg     rms          rms(c)
DAV:   1    -0.193229865873E+03    0.17219E-02   -0.45824E+00  3672   0.330E+00    0.170E-01
RMM:   2    -0.193234812750E+03   -0.49469E-02   -0.50285E-02  3678   0.485E-01    0.201E-01
RMM:   3    -0.193234890347E+03   -0.77597E-04   -0.32316E-03  3763   0.101E-01    0.199E-01
RMM:   4    -0.193234615972E+03    0.27437E-03   -0.37554E-04  3675   0.333E-02    0.127E-01
RMM:   5    -0.193234593775E+03    0.22197E-04   -0.22132E-04  3682   0.233E-02    0.133E-01
RMM:   6    -0.193234446655E+03    0.14712E-03   -0.49155E-04  3679   0.341E-02    0.992E-02
RMM:   7    -0.193234430266E+03    0.16389E-04   -0.52039E-04  3681   0.353E-02    0.731E-02
RMM:   8    -0.193234399666E+03    0.30600E-04   -0.97607E-05  3683   0.158E-02    0.385E-02
RMM:   9    -0.193234387619E+03    0.12047E-04   -0.17313E-05  3669   0.679E-03    0.289E-02
RMM:  10    -0.193234375139E+03    0.12480E-04   -0.17548E-05  3672   0.638E-03    0.174E-02
RMM:  11    -0.193234371007E+03    0.41328E-05   -0.12230E-05  3672   0.528E-03    0.105E-02
RMM:  12    -0.193234369768E+03    0.12381E-05   -0.97674E-06  3672   0.461E-03    0.383E-03
RMM:  13    -0.193234369890E+03   -0.12124E-06   -0.11373E-06  1954   0.180E-03
  12 F= -.19323437E+03 E0= -.19310852E+03  d E =-.278254E-02
       N       E                     dE             d eps       ncg     rms          rms(c)
DAV:   1    -0.193233694763E+03    0.67501E-03   -0.10628E+00  3708   0.159E+00    0.813E-02
RMM:   2    -0.193234835429E+03   -0.11407E-02   -0.11646E-02  3678   0.234E-01    0.968E-02
RMM:   3    -0.193234844737E+03   -0.93082E-05   -0.74664E-04  3765   0.487E-02    0.940E-02
RMM:   4    -0.193234784929E+03    0.59808E-04   -0.84522E-05  3675   0.159E-02    0.613E-02
RMM:   5    -0.193234782449E+03    0.24797E-05   -0.50291E-05  3681   0.111E-02    0.648E-02
RMM:   6    -0.193234750025E+03    0.32425E-04   -0.11500E-04  3678   0.165E-02    0.481E-02
RMM:   7    -0.193234747923E+03    0.21015E-05   -0.12354E-04  3678   0.172E-02    0.355E-02
RMM:   8    -0.193234741084E+03    0.68393E-05   -0.23107E-05  3673   0.766E-03    0.188E-02
RMM:   9    -0.193234738270E+03    0.28139E-05   -0.39227E-06  2726   0.329E-03    0.140E-02
RMM:  10    -0.193234735286E+03    0.29840E-05   -0.40706E-06  2746   0.323E-03    0.861E-03
RMM:  11    -0.193234734287E+03    0.99857E-06   -0.29220E-06  1992   0.294E-03
  13 F= -.19323473E+03 E0= -.19310879E+03  d E =-.314694E-02
       N       E                     dE             d eps       ncg     rms          rms(c)
DAV:   1    -0.193233931861E+03    0.80343E-03   -0.20953E+00  3672   0.224E+00    0.131E-01
RMM:   2    -0.193236260794E+03   -0.23289E-02   -0.23477E-02  3677   0.328E-01    0.151E-01
RMM:   3    -0.193236392113E+03   -0.13132E-03   -0.16170E-03  3728   0.699E-02    0.185E-01
RMM:   4    -0.193236106962E+03    0.28515E-03   -0.22602E-04  3678   0.255E-02    0.824E-02
RMM:   5    -0.193236088290E+03    0.18673E-04   -0.10364E-04  3680   0.163E-02    0.768E-02
RMM:   6    -0.193236069136E+03    0.19153E-04   -0.27176E-04  3677   0.254E-02    0.687E-02
RMM:   7    -0.193236042607E+03    0.26529E-04   -0.18219E-04  3681   0.210E-02    0.323E-02
RMM:   8    -0.193236039117E+03    0.34902E-05   -0.22035E-05  3672   0.761E-03    0.245E-02
RMM:   9    -0.193236033001E+03    0.61160E-05   -0.65173E-06  3054   0.416E-03    0.146E-02
RMM:  10    -0.193236029860E+03    0.31408E-05   -0.58865E-06  3507   0.383E-03    0.958E-03
RMM:  11    -0.193236028639E+03    0.12216E-05   -0.26629E-06  2131   0.265E-03    0.544E-03
RMM:  12    -0.193236028403E+03    0.23557E-06   -0.27369E-06  1993   0.284E-03
  14 F= -.19323603E+03 E0= -.19311003E+03  d E =-.129412E-02
       N       E                     dE             d eps       ncg     rms          rms(c)
DAV:   1    -0.193236004266E+03    0.24372E-04   -0.72578E-02  3744   0.416E-01    0.243E-02
RMM:   2    -0.193236085860E+03   -0.81593E-04   -0.81230E-04  3678   0.612E-02    0.306E-02
RMM:   3    -0.193236088142E+03   -0.22824E-05   -0.56873E-05  3734   0.131E-02    0.342E-02
RMM:   4    -0.193236078228E+03    0.99136E-05   -0.75442E-06  3537   0.469E-03    0.158E-02
RMM:   5    -0.193236077944E+03    0.28416E-06   -0.32543E-06  2564   0.302E-03
  15 F= -.19323608E+03 E0= -.19311008E+03  d E =-.134366E-02
       N       E                     dE             d eps       ncg     rms          rms(c)
DAV:   1    -0.193235614023E+03    0.46421E-03   -0.13033E+00  3672   0.176E+00    0.979E-02
RMM:   2    -0.193237162812E+03   -0.15488E-02   -0.14527E-02  3676   0.259E-01    0.163E-01
RMM:   3    -0.193237077872E+03    0.84939E-04   -0.10687E-03  3753   0.569E-02    0.119E-01
RMM:   4    -0.193236966338E+03    0.11153E-03   -0.12332E-04  3674   0.189E-02    0.706E-02
RMM:   5    -0.193236938905E+03    0.27433E-04   -0.42794E-05  3679   0.108E-02    0.553E-02
RMM:   6    -0.193236941702E+03   -0.27969E-05   -0.22977E-04  3679   0.233E-02    0.576E-02
RMM:   7    -0.193236921596E+03    0.20106E-04   -0.10499E-04  3675   0.159E-02    0.251E-02
RMM:   8    -0.193236920256E+03    0.13396E-05   -0.12752E-05  3602   0.579E-03    0.196E-02
RMM:   9    -0.193236916185E+03    0.40705E-05   -0.34565E-06  2634   0.308E-03    0.115E-02
RMM:  10    -0.193236914509E+03    0.16760E-05   -0.37038E-06  2548   0.317E-03    0.890E-03
RMM:  11    -0.193236913308E+03    0.12011E-05   -0.39651E-06  2597   0.328E-03    0.283E-03
RMM:  12    -0.193236913406E+03   -0.97738E-07   -0.11691E-06  1941   0.194E-03
  16 F= -.19323691E+03 E0= -.19311086E+03  d E =-.835462E-03
