unknown system                          
           1
    11.002582    0.000000    0.000000
     5.501291    9.528515    0.000000
     0.000000    0.000000   24.491785
   Au   Pd
  24  24
Direct configuration=     1
   0.08333333  0.08333333  0.40830017
   0.75000000  0.50000000  0.59169983
   0.66666667  0.66666667  0.50000000
   0.83333333  0.58333333  0.40830017
   0.50000000  0.50000000  0.59169983
   0.41666667  0.66666667  0.50000000
   0.58333333  0.58333333  0.40830017
   0.50000000  0.25000000  0.59169983
   0.58333333  0.33333333  0.40830017
   0.50000000  0.00000000  0.59169983
   0.41666667  0.16666667  0.50000000
   0.66666667  0.91666667  0.50000000
   0.33333333  0.83333333  0.40830017
   0.25000000  0.50000000  0.59169983
   0.33333333  0.58333333  0.40830017
   0.25000000  0.25000000  0.59169983
   0.25000000  0.75000000  0.59169983
   0.75000000  0.75000000  0.59169983
   0.25000000  0.00000000  0.59169983
   0.00000000  0.25000000  0.59169983
   0.08333333  0.58333333  0.40830017
   0.33333333  0.08333333  0.40830017
   0.00000000  0.00000000  0.59169983
   0.00000000  0.50000000  0.59169983
   0.66666667  0.16666667  0.50000000
   0.75000000  0.00000000  0.59169983
   0.66666667  0.41666667  0.50000000
   0.83333333  0.08333333  0.40830017
   0.75000000  0.25000000  0.59169983
   0.08333333  0.33333333  0.40830017
   0.91666667  0.16666667  0.50000000
   0.83333333  0.83333333  0.40830017
   0.83333333  0.33333333  0.40830017
   0.50000000  0.75000000  0.59169983
   0.33333333  0.33333333  0.40830017
   0.58333333  0.83333333  0.40830017
   0.16666667  0.41666667  0.50000000
   0.91666667  0.66666667  0.50000000
   0.41666667  0.41666667  0.50000000
   0.08333333  0.83333333  0.40830017
   0.91666667  0.91666667  0.50000000
   0.58333333  0.08333333  0.40830017
   0.00000000  0.75000000  0.59169983
   0.16666667  0.91666667  0.50000000
   0.16666667  0.16666667  0.50000000
   0.16666667  0.66666667  0.50000000
   0.41666667  0.91666667  0.50000000
   0.91666667  0.41666667  0.50000000
Direct configuration=     2
   0.08178628  0.08414121  0.40682279
   0.74960023  0.49934569  0.59354838
   0.66651275  0.66692905  0.49990200
   0.83402558  0.58291369  0.40645710
   0.50106633  0.49929353  0.59356004
   0.41607659  0.66725063  0.50034800
   0.58440498  0.58271545  0.40606261
   0.50186679  0.24954806  0.59359491
   0.58422739  0.33174970  0.40675126
   0.50049883 -0.00098534  0.59393935
   0.41619505  0.16788017  0.49915932
   0.66809122  0.91695825  0.49924912
   0.33297214  0.83400179  0.40639306
   0.24913198  0.50089790  0.59327792
   0.33225738  0.58302918  0.40643736
   0.24945474  0.25027382  0.59358662
   0.24940562  0.75024337  0.59354372
   0.75058715  0.75052718  0.59386904
   0.25069217 -0.00074479  0.59327410
  -0.00080069  0.24991521  0.59319875
   0.08338441  0.58316303  0.40681580
   0.33372904  0.08379646  0.40647918
  -0.00155198  0.00000221  0.59313133
   0.00002205  0.50083337  0.59324703
   0.66807696  0.16663017  0.49983615
   0.75079845  0.00008549  0.59264927
   0.66818698  0.41456034  0.50000793
   0.83358572  0.08270788  0.40763915
   0.74990945  0.24949812  0.59243232
   0.08319148  0.33347707  0.40757000
   0.91557532  0.16711369  0.49968387
   0.83305485  0.83451127  0.40740176
   0.83392619  0.33264387  0.40757834
   0.49982467  0.75022684  0.59296572
   0.33316187  0.33309632  0.40735858
   0.58369979  0.83391696  0.40707862
   0.16630007  0.41683672  0.49953255
   0.91785143  0.66700801  0.49996302
   0.41660116  0.41615035  0.49974938
   0.08188436  0.83401334  0.40760125
   0.91700835  0.91655742  0.49968061
   0.58400171  0.08303802  0.40723221
  -0.00039995  0.75051686  0.59247815
   0.16565770  0.91697719  0.49980277
   0.16566655  0.16729450  0.49968080
   0.16509259  0.66749397  0.49997742
   0.41614696  0.91657008  0.49995067
   0.91756132  0.41539670  0.49950068
Direct configuration=     3
   0.07714513  0.08656483  0.40239067
   0.74840092  0.49738276  0.59909404
   0.66605101  0.66771620  0.49960799
   0.83610233  0.58165477  0.40092789
   0.50426531  0.49717413  0.59914068
   0.41430636  0.66900253  0.50139201
   0.58761990  0.58086181  0.39934995
   0.50746715  0.24819225  0.59928015
   0.58690956  0.32699879  0.40210451
   0.50199530 -0.00394136  0.60065791
   0.41478021  0.17152068  0.49663726
   0.67236488  0.91783302  0.49699649
   0.33188854  0.83600716  0.40067175
   0.24652791  0.50359160  0.59801220
   0.32902952  0.58211672  0.40084893
   0.24781897  0.25109526  0.59924700
   0.24762246  0.75097347  0.59907540
   0.75234862  0.75210873  0.60037667
   0.25276867 -0.00297917  0.59799691
  -0.00320277  0.24966083  0.59769550
   0.08353766  0.58265212  0.40236270
   0.33491617  0.08518584  0.40101622
  -0.00620792  0.00000882  0.59742582
   0.00008820  0.50333348  0.59788862
   0.67230784  0.16652067  0.49934460
   0.75319381  0.00034194  0.59549758
   0.67274791  0.40824136  0.50003174
   0.83434288  0.08083153  0.40565608
   0.74963782  0.24799248  0.59462978
   0.08276592  0.33390827  0.40537951
   0.91230129  0.16845475  0.49873547
   0.83221939  0.83804508  0.40470654
   0.83570478  0.33057548  0.40541284
   0.49929867  0.75090735  0.59676338
   0.33264748  0.33238530  0.40453381
   0.58479916  0.83566782  0.40341398
   0.16520029  0.41734689  0.49813019
   0.92140572  0.66803205  0.49985207
   0.41640463  0.41460138  0.49899753
   0.07753743  0.83605337  0.40550449
   0.91803342  0.91622969  0.49872243
   0.58600682  0.08215210  0.40402831
  -0.00159981  0.75206744  0.59481310
   0.16263081  0.91790876  0.49921106
   0.16266620  0.16917798  0.49872320
   0.16037035  0.66997589  0.49990967
   0.41458784  0.91628034  0.49980267
   0.92024527  0.41158682  0.49800271
Direct configuration=     4
   0.07873086  0.08575352  0.40110241
   0.74931354  0.49872988  0.60004005
   0.66798556  0.66630543  0.49969422
   0.83563578  0.58269563  0.39981626
   0.50230800  0.49826991  0.60016202
   0.41432001  0.66697127  0.50094320
   0.58630663  0.58096007  0.39818243
   0.50528051  0.24743280  0.60021574
   0.58618680  0.32826305  0.40084231
   0.50245552 -0.00225442  0.60152627
   0.41582771  0.16908882  0.49787187
   0.67005581  0.91819223  0.49812058
   0.33202692  0.83509034  0.39947790
   0.24860177  0.50227185  0.59879426
   0.33071320  0.58270245  0.39992736
   0.24948295  0.25035494  0.60005108
   0.24778051  0.75092388  0.60033520
   0.75171492  0.75184827  0.60152883
   0.25093840 -0.00187286  0.59873579
  -0.00248618  0.24900647  0.59853483
   0.08238683  0.58331000  0.40093361
   0.33424739  0.08466604  0.39958345
  -0.00453851  0.00013880  0.59838720
  -0.00133571  0.50287322  0.59867886
   0.67040494  0.16667909  0.49950471
   0.75153194 -0.00017618  0.59598790
   0.67027106  0.41164346  0.49986060
   0.83417229  0.08077639  0.40454829
   0.75058033  0.24778924  0.59547175
   0.08344507  0.33315393  0.40418763
   0.91513023  0.16650058  0.49920063
   0.83296361  0.83672109  0.40330211
   0.83473414  0.33140616  0.40439050
   0.50057451  0.74952852  0.59751221
   0.33277890  0.33269289  0.40309644
   0.58501689  0.83490753  0.40259300
   0.16480236  0.41802703  0.49884007
   0.91972171  0.66688843  0.49980927
   0.41655161  0.41657284  0.49936198
   0.07841913  0.83557403  0.40463120
   0.91871712  0.91693278  0.49919118
   0.58571068  0.08238818  0.40270685
  -0.00172326  0.75250464  0.59554552
   0.16256063  0.91881289  0.49941518
   0.16382084  0.16745478  0.49906854
   0.16290997  0.66896029  0.49991359
   0.41418010  0.91846908  0.49967700
   0.91878599  0.41407073  0.49869813
Direct configuration=     5
   0.07950258  0.08535868  0.40047546
   0.74975768  0.49938547  0.60050045
   0.66892703  0.66561885  0.49973618
   0.83540872  0.58320218  0.39927528
   0.50135545  0.49880319  0.60065907
   0.41432665  0.66598274  0.50072478
   0.58566751  0.58100789  0.39761424
   0.50421636  0.24706321  0.60067106
   0.58583506  0.32887833  0.40022804
   0.50267949 -0.00143345  0.60194887
   0.41633749  0.16790531  0.49847271
   0.66893206  0.91836704  0.49866763
   0.33209426  0.83464416  0.39889690
   0.24961105  0.50162957  0.59917486
   0.33153259  0.58298751  0.39947886
   0.25029276  0.24999465  0.60044240
   0.24785742  0.75089974  0.60094830
   0.75140652  0.75172151  0.60208954
   0.25004767 -0.00133445  0.59909537
  -0.00213745  0.24868802  0.59894331
   0.08182676  0.58363017  0.40023812
   0.33392191  0.08441307  0.39888618
  -0.00372607  0.00020206  0.59885507
  -0.00202867  0.50264922  0.59906344
   0.66947887  0.16675619  0.49958263
   0.75072317 -0.00042833  0.59622652
   0.66906566  0.41329913  0.49977731
   0.83408928  0.08074956  0.40400916
   0.75103901  0.24769034  0.59588151
   0.08377559  0.33278682  0.40360759
   0.91650697  0.16554956  0.49942700
   0.83332580  0.83607675  0.40261863
   0.83426177  0.33181042  0.40389296
   0.50119542  0.74885749  0.59787664
   0.33284286  0.33284258  0.40239693
   0.58512285  0.83453753  0.40219345
   0.16460870  0.41835803  0.49918555
   0.91890217  0.66633188  0.49978843
   0.41662315  0.41753228  0.49953935
   0.07884823  0.83534075  0.40420620
   0.91904985  0.91727495  0.49941930
   0.58556656  0.08250307  0.40206374
  -0.00178334  0.75271741  0.59590196
   0.16252647  0.91925290  0.49951452
   0.16438276  0.16661616  0.49923661
   0.16414590  0.66846604  0.49991550
   0.41398167  0.91953427  0.49961583
   0.91807581  0.41527956  0.49903656
Direct configuration=     6
   0.07995680  0.08514999  0.39996245
   0.74947901  0.49935809  0.60086228
   0.66796836  0.66598505  0.49967620
   0.83461055  0.58325313  0.39881409
   0.50179786  0.49844295  0.60107138
   0.41474732  0.66713870  0.50049062
   0.58526567  0.58165018  0.39715965
   0.50377629  0.24773963  0.60102647
   0.58544214  0.32924454  0.39980320
   0.50200135 -0.00181547  0.60232114
   0.41565476  0.16874553  0.49871980
   0.66889448  0.91754302  0.49894460
   0.33253262  0.83410933  0.39852207
   0.24931797  0.50115771  0.59940109
   0.33166756  0.58310985  0.39911240
   0.25008249  0.25005384  0.60068102
   0.24829490  0.75092187  0.60143917
   0.75081674  0.75181423  0.60261506
   0.25080468 -0.00156048  0.59929483
  -0.00156287  0.24917331  0.59925429
   0.08254461  0.58357804  0.39976766
   0.33410130  0.08416066  0.39837492
  -0.00352624 -0.00008488  0.59940592
  -0.00102390  0.50187734  0.59933897
   0.66841088  0.16779810  0.49953429
   0.75083275 -0.00047454  0.59635793
   0.66852547  0.41421214  0.49973832
   0.83393485  0.08105719  0.40364468
   0.75015114  0.24848583  0.59604677
   0.08384765  0.33268022  0.40336265
   0.91648116  0.16621503  0.49948386
   0.83303803  0.83587858  0.40232054
   0.83420806  0.33200660  0.40370138
   0.50095334  0.74927355  0.59777777
   0.33296094  0.33288398  0.40217908
   0.58501648  0.83416167  0.40211129
   0.16522030  0.41806767  0.49946599
   0.91847077  0.66672565  0.49971997
   0.41673303  0.41681937  0.49960748
   0.07972946  0.83476605  0.40389178
   0.91864434  0.91700961  0.49960809
   0.58506337  0.08243251  0.40172692
  -0.00139131  0.75203500  0.59603490
   0.16410647  0.91845864  0.49960082
   0.16473130  0.16696327  0.49930714
   0.16446935  0.66792267  0.49984886
   0.41427262  0.91858757  0.49956618
   0.91794508  0.41528749  0.49930405
Direct configuration=     7
   0.08014526  0.08506340  0.39974960
   0.74936338  0.49934673  0.60101241
   0.66757061  0.66613699  0.49965132
   0.83427939  0.58327427  0.39862274
   0.50198142  0.49829349  0.60124245
   0.41492186  0.66761832  0.50039347
   0.58509895  0.58191667  0.39697104
   0.50359370  0.24802028  0.60117394
   0.58527911  0.32939649  0.39962692
   0.50171999 -0.00197397  0.60247560
   0.41537149  0.16909415  0.49882232
   0.66887889  0.91720112  0.49905951
   0.33271450  0.83388742  0.39836655
   0.24919637  0.50096194  0.59949496
   0.33172356  0.58316062  0.39896035
   0.24999525  0.25007840  0.60078002
   0.24847641  0.75093104  0.60164284
   0.75057204  0.75185270  0.60283310
   0.25111877 -0.00165427  0.59937759
  -0.00132447  0.24937466  0.59938332
   0.08284245  0.58355640  0.39957246
   0.33417573  0.08405593  0.39816279
  -0.00344333 -0.00020393  0.59963447
  -0.00060701  0.50155708  0.59945328
   0.66796775  0.16823040  0.49951424
   0.75087822 -0.00049372  0.59641245
   0.66830134  0.41459095  0.49972214
   0.83387078  0.08118484  0.40349345
   0.74978275  0.24881588  0.59611533
   0.08387755  0.33263599  0.40326102
   0.91647046  0.16649114  0.49950745
   0.83291864  0.83579635  0.40219686
   0.83418578  0.33208800  0.40362189
   0.50085290  0.74944617  0.59773674
   0.33300994  0.33290116  0.40208870
   0.58497235  0.83400573  0.40207720
   0.16547406  0.41794720  0.49958235
   0.91829178  0.66688903  0.49969156
   0.41677863  0.41652357  0.49963574
   0.08009509  0.83452761  0.40376133
   0.91847609  0.91689952  0.49968643
   0.58485459  0.08240323  0.40158717
  -0.00122866  0.75175186  0.59609006
   0.16476202  0.91812909  0.49963662
   0.16487591  0.16710729  0.49933640
   0.16460355  0.66769722  0.49982121
   0.41439334  0.91819478  0.49954558
   0.91789083  0.41529078  0.49941503
Direct configuration=     8
   0.08009834  0.08495653  0.39960233
   0.74930858  0.49926918  0.60119642
   0.66753185  0.66610989  0.49960285
   0.83453313  0.58290636  0.39844204
   0.50184190  0.49857541  0.60138432
   0.41485760  0.66767065  0.50032883
   0.58518465  0.58188610  0.39661562
   0.50376837  0.24792083  0.60142526
   0.58526551  0.32941245  0.39943273
   0.50149727 -0.00198031  0.60270673
   0.41528839  0.16898602  0.49871839
   0.66867724  0.91749779  0.49902808
   0.33275973  0.83406385  0.39811011
   0.24908401  0.50133043  0.59961391
   0.33178603  0.58288225  0.39878506
   0.25012762  0.24975954  0.60097679
   0.24886000  0.75042636  0.60185091
   0.75084861  0.75149267  0.60318475
   0.25128388 -0.00173656  0.59946015
  -0.00138116  0.24928490  0.59954866
   0.08295892  0.58326868  0.39944591
   0.33443228  0.08399064  0.39800035
  -0.00365462  0.00002800  0.59986793
  -0.00072522  0.50190555  0.59957450
   0.66788842  0.16847893  0.49938004
   0.75091292 -0.00025442  0.59641067
   0.66822087  0.41463762  0.49965155
   0.83392743  0.08121527  0.40350262
   0.74977570  0.24885154  0.59604882
   0.08371079  0.33295906  0.40335679
   0.91617379  0.16676425  0.49949134
   0.83268724  0.83594841  0.40225179
   0.83427954  0.33204089  0.40367206
   0.50066128  0.74945794  0.59759958
   0.33302127  0.33275866  0.40217156
   0.58477162  0.83415093  0.40212334
   0.16537539  0.41810896  0.49953200
   0.91848286  0.66681489  0.49958073
   0.41679469  0.41669384  0.49960444
   0.08011886  0.83461904  0.40376695
   0.91832730  0.91707295  0.49965707
   0.58468840  0.08219268  0.40170102
  -0.00102431  0.75120145  0.59606208
   0.16490731  0.91795953  0.49965694
   0.16491217  0.16739650  0.49923024
   0.16468928  0.66751658  0.49978513
   0.41450095  0.91825423  0.49940473
   0.91796330  0.41525312  0.49945586
Direct configuration=     9
   0.08006681  0.08488470  0.39950335
   0.74927175  0.49921706  0.60132010
   0.66750581  0.66609167  0.49957027
   0.83470367  0.58265910  0.39832059
   0.50174813  0.49876489  0.60147967
   0.41481441  0.66770582  0.50028539
   0.58524225  0.58186555  0.39637675
   0.50388576  0.24785398  0.60159418
   0.58525637  0.32942317  0.39930222
   0.50134759 -0.00198457  0.60286208
   0.41523254  0.16891335  0.49864855
   0.66854172  0.91769718  0.49900695
   0.33279013  0.83418242  0.39793776
   0.24900849  0.50157808  0.59969385
   0.33182802  0.58269517  0.39866725
   0.25021658  0.24954524  0.60110903
   0.24911781  0.75008716  0.60199074
   0.75103450  0.75125069  0.60342109
   0.25139485 -0.00179187  0.59951563
  -0.00141927  0.24922457  0.59965978
   0.08303720  0.58307530  0.39936087
   0.33460470  0.08394676  0.39789118
  -0.00379663  0.00018388  0.60002483
  -0.00080466  0.50213976  0.59965597
   0.66783510  0.16864596  0.49928985
   0.75093624 -0.00009359  0.59640947
   0.66816679  0.41466898  0.49960410
   0.83396550  0.08123572  0.40350879
   0.74977097  0.24887550  0.59600411
   0.08359872  0.33317618  0.40342116
   0.91597441  0.16694781  0.49948051
   0.83253172  0.83605061  0.40228872
   0.83434256  0.33200923  0.40370578
   0.50053250  0.74946585  0.59750740
   0.33302889  0.33266288  0.40222724
   0.58463672  0.83424852  0.40215435
   0.16530908  0.41821768  0.49949817
   0.91861128  0.66676505  0.49950625
   0.41680549  0.41680827  0.49958340
   0.08013484  0.83468048  0.40377073
   0.91822730  0.91718951  0.49963734
   0.58457670  0.08205116  0.40177753
  -0.00088697  0.75083152  0.59604328
   0.16500495  0.91784556  0.49967059
   0.16493653  0.16759087  0.49915889
   0.16474689  0.66739517  0.49976088
   0.41457328  0.91829418  0.49931007
   0.91801201  0.41522780  0.49948330
Direct configuration=    10
   0.08008826  0.08492949  0.39944505
   0.74928156  0.49914616  0.60148729
   0.66785327  0.66598573  0.49951716
   0.83484297  0.58255861  0.39817061
   0.50178141  0.49871547  0.60156480
   0.41466024  0.66758437  0.50014154
   0.58532516  0.58180627  0.39596840
   0.50387625  0.24783851  0.60180978
   0.58538624  0.32922708  0.39909755
   0.50182902 -0.00223975  0.60307193
   0.41519901  0.16898122  0.49862991
   0.66858674  0.91786720  0.49911217
   0.33274200  0.83422168  0.39764181
   0.24925469  0.50131196  0.59981567
   0.33183976  0.58260136  0.39849607
   0.25020897  0.24971525  0.60130382
   0.24891240  0.75027790  0.60217566
   0.75093578  0.75134615  0.60376343
   0.25113987 -0.00200709  0.59952161
  -0.00146470  0.24918370  0.59980098
   0.08293801  0.58313243  0.39926476
   0.33438619  0.08411193  0.39771493
  -0.00358865 -0.00012090  0.60018594
  -0.00081303  0.50199633  0.59974656
   0.66772550  0.16882085  0.49914867
   0.75090498 -0.00016527  0.59634711
   0.66804926  0.41478185  0.49952230
   0.83392486  0.08123244  0.40356013
   0.74972329  0.24898320  0.59586805
   0.08363052  0.33311803  0.40356013
   0.91603863  0.16688942  0.49949085
   0.83252263  0.83601177  0.40240752
   0.83440117  0.33191874  0.40379509
   0.50064357  0.74937758  0.59730779
   0.33309187  0.33249060  0.40234723
   0.58476028  0.83405731  0.40219143
   0.16523327  0.41840202  0.49951076
   0.91858946  0.66682561  0.49935993
   0.41679434  0.41696226  0.49958965
   0.08006015  0.83466085  0.40385330
   0.91828240  0.91739589  0.49964390
   0.58463006  0.08199999  0.40192496
  -0.00094950  0.75101701  0.59593161
   0.16471189  0.91804451  0.49972587
   0.16483270  0.16765035  0.49904969
   0.16475581  0.66745003  0.49968803
   0.41447349  0.91855944  0.49915473
   0.91796799  0.41534445  0.49957385
Direct configuration=    11
   0.08010477  0.08496399  0.39940016
   0.74928911  0.49909157  0.60161604
   0.66812084  0.66590415  0.49947626
   0.83495024  0.58248122  0.39805511
   0.50180705  0.49867741  0.60163035
   0.41454152  0.66749084  0.50003077
   0.58538900  0.58176062  0.39565393
   0.50386892  0.24782660  0.60197581
   0.58548625  0.32907607  0.39893993
   0.50219976 -0.00243626  0.60323354
   0.41517320  0.16903348  0.49861556
   0.66862140  0.91799813  0.49919319
   0.33270493  0.83425192  0.39741391
   0.24944428  0.50110702  0.59990947
   0.33184880  0.58252911  0.39836425
   0.25020311  0.24984618  0.60145383
   0.24875421  0.75042478  0.60231806
   0.75085976  0.75141966  0.60402706
   0.25094353 -0.00217282  0.59952622
  -0.00149968  0.24915224  0.59990972
   0.08286162  0.58317642  0.39919075
   0.33421792  0.08423912  0.39757921
  -0.00342849 -0.00035560  0.60031001
  -0.00081948  0.50188589  0.59981631
   0.66764110  0.16895552  0.49903996
   0.75088090 -0.00022046  0.59629909
   0.66795875  0.41486877  0.49945930
   0.83389357  0.08122992  0.40359967
   0.74968657  0.24906613  0.59576327
   0.08365500  0.33307325  0.40366714
   0.91608809  0.16684446  0.49949881
   0.83251563  0.83598186  0.40249901
   0.83444630  0.33184906  0.40386386
   0.50072911  0.74930961  0.59715407
   0.33314037  0.33235793  0.40243963
   0.58485542  0.83391006  0.40221998
   0.16517490  0.41854397  0.49952046
   0.91857266  0.66687223  0.49924726
   0.41678574  0.41708085  0.49959445
   0.08000262  0.83464573  0.40391689
   0.91832484  0.91755482  0.49964895
   0.58467115  0.08196057  0.40203849
  -0.00099766  0.75115984  0.59584561
   0.16448621  0.91819771  0.49976843
   0.16475274  0.16769616  0.49896559
   0.16476268  0.66749228  0.49963193
   0.41439665  0.91876370  0.49903511
   0.91793408  0.41543428  0.49964358
Direct configuration=    12
   0.08009795  0.08493943  0.39940052
   0.74928706  0.49918775  0.60172384
   0.66814393  0.66596442  0.49942396
   0.83488869  0.58247493  0.39793171
   0.50181360  0.49863704  0.60162599
   0.41451321  0.66774922  0.49983189
   0.58540394  0.58165684  0.39525954
   0.50393497  0.24772109  0.60211782
   0.58551823  0.32906386  0.39872512
   0.50208532 -0.00240222  0.60339532
   0.41499761  0.16930926  0.49880469
   0.66873836  0.91787714  0.49942665
   0.33261426  0.83411393  0.39716053
   0.24948012  0.50102301  0.59997850
   0.33191345  0.58254783  0.39820078
   0.25034263  0.24951618  0.60156575
   0.24868288  0.75029818  0.60243208
   0.75100897  0.75126800  0.60434093
   0.25111722 -0.00200216  0.59943528
  -0.00133739  0.24897963  0.59999373
   0.08288287  0.58327449  0.39910822
   0.33406850  0.08422436  0.39738703
  -0.00364053 -0.00033976  0.60042226
  -0.00085134  0.50185856  0.59985099
   0.66747171  0.16917923  0.49900388
   0.75094491 -0.00023871  0.59621356
   0.66787288  0.41513939  0.49934793
   0.83398839  0.08112133  0.40362304
   0.74973769  0.24890325  0.59558256
   0.08370420  0.33293807  0.40377597
   0.91626063  0.16682182  0.49957457
   0.83260401  0.83589236  0.40261362
   0.83440463  0.33185799  0.40398129
   0.50082991  0.74925812  0.59684691
   0.33311570  0.33243271  0.40255077
   0.58498327  0.83370702  0.40224999
   0.16518231  0.41870653  0.49964703
   0.91847486  0.66705123  0.49919004
   0.41675213  0.41706956  0.49962297
   0.08006137  0.83455020  0.40400609
   0.91836038  0.91767912  0.49972039
   0.58475876  0.08188751  0.40212752
  -0.00109026  0.75118189  0.59566388
   0.16441024  0.91835916  0.49978552
   0.16471379  0.16760789  0.49900133
   0.16468324  0.66763594  0.49960349
   0.41423461  0.91878150  0.49892103
   0.91783614  0.41553592  0.49980348
Direct configuration=    13
   0.08009466  0.08492760  0.39940070
   0.74928608  0.49923406  0.60177576
   0.66815504  0.66599345  0.49939877
   0.83485905  0.58247190  0.39787228
   0.50181676  0.49861759  0.60162389
   0.41449957  0.66787365  0.49973611
   0.58541113  0.58160686  0.39506962
   0.50396677  0.24767029  0.60218621
   0.58553363  0.32905798  0.39862167
   0.50203021 -0.00238583  0.60347323
   0.41491305  0.16944207  0.49889578
   0.66879468  0.91781888  0.49953908
   0.33257059  0.83404747  0.39703851
   0.24949738  0.50098256  0.60001173
   0.33194458  0.58255685  0.39812206
   0.25040981  0.24935726  0.60161965
   0.24864853  0.75023722  0.60248698
   0.75108082  0.75119497  0.60449209
   0.25120086 -0.00191998  0.59939149
  -0.00125924  0.24889650  0.60003419
   0.08289311  0.58332172  0.39906848
   0.33399654  0.08421725  0.39729447
  -0.00374264 -0.00033214  0.60047631
  -0.00086669  0.50184540  0.59986769
   0.66739013  0.16928696  0.49898650
   0.75097574 -0.00024749  0.59617237
   0.66783153  0.41526971  0.49929430
   0.83403406  0.08106903  0.40363430
   0.74976231  0.24882481  0.59549553
   0.08372788  0.33287297  0.40382838
   0.91634371  0.16681091  0.49961106
   0.83264657  0.83584926  0.40266881
   0.83438457  0.33186229  0.40403785
   0.50087845  0.74923333  0.59669900
   0.33310382  0.33246871  0.40260429
   0.58504484  0.83360924  0.40226444
   0.16518588  0.41878482  0.49970798
   0.91842777  0.66713742  0.49916249
   0.41673594  0.41706412  0.49963671
   0.08008967  0.83450419  0.40404904
   0.91837750  0.91773899  0.49975479
   0.58480095  0.08185232  0.40217040
  -0.00113485  0.75119250  0.59557636
   0.16437366  0.91843690  0.49979376
   0.16469504  0.16756539  0.49901854
   0.16464499  0.66770512  0.49958979
   0.41415657  0.91879006  0.49886609
   0.91778897  0.41558487  0.49988048
Direct configuration=    14
   0.08005534  0.08481099  0.39944483
   0.74926208  0.49911779  0.60175967
   0.66797498  0.66611832  0.49932869
   0.83489300  0.58235956  0.39783974
   0.50186232  0.49862958  0.60149355
   0.41445441  0.66805152  0.49958077
   0.58542917  0.58157133  0.39485271
   0.50406201  0.24756521  0.60223188
   0.58543585  0.32914068  0.39854578
   0.50203341 -0.00250395  0.60354566
   0.41487670  0.16928961  0.49906807
   0.66849403  0.91789665  0.49968791
   0.33258416  0.83399560  0.39691879
   0.24931116  0.50099264  0.60001238
   0.33201862  0.58251067  0.39806338
   0.25040582  0.24934937  0.60164802
   0.24880493  0.75020066  0.60244607
   0.75110655  0.75120152  0.60463632
   0.25141249 -0.00211308  0.59928142
  -0.00128980  0.24889130  0.60006446
   0.08301478  0.58314190  0.39906583
   0.33430261  0.08398477  0.39724544
  -0.00369566 -0.00024742  0.60053905
  -0.00069716  0.50178772  0.59985054
   0.66731247  0.16940415  0.49898693
   0.75086450 -0.00025062  0.59618743
   0.66773264  0.41551474  0.49921801
   0.83411380  0.08102583  0.40364994
   0.74977807  0.24885385  0.59538574
   0.08366256  0.33298322  0.40391165
   0.91625802  0.16694954  0.49966152
   0.83262400  0.83583581  0.40274829
   0.83434354  0.33192277  0.40413777
   0.50080648  0.74926469  0.59647042
   0.33310046  0.33251941  0.40267074
   0.58492557  0.83370380  0.40229235
   0.16505861  0.41890484  0.49983985
   0.91842515  0.66709386  0.49919297
   0.41674260  0.41725562  0.49964106
   0.08015229  0.83450464  0.40407206
   0.91827214  0.91788402  0.49979545
   0.58469905  0.08176003  0.40226394
  -0.00106371  0.75092962  0.59547626
   0.16458662  0.91832764  0.49980165
   0.16476692  0.16766415  0.49910789
   0.16475668  0.66773633  0.49960882
   0.41415429  0.91884131  0.49875150
   0.91781543  0.41562782  0.49997679
Direct configuration=    15
   0.08004802  0.08478930  0.39945304
   0.74925762  0.49909616  0.60175668
   0.66794148  0.66614155  0.49931566
   0.83489931  0.58233866  0.39783368
   0.50187080  0.49863181  0.60146931
   0.41444600  0.66808461  0.49955187
   0.58543252  0.58156472  0.39481235
   0.50407973  0.24754566  0.60224038
   0.58541766  0.32915606  0.39853166
   0.50203401 -0.00252592  0.60355914
   0.41486994  0.16926125  0.49910012
   0.66843810  0.91791112  0.49971560
   0.33258669  0.83398595  0.39689652
   0.24927651  0.50099451  0.60001250
   0.33203240  0.58250208  0.39805246
   0.25040508  0.24934790  0.60165330
   0.24883403  0.75019386  0.60243846
   0.75111133  0.75120274  0.60466315
   0.25145186 -0.00214900  0.59926095
  -0.00129549  0.24889034  0.60007009
   0.08303742  0.58310844  0.39906533
   0.33435955  0.08394152  0.39723632
  -0.00368692 -0.00023166  0.60055072
  -0.00066563  0.50177699  0.59984735
   0.66729803  0.16942595  0.49898701
   0.75084381 -0.00025120  0.59619024
   0.66771424  0.41556032  0.49920382
   0.83412864  0.08101779  0.40365285
   0.74978100  0.24885926  0.59536531
   0.08365041  0.33300373  0.40392714
   0.91624208  0.16697533  0.49967091
   0.83261981  0.83583331  0.40276308
   0.83433591  0.33193402  0.40415636
   0.50079309  0.74927052  0.59642789
   0.33309984  0.33252884  0.40268311
   0.58490339  0.83372139  0.40229754
   0.16503493  0.41892716  0.49986439
   0.91842466  0.66708575  0.49919864
   0.41674384  0.41729125  0.49964187
   0.08016393  0.83450473  0.40407635
   0.91825255  0.91791100  0.49980301
   0.58468009  0.08174286  0.40228134
  -0.00105047  0.75088072  0.59545764
   0.16462623  0.91830732  0.49980312
   0.16478029  0.16768252  0.49912451
   0.16477746  0.66774214  0.49961236
   0.41415387  0.91885084  0.49873018
   0.91782035  0.41563581  0.49999471
Direct configuration=    16
   0.08012748  0.08479767  0.39954905
   0.74931472  0.49909725  0.60168184
   0.66792866  0.66615984  0.49922009
   0.83490292  0.58233987  0.39786430
   0.50176830  0.49861199  0.60129312
   0.41441700  0.66810239  0.49938891
   0.58547895  0.58158904  0.39465815
   0.50404599  0.24759690  0.60224815
   0.58543433  0.32905496  0.39853923
   0.50209318 -0.00266176  0.60362986
   0.41482870  0.16929463  0.49920007
   0.66833237  0.91793065  0.49977791
   0.33262351  0.83399340  0.39680799
   0.24940531  0.50098832  0.60000432
   0.33201191  0.58249663  0.39801831
   0.25041190  0.24935205  0.60168005
   0.24889050  0.75014887  0.60233418
   0.75110778  0.75109106  0.60473085
   0.25146327 -0.00227578  0.59915966
  -0.00127763  0.24890593  0.60009795
   0.08309608  0.58301952  0.39912545
   0.33441119  0.08395617  0.39725982
  -0.00352193 -0.00033377  0.60056929
  -0.00077574  0.50173072  0.59985828
   0.66721014  0.16949711  0.49897647
   0.75088749 -0.00030523  0.59626413
   0.66761498  0.41574031  0.49913115
   0.83404438  0.08107221  0.40368174
   0.74975046  0.24890795  0.59531147
   0.08372849  0.33292872  0.40400894
   0.91617331  0.16708551  0.49969433
   0.83255088  0.83582650  0.40286349
   0.83433054  0.33193034  0.40423906
   0.50084961  0.74917643  0.59626897
   0.33314835  0.33239880  0.40278087
   0.58493764  0.83368743  0.40229157
   0.16506950  0.41889535  0.49993202
   0.91831864  0.66711217  0.49923473
   0.41674278  0.41734980  0.49963524
   0.08019163  0.83443308  0.40408742
   0.91809863  0.91802767  0.49982533
   0.58465506  0.08175858  0.40239315
  -0.00098974  0.75088790  0.59542827
   0.16463593  0.91832820  0.49978651
   0.16477944  0.16781837  0.49919670
   0.16485465  0.66777062  0.49961248
   0.41411232  0.91896644  0.49860736
   0.91778615  0.41571921  0.50005175
