       N       E                     dE             d eps       ncg     rms          rms(c)
DAV:   1     0.320185237295E+04    0.32019E+04   -0.18986E+05  3672   0.112E+03
DAV:   2     0.120393874027E+02   -0.31898E+04   -0.29329E+04  4404   0.263E+02
DAV:   3    -0.201582595717E+03   -0.21362E+03   -0.19872E+03  4104   0.650E+01
DAV:   4    -0.207363545633E+03   -0.57809E+01   -0.57200E+01  4260   0.108E+01
DAV:   5    -0.207542043916E+03   -0.17850E+00   -0.17791E+00  4440   0.192E+00    0.620E+01
RMM:   6    -0.202250891162E+03    0.52912E+01   -0.97168E+01  3677   0.155E+01    0.535E+01
RMM:   7    -0.206016594243E+03   -0.37657E+01   -0.59872E+01  3684   0.130E+01    0.429E+01
RMM:   8    -0.222749328109E+03   -0.16733E+02   -0.87453E+01  3672   0.131E+01    0.433E+01
RMM:   9    -0.210190411946E+03    0.12559E+02   -0.37472E+01  3678   0.937E+00    0.322E+01
RMM:  10    -0.196981120066E+03    0.13209E+02   -0.17313E+01  3679   0.666E+00    0.177E+01
RMM:  11    -0.193249885858E+03    0.37312E+01   -0.12272E+01  3679   0.560E+00    0.148E+01
RMM:  12    -0.190029408491E+03    0.32205E+01   -0.34783E+00  3680   0.292E+00    0.715E+00
RMM:  13    -0.189985414686E+03    0.43994E-01   -0.13354E+00  3679   0.174E+00    0.692E+00
RMM:  14    -0.190040425885E+03   -0.55011E-01   -0.53525E-01  3679   0.114E+00    0.640E+00
RMM:  15    -0.189812400653E+03    0.22803E+00   -0.20374E-01  3678   0.715E-01    0.421E+00
RMM:  16    -0.189730882907E+03    0.81518E-01   -0.24446E-01  3679   0.763E-01    0.341E+00
RMM:  17    -0.189622337915E+03    0.10854E+00   -0.15895E-01  3678   0.606E-01    0.173E+00
RMM:  18    -0.189598268609E+03    0.24069E-01   -0.36773E-02  3680   0.301E-01    0.851E-01
RMM:  19    -0.189592896268E+03    0.53723E-02   -0.78058E-03  3681   0.138E-01    0.604E-01
RMM:  20    -0.189591367239E+03    0.15290E-02   -0.36578E-03  3680   0.934E-02    0.513E-01
RMM:  21    -0.189589678546E+03    0.16887E-02   -0.29821E-03  3678   0.827E-02    0.376E-01
RMM:  22    -0.189589018085E+03    0.66046E-03   -0.24089E-03  3679   0.754E-02    0.259E-01
RMM:  23    -0.189588437457E+03    0.58063E-03   -0.10305E-03  3680   0.490E-02    0.986E-02
RMM:  24    -0.189588580822E+03   -0.14337E-03   -0.29984E-04  3681   0.255E-02    0.832E-02
RMM:  25    -0.189588823821E+03   -0.24300E-03   -0.10864E-04  3682   0.158E-02    0.737E-02
RMM:  26    -0.189589113656E+03   -0.28983E-03   -0.81354E-05  3676   0.140E-02    0.503E-02
RMM:  27    -0.189589549485E+03   -0.43583E-03   -0.67749E-05  3676   0.119E-02    0.326E-02
RMM:  28    -0.189589897979E+03   -0.34849E-03   -0.23919E-05  3672   0.708E-03    0.193E-02
RMM:  29    -0.189590387301E+03   -0.48932E-03   -0.25461E-05  3670   0.708E-03    0.221E-02
RMM:  30    -0.189591240689E+03   -0.85339E-03   -0.56000E-05  3672   0.103E-02    0.240E-02
RMM:  31    -0.189591533739E+03   -0.29305E-03   -0.20197E-05  3273   0.572E-03    0.117E-02
RMM:  32    -0.189591710607E+03   -0.17687E-03   -0.10375E-05  2913   0.417E-03    0.803E-03
RMM:  33    -0.189591832398E+03   -0.12179E-03   -0.53584E-06  2684   0.295E-03    0.583E-03
RMM:  34    -0.189591896389E+03   -0.63991E-04   -0.21006E-06  2333   0.199E-03    0.391E-03
RMM:  35    -0.189591964174E+03   -0.67785E-04   -0.13038E-06  2206   0.160E-03    0.232E-03
RMM:  36    -0.189591994796E+03   -0.30621E-04   -0.57003E-07  2136   0.102E-03    0.131E-03
RMM:  37    -0.189592026790E+03   -0.31994E-04   -0.58111E-07  2151   0.109E-03    0.138E-03
RMM:  38    -0.189592034176E+03   -0.73867E-05   -0.18312E-07  1365   0.579E-04    0.895E-04
RMM:  39    -0.189592040410E+03   -0.62333E-05   -0.14827E-07  1759   0.605E-04    0.545E-04
RMM:  40    -0.189592041896E+03   -0.14867E-05   -0.45087E-08  1000   0.353E-04    0.390E-04
RMM:  41    -0.189592042468E+03   -0.57147E-06   -0.16621E-08   612   0.309E-04
   1 F= -.18959204E+03 E0= -.18945460E+03  d E =-.189592E+03
       N       E                     dE             d eps       ncg     rms          rms(c)
DAV:   1    -0.190590688482E+03   -0.99865E+00   -0.34021E+02  3672   0.283E+01    0.341E+00
RMM:   2    -0.190950079625E+03   -0.35939E+00   -0.35800E+00  3678   0.410E+00    0.233E+00
RMM:   3    -0.191079516240E+03   -0.12944E+00   -0.39596E-01  3703   0.109E+00    0.433E+00
RMM:   4    -0.190928748246E+03    0.15077E+00   -0.15183E-01  3686   0.657E-01    0.148E+00
RMM:   5    -0.190999345581E+03   -0.70597E-01   -0.91207E-02  3685   0.454E-01    0.282E+00
RMM:   6    -0.190923225096E+03    0.76120E-01   -0.55917E-02  3681   0.367E-01    0.104E+00
RMM:   7    -0.190912402609E+03    0.10822E-01   -0.16447E-02  3682   0.206E-01    0.448E-01
RMM:   8    -0.190910669001E+03    0.17336E-02   -0.50132E-03  3681   0.111E-01    0.311E-01
RMM:   9    -0.190909770029E+03    0.89897E-03   -0.23333E-03  3684   0.754E-02    0.166E-01
RMM:  10    -0.190909542824E+03    0.22720E-03   -0.78459E-04  3683   0.442E-02    0.989E-02
RMM:  11    -0.190909468773E+03    0.74051E-04   -0.18657E-04  3685   0.217E-02    0.518E-02
RMM:  12    -0.190909460746E+03    0.80270E-05   -0.44268E-05  3687   0.108E-02    0.378E-02
RMM:  13    -0.190909451937E+03    0.88087E-05   -0.23343E-05  3673   0.787E-03    0.229E-02
RMM:  14    -0.190909450085E+03    0.18525E-05   -0.10307E-05  3550   0.525E-03    0.131E-02
RMM:  15    -0.190909449061E+03    0.10232E-05   -0.31754E-06  2544   0.298E-03    0.556E-03
RMM:  16    -0.190909449844E+03   -0.78262E-06   -0.10282E-06  2018   0.178E-03
   2 F= -.19090945E+03 E0= -.19077472E+03  d E =-.131741E+01
       N       E                     dE             d eps       ncg     rms          rms(c)
DAV:   1    -0.189733641029E+03    0.11758E+01   -0.31770E+03  3672   0.884E+01    0.840E+00
RMM:   2    -0.192876080137E+03   -0.31424E+01   -0.31323E+01  3678   0.122E+01    0.599E+00
RMM:   3    -0.193595843444E+03   -0.71976E+00   -0.27169E+00  3706   0.283E+00    0.101E+01
RMM:   4    -0.192607532055E+03    0.98831E+00   -0.80019E-01  3684   0.152E+00    0.354E+00
RMM:   5    -0.193028105050E+03   -0.42057E+00   -0.54996E-01  3684   0.114E+00    0.678E+00
RMM:   6    -0.192724060331E+03    0.30404E+00   -0.48103E-01  3683   0.107E+00    0.378E+00
RMM:   7    -0.192542237264E+03    0.18182E+00   -0.18106E-01  3681   0.672E-01    0.118E+00
RMM:   8    -0.192533730981E+03    0.85063E-02   -0.60959E-02  3681   0.379E-01    0.114E+00
RMM:   9    -0.192518372525E+03    0.15358E-01   -0.22947E-02  3683   0.237E-01    0.400E-01
RMM:  10    -0.192517525142E+03    0.84738E-03   -0.50828E-03  3685   0.113E-01    0.278E-01
RMM:  11    -0.192516995014E+03    0.53013E-03   -0.16197E-03  3685   0.639E-02    0.167E-01
RMM:  12    -0.192516922899E+03    0.72115E-04   -0.53314E-04  3684   0.378E-02    0.125E-01
RMM:  13    -0.192516810734E+03    0.11217E-03   -0.25946E-04  3679   0.263E-02    0.602E-02
RMM:  14    -0.192516806043E+03    0.46910E-05   -0.82395E-05  3678   0.145E-02    0.427E-02
RMM:  15    -0.192516793651E+03    0.12392E-04   -0.26503E-05  3678   0.837E-03    0.176E-02
RMM:  16    -0.192516797192E+03   -0.35410E-05   -0.72680E-06  3063   0.437E-03    0.113E-02
RMM:  17    -0.192516802123E+03   -0.49309E-05   -0.26516E-06  2384   0.275E-03    0.752E-03
RMM:  18    -0.192516806319E+03   -0.41964E-05   -0.11220E-06  2086   0.188E-03    0.573E-03
RMM:  19    -0.192516810320E+03   -0.40010E-05   -0.47788E-07  2053   0.125E-03    0.253E-03
RMM:  20    -0.192516813756E+03   -0.34364E-05   -0.17944E-07  1686   0.712E-04    0.176E-03
RMM:  21    -0.192516817254E+03   -0.34975E-05   -0.94886E-08  1285   0.535E-04    0.815E-04
RMM:  22    -0.192516821767E+03   -0.45133E-05   -0.12249E-07  1598   0.523E-04    0.794E-04
RMM:  23    -0.192516826466E+03   -0.46985E-05   -0.17174E-07  1486   0.511E-04    0.755E-04
RMM:  24    -0.192516830950E+03   -0.44849E-05   -0.24515E-07  1560   0.560E-04    0.630E-04
RMM:  25    -0.192516832226E+03   -0.12755E-05   -0.81509E-08   973   0.413E-04    0.447E-04
RMM:  26    -0.192516833324E+03   -0.10981E-05   -0.10193E-07  1175   0.431E-04    0.288E-04
RMM:  27    -0.192516833665E+03   -0.34119E-06   -0.45784E-08   753   0.344E-04
   3 F= -.19251683E+03 E0= -.19238753E+03  d E =-.292479E+01
       N       E                     dE             d eps       ncg     rms          rms(c)
DAV:   1    -0.192511032727E+03    0.58006E-02   -0.16256E+01  3792   0.614E+00    0.525E-01
RMM:   2    -0.192529440256E+03   -0.18408E-01   -0.17824E-01  3682   0.915E-01    0.513E-01
RMM:   3    -0.192531325697E+03   -0.18854E-02   -0.15059E-02  3719   0.218E-01    0.691E-01
RMM:   4    -0.192528214673E+03    0.31110E-02   -0.35414E-03  3684   0.994E-02    0.360E-01
RMM:   5    -0.192528026731E+03    0.18794E-03   -0.19339E-03  3687   0.677E-02    0.337E-01
RMM:   6    -0.192527337281E+03    0.68945E-03   -0.25063E-03  3683   0.791E-02    0.202E-01
RMM:   7    -0.192526997122E+03    0.34016E-03   -0.91212E-04  3682   0.487E-02    0.943E-02
RMM:   8    -0.192526914112E+03    0.83011E-04   -0.19970E-04  3681   0.227E-02    0.626E-02
RMM:   9    -0.192526872656E+03    0.41456E-04   -0.10164E-04  3683   0.158E-02    0.385E-02
RMM:  10    -0.192526854050E+03    0.18606E-04   -0.50018E-05  3682   0.109E-02    0.174E-02
RMM:  11    -0.192526852352E+03    0.16975E-05   -0.79525E-06  3417   0.445E-03    0.991E-03
RMM:  12    -0.192526852062E+03    0.29065E-06   -0.18410E-06  2104   0.238E-03
   4 F= -.19252685E+03 E0= -.19239789E+03  d E =-.293481E+01
       N       E                     dE             d eps       ncg     rms          rms(c)
DAV:   1    -0.192645804412E+03   -0.11895E+00   -0.26085E+02  3672   0.250E+01    0.219E+00
RMM:   2    -0.192931318080E+03   -0.28551E+00   -0.29381E+00  3684   0.366E+00    0.169E+00
RMM:   3    -0.192993790597E+03   -0.62473E-01   -0.23519E-01  3706   0.837E-01    0.303E+00
RMM:   4    -0.192922987679E+03    0.70803E-01   -0.63107E-02  3684   0.424E-01    0.124E+00
RMM:   5    -0.192930448227E+03   -0.74605E-02   -0.32003E-02  3686   0.272E-01    0.151E+00
RMM:   6    -0.192920593371E+03    0.98549E-02   -0.39338E-02  3680   0.307E-01    0.107E+00
RMM:   7    -0.192907646769E+03    0.12947E-01   -0.16913E-02  3682   0.208E-01    0.280E-01
RMM:   8    -0.192906995305E+03    0.65146E-03   -0.34626E-03  3682   0.937E-02    0.238E-01
RMM:   9    -0.192906254211E+03    0.74109E-03   -0.14262E-03  3679   0.598E-02    0.116E-01
RMM:  10    -0.192906143235E+03    0.11098E-03   -0.34487E-04  3680   0.285E-02    0.689E-02
RMM:  11    -0.192906095500E+03    0.47735E-04   -0.11761E-04  3683   0.169E-02    0.319E-02
RMM:  12    -0.192906094730E+03    0.76951E-06   -0.51153E-05  3682   0.112E-02    0.260E-02
RMM:  13    -0.192906091602E+03    0.31282E-05   -0.16921E-05  3675   0.662E-03    0.154E-02
RMM:  14    -0.192906091142E+03    0.46014E-06   -0.39081E-06  2694   0.345E-03
   5 F= -.19290609E+03 E0= -.19277828E+03  d E =-.379239E+00
       N       E                     dE             d eps       ncg     rms          rms(c)
DAV:   1    -0.192894606503E+03    0.11485E-01   -0.43256E+01  3672   0.101E+01    0.823E-01
RMM:   2    -0.192942783936E+03   -0.48177E-01   -0.49349E-01  3683   0.150E+00    0.708E-01
RMM:   3    -0.192950993516E+03   -0.82096E-02   -0.38627E-02  3709   0.340E-01    0.117E+00
RMM:   4    -0.192941275848E+03    0.97177E-02   -0.90987E-03  3684   0.161E-01    0.533E-01
RMM:   5    -0.192940757637E+03    0.51821E-03   -0.41069E-03  3688   0.984E-02    0.493E-01
RMM:   6    -0.192939954641E+03    0.80300E-03   -0.62341E-03  3679   0.123E-01    0.383E-01
RMM:   7    -0.192938438874E+03    0.15158E-02   -0.27924E-03  3683   0.843E-02    0.122E-01
RMM:   8    -0.192938306118E+03    0.13276E-03   -0.52718E-04  3682   0.370E-02    0.919E-02
RMM:   9    -0.192938190144E+03    0.11597E-03   -0.22090E-04  3678   0.237E-02    0.452E-02
RMM:  10    -0.192938171843E+03    0.18301E-04   -0.54740E-05  3679   0.112E-02    0.282E-02
RMM:  11    -0.192938163773E+03    0.80703E-05   -0.20515E-05  3675   0.700E-03    0.136E-02
RMM:  12    -0.192938164149E+03   -0.37662E-06   -0.10010E-05  3672   0.489E-03    0.101E-02
RMM:  13    -0.192938164471E+03   -0.32180E-06   -0.28689E-06  2350   0.284E-03
   6 F= -.19293816E+03 E0= -.19281094E+03  d E =-.411312E+00
       N       E                     dE             d eps       ncg     rms          rms(c)
DAV:   1    -0.192947595276E+03   -0.94311E-02   -0.26626E+01  3672   0.796E+00    0.620E-01
RMM:   2    -0.192975486577E+03   -0.27891E-01   -0.29525E-01  3683   0.116E+00    0.421E-01
RMM:   3    -0.192978405545E+03   -0.29190E-02   -0.18318E-02  3712   0.239E-01    0.626E-01
RMM:   4    -0.192975111819E+03    0.32937E-02   -0.44234E-03  3678   0.113E-01    0.330E-01
RMM:   5    -0.192977450282E+03   -0.23385E-02   -0.32733E-03  3683   0.861E-02    0.580E-01
RMM:   6    -0.192974595795E+03    0.28545E-02   -0.34258E-03  3679   0.919E-02    0.261E-01
RMM:   7    -0.192974190428E+03    0.40537E-03   -0.13159E-03  3681   0.578E-02    0.135E-01
RMM:   8    -0.192974037995E+03    0.15243E-03   -0.31052E-04  3683   0.288E-02    0.716E-02
RMM:   9    -0.192973977252E+03    0.60744E-04   -0.13894E-04  3677   0.187E-02    0.424E-02
RMM:  10    -0.192973954727E+03    0.22525E-04   -0.45455E-05  3678   0.103E-02    0.198E-02
RMM:  11    -0.192973950633E+03    0.40937E-05   -0.14718E-05  3672   0.598E-03    0.113E-02
RMM:  12    -0.192973950116E+03    0.51696E-06   -0.71513E-06  3671   0.402E-03
   7 F= -.19297395E+03 E0= -.19284761E+03  d E =-.357856E-01
       N       E                     dE             d eps       ncg     rms          rms(c)
DAV:   1    -0.192973444503E+03    0.50613E-03   -0.31215E+00  3720   0.272E+00    0.208E-01
RMM:   2    -0.192976715350E+03   -0.32708E-02   -0.34672E-02  3683   0.399E-01    0.146E-01
RMM:   3    -0.192977030875E+03   -0.31552E-03   -0.21928E-03  3711   0.828E-02    0.218E-01
RMM:   4    -0.192976603460E+03    0.42742E-03   -0.49764E-04  3678   0.385E-02    0.936E-02
RMM:   5    -0.192976901232E+03   -0.29777E-03   -0.44300E-04  3683   0.323E-02    0.182E-01
RMM:   6    -0.192976633864E+03    0.26737E-03   -0.34399E-04  3681   0.283E-02    0.109E-01
RMM:   7    -0.192976553789E+03    0.80075E-04   -0.15371E-04  3680   0.196E-02    0.508E-02
RMM:   8    -0.192976534080E+03    0.19709E-04   -0.36838E-05  3680   0.997E-03    0.243E-02
RMM:   9    -0.192976527582E+03    0.64987E-05   -0.16513E-05  3672   0.648E-03    0.150E-02
RMM:  10    -0.192976524386E+03    0.31954E-05   -0.57932E-06  3399   0.367E-03    0.644E-03
RMM:  11    -0.192976523984E+03    0.40256E-06   -0.16578E-06  1980   0.218E-03
   8 F= -.19297652E+03 E0= -.19285050E+03  d E =-.383595E-01
       N       E                     dE             d eps       ncg     rms          rms(c)
DAV:   1    -0.192979286822E+03   -0.27624E-02   -0.51840E+00  3684   0.350E+00    0.219E-01
RMM:   2    -0.192984906358E+03   -0.56195E-02   -0.58014E-02  3683   0.516E-01    0.229E-01
RMM:   3    -0.192984981271E+03   -0.74913E-04   -0.38164E-03  3746   0.110E-01    0.202E-01
RMM:   4    -0.192984744354E+03    0.23692E-03   -0.64296E-04  3672   0.428E-02    0.174E-01
RMM:   5    -0.192984851022E+03   -0.10667E-03   -0.46408E-04  3684   0.333E-02    0.203E-01
RMM:   6    -0.192984648756E+03    0.20227E-03   -0.69712E-04  3679   0.400E-02    0.149E-01
RMM:   7    -0.192984493688E+03    0.15507E-03   -0.51978E-04  3683   0.358E-02    0.801E-02
RMM:   8    -0.192984455541E+03    0.38147E-04   -0.11253E-04  3682   0.171E-02    0.432E-02
RMM:   9    -0.192984437470E+03    0.18071E-04   -0.26395E-05  3678   0.824E-03    0.286E-02
RMM:  10    -0.192984423686E+03    0.13784E-04   -0.25046E-05  3672   0.759E-03    0.167E-02
RMM:  11    -0.192984419285E+03    0.44004E-05   -0.11107E-05  3672   0.502E-03    0.791E-03
RMM:  12    -0.192984418595E+03    0.69055E-06   -0.80242E-06  3672   0.414E-03
   9 F= -.19298442E+03 E0= -.19285866E+03  d E =-.789461E-02
       N       E                     dE             d eps       ncg     rms          rms(c)
DAV:   1    -0.192982572297E+03    0.18470E-02   -0.43322E+00  3696   0.320E+00    0.198E-01
RMM:   2    -0.192987263856E+03   -0.46916E-02   -0.48393E-02  3683   0.472E-01    0.210E-01
RMM:   3    -0.192987321356E+03   -0.57501E-04   -0.31754E-03  3747   0.100E-01    0.185E-01
RMM:   4    -0.192987133367E+03    0.18799E-03   -0.52751E-04  3673   0.387E-02    0.161E-01
RMM:   5    -0.192987200035E+03   -0.66668E-04   -0.37560E-04  3684   0.299E-02    0.182E-01
RMM:   6    -0.192987032921E+03    0.16711E-03   -0.58858E-04  3679   0.369E-02    0.133E-01
RMM:   7    -0.192986914354E+03    0.11857E-03   -0.43966E-04  3683   0.329E-02    0.728E-02
RMM:   8    -0.192986883240E+03    0.31114E-04   -0.93588E-05  3682   0.156E-02    0.396E-02
RMM:   9    -0.192986868083E+03    0.15157E-04   -0.21917E-05  3675   0.751E-03    0.266E-02
RMM:  10    -0.192986856171E+03    0.11912E-04   -0.21229E-05  3674   0.699E-03    0.153E-02
RMM:  11    -0.192986852487E+03    0.36834E-05   -0.94998E-06  3671   0.464E-03    0.732E-03
RMM:  12    -0.192986851910E+03    0.57751E-06   -0.71163E-06  3672   0.390E-03
  10 F= -.19298685E+03 E0= -.19286134E+03  d E =-.103279E-01
       N       E                     dE             d eps       ncg     rms          rms(c)
DAV:   1    -0.192986164758E+03    0.68773E-03   -0.69696E+00  3672   0.406E+00    0.222E-01
RMM:   2    -0.192994049419E+03   -0.78847E-02   -0.78138E-02  3681   0.602E-01    0.303E-01
RMM:   3    -0.192993825255E+03    0.22416E-03   -0.53213E-03  3758   0.129E-01    0.222E-01
RMM:   4    -0.192993494098E+03    0.33116E-03   -0.60456E-04  3674   0.418E-02    0.176E-01
RMM:   5    -0.192993490352E+03    0.37469E-05   -0.35676E-04  3687   0.295E-02    0.202E-01
RMM:   6    -0.192993240995E+03    0.24936E-03   -0.70939E-04  3680   0.410E-02    0.155E-01
RMM:   7    -0.192993142560E+03    0.98435E-04   -0.98057E-04  3682   0.487E-02    0.932E-02
RMM:   8    -0.192993106639E+03    0.35922E-04   -0.21446E-04  3682   0.232E-02    0.518E-02
RMM:   9    -0.192993083592E+03    0.23047E-04   -0.30888E-05  3683   0.904E-03    0.381E-02
RMM:  10    -0.192993061456E+03    0.22136E-04   -0.33066E-05  3679   0.873E-03    0.237E-02
RMM:  11    -0.192993053188E+03    0.82682E-05   -0.20937E-05  3675   0.684E-03    0.120E-02
RMM:  12    -0.192993051615E+03    0.15735E-05   -0.16331E-05  3675   0.591E-03    0.484E-03
RMM:  13    -0.192993051697E+03   -0.82160E-07   -0.17218E-06  2010   0.222E-03
  11 F= -.19299305E+03 E0= -.19286730E+03  d E =-.619979E-02
       N       E                     dE             d eps       ncg     rms          rms(c)
DAV:   1    -0.192989003638E+03    0.40480E-02   -0.62322E+00  3672   0.384E+00    0.209E-01
RMM:   2    -0.192996064213E+03   -0.70606E-02   -0.69861E-02  3681   0.569E-01    0.288E-01
RMM:   3    -0.192995852883E+03    0.21133E-03   -0.47671E-03  3758   0.122E-01    0.211E-01
RMM:   4    -0.192995555962E+03    0.29692E-03   -0.53774E-04  3674   0.394E-02    0.167E-01
RMM:   5    -0.192995533308E+03    0.22655E-04   -0.30754E-04  3688   0.274E-02    0.187E-01
RMM:   6    -0.192995326145E+03    0.20716E-03   -0.63275E-04  3680   0.387E-02    0.146E-01
RMM:   7    -0.192995239133E+03    0.87012E-04   -0.88141E-04  3682   0.461E-02    0.882E-02
RMM:   8    -0.192995208037E+03    0.31096E-04   -0.19396E-04  3682   0.220E-02    0.494E-02
RMM:   9    -0.192995187137E+03    0.20900E-04   -0.27870E-05  3683   0.859E-03    0.360E-02
RMM:  10    -0.192995167601E+03    0.19536E-04   -0.29318E-05  3677   0.822E-03    0.226E-02
RMM:  11    -0.192995160140E+03    0.74610E-05   -0.18820E-05  3676   0.649E-03    0.115E-02
RMM:  12    -0.192995158710E+03    0.14305E-05   -0.14727E-05  3674   0.561E-03    0.461E-03
RMM:  13    -0.192995158797E+03   -0.87530E-07   -0.15629E-06  1983   0.211E-03
  12 F= -.19299516E+03 E0= -.19286917E+03  d E =-.830689E-02
       N       E                     dE             d eps       ncg     rms          rms(c)
DAV:   1    -0.192992746699E+03    0.24120E-02   -0.61331E+00  3672   0.382E+00    0.211E-01
RMM:   2    -0.192999821992E+03   -0.70753E-02   -0.68992E-02  3680   0.563E-01    0.292E-01
RMM:   3    -0.192999679655E+03    0.14234E-03   -0.48126E-03  3727   0.121E-01    0.250E-01
RMM:   4    -0.192999190854E+03    0.48880E-03   -0.60889E-04  3675   0.414E-02    0.180E-01
RMM:   5    -0.192998976317E+03    0.21454E-03   -0.19837E-04  3688   0.232E-02    0.125E-01
RMM:   6    -0.192998939886E+03    0.36431E-04   -0.49601E-04  3681   0.345E-02    0.137E-01
RMM:   7    -0.192998826722E+03    0.11316E-03   -0.80483E-04  3681   0.438E-02    0.734E-02
RMM:   8    -0.192998813094E+03    0.13628E-04   -0.16565E-04  3681   0.203E-02    0.438E-02
RMM:   9    -0.192998797084E+03    0.16009E-04   -0.24223E-05  3681   0.800E-03    0.300E-02
RMM:  10    -0.192998784423E+03    0.12661E-04   -0.19491E-05  3674   0.682E-03    0.189E-02
RMM:  11    -0.192998779674E+03    0.47486E-05   -0.11727E-05  3672   0.516E-03    0.993E-03
RMM:  12    -0.192998778878E+03    0.79602E-06   -0.10049E-05  3672   0.468E-03    0.475E-03
RMM:  13    -0.192998778942E+03   -0.63119E-07   -0.12285E-06  1973   0.186E-03
  13 F= -.19299878E+03 E0= -.19287242E+03  d E =-.362014E-02
       N       E                     dE             d eps       ncg     rms          rms(c)
DAV:   1    -0.192998365317E+03    0.41356E-03   -0.77786E-01  3732   0.136E+00    0.751E-02
RMM:   2    -0.192999258056E+03   -0.89274E-03   -0.87419E-03  3680   0.201E-01    0.106E-01
RMM:   3    -0.192999230543E+03    0.27513E-04   -0.61185E-04  3727   0.430E-02    0.886E-02
RMM:   4    -0.192999170284E+03    0.60259E-04   -0.76461E-05  3675   0.147E-02    0.642E-02
RMM:   5    -0.192999145095E+03    0.25189E-04   -0.24710E-05  3685   0.822E-03    0.446E-02
RMM:   6    -0.192999144878E+03    0.21703E-06   -0.63769E-05  3680   0.124E-02    0.489E-02
RMM:   7    -0.192999133437E+03    0.11441E-04   -0.10371E-04  3677   0.157E-02    0.262E-02
RMM:   8    -0.192999132268E+03    0.11694E-05   -0.21048E-05  3672   0.724E-03    0.156E-02
RMM:   9    -0.192999130327E+03    0.19410E-05   -0.29174E-06  2448   0.287E-03    0.107E-02
RMM:  10    -0.192999128698E+03    0.16285E-05   -0.23283E-06  1995   0.259E-03    0.695E-03
RMM:  11    -0.192999128125E+03    0.57348E-06   -0.16529E-06  1943   0.229E-03
  14 F= -.19299913E+03 E0= -.19287264E+03  d E =-.396933E-02
       N       E                     dE             d eps       ncg     rms          rms(c)
DAV:   1    -0.192997891328E+03    0.12374E-02   -0.29383E+00  3672   0.265E+00    0.149E-01
RMM:   2    -0.193001478448E+03   -0.35871E-02   -0.33660E-02  3680   0.391E-01    0.241E-01
RMM:   3    -0.193001137833E+03    0.34061E-03   -0.24619E-03  3709   0.857E-02    0.149E-01
RMM:   4    -0.193000985023E+03    0.15281E-03   -0.25594E-04  3681   0.275E-02    0.116E-01
RMM:   5    -0.193000902318E+03    0.82705E-04   -0.72107E-05  3689   0.140E-02    0.849E-02
RMM:   6    -0.193000910464E+03   -0.81462E-05   -0.19817E-04  3676   0.219E-02    0.102E-01
RMM:   7    -0.193000844646E+03    0.65818E-04   -0.43880E-04  3682   0.321E-02    0.431E-02
RMM:   8    -0.193000845246E+03   -0.59987E-06   -0.67860E-05  3678   0.130E-02    0.303E-02
RMM:   9    -0.193000837823E+03    0.74236E-05   -0.10535E-05  3572   0.531E-03    0.196E-02
RMM:  10    -0.193000833218E+03    0.46049E-05   -0.61936E-06  3239   0.394E-03    0.134E-02
RMM:  11    -0.193000830636E+03    0.25816E-05   -0.59898E-06  3395   0.378E-03    0.716E-03
RMM:  12    -0.193000830156E+03    0.48000E-06   -0.45497E-06  2832   0.331E-03
  15 F= -.19300083E+03 E0= -.19287423E+03  d E =-.170203E-02
       N       E                     dE             d eps       ncg     rms          rms(c)
DAV:   1    -0.193000665350E+03    0.16529E-03   -0.32439E-01  3720   0.879E-01    0.497E-02
RMM:   2    -0.193001060322E+03   -0.39497E-03   -0.37122E-03  3680   0.130E-01    0.819E-02
RMM:   3    -0.193001016446E+03    0.43876E-04   -0.27271E-04  3709   0.285E-02    0.491E-02
RMM:   4    -0.193001001020E+03    0.15426E-04   -0.27618E-05  3679   0.908E-03    0.382E-02
RMM:   5    -0.193000993130E+03    0.78895E-05   -0.77414E-06  3313   0.462E-03    0.287E-02
RMM:   6    -0.193000996364E+03   -0.32337E-05   -0.22859E-05  3672   0.747E-03    0.346E-02
RMM:   7    -0.193000990893E+03    0.54704E-05   -0.50246E-05  3675   0.109E-02    0.143E-02
RMM:   8    -0.193000991270E+03   -0.37703E-06   -0.72940E-06  3176   0.431E-03
  16 F= -.19300099E+03 E0= -.19287434E+03  d E =-.186315E-02
       N       E                     dE             d eps       ncg     rms          rms(c)
DAV:   1    -0.192999730004E+03    0.12609E-02   -0.26668E+00  3672   0.251E+00    0.141E-01
RMM:   2    -0.193003175734E+03   -0.34457E-02   -0.31431E-02  3679   0.375E-01    0.259E-01
RMM:   3    -0.193002705509E+03    0.47023E-03   -0.23949E-03  3724   0.847E-02    0.124E-01
RMM:   4    -0.193002611737E+03    0.93772E-04   -0.20575E-04  3678   0.251E-02    0.101E-01
RMM:   5    -0.193002598580E+03    0.13157E-04   -0.92356E-05  3687   0.154E-02    0.107E-01
RMM:   6    -0.193002581607E+03    0.16973E-04   -0.19680E-04  3679   0.215E-02    0.110E-01
RMM:   7    -0.193002510516E+03    0.71091E-04   -0.44606E-04  3681   0.324E-02    0.508E-02
RMM:   8    -0.193002503450E+03    0.70658E-05   -0.73198E-05  3680   0.133E-02    0.295E-02
RMM:   9    -0.193002499564E+03    0.38865E-05   -0.88352E-06  3410   0.484E-03    0.224E-02
RMM:  10    -0.193002494406E+03    0.51574E-05   -0.47338E-06  2860   0.353E-03    0.161E-02
RMM:  11    -0.193002489729E+03    0.46777E-05   -0.11490E-05  3672   0.513E-03    0.756E-03
RMM:  12    -0.193002489136E+03    0.59306E-06   -0.54607E-06  3081   0.350E-03
  17 F= -.19300249E+03 E0= -.19287576E+03  d E =-.149787E-02
       N       E                     dE             d eps       ncg     rms          rms(c)
DAV:   1    -0.193001037873E+03    0.14519E-02   -0.20476E+00  3672   0.220E+00    0.122E-01
RMM:   2    -0.193003679959E+03   -0.26421E-02   -0.23997E-02  3679   0.328E-01    0.229E-01
RMM:   3    -0.193003301910E+03    0.37805E-03   -0.18165E-03  3724   0.739E-02    0.109E-01
RMM:   4    -0.193003231623E+03    0.70287E-04   -0.15283E-04  3676   0.217E-02    0.903E-02
RMM:   5    -0.193003217443E+03    0.14181E-04   -0.66942E-05  3687   0.131E-02    0.935E-02
RMM:   6    -0.193003207543E+03    0.99003E-05   -0.15771E-04  3679   0.193E-02    0.984E-02
RMM:   7    -0.193003149534E+03    0.58009E-04   -0.37517E-04  3679   0.296E-02    0.436E-02
RMM:   8    -0.193003145040E+03    0.44932E-05   -0.55878E-05  3677   0.117E-02    0.264E-02
RMM:   9    -0.193003141805E+03    0.32350E-05   -0.66816E-06  3108   0.424E-03    0.202E-02
RMM:  10    -0.193003137620E+03    0.41856E-05   -0.38063E-06  2704   0.322E-03    0.146E-02
RMM:  11    -0.193003133842E+03    0.37775E-05   -0.99693E-06  3666   0.480E-03    0.668E-03
RMM:  12    -0.193003133439E+03    0.40279E-06   -0.42701E-06  2758   0.314E-03
  18 F= -.19300313E+03 E0= -.19287633E+03  d E =-.214217E-02
       N       E                     dE             d eps       ncg     rms          rms(c)
DAV:   1    -0.192994137992E+03    0.89959E-02   -0.81905E+00  3672   0.441E+00    0.245E-01
RMM:   2    -0.193004811054E+03   -0.10673E-01   -0.96148E-02  3679   0.656E-01    0.460E-01
RMM:   3    -0.193003313003E+03    0.14981E-02   -0.73027E-03  3724   0.148E-01    0.218E-01
RMM:   4    -0.193003002025E+03    0.31098E-03   -0.61789E-04  3677   0.435E-02    0.181E-01
RMM:   5    -0.193002925744E+03    0.76281E-04   -0.26946E-04  3686   0.264E-02    0.186E-01
RMM:   6    -0.193002858921E+03    0.66824E-04   -0.62705E-04  3679   0.384E-02    0.195E-01
RMM:   7    -0.193002586335E+03    0.27259E-03   -0.14901E-03  3681   0.590E-02    0.862E-02
RMM:   8    -0.193002564788E+03    0.21547E-04   -0.21791E-04  3679   0.231E-02    0.528E-02
RMM:   9    -0.193002550896E+03    0.13892E-04   -0.26983E-05  3685   0.842E-03    0.401E-02
RMM:  10    -0.193002534636E+03    0.16261E-04   -0.15425E-05  3672   0.622E-03    0.288E-02
RMM:  11    -0.193002520140E+03    0.14496E-04   -0.37262E-05  3675   0.904E-03    0.133E-02
RMM:  12    -0.193002518533E+03    0.16070E-05   -0.17656E-05  3672   0.617E-03    0.643E-03
RMM:  13    -0.193002518609E+03   -0.76216E-07   -0.23717E-06  2154   0.253E-03
  19 F= -.19300252E+03 E0= -.19287558E+03  d E =-.152734E-02
       N       E                     dE             d eps       ncg     rms          rms(c)
DAV:   1    -0.192998206267E+03    0.43123E-02   -0.49143E+00  3672   0.341E+00    0.189E-01
RMM:   2    -0.193004511878E+03   -0.63056E-02   -0.57531E-02  3679   0.508E-01    0.348E-01
RMM:   3    -0.193003684364E+03    0.82751E-03   -0.43433E-03  3725   0.114E-01    0.171E-01
RMM:   4    -0.193003506010E+03    0.17835E-03   -0.37920E-04  3678   0.339E-02    0.143E-01
RMM:   5    -0.193003451068E+03    0.54943E-04   -0.16062E-04  3687   0.204E-02    0.142E-01
RMM:   6    -0.193003419800E+03    0.31268E-04   -0.38452E-04  3679   0.301E-02    0.150E-01
RMM:   7    -0.193003269717E+03    0.15008E-03   -0.85622E-04  3682   0.448E-02    0.682E-02
RMM:   8    -0.193003254562E+03    0.15154E-04   -0.13653E-04  3681   0.182E-02    0.402E-02
RMM:   9    -0.193003246325E+03    0.82377E-05   -0.16378E-05  3673   0.657E-03    0.311E-02
RMM:  10    -0.193003236473E+03    0.98522E-05   -0.91733E-06  3574   0.482E-03    0.222E-02
RMM:  11    -0.193003228141E+03    0.83314E-05   -0.21996E-05  3674   0.697E-03    0.103E-02
RMM:  12    -0.193003226997E+03    0.11440E-05   -0.10414E-05  3664   0.474E-03    0.511E-03
RMM:  13    -0.193003226874E+03    0.12355E-06   -0.14388E-06  1995   0.198E-03
  20 F= -.19300323E+03 E0= -.19287639E+03  d E =-.223560E-02
       N       E                     dE             d eps       ncg     rms          rms(c)
DAV:   1    -0.193002475878E+03    0.75112E-03   -0.16796E+00  3672   0.200E+00    0.101E-01
RMM:   2    -0.193004541095E+03   -0.20652E-02   -0.19481E-02  3674   0.297E-01    0.180E-01
RMM:   3    -0.193004326173E+03    0.21492E-03   -0.14227E-03  3735   0.656E-02    0.987E-02
RMM:   4    -0.193004268011E+03    0.58162E-04   -0.12531E-04  3679   0.194E-02    0.812E-02
RMM:   5    -0.193004239847E+03    0.28164E-04   -0.40161E-05  3687   0.104E-02    0.727E-02
RMM:   6    -0.193004229575E+03    0.10272E-04   -0.94492E-05  3675   0.151E-02    0.748E-02
RMM:   7    -0.193004201739E+03    0.27836E-04   -0.29841E-04  3681   0.264E-02    0.387E-02
RMM:   8    -0.193004200205E+03    0.15339E-05   -0.48574E-05  3676   0.108E-02    0.238E-02
RMM:   9    -0.193004198740E+03    0.14653E-05   -0.53887E-06  2954   0.384E-03    0.182E-02
RMM:  10    -0.193004196076E+03    0.26633E-05   -0.23619E-06  2234   0.265E-03    0.137E-02
RMM:  11    -0.193004192952E+03    0.31243E-05   -0.94055E-06  3627   0.468E-03    0.584E-03
RMM:  12    -0.193004192718E+03    0.23457E-06   -0.28518E-06  2217   0.267E-03
  21 F= -.19300419E+03 E0= -.19287727E+03  d E =-.965844E-03
       N       E                     dE             d eps       ncg     rms          rms(c)
DAV:   1    -0.193003324783E+03    0.86817E-03   -0.12949E+00  3672   0.175E+00    0.888E-02
RMM:   2    -0.193004921081E+03   -0.15963E-02   -0.15001E-02  3674   0.261E-01    0.160E-01
RMM:   3    -0.193004742478E+03    0.17860E-03   -0.10945E-03  3736   0.576E-02    0.863E-02
RMM:   4    -0.193004697203E+03    0.45275E-04   -0.93375E-05  3680   0.168E-02    0.706E-02
RMM:   5    -0.193004678555E+03    0.18648E-04   -0.29819E-05  3685   0.898E-03    0.649E-02
RMM:   6    -0.193004670916E+03    0.76391E-05   -0.73539E-05  3674   0.133E-02    0.668E-02
RMM:   7    -0.193004650071E+03    0.20846E-04   -0.24217E-04  3679   0.238E-02    0.344E-02
RMM:   8    -0.193004648849E+03    0.12211E-05   -0.38325E-05  3672   0.961E-03    0.213E-02
RMM:   9    -0.193004647645E+03    0.12048E-05   -0.42048E-06  2751   0.341E-03    0.162E-02
RMM:  10    -0.193004645555E+03    0.20896E-05   -0.18768E-06  2052   0.242E-03    0.123E-02
RMM:  11    -0.193004643100E+03    0.24550E-05   -0.72375E-06  3452   0.414E-03    0.536E-03
RMM:  12    -0.193004642913E+03    0.18708E-06   -0.24164E-06  2042   0.252E-03
  22 F= -.19300464E+03 E0= -.19287765E+03  d E =-.141604E-02
       N       E                     dE             d eps       ncg     rms          rms(c)
DAV:   1    -0.192999197449E+03    0.54457E-02   -0.51795E+00  3672   0.351E+00    0.178E-01
RMM:   2    -0.193005647853E+03   -0.64504E-02   -0.60058E-02  3674   0.521E-01    0.322E-01
RMM:   3    -0.193004957672E+03    0.69018E-03   -0.43948E-03  3735   0.115E-01    0.174E-01
RMM:   4    -0.193004759131E+03    0.19854E-03   -0.38008E-04  3680   0.338E-02    0.142E-01
RMM:   5    -0.193004668243E+03    0.90888E-04   -0.12131E-04  3689   0.181E-02    0.129E-01
RMM:   6    -0.193004618801E+03    0.49441E-04   -0.29236E-04  3676   0.265E-02    0.133E-01
RMM:   7    -0.193004501043E+03    0.11776E-03   -0.95928E-04  3681   0.472E-02    0.678E-02
RMM:   8    -0.193004493931E+03    0.71125E-05   -0.15027E-04  3678   0.190E-02    0.425E-02
RMM:   9    -0.193004488296E+03    0.56351E-05   -0.17301E-05  3676   0.677E-03    0.322E-02
RMM:  10    -0.193004480070E+03    0.82255E-05   -0.76273E-06  3296   0.446E-03    0.241E-02
RMM:  11    -0.193004470604E+03    0.94660E-05   -0.27115E-05  3677   0.781E-03    0.107E-02
RMM:  12    -0.193004469862E+03    0.74214E-06   -0.10442E-05  3652   0.478E-03    0.506E-03
RMM:  13    -0.193004470001E+03   -0.13853E-06   -0.15300E-06  2015   0.205E-03
  23 F= -.19300447E+03 E0= -.19287735E+03  d E =-.124313E-02
       N       E                     dE             d eps       ncg     rms          rms(c)
DAV:   1    -0.193002441760E+03    0.20281E-02   -0.22583E+00  3672   0.232E+00    0.118E-01
RMM:   2    -0.193005225326E+03   -0.27836E-02   -0.26189E-02  3674   0.344E-01    0.210E-01
RMM:   3    -0.193004938329E+03    0.28700E-03   -0.19169E-03  3735   0.761E-02    0.116E-01
RMM:   4    -0.193004854361E+03    0.83968E-04   -0.17123E-04  3681   0.226E-02    0.952E-02
RMM:   5    -0.193004812259E+03    0.42102E-04   -0.54076E-05  3688   0.121E-02    0.836E-02
RMM:   6    -0.193004796822E+03    0.15437E-04   -0.12894E-04  3676   0.176E-02    0.865E-02
RMM:   7    -0.193004755029E+03    0.41793E-04   -0.39795E-04  3680   0.304E-02    0.455E-02
RMM:   8    -0.193004751269E+03    0.37602E-05   -0.65877E-05  3677   0.126E-02    0.273E-02
RMM:   9    -0.193004749089E+03    0.21800E-05   -0.74176E-06  3265   0.447E-03    0.211E-02
RMM:  10    -0.193004745556E+03    0.35330E-05   -0.31890E-06  2526   0.300E-03    0.157E-02
RMM:  11    -0.193004741737E+03    0.38192E-05   -0.11935E-05  3672   0.525E-03    0.696E-03
RMM:  12    -0.193004741334E+03    0.40236E-06   -0.40571E-06  2696   0.309E-03
  24 F= -.19300474E+03 E0= -.19287771E+03  d E =-.151446E-02
       N       E                     dE             d eps       ncg     rms          rms(c)
DAV:   1    -0.193004203906E+03    0.53783E-03   -0.12326E+00  3672   0.172E+00    0.936E-02
RMM:   2    -0.193005613463E+03   -0.14096E-02   -0.14003E-02  3676   0.253E-01    0.120E-01
RMM:   3    -0.193005574503E+03    0.38960E-04   -0.99691E-04  3737   0.549E-02    0.100E-01
RMM:   4    -0.193005501620E+03    0.72883E-04   -0.10926E-04  3680   0.179E-02    0.714E-02
RMM:   5    -0.193005472522E+03    0.29098E-04   -0.33816E-05  3689   0.947E-03    0.551E-02
RMM:   6    -0.193005472401E+03    0.12136E-06   -0.78378E-05  3677   0.138E-02    0.582E-02
RMM:   7    -0.193005461323E+03    0.11077E-04   -0.18583E-04  3680   0.209E-02    0.299E-02
RMM:   8    -0.193005460010E+03    0.13129E-05   -0.24916E-05  3672   0.789E-03    0.211E-02
RMM:   9    -0.193005455858E+03    0.41520E-05   -0.40196E-06  2724   0.336E-03    0.121E-02
RMM:  10    -0.193005454650E+03    0.12086E-05   -0.17417E-06  1999   0.233E-03    0.855E-03
RMM:  11    -0.193005453745E+03    0.90466E-06   -0.37907E-06  2514   0.313E-03
  25 F= -.19300545E+03 E0= -.19287835E+03  d E =-.712411E-03
