 vasp.5.4.1 24Jun15 (build Mar 14 2019 10:18:33) complex                        
  
 executed on INTEL-19.0.2+OPENMPI date 2022.07.15  15:19:33
 running on   36 total cores
 distrk:  each k-point on   36 cores,    1 groups
 distr:  one band on NCORES_PER_BAND=   6 cores,    6 groups


--------------------------------------------------------------------------------------------------------


 INCAR:
 POTCAR:    PAW_PBE Au 04Oct2007                  
 POTCAR:    PAW_PBE Pd 04Jan2005                  
 POTCAR:    PAW_PBE Au 04Oct2007                  
  local pseudopotential read in
  partial core-charges read in
  partial kinetic energy density read in
  atomic valenz-charges read in
  non local Contribution for L=           2  read in
    real space projection operators read in
  non local Contribution for L=           2  read in
    real space projection operators read in
  non local Contribution for L=           0  read in
    real space projection operators read in
  non local Contribution for L=           0  read in
    real space projection operators read in
  non local Contribution for L=           1  read in
    real space projection operators read in
  non local Contribution for L=           1  read in
    real space projection operators read in
    PAW grid and wavefunctions read in
 
   number of l-projection  operators is LMAX  =           6
   number of lm-projection operators is LMMAX =          18
 
 POTCAR:    PAW_PBE Pd 04Jan2005                  
  local pseudopotential read in
  partial core-charges read in
  partial kinetic energy density read in
  atomic valenz-charges read in
  non local Contribution for L=           2  read in
    real space projection operators read in
  non local Contribution for L=           2  read in
    real space projection operators read in
  non local Contribution for L=           0  read in
    real space projection operators read in
  non local Contribution for L=           0  read in
    real space projection operators read in
  non local Contribution for L=           1  read in
    real space projection operators read in
  non local Contribution for L=           1  read in
    real space projection operators read in
    PAW grid and wavefunctions read in
 
   number of l-projection  operators is LMAX  =           6
   number of lm-projection operators is LMMAX =          18
 
 Optimization of the real space projectors (new method)

 maximal supplied QI-value         = 15.12
 optimisation between [QCUT,QGAM] = [ 10.13, 20.41] = [ 28.73,116.64] Ry 
 Optimized for a Real-space Cutoff    1.51 Angstroem

   l    n(q)    QCUT    max X(q) W(low)/X(q) W(high)/X(q)  e(spline) 
   2      8    10.129    60.898    0.46E-03    0.46E-03    0.14E-06
   2      8    10.129    58.894    0.47E-03    0.47E-03    0.14E-06
   0      9    10.129   109.617    0.16E-03    0.11E-03    0.54E-07
   0      9    10.129    75.026    0.15E-03    0.11E-03    0.52E-07
   1      9    10.129    16.344    0.96E-04    0.15E-03    0.14E-06
   1      9    10.129    10.160    0.81E-04    0.12E-03    0.11E-06
 Optimization of the real space projectors (new method)

 maximal supplied QI-value         = 14.36
 optimisation between [QCUT,QGAM] = [ 10.20, 20.39] = [ 29.12,116.47] Ry 
 Optimized for a Real-space Cutoff    1.51 Angstroem

   l    n(q)    QCUT    max X(q) W(low)/X(q) W(high)/X(q)  e(spline) 
   2      8    10.197    59.108    0.26E-03    0.14E-03    0.96E-07
   2      8    10.197    58.101    0.27E-03    0.14E-03    0.98E-07
   0      9    10.197   102.235    0.54E-04    0.60E-05    0.72E-07
   0      9    10.197    58.388    0.52E-04    0.60E-05    0.68E-07
   1      9    10.197    22.191    0.18E-03    0.25E-03    0.79E-07
   1      9    10.197    15.590    0.15E-03    0.21E-03    0.69E-07
  PAW_PBE Au 04Oct2007                  :
 energy of atom  1       EATOM= -926.0867
 kinetic energy error for atom=    0.0062 (will be added to EATOM!!)
  PAW_PBE Pd 04Jan2005                  :
 energy of atom  2       EATOM= -809.7530
 kinetic energy error for atom=    0.0091 (will be added to EATOM!!)
 
 
 POSCAR: Au Pd                                   
  positions in cartesian coordinates
  No initial velocities read in
 exchange correlation table for  LEXCH =        8
   RHO(1)=    0.500       N(1)  =     2000
   RHO(2)=  100.500       N(2)  =     4000

 VTST: version 3.2, (02/03/18)

 CHAIN: initializing optimizer
 
 OPT: Using VASP Conjugate-Gradient optimizer
 CHAIN: Read ICHAIN            0
 
 POSCAR: Au Pd                                   
  positions in cartesian coordinates
  No initial velocities read in
 


--------------------------------------------------------------------------------------------------------


 ion  position               nearest neighbor table
   1  0.083  0.083  0.408-  16 2.75  11 2.75  23 2.75  24 2.75  33 2.75  18 2.75   4 2.75  43 2.75
                            31 2.75
   2  0.750  0.500  0.592-  30 2.75  35 2.75  27 2.75  15 2.75  34 2.75  17 2.75  37 2.75  41 2.75
                            28 2.75
   3  0.667  0.167  0.500-  42 2.75  26 2.75   7 2.75  10 2.75  28 2.75  38 2.75  21 2.75   9 2.75
                            31 2.75   8 2.75   4 2.75  27 2.75
   4  0.833  0.083  0.408-  31 2.75  23 2.75   8 2.75  32 2.75  33 2.75   1 2.75  42 2.75  21 2.75
                             3 2.75
   5  0.417  0.667  0.500-  13 2.75  37 2.75  48 2.75  38 2.75  43 2.75  47 2.75  28 2.75  30 2.75
                            44 2.75  11 2.75   6 2.75  34 2.75
   6  0.583  0.583  0.408-  30 2.75  11 2.75   8 2.75  33 2.75  36 2.75  29 2.75  13 2.75  28 2.75
                             5 2.75
   7  0.500  0.250  0.592-  38 2.75   3 2.75  26 2.75  37 2.75  12 2.75  40 2.75  27 2.75  45 2.75
                             9 2.75
   8  0.583  0.333  0.408-  28 2.75   6 2.75  13 2.75   4 2.75  42 2.75  33 2.75  25 2.75   3 2.75
                            38 2.75
   9  0.417  0.167  0.500-  18 2.75  40 2.75  45 2.75  10 2.75  38 2.75  46 2.75  47 2.75   3 2.75
                            16 2.75  25 2.75  42 2.75   7 2.75
  10  0.667  0.917  0.500-  36 2.75  15 2.75  40 2.75  30 2.75   9 2.75  39 2.75   3 2.75  21 2.75
                            47 2.75  42 2.75  32 2.75  26 2.75
  11  0.333  0.833  0.408-  47 2.75   6 2.75  13 2.75  18 2.75   1 2.75  36 2.75  23 2.75   5 2.75
                            43 2.75
  12  0.250  0.500  0.592-  44 2.75  38 2.75   7 2.75  20 2.75  45 2.75  48 2.75  41 2.75  37 2.75
                            46 2.75
  13  0.333  0.583  0.408-   5 2.75   8 2.75  11 2.75  23 2.75  25 2.75   6 2.75  19 2.75  38 2.75
                            44 2.75
  14  0.250  0.000  0.592-  16 2.75  47 2.75  34 2.75  45 2.75  17 2.75  48 2.75  40 2.75  22 2.75
                            43 2.75
  15  0.750  0.750  0.592-  10 2.75  39 2.75  26 2.75   2 2.75  40 2.75  41 2.75  34 2.75  20 2.75
                            30 2.75
  16  0.167  0.167  0.500-   1 2.75  14 2.75  17 2.75  35 2.75  43 2.75  46 2.75  47 2.75   9 2.75
                            31 2.75  24 2.75  18 2.75  45 2.75
  17  0.000  0.250  0.592-  35 2.75  16 2.75   2 2.75  22 2.75  14 2.75  41 2.75  27 2.75  45 2.75
                            31 2.75
  18  0.333  0.083  0.408-   9 2.75  11 2.75  24 2.75  25 2.75  36 2.75   1 2.75  42 2.75  47 2.75
                            16 2.75
  19  0.083  0.583  0.408-  44 2.75  24 2.75  25 2.75  32 2.75  23 2.75  13 2.75  29 2.75  46 2.75
                            39 2.75
  20  0.000  0.750  0.592-  21 2.75  44 2.75  22 2.75  26 2.75  41 2.75  12 2.75  15 2.75  48 2.75
                            39 2.75
  21  0.917  0.917  0.500-  32 2.75  20 2.75  26 2.75  31 2.75   3 2.75  39 2.75  44 2.75  43 2.75
                            10 2.75   4 2.75  22 2.75  23 2.75
  22  0.000  0.000  0.592-  31 2.75  43 2.75  27 2.75  17 2.75  20 2.75  48 2.75  14 2.75  26 2.75
                            21 2.75
  23  0.083  0.833  0.408-  43 2.75   4 2.75  13 2.75  19 2.75   1 2.75  32 2.75  11 2.75  44 2.75
                            21 2.75
  24  0.083  0.333  0.408-  46 2.75  18 2.75  19 2.75  29 2.75   1 2.75  33 2.75  25 2.75  16 2.75
                            35 2.75
  25  0.333  0.333  0.408-  38 2.75  18 2.75  19 2.75  13 2.75  42 2.75   8 2.75  24 2.75   9 2.75
                            46 2.75
  26  0.750  0.000  0.592-   3 2.75  21 2.75  15 2.75  20 2.75   7 2.75  27 2.75  22 2.75  40 2.75
                            10 2.75
  27  0.750  0.250  0.592-  28 2.75  31 2.75  26 2.75   2 2.75  22 2.75  37 2.75  17 2.75   7 2.75
                             3 2.75
  28  0.667  0.417  0.500-   8 2.75  27 2.75  37 2.75   5 2.75  30 2.75  31 2.75   3 2.75  35 2.75
                            38 2.75   6 2.75  33 2.75   2 2.75
  29  0.833  0.583  0.408-  39 2.75  32 2.75  33 2.75  36 2.75  24 2.75  19 2.75   6 2.75  35 2.75
                            30 2.75
  30  0.667  0.667  0.500-   6 2.75   2 2.75  34 2.75  28 2.75  10 2.75  35 2.75  47 2.75  39 2.75
                             5 2.75  36 2.75  29 2.75  15 2.75
  31  0.917  0.167  0.500-   4 2.75  22 2.75  27 2.75  21 2.75  28 2.75  35 2.75  43 2.75   3 2.75
                            16 2.75  33 2.75  17 2.75   1 2.75
  32  0.833  0.833  0.408-  21 2.75  19 2.75   4 2.75  29 2.75  42 2.75  36 2.75  23 2.75  39 2.75
                            10 2.75
  33  0.833  0.333  0.408-  35 2.75   4 2.75   6 2.75  29 2.75   1 2.75   8 2.75  24 2.75  31 2.75
                            28 2.75
  34  0.500  0.750  0.592-  47 2.75  30 2.75   2 2.75  37 2.75  40 2.75  14 2.75  15 2.75  48 2.75
                             5 2.75
  35  0.917  0.417  0.500-  33 2.75  17 2.75   2 2.75  30 2.75  31 2.75  16 2.75  39 2.75  28 2.75
                            46 2.75  29 2.75  41 2.75  24 2.75
  36  0.583  0.833  0.408-  10 2.75   6 2.75  18 2.75  29 2.75  42 2.75  32 2.75  11 2.75  30 2.75
                            47 2.75
  37  0.500  0.500  0.592-   5 2.75  28 2.75  27 2.75   7 2.75  34 2.75  48 2.75   2 2.75  12 2.75
                            38 2.75
  38  0.417  0.417  0.500-  25 2.75   7 2.75  12 2.75   9 2.75   5 2.75   3 2.75  44 2.75  28 2.75
                            46 2.75  13 2.75   8 2.75  37 2.75
  39  0.917  0.667  0.500-  29 2.75  41 2.75  15 2.75  10 2.75  35 2.75  21 2.75  46 2.75  44 2.75
                            30 2.75  32 2.75  19 2.75  20 2.75
  40  0.500  0.000  0.592-   9 2.75  10 2.75   7 2.75  15 2.75  34 2.75  45 2.75  14 2.75  26 2.75
                            47 2.75
  41  0.000  0.500  0.592-  39 2.75  46 2.75  20 2.75  15 2.75  45 2.75  17 2.75   2 2.75  12 2.75
                            35 2.75
  42  0.583  0.083  0.408-   3 2.75   8 2.75  25 2.75  32 2.75  36 2.75  18 2.75   4 2.75  10 2.75
                             9 2.75
  43  0.167  0.917  0.500-  23 2.75  48 2.75  22 2.75  16 2.75  31 2.75  44 2.75   5 2.75  47 2.75
                            21 2.75   1 2.75  11 2.75  14 2.75
  44  0.167  0.667  0.500-  19 2.75  12 2.75  20 2.75  21 2.75  38 2.75  43 2.75  46 2.75   5 2.75
                            39 2.75  23 2.75  13 2.75  48 2.75
  45  0.250  0.250  0.592-  46 2.75   9 2.75  14 2.75  40 2.75  41 2.75  12 2.75  17 2.75   7 2.75
                            16 2.75
  46  0.167  0.417  0.500-  24 2.75  45 2.75  41 2.75  39 2.75  16 2.75  44 2.75   9 2.75  35 2.75
                            38 2.75  19 2.75  12 2.75  25 2.75
  47  0.417  0.917  0.500-  11 2.75  34 2.75  14 2.75   9 2.75  16 2.75  30 2.75   5 2.75  10 2.75
                            43 2.75  18 2.75  40 2.75  36 2.75
  48  0.250  0.750  0.592-  43 2.75   5 2.75  14 2.75  22 2.75  37 2.75  12 2.75  20 2.75  34 2.75
                            44 2.75
 
  LATTYP: Found a hexagonal cell.
 ALAT       =    11.0025815153
 C/A-ratio  =     2.2260035120
  
  Lattice vectors:
  
 A1 = (   5.5012907576,  -9.5285150994,   0.0000000000)
 A2 = ( -11.0025815153,   0.0000000000,   0.0000000000)
 A3 = (   0.0000000000,   0.0000000000, -24.4917850943)


Analysis of symmetry for initial positions (statically):
=====================================================================
 Subroutine PRICEL returns:
 Original cell was already a primitive cell.
 

 Routine SETGRP: Setting up the symmetry group for a 
 hexagonal supercell.


 Subroutine GETGRP returns: Found  1 space group operations
 (whereof  1 operations were pure point group operations)
 out of a pool of 24 trial point group operations.


The static configuration has the point symmetry C_1 .


Analysis of symmetry for dynamics (positions and initial velocities):
=====================================================================
 Subroutine PRICEL returns:
 Original cell was already a primitive cell.
 

 Routine SETGRP: Setting up the symmetry group for a 
 hexagonal supercell.


 Subroutine GETGRP returns: Found  1 space group operations
 (whereof  1 operations were pure point group operations)
 out of a pool of 24 trial point group operations.


The dynamic configuration has the point symmetry C_1 .
 
 
 KPOINTS: Automatic mesh                          

Automatic generation of k-mesh.
Space group operators:
 irot       det(A)        alpha          n_x          n_y          n_z        tau_x        tau_y        tau_z
    1     1.000000     0.000000     1.000000     0.000000     0.000000     0.000000     0.000000     0.000000
 
 Subroutine IBZKPT returns following result:
 ===========================================
 
 Found      6 irreducible k-points:
 
 Following reciprocal coordinates:
            Coordinates               Weight
  0.250000  0.250000  0.000000     16.000000
  0.000000  0.250000  0.000000     16.000000
 -0.250000  0.000000  0.000000     16.000000
 -0.250000  0.250000  0.000000     16.000000
  0.500000 -0.250000  0.000000     16.000000
 -0.250000  0.500000  0.000000     16.000000
 
 Following cartesian coordinates:
            Coordinates               Weight
  0.022722  0.013119  0.000000     16.000000
  0.000000  0.026237  0.000000     16.000000
 -0.022722  0.013119  0.000000     16.000000
 -0.022722  0.039356  0.000000     16.000000
  0.045444 -0.052474  0.000000     16.000000
 -0.022722  0.065593  0.000000     16.000000
 


--------------------------------------------------------------------------------------------------------




 Dimension of arrays:
   k-points           NKPTS =      6   k-points in BZ     NKDIM =      6   number of bands    NBANDS=    306
   number of dos      NEDOS =    301   number of ions     NIONS =     48
   non local maximal  LDIM  =      6   non local SUM 2l+1 LMDIM =     18
   total plane-waves  NPLWV = 349920
   max r-space proj   IRMAX =   2009   max aug-charges    IRDMAX=   8532
   dimension x,y,z NGX =    54 NGY =   54 NGZ =  120
   dimension x,y,z NGXF=   108 NGYF=  108 NGZF=  240
   support grid    NGXF=   108 NGYF=  108 NGZF=  240
   ions per type =              24  24
 NGX,Y,Z   is equivalent  to a cutoff of   8.16,  8.16,  8.15 a.u.
 NGXF,Y,Z  is equivalent  to a cutoff of  16.32, 16.32, 16.29 a.u.


 I would recommend the setting:
   dimension x,y,z NGX =    54 NGY =   54 NGZ =  120
 SYSTEM =  unknown system                          
 POSCAR =  Au Pd                                   

 Startparameter for this run:
   NWRITE =      1    write-flag & timer
   PREC   = normal    normal or accurate (medium, high low for compatibility)
   ISTART =      0    job   : 0-new  1-cont  2-samecut
   ICHARG =      2    charge: 1-file 2-atom 10-const
   ISPIN  =      1    spin polarized calculation?
   LNONCOLLINEAR =      F non collinear calculations
   LSORBIT =      F    spin-orbit coupling
   INIWAV =      1    electr: 0-lowe 1-rand  2-diag
   LASPH  =      F    aspherical Exc in radial PAW
   METAGGA=      F    non-selfconsistent MetaGGA calc.

 Electronic Relaxation 1
   ENCUT  =  400.0 eV  29.40 Ry    5.42 a.u.  17.94 17.94 39.94*2*pi/ulx,y,z
   ENINI  =  400.0     initial cutoff
   ENAUG  =  416.2 eV  augmentation charge cutoff
   NELM   =    500;   NELMIN=  2; NELMDL= -5     # of ELM steps 
   EDIFF  = 0.1E-05   stopping-criterion for ELM
   LREAL  =      T    real-space projection
   NLSPLINE    = F    spline interpolate recip. space projectors
   LCOMPAT=      F    compatible to vasp.4.4
   GGA_COMPAT  = T    GGA compatible to vasp.4.4-vasp.4.6
   LMAXPAW     = -100 max onsite density
   LMAXMIX     =    2 max onsite mixed and CHGCAR
   VOSKOWN=      1    Vosko Wilk Nusair interpolation
   ROPT   =   -0.00050  -0.00050
 Ionic relaxation
   EDIFFG = -.2E-01   stopping-criterion for IOM
   NSW    =    500    number of steps for IOM
   NBLOCK =      1;   KBLOCK =    500    inner block; outer block 
   IBRION =      2    ionic relax: 0-MD 1-quasi-New 2-CG
   NFREE  =      2    steps in history (QN), initial steepest desc. (CG)
   ISIF   =      0    stress and relaxation
   IWAVPR =     11    prediction:  0-non 1-charg 2-wave 3-comb
   ISYM   =      2    0-nonsym 1-usesym 2-fastsym
   LCORR  =      T    Harris-Foulkes like correction to forces

   POTIM  = 0.3500    time-step for ionic-motion
   TEIN   =    0.0    initial temperature
   TEBEG  =    0.0;   TEEND  =   0.0 temperature during run
   SMASS  =  -3.00    Nose mass-parameter (am)
   estimated Nose-frequenzy (Omega)   =  0.10E-29 period in steps =****** mass=  -0.277E-26a.u.
   SCALEE = 1.0000    scale energy and forces
   NPACO  =    256;   APACO  = 16.0  distance and # of slots for P.C.
   PSTRESS=    0.0 pullay stress

  Mass of Ions in am
   POMASS = 196.97106.42
  Ionic Valenz
   ZVAL   =  11.00 10.00
  Atomic Wigner-Seitz radii
   RWIGS  =  -1.00 -1.00
  virtual crystal weights 
   VCA    =   1.00  1.00
   NELECT =     504.0000    total number of electrons
   NUPDOWN=      -1.0000    fix difference up-down

 DOS related values:
   EMIN   =  10.00;   EMAX   =-10.00  energy-range for DOS
   EFERMI =   0.00
   ISMEAR =     0;   SIGMA  =   0.10  broadening in eV -4-tet -1-fermi 0-gaus

 Electronic relaxation 2 (details)
   IALGO  =     68    algorithm
   LDIAG  =      T    sub-space diagonalisation (order eigenvalues)
   LSUBROT=      F    optimize rotation matrix (better conditioning)
   TURBO    =      0    0=normal 1=particle mesh
   IRESTART =      0    0=no restart 2=restart with 2 vectors
   NREBOOT  =      0    no. of reboots
   NMIN     =      0    reboot dimension
   EREF     =   0.00    reference energy to select bands
   IMIX   =      4    mixing-type and parameters
     AMIX     =   0.40;   BMIX     =  1.00
     AMIX_MAG =   1.60;   BMIX_MAG =  1.00
     AMIN     =   0.10
     WC   =   100.;   INIMIX=   1;  MIXPRE=   1;  MAXMIX= -45

 Intra band minimization:
   WEIMIN = 0.0010     energy-eigenvalue tresh-hold
   EBREAK =  0.82E-09  absolut break condition
   DEPER  =   0.30     relativ break condition  

   TIME   =   0.40     timestep for ELM

  volume/ion in A,a.u.               =      53.49       360.99
  Fermi-wavevector in a.u.,A,eV,Ry     =   0.951418  1.797920 12.315955  0.905197
  Thomas-Fermi vector in A             =   2.079887
 
 Write flags
   LWAVE  =      F    write WAVECAR
   LCHARG =      F    write CHGCAR
   LVTOT  =      F    write LOCPOT, total local potential
   LVHAR  =      F    write LOCPOT, Hartree potential only
   LELF   =      F    write electronic localiz. function (ELF)
   LORBIT =      0    0 simple, 1 ext, 2 COOP (PROOUT)


 Dipole corrections
   LMONO  =      F    monopole corrections only (constant potential shift)
   LDIPOL =      T    correct potential (dipole corrections)
   IDIPOL =      3    1-x, 2-y, 3-z, 4-all directions 
   EPSILON=  1.0000000 bulk dielectric constant

 Exchange correlation treatment:
   GGA     =    PE    GGA type
   LEXCH   =     8    internal setting for exchange type
   VOSKOWN=      1    Vosko Wilk Nusair interpolation
   LHFCALC =     F    Hartree Fock is set to
   LHFONE  =     F    Hartree Fock one center treatment
   AEXX    =    0.0000 exact exchange contribution

 Linear response parameters
   LEPSILON=     F    determine dielectric tensor
   LRPA    =     F    only Hartree local field effects (RPA)
   LNABLA  =     F    use nabla operator in PAW spheres
   LVEL    =     F    velocity operator in full k-point grid
   LINTERFAST=   F  fast interpolation
   KINTER  =     0    interpolate to denser k-point grid
   CSHIFT  =0.1000    complex shift for real part using Kramers Kronig
   OMEGAMAX=  -1.0    maximum frequency
   DEG_THRESHOLD= 0.2000000E-02 threshold for treating states as degnerate
   RTIME   =    0.100 relaxation time in fs

 Orbital magnetization related:
   ORBITALMAG=     F  switch on orbital magnetization
   LCHIMAG   =     F  perturbation theory with respect to B field
   DQ        =  0.001000  dq finite difference perturbation B field



--------------------------------------------------------------------------------------------------------


 conjugate gradient relaxation of ions
 charge density and potential will be updated during run
 non-spin polarized calculation
 RMM-DIIS sequential band-by-band and
  variant of blocked Davidson during initial phase
 perform sub-space diagonalisation
    before iterative eigenvector-optimisation
 modified Broyden-mixing scheme, WC =      100.0
 initial mixing is a Kerker type mixing with AMIX =  0.4000 and BMIX =      1.0000
 Hartree-type preconditioning will be used
 using additional bands           54
 real space projection scheme for non local part
 use partial core corrections
 calculate Harris-corrections to forces 
   (improved forces if not selfconsistent)
 use gradient corrections 
 use of overlap-Matrix (Vanderbilt PP)
 Gauss-broadening in eV      SIGMA  =   0.10


--------------------------------------------------------------------------------------------------------


  energy-cutoff  :      400.00
  volume of cell :     2567.68
      direct lattice vectors                 reciprocal lattice vectors
    11.002581515  0.000000000  0.000000000     0.090887761 -0.052474073  0.000000000
     5.501290758  9.528515099  0.000000000     0.000000000  0.104948147  0.000000000
     0.000000000  0.000000000 24.491785094     0.000000000  0.000000000  0.040830017

  length of vectors
    11.002581515 11.002581515 24.491785094     0.104948147  0.104948147  0.040830017


 
 k-points in units of 2pi/SCALE and weight: Automatic mesh                          
   0.02272194  0.01311852  0.00000000       0.167
   0.00000000  0.02623704  0.00000000       0.167
  -0.02272194  0.01311852  0.00000000       0.167
  -0.02272194  0.03935555  0.00000000       0.167
   0.04544388 -0.05247407  0.00000000       0.167
  -0.02272194  0.06559259  0.00000000       0.167
 
 k-points in reciprocal lattice and weights: Automatic mesh                          
   0.25000000  0.25000000  0.00000000       0.167
   0.00000000  0.25000000  0.00000000       0.167
  -0.25000000  0.00000000  0.00000000       0.167
  -0.25000000  0.25000000  0.00000000       0.167
   0.50000000 -0.25000000  0.00000000       0.167
  -0.25000000  0.50000000  0.00000000       0.167
 
 position of ions in fractional coordinates (direct lattice) 
   0.08333333  0.08333333  0.40830017
   0.75000000  0.50000000  0.59169983
   0.66666667  0.16666667  0.50000000
   0.83333333  0.08333333  0.40830017
   0.41666667  0.66666667  0.50000000
   0.58333333  0.58333333  0.40830017
   0.50000000  0.25000000  0.59169983
   0.58333333  0.33333333  0.40830017
   0.41666667  0.16666667  0.50000000
   0.66666667  0.91666667  0.50000000
   0.33333333  0.83333333  0.40830017
   0.25000000  0.50000000  0.59169983
   0.33333333  0.58333333  0.40830017
   0.25000000  0.00000000  0.59169983
   0.75000000  0.75000000  0.59169983
   0.16666667  0.16666667  0.50000000
   0.00000000  0.25000000  0.59169983
   0.33333333  0.08333333  0.40830017
   0.08333333  0.58333333  0.40830017
   0.00000000  0.75000000  0.59169983
   0.91666667  0.91666667  0.50000000
   0.00000000  0.00000000  0.59169983
   0.08333333  0.83333333  0.40830017
   0.08333333  0.33333333  0.40830017
   0.33333333  0.33333333  0.40830017
   0.75000000  0.00000000  0.59169983
   0.75000000  0.25000000  0.59169983
   0.66666667  0.41666667  0.50000000
   0.83333333  0.58333333  0.40830017
   0.66666667  0.66666667  0.50000000
   0.91666667  0.16666667  0.50000000
   0.83333333  0.83333333  0.40830017
   0.83333333  0.33333333  0.40830017
   0.50000000  0.75000000  0.59169983
   0.91666667  0.41666667  0.50000000
   0.58333333  0.83333333  0.40830017
   0.50000000  0.50000000  0.59169983
   0.41666667  0.41666667  0.50000000
   0.91666667  0.66666667  0.50000000
   0.50000000  0.00000000  0.59169983
   0.00000000  0.50000000  0.59169983
   0.58333333  0.08333333  0.40830017
   0.16666667  0.91666667  0.50000000
   0.16666667  0.66666667  0.50000000
   0.25000000  0.25000000  0.59169983
   0.16666667  0.41666667  0.50000000
   0.41666667  0.91666667  0.50000000
   0.25000000  0.75000000  0.59169983
 
 position of ions in cartesian coordinates  (Angst):
   1.37532269  0.79404292 10.00000000
  11.00258152  4.76425755 14.49178509
   8.25193614  1.58808585 12.24589255
   9.62725883  0.79404292 10.00000000
   8.25193614  6.35234340 12.24589255
   9.62725883  5.55830047 10.00000000
   6.87661345  2.38212877 14.49178509
   8.25193614  3.17617170 10.00000000
   5.50129076  1.58808585 12.24589255
  12.37790420  8.73447217 12.24589255
   8.25193614  7.94042925 10.00000000
   5.50129076  4.76425755 14.49178509
   6.87661345  5.55830047 10.00000000
   2.75064538  0.00000000 14.49178509
  12.37790420  7.14638632 14.49178509
   2.75064538  1.58808585 12.24589255
   1.37532269  2.38212877 14.49178509
   4.12596807  0.79404292 10.00000000
   4.12596807  5.55830047 10.00000000
   4.12596807  7.14638632 14.49178509
  15.12854958  8.73447217 12.24589255
   0.00000000  0.00000000 14.49178509
   5.50129076  7.94042925 10.00000000
   2.75064538  3.17617170 10.00000000
   5.50129076  3.17617170 10.00000000
   8.25193614  0.00000000 14.49178509
   9.62725883  2.38212877 14.49178509
   9.62725883  3.97021462 12.24589255
  12.37790420  5.55830047 10.00000000
  11.00258152  6.35234340 12.24589255
  11.00258152  1.58808585 12.24589255
  13.75322689  7.94042925 10.00000000
  11.00258152  3.17617170 10.00000000
   9.62725883  7.14638632 14.49178509
  12.37790420  3.97021462 12.24589255
  11.00258152  7.94042925 10.00000000
   8.25193614  4.76425755 14.49178509
   6.87661345  3.97021462 12.24589255
  13.75322689  6.35234340 12.24589255
   5.50129076  0.00000000 14.49178509
   2.75064538  4.76425755 14.49178509
   6.87661345  0.79404292 10.00000000
   6.87661345  8.73447217 12.24589255
   5.50129076  6.35234340 12.24589255
   4.12596807  2.38212877 14.49178509
   4.12596807  3.97021462 12.24589255
   9.62725883  8.73447217 12.24589255
   6.87661345  7.14638632 14.49178509
 


--------------------------------------------------------------------------------------------------------


 k-point  1 :   0.2500 0.2500 0.0000  plane waves:   46635
 k-point  2 :   0.0000 0.2500 0.0000  plane waves:   46635
 k-point  3 :  -0.2500 0.0000 0.0000  plane waves:   46635
 k-point  4 :  -0.2500 0.2500 0.0000  plane waves:   46644
 k-point  5 :   0.5000-0.2500 0.0000  plane waves:   46644
 k-point  6 :  -0.2500 0.5000 0.0000  plane waves:   46644

 maximum and minimum number of plane-waves per node :      7818     7732

 maximum number of plane-waves:     46644
 maximum index in each direction: 
   IXMAX=   18   IYMAX=   18   IZMAX=   39
   IXMIN=  -18   IYMIN=  -18   IZMIN=  -39

 WARNING: aliasing errors must be expected set NGX to  74 to avoid them
 WARNING: aliasing errors must be expected set NGY to  74 to avoid them
 WARNING: aliasing errors must be expected set NGZ to 158 to avoid them
 aliasing errors are usually negligible using standard VASP settings
 and one can safely disregard these warnings

 real space projection operators:
  total allocation   :      12803.06 KBytes
  max/ min on nodes  :       2145.66       2127.94


 parallel 3D FFT for wavefunctions:
    minimum data exchange during FFTs selected (reduces bandwidth)
 parallel 3D FFT for charge:
    minimum data exchange during FFTs selected (reduces bandwidth)


 total amount of memory used by VASP on root node    84353. kBytes
========================================================================

   base      :      30000. kBytes
   nonlr-proj:       4285. kBytes
   fftplans  :       4447. kBytes
   grid      :       6721. kBytes
   one-center:        124. kBytes
   wavefun   :      38776. kBytes
 
     INWAV:  cpu time    0.0000: real time    0.0000
 Broyden mixing: mesh for mixing (old mesh)
   NGX = 35   NGY = 35   NGZ = 79
  (NGX  =108   NGY  =108   NGZ  =240)
  gives a total of  96775 points

 initial charge density was supplied:
 charge density of overlapping atoms calculated
 number of electron     504.0000000 magnetization 
 keeping initial charge density in first step


--------------------------------------------------------------------------------------------------------


 Maximum index for non-local projection operator          355
 Maximum index for augmentation-charges          437 (set IRDMAX)


--------------------------------------------------------------------------------------------------------


 First call to EWALD:  gamma=   0.129
 Maximum number of real-space cells 4x 4x 2
 Maximum number of reciprocal cells 2x 2x 5

 FEWALD executed in parallel
    FEWALD:  cpu time    0.0024: real time    0.0025


----------------------------------------- Iteration    1(   1)  ---------------------------------------


    POTLOK:  cpu time    0.0550: real time    0.0551
    SETDIJ:  cpu time    0.0067: real time    0.0067
     EDDAV:  cpu time    9.5243: real time    9.5911
       DOS:  cpu time    0.0014: real time    0.0014
    --------------------------------------------
      LOOP:  cpu time    9.5914: real time    9.6604

 eigenvalue-minimisations  :  3672
 total energy-change (2. order) : 0.3201852E+04  (-0.1898560E+05)
 number of electron     504.0000000 magnetization 
 augmentation part      504.0000000 magnetization 

 DIPCOR: dipole corrections for dipol
 direction  3 min pos     1,
 dipolmoment           0.000000      0.000000      0.000001 electrons x Angstroem
 Tr[quadrupol]    -10218.475071

 energy correction for charged system         0.000000 eV
 dipol+quadrupol energy correction           -0.000000 eV
 added-field ion interaction          0.000000 eV  (added to PSCEN)


 Free energy of the ion-electron system (eV)
  ---------------------------------------------------
  alpha Z        PSCENC =       805.86936475
  Ewald energy   TEWEN  =    199689.20195249
  -Hartree energ DENC   =   -242101.27331335
  -exchange      EXHF   =         0.00000000
  -V(xc)+E(xc)   XCENC  =      -327.75879898
  PAW double counting   =     40340.05962942   -38292.62782345
  entropy T*S    EENTRO =        -0.13128576
  eigenvalues    EBANDS =      1428.72677550
  atomic energy  EATOM  =     41659.78587232
  Solvation  Ediel_sol  =         0.00000000
  ---------------------------------------------------
  free energy    TOTEN  =      3201.85237295 eV

  energy without entropy =     3201.98365871  energy(sigma->0) =     3201.91801583


--------------------------------------------------------------------------------------------------------




----------------------------------------- Iteration    1(   2)  ---------------------------------------


     EDDAV:  cpu time   11.3807: real time   11.3956
       DOS:  cpu time    0.0016: real time    0.0016
    --------------------------------------------
      LOOP:  cpu time   11.3835: real time   11.4003

 eigenvalue-minimisations  :  4404
 total energy-change (2. order) :-0.3189813E+04  (-0.2932936E+04)
 number of electron     504.0000000 magnetization 
 augmentation part      504.0000000 magnetization 

 DIPCOR: dipole corrections for dipol
 direction  3 min pos     1,
 dipolmoment           0.000000      0.000000      0.000001 electrons x Angstroem
 Tr[quadrupol]    -10218.475071

 energy correction for charged system         0.000000 eV
 dipol+quadrupol energy correction           -0.000000 eV
 added-field ion interaction          0.000000 eV  (added to PSCEN)


 Free energy of the ion-electron system (eV)
  ---------------------------------------------------
  alpha Z        PSCENC =       805.86936475
  Ewald energy   TEWEN  =    199689.20195249
  -Hartree energ DENC   =   -242101.27331335
  -exchange      EXHF   =         0.00000000
  -V(xc)+E(xc)   XCENC  =      -327.75879898
  PAW double counting   =     40340.05962942   -38292.62782345
  entropy T*S    EENTRO =        -0.13837818
  eigenvalues    EBANDS =     -1761.07911763
  atomic energy  EATOM  =     41659.78587232
  Solvation  Ediel_sol  =         0.00000000
  ---------------------------------------------------
  free energy    TOTEN  =        12.03938740 eV

  energy without entropy =       12.17776558  energy(sigma->0) =       12.10857649


--------------------------------------------------------------------------------------------------------




----------------------------------------- Iteration    1(   3)  ---------------------------------------


     EDDAV:  cpu time   10.9742: real time   10.9809
       DOS:  cpu time    0.0016: real time    0.0016
    --------------------------------------------
      LOOP:  cpu time   10.9770: real time   10.9857

 eigenvalue-minimisations  :  4104
 total energy-change (2. order) :-0.2136220E+03  (-0.1987154E+03)
 number of electron     504.0000000 magnetization 
 augmentation part      504.0000000 magnetization 

 DIPCOR: dipole corrections for dipol
 direction  3 min pos     1,
 dipolmoment           0.000000      0.000000      0.000001 electrons x Angstroem
 Tr[quadrupol]    -10218.475071

 energy correction for charged system         0.000000 eV
 dipol+quadrupol energy correction           -0.000000 eV
 added-field ion interaction          0.000000 eV  (added to PSCEN)


 Free energy of the ion-electron system (eV)
  ---------------------------------------------------
  alpha Z        PSCENC =       805.86936475
  Ewald energy   TEWEN  =    199689.20195249
  -Hartree energ DENC   =   -242101.27331335
  -exchange      EXHF   =         0.00000000
  -V(xc)+E(xc)   XCENC  =      -327.75879898
  PAW double counting   =     40340.05962942   -38292.62782345
  entropy T*S    EENTRO =        -0.17596148
  eigenvalues    EBANDS =     -1974.66351744
  atomic energy  EATOM  =     41659.78587232
  Solvation  Ediel_sol  =         0.00000000
  ---------------------------------------------------
  free energy    TOTEN  =      -201.58259572 eV

  energy without entropy =     -201.40663423  energy(sigma->0) =     -201.49461498


--------------------------------------------------------------------------------------------------------




----------------------------------------- Iteration    1(   4)  ---------------------------------------


     EDDAV:  cpu time   11.0622: real time   11.8478
       DOS:  cpu time    0.0016: real time    0.0016
    --------------------------------------------
      LOOP:  cpu time   11.0657: real time   11.9286

 eigenvalue-minimisations  :  4260
 total energy-change (2. order) :-0.5780950E+01  (-0.5719974E+01)
 number of electron     504.0000000 magnetization 
 augmentation part      504.0000000 magnetization 

 DIPCOR: dipole corrections for dipol
 direction  3 min pos     1,
 dipolmoment           0.000000      0.000000      0.000001 electrons x Angstroem
 Tr[quadrupol]    -10218.475071

 energy correction for charged system         0.000000 eV
 dipol+quadrupol energy correction           -0.000000 eV
 added-field ion interaction          0.000000 eV  (added to PSCEN)


 Free energy of the ion-electron system (eV)
  ---------------------------------------------------
  alpha Z        PSCENC =       805.86936475
  Ewald energy   TEWEN  =    199689.20195249
  -Hartree energ DENC   =   -242101.27331335
  -exchange      EXHF   =         0.00000000
  -V(xc)+E(xc)   XCENC  =      -327.75879898
  PAW double counting   =     40340.05962942   -38292.62782345
  entropy T*S    EENTRO =        -0.18395043
  eigenvalues    EBANDS =     -1980.43647841
  atomic energy  EATOM  =     41659.78587232
  Solvation  Ediel_sol  =         0.00000000
  ---------------------------------------------------
  free energy    TOTEN  =      -207.36354563 eV

  energy without entropy =     -207.17959520  energy(sigma->0) =     -207.27157042


--------------------------------------------------------------------------------------------------------




----------------------------------------- Iteration    1(   5)  ---------------------------------------


     EDDAV:  cpu time   11.5302: real time   11.6012
       DOS:  cpu time    0.0017: real time    0.0017
    CHARGE:  cpu time    0.3039: real time    0.3041
    MIXING:  cpu time    0.0021: real time    0.0023
    --------------------------------------------
      LOOP:  cpu time   11.8385: real time   11.9122

 eigenvalue-minimisations  :  4440
 total energy-change (2. order) :-0.1784983E+00  (-0.1779139E+00)
 number of electron     503.9998404 magnetization 
 augmentation part      191.1949928 magnetization 

 DIPCOR: dipole corrections for dipol
 direction  3 min pos     1,
 dipolmoment           0.000000      0.000000      0.000001 electrons x Angstroem
 Tr[quadrupol]    -10218.475071

 energy correction for charged system         0.000000 eV
 dipol+quadrupol energy correction           -0.000000 eV
 added-field ion interaction          0.000000 eV  (added to PSCEN)


 Broyden mixing:
  rms(total) = 0.61975E+01    rms(broyden)= 0.61975E+01
  rms(prec ) = 0.63223E+01
  weight for this iteration     100.00

 Free energy of the ion-electron system (eV)
  ---------------------------------------------------
  alpha Z        PSCENC =       805.86936475
  Ewald energy   TEWEN  =    199689.20195249
  -Hartree energ DENC   =   -242101.27331335
  -exchange      EXHF   =         0.00000000
  -V(xc)+E(xc)   XCENC  =      -327.75879898
  PAW double counting   =     40340.05962942   -38292.62782345
  entropy T*S    EENTRO =        -0.18449935
  eigenvalues    EBANDS =     -1980.61442778
  atomic energy  EATOM  =     41659.78587232
  Solvation  Ediel_sol  =         0.00000000
  ---------------------------------------------------
  free energy    TOTEN  =      -207.54204392 eV

  energy without entropy =     -207.35754457  energy(sigma->0) =     -207.44979424


--------------------------------------------------------------------------------------------------------




----------------------------------------- Iteration    1(   6)  ---------------------------------------


    POTLOK:  cpu time    0.0507: real time    0.0508
    SETDIJ:  cpu time    0.0067: real time    0.0068
    EDDIAG:  cpu time    1.6848: real time    1.6883
  RMM-DIIS:  cpu time    4.4749: real time    4.4767
    ORTHCH:  cpu time    0.4229: real time    0.4230
       DOS:  cpu time    0.0017: real time    0.0017
    CHARGE:  cpu time    0.3172: real time    0.3172
    MIXING:  cpu time    0.0022: real time    0.0022
    --------------------------------------------
      LOOP:  cpu time    6.9619: real time    6.9708

 eigenvalue-minimisations  :  3677
 total energy-change (2. order) : 0.5291153E+01  (-0.9716833E+01)
 number of electron     503.9998426 magnetization 
 augmentation part      191.5604102 magnetization 

 DIPCOR: dipole corrections for dipol
 direction  3 min pos     1,
 dipolmoment           0.000000      0.000000      0.675050 electrons x Angstroem
 Tr[quadrupol]    -10221.269751

 energy correction for charged system         0.000000 eV
 dipol+quadrupol energy correction           -0.016057 eV
 added-field ion interaction          0.213692 eV  (added to PSCEN)


 Broyden mixing:
  rms(total) = 0.53480E+01    rms(broyden)= 0.53478E+01
  rms(prec ) = 0.55702E+01
  weight for this iteration     100.00

 eigenvalues of (default mixing * dielectric matrix)
  average eigenvalue GAMMA=   0.7480
  0.7480

 Free energy of the ion-electron system (eV)
  ---------------------------------------------------
  alpha Z        PSCENC =       806.06699881
  Ewald energy   TEWEN  =    199689.20195249
  -Hartree energ DENC   =   -241898.64944002
  -exchange      EXHF   =         0.00000000
  -V(xc)+E(xc)   XCENC  =      -340.64986493
  PAW double counting   =     43892.91391459   -41905.08515349
  entropy T*S    EENTRO =        -0.24203395
  eigenvalues    EBANDS =     -2105.59313698
  atomic energy  EATOM  =     41659.78587232
  Solvation  Ediel_sol  =         0.00000000
  ---------------------------------------------------
  free energy    TOTEN  =      -202.25089116 eV

  energy without entropy =     -202.00885721  energy(sigma->0) =     -202.12987419


--------------------------------------------------------------------------------------------------------




----------------------------------------- Iteration    1(   7)  ---------------------------------------


    POTLOK:  cpu time    0.0504: real time    0.0504
    SETDIJ:  cpu time    0.0060: real time    0.0060
    EDDIAG:  cpu time    1.6818: real time    1.6827
  RMM-DIIS:  cpu time    4.5972: real time    4.5995
    ORTHCH:  cpu time    0.4225: real time    0.4227
       DOS:  cpu time    0.0017: real time    0.0017
    CHARGE:  cpu time    0.3092: real time    0.3092
    MIXING:  cpu time    0.0021: real time    0.0021
    --------------------------------------------
      LOOP:  cpu time    7.0717: real time    7.0784

 eigenvalue-minimisations  :  3684
 total energy-change (2. order) :-0.3765703E+01  (-0.5987237E+01)
 number of electron     503.9998364 magnetization 
 augmentation part      196.3911190 magnetization 

 DIPCOR: dipole corrections for dipol
 direction  3 min pos     1,
 dipolmoment           0.000000      0.000000     -0.685618 electrons x Angstroem
 Tr[quadrupol]    -10218.064634

 energy correction for charged system         0.000000 eV
 dipol+quadrupol energy correction           -0.016564 eV
 added-field ion interaction         -0.217037 eV  (added to PSCEN)


 Broyden mixing:
  rms(total) = 0.42875E+01    rms(broyden)= 0.42872E+01
  rms(prec ) = 0.48103E+01
  weight for this iteration     100.00

 eigenvalues of (default mixing * dielectric matrix)
  average eigenvalue GAMMA=   0.9610
  1.5505  0.3716

 Free energy of the ion-electron system (eV)
  ---------------------------------------------------
  alpha Z        PSCENC =       805.63576295
  Ewald energy   TEWEN  =    199689.20195249
  -Hartree energ DENC   =   -241683.61120682
  -exchange      EXHF   =         0.00000000
  -V(xc)+E(xc)   XCENC  =      -342.72252319
  PAW double counting   =     45318.12161462   -43356.51395162
  entropy T*S    EENTRO =        -0.15906559
  eigenvalues    EBANDS =     -2295.75504940
  atomic energy  EATOM  =     41659.78587232
  Solvation  Ediel_sol  =         0.00000000
  ---------------------------------------------------
  free energy    TOTEN  =      -206.01659424 eV

  energy without entropy =     -205.85752865  energy(sigma->0) =     -205.93706145


--------------------------------------------------------------------------------------------------------




----------------------------------------- Iteration    1(   8)  ---------------------------------------


    POTLOK:  cpu time    0.0500: real time    0.0500
    SETDIJ:  cpu time    0.0060: real time    0.0060
    EDDIAG:  cpu time    1.6793: real time    1.6800
  RMM-DIIS:  cpu time    4.5407: real time    4.5427
    ORTHCH:  cpu time    0.4221: real time    0.4223
       DOS:  cpu time    0.0017: real time    0.0017
    CHARGE:  cpu time    0.3137: real time    0.3138
    MIXING:  cpu time    0.0023: real time    0.0023
    --------------------------------------------
      LOOP:  cpu time    7.0167: real time    7.0220

 eigenvalue-minimisations  :  3672
 total energy-change (2. order) :-0.1673273E+02  (-0.8745301E+01)
 number of electron     503.9998361 magnetization 
 augmentation part      196.1458161 magnetization 

 DIPCOR: dipole corrections for dipol
 direction  3 min pos     1,
 dipolmoment           0.000000      0.000000      1.642159 electrons x Angstroem
 Tr[quadrupol]    -10220.145030

 energy correction for charged system         0.000000 eV
 dipol+quadrupol energy correction           -0.095024 eV
 added-field ion interaction          0.519837 eV  (added to PSCEN)


 Broyden mixing:
  rms(total) = 0.43306E+01    rms(broyden)= 0.43303E+01
  rms(prec ) = 0.51350E+01
  weight for this iteration     100.00

 eigenvalues of (default mixing * dielectric matrix)
  average eigenvalue GAMMA=   0.9136
  2.0482  0.4092  0.2833

 Free energy of the ion-electron system (eV)
  ---------------------------------------------------
  alpha Z        PSCENC =       806.29417720
  Ewald energy   TEWEN  =    199689.20195249
  -Hartree energ DENC   =   -241687.95464674
  -exchange      EXHF   =         0.00000000
  -V(xc)+E(xc)   XCENC  =      -344.77856094
  PAW double counting   =     47192.61787583   -45258.07153628
  entropy T*S    EENTRO =        -0.30972648
  eigenvalues    EBANDS =     -2279.53473553
  atomic energy  EATOM  =     41659.78587232
  Solvation  Ediel_sol  =         0.00000000
  ---------------------------------------------------
  free energy    TOTEN  =      -222.74932811 eV

  energy without entropy =     -222.43960163  energy(sigma->0) =     -222.59446487


--------------------------------------------------------------------------------------------------------




----------------------------------------- Iteration    1(   9)  ---------------------------------------


    POTLOK:  cpu time    0.0497: real time    0.0497
    SETDIJ:  cpu time    0.0061: real time    0.0061
    EDDIAG:  cpu time    1.6760: real time    1.6768
  RMM-DIIS:  cpu time    4.5906: real time    4.5951
    ORTHCH:  cpu time    0.4243: real time    0.4243
       DOS:  cpu time    0.0017: real time    0.0017
    CHARGE:  cpu time    0.3056: real time    0.3058
    MIXING:  cpu time    0.0024: real time    0.0024
    --------------------------------------------
      LOOP:  cpu time    7.0572: real time    7.0649

 eigenvalue-minimisations  :  3678
 total energy-change (2. order) : 0.1255892E+02  (-0.3747157E+01)
 number of electron     503.9998344 magnetization 
 augmentation part      198.1744256 magnetization 

 DIPCOR: dipole corrections for dipol
 direction  3 min pos     1,
 dipolmoment           0.000000      0.000000     -0.786925 electrons x Angstroem
 Tr[quadrupol]    -10221.689078

 energy correction for charged system         0.000000 eV
 dipol+quadrupol energy correction           -0.021821 eV
 added-field ion interaction         -0.249107 eV  (added to PSCEN)


 Broyden mixing:
  rms(total) = 0.32232E+01    rms(broyden)= 0.32228E+01
  rms(prec ) = 0.36302E+01
  weight for this iteration     100.00

 eigenvalues of (default mixing * dielectric matrix)
  average eigenvalue GAMMA=   0.8217
  2.2174  0.4351  0.3171  0.3171

 Free energy of the ion-electron system (eV)
  ---------------------------------------------------
  alpha Z        PSCENC =       805.59843704
  Ewald energy   TEWEN  =    199689.20195249
  -Hartree energ DENC   =   -241706.90797600
  -exchange      EXHF   =         0.00000000
  -V(xc)+E(xc)   XCENC  =      -346.27827934
  PAW double counting   =     48428.89315933   -46512.90694080
  entropy T*S    EENTRO =        -0.21638749
  eigenvalues    EBANDS =     -2227.36024950
  atomic energy  EATOM  =     41659.78587232
  Solvation  Ediel_sol  =         0.00000000
  ---------------------------------------------------
  free energy    TOTEN  =      -210.19041195 eV

  energy without entropy =     -209.97402445  energy(sigma->0) =     -210.08221820


--------------------------------------------------------------------------------------------------------




----------------------------------------- Iteration    1(  10)  ---------------------------------------


    POTLOK:  cpu time    0.0508: real time    0.0509
    SETDIJ:  cpu time    0.0064: real time    0.0064
    EDDIAG:  cpu time    1.6786: real time    1.6808
  RMM-DIIS:  cpu time    4.4231: real time    4.4955
    ORTHCH:  cpu time    0.4187: real time    0.4187
       DOS:  cpu time    0.0018: real time    0.0018
    CHARGE:  cpu time    0.3117: real time    0.3120
    MIXING:  cpu time    0.0026: real time    0.0026
    --------------------------------------------
      LOOP:  cpu time    6.8944: real time    6.9712

 eigenvalue-minimisations  :  3679
 total energy-change (2. order) : 0.1320929E+02  (-0.1731255E+01)
 number of electron     503.9998342 magnetization 
 augmentation part      198.7788165 magnetization 

 DIPCOR: dipole corrections for dipol
 direction  3 min pos     1,
 dipolmoment           0.000000      0.000000      0.570256 electrons x Angstroem
 Tr[quadrupol]    -10220.555859

 energy correction for charged system         0.000000 eV
 dipol+quadrupol energy correction           -0.011459 eV
 added-field ion interaction          0.180519 eV  (added to PSCEN)


 Broyden mixing:
  rms(total) = 0.17737E+01    rms(broyden)= 0.17734E+01
  rms(prec ) = 0.21518E+01
  weight for this iteration     100.00

 eigenvalues of (default mixing * dielectric matrix)
  average eigenvalue GAMMA=   0.7943
  2.2422  0.5721  0.5721  0.3459  0.2393

 Free energy of the ion-electron system (eV)
  ---------------------------------------------------
  alpha Z        PSCENC =       806.03842402
  Ewald energy   TEWEN  =    199689.20195249
  -Hartree energ DENC   =   -241680.94874726
  -exchange      EXHF   =         0.00000000
  -V(xc)+E(xc)   XCENC  =      -346.13690331
  PAW double counting   =     48962.71361245   -47052.21972028
  entropy T*S    EENTRO =        -0.17813600
  eigenvalues    EBANDS =     -2235.23747449
  atomic energy  EATOM  =     41659.78587232
  Solvation  Ediel_sol  =         0.00000000
  ---------------------------------------------------
  free energy    TOTEN  =      -196.98112007 eV

  energy without entropy =     -196.80298406  energy(sigma->0) =     -196.89205206


--------------------------------------------------------------------------------------------------------




----------------------------------------- Iteration    1(  11)  ---------------------------------------


    POTLOK:  cpu time    0.0496: real time    0.0496
    SETDIJ:  cpu time    0.0061: real time    0.0061
    EDDIAG:  cpu time    1.8013: real time    1.8109
  RMM-DIIS:  cpu time    4.7533: real time    4.7744
    ORTHCH:  cpu time    0.4172: real time    0.4176
       DOS:  cpu time    0.0017: real time    0.0017
    CHARGE:  cpu time    0.3052: real time    0.3054
    MIXING:  cpu time    0.0027: real time    0.0027
    --------------------------------------------
      LOOP:  cpu time    7.3379: real time    7.3706

 eigenvalue-minimisations  :  3679
 total energy-change (2. order) : 0.3731234E+01  (-0.1227178E+01)
 number of electron     503.9998354 magnetization 
 augmentation part      197.6407462 magnetization 

 DIPCOR: dipole corrections for dipol
 direction  3 min pos     1,
 dipolmoment           0.000000      0.000000      0.191266 electrons x Angstroem
 Tr[quadrupol]    -10221.493160

 energy correction for charged system         0.000000 eV
 dipol+quadrupol energy correction           -0.001289 eV
 added-field ion interaction          0.060547 eV  (added to PSCEN)


 Broyden mixing:
  rms(total) = 0.14813E+01    rms(broyden)= 0.14811E+01
  rms(prec ) = 0.17108E+01
  weight for this iteration     100.00

 eigenvalues of (default mixing * dielectric matrix)
  average eigenvalue GAMMA=   0.7239
  2.2352  0.6021  0.6021  0.3867  0.2586  0.2586

 Free energy of the ion-electron system (eV)
  ---------------------------------------------------
  alpha Z        PSCENC =       805.92862194
  Ewald energy   TEWEN  =    199689.20195249
  -Hartree energ DENC   =   -241747.61283882
  -exchange      EXHF   =         0.00000000
  -V(xc)+E(xc)   XCENC  =      -345.30521118
  PAW double counting   =     49113.56123739   -47199.94011879
  entropy T*S    EENTRO =        -0.21521484
  eigenvalues    EBANDS =     -2168.65418638
  atomic energy  EATOM  =     41659.78587232
  Solvation  Ediel_sol  =         0.00000000
  ---------------------------------------------------
  free energy    TOTEN  =      -193.24988586 eV

  energy without entropy =     -193.03467101  energy(sigma->0) =     -193.14227844


--------------------------------------------------------------------------------------------------------




----------------------------------------- Iteration    1(  12)  ---------------------------------------


    POTLOK:  cpu time    0.0496: real time    0.0496
    SETDIJ:  cpu time    0.0060: real time    0.0060
    EDDIAG:  cpu time    1.6724: real time    1.6732
  RMM-DIIS:  cpu time    4.5026: real time    4.5042
    ORTHCH:  cpu time    0.4171: real time    0.4173
       DOS:  cpu time    0.0018: real time    0.0018
    CHARGE:  cpu time    0.3048: real time    0.3048
    MIXING:  cpu time    0.0028: real time    0.0028
    --------------------------------------------
      LOOP:  cpu time    6.9578: real time    6.9636

 eigenvalue-minimisations  :  3680
 total energy-change (2. order) : 0.3220477E+01  (-0.3478313E+00)
 number of electron     503.9998356 magnetization 
 augmentation part      197.4167897 magnetization 

 DIPCOR: dipole corrections for dipol
 direction  3 min pos     1,
 dipolmoment           0.000000      0.000000      0.073969 electrons x Angstroem
 Tr[quadrupol]    -10221.732657

 energy correction for charged system         0.000000 eV
 dipol+quadrupol energy correction           -0.000193 eV
 added-field ion interaction          0.023415 eV  (added to PSCEN)


 Broyden mixing:
  rms(total) = 0.71542E+00    rms(broyden)= 0.71518E+00
  rms(prec ) = 0.76048E+00
  weight for this iteration     100.00

 eigenvalues of (default mixing * dielectric matrix)
  average eigenvalue GAMMA=   0.7176
  2.2485  0.6975  0.6150  0.6150  0.2810  0.2830  0.2830

 Free energy of the ion-electron system (eV)
  ---------------------------------------------------
  alpha Z        PSCENC =       805.89258694
  Ewald energy   TEWEN  =    199689.20195249
  -Hartree energ DENC   =   -241772.49567175
  -exchange      EXHF   =         0.00000000
  -V(xc)+E(xc)   XCENC  =      -344.83611959
  PAW double counting   =     49161.01484784   -47245.59811100
  entropy T*S    EENTRO =        -0.27222100
  eigenvalues    EBANDS =     -2142.72254474
  atomic energy  EATOM  =     41659.78587232
  Solvation  Ediel_sol  =         0.00000000
  ---------------------------------------------------
  free energy    TOTEN  =      -190.02940849 eV

  energy without entropy =     -189.75718749  energy(sigma->0) =     -189.89329799


--------------------------------------------------------------------------------------------------------




----------------------------------------- Iteration    1(  13)  ---------------------------------------


    POTLOK:  cpu time    0.0498: real time    0.0504
    SETDIJ:  cpu time    0.0060: real time    0.0060
    EDDIAG:  cpu time    1.6612: real time    1.6622
  RMM-DIIS:  cpu time    4.6061: real time    4.6087
    ORTHCH:  cpu time    0.4179: real time    0.4181
       DOS:  cpu time    0.0017: real time    0.0017
    CHARGE:  cpu time    0.3044: real time    0.3044
    MIXING:  cpu time    0.0030: real time    0.0030
    --------------------------------------------
      LOOP:  cpu time    7.0508: real time    7.0577

 eigenvalue-minimisations  :  3679
 total energy-change (2. order) : 0.4399381E-01  (-0.1335374E+00)
 number of electron     503.9998358 magnetization 
 augmentation part      197.3345006 magnetization 

 DIPCOR: dipole corrections for dipol
 direction  3 min pos     1,
 dipolmoment           0.000000      0.000000      0.062916 electrons x Angstroem
 Tr[quadrupol]    -10221.954072

 energy correction for charged system         0.000000 eV
 dipol+quadrupol energy correction           -0.000139 eV
 added-field ion interaction          0.019916 eV  (added to PSCEN)


 Broyden mixing:
  rms(total) = 0.69191E+00    rms(broyden)= 0.69182E+00
  rms(prec ) = 0.75197E+00
  weight for this iteration     100.00

 eigenvalues of (default mixing * dielectric matrix)
  average eigenvalue GAMMA=   0.7241
  2.2569  0.8227  0.8227  0.7673  0.3105  0.3105  0.2510  0.2510

 Free energy of the ion-electron system (eV)
  ---------------------------------------------------
  alpha Z        PSCENC =       805.88914120
  Ewald energy   TEWEN  =    199689.20195249
  -Hartree energ DENC   =   -241786.18121102
  -exchange      EXHF   =         0.00000000
  -V(xc)+E(xc)   XCENC  =      -344.67002565
  PAW double counting   =     49193.38349443   -47277.14701473
  entropy T*S    EENTRO =        -0.24460441
  eigenvalues    EBANDS =     -2130.00301931
  atomic energy  EATOM  =     41659.78587232
  Solvation  Ediel_sol  =         0.00000000
  ---------------------------------------------------
  free energy    TOTEN  =      -189.98541469 eV

  energy without entropy =     -189.74081028  energy(sigma->0) =     -189.86311248


--------------------------------------------------------------------------------------------------------




----------------------------------------- Iteration    1(  14)  ---------------------------------------


    POTLOK:  cpu time    0.0497: real time    0.0498
    SETDIJ:  cpu time    0.0060: real time    0.0060
    EDDIAG:  cpu time    1.6696: real time    1.6703
  RMM-DIIS:  cpu time    4.6005: real time    4.6030
    ORTHCH:  cpu time    0.4171: real time    0.4174
       DOS:  cpu time    0.0017: real time    0.0017
    CHARGE:  cpu time    0.3131: real time    0.3132
    MIXING:  cpu time    0.0030: real time    0.0030
    --------------------------------------------
      LOOP:  cpu time    7.0616: real time    7.0679

 eigenvalue-minimisations  :  3679
 total energy-change (2. order) :-0.5501120E-01  (-0.5352514E-01)
 number of electron     503.9998358 magnetization 
 augmentation part      197.3072187 magnetization 

 DIPCOR: dipole corrections for dipol
 direction  3 min pos     1,
 dipolmoment           0.000000      0.000000      0.060322 electrons x Angstroem
 Tr[quadrupol]    -10222.118381

 energy correction for charged system         0.000000 eV
 dipol+quadrupol energy correction           -0.000128 eV
 added-field ion interaction          0.019095 eV  (added to PSCEN)


 Broyden mixing:
  rms(total) = 0.64024E+00    rms(broyden)= 0.64014E+00
  rms(prec ) = 0.72602E+00
  weight for this iteration     100.00

 eigenvalues of (default mixing * dielectric matrix)
  average eigenvalue GAMMA=   0.6938
  2.2613  0.9141  0.9141  0.7337  0.3277  0.3277  0.2656  0.2656  0.2344

 Free energy of the ion-electron system (eV)
  ---------------------------------------------------
  alpha Z        PSCENC =       805.88833145
  Ewald energy   TEWEN  =    199689.20195249
  -Hartree energ DENC   =   -241796.72957627
  -exchange      EXHF   =         0.00000000
  -V(xc)+E(xc)   XCENC  =      -344.45156541
  PAW double counting   =     49221.28986261   -47303.90394783
  entropy T*S    EENTRO =        -0.24160544
  eigenvalues    EBANDS =     -2120.87974981
  atomic energy  EATOM  =     41659.78587232
  Solvation  Ediel_sol  =         0.00000000
  ---------------------------------------------------
  free energy    TOTEN  =      -190.04042588 eV

  energy without entropy =     -189.79882045  energy(sigma->0) =     -189.91962317


--------------------------------------------------------------------------------------------------------




----------------------------------------- Iteration    1(  15)  ---------------------------------------


    POTLOK:  cpu time    0.0495: real time    0.0496
    SETDIJ:  cpu time    0.0060: real time    0.0060
    EDDIAG:  cpu time    1.6718: real time    1.6726
  RMM-DIIS:  cpu time    4.5943: real time    4.5966
    ORTHCH:  cpu time    0.4171: real time    0.4176
       DOS:  cpu time    0.0018: real time    0.0018
    CHARGE:  cpu time    0.3039: real time    0.3039
    MIXING:  cpu time    0.0034: real time    0.0034
    --------------------------------------------
      LOOP:  cpu time    7.0487: real time    7.0575

 eigenvalue-minimisations  :  3678
 total energy-change (2. order) : 0.2280252E+00  (-0.2037430E-01)
 number of electron     503.9998357 magnetization 
 augmentation part      197.3251035 magnetization 

 DIPCOR: dipole corrections for dipol
 direction  3 min pos     1,
 dipolmoment           0.000000      0.000000      0.060557 electrons x Angstroem
 Tr[quadrupol]    -10222.263503

 energy correction for charged system         0.000000 eV
 dipol+quadrupol energy correction           -0.000129 eV
 added-field ion interaction          0.019170 eV  (added to PSCEN)


 Broyden mixing:
  rms(total) = 0.42118E+00    rms(broyden)= 0.42113E+00
  rms(prec ) = 0.47109E+00
  weight for this iteration     100.00

 eigenvalues of (default mixing * dielectric matrix)
  average eigenvalue GAMMA=   0.7413
  2.2444  1.2903  1.2903  0.5595  0.5595  0.4076  0.2909  0.2758  0.2758  0.2184

 Free energy of the ion-electron system (eV)
  ---------------------------------------------------
  alpha Z        PSCENC =       805.88840478
  Ewald energy   TEWEN  =    199689.20195249
  -Hartree energ DENC   =   -241803.63718632
  -exchange      EXHF   =         0.00000000
  -V(xc)+E(xc)   XCENC  =      -344.36998376
  PAW double counting   =     49230.34938790   -47312.43147131
  entropy T*S    EENTRO =        -0.26615882
  eigenvalues    EBANDS =     -2114.33321793
  atomic energy  EATOM  =     41659.78587232
  Solvation  Ediel_sol  =         0.00000000
  ---------------------------------------------------
  free energy    TOTEN  =      -189.81240065 eV

  energy without entropy =     -189.54624184  energy(sigma->0) =     -189.67932125


--------------------------------------------------------------------------------------------------------




----------------------------------------- Iteration    1(  16)  ---------------------------------------


    POTLOK:  cpu time    0.0497: real time    0.0498
    SETDIJ:  cpu time    0.0061: real time    0.0061
    EDDIAG:  cpu time    1.6655: real time    1.7049
  RMM-DIIS:  cpu time    4.5821: real time    4.6104
    ORTHCH:  cpu time    0.4203: real time    0.4205
       DOS:  cpu time    0.0017: real time    0.0017
    CHARGE:  cpu time    0.3032: real time    0.3034
    MIXING:  cpu time    0.0035: real time    0.0035
    --------------------------------------------
      LOOP:  cpu time    7.0330: real time    7.1024

 eigenvalue-minimisations  :  3679
 total energy-change (2. order) : 0.8151775E-01  (-0.2444627E-01)
 number of electron     503.9998358 magnetization 
 augmentation part      197.2426854 magnetization 

 DIPCOR: dipole corrections for dipol
 direction  3 min pos     1,
 dipolmoment           0.000000      0.000000      0.051408 electrons x Angstroem
 Tr[quadrupol]    -10222.561638

 energy correction for charged system         0.000000 eV
 dipol+quadrupol energy correction           -0.000093 eV
 added-field ion interaction          0.016273 eV  (added to PSCEN)


 Broyden mixing:
  rms(total) = 0.34122E+00    rms(broyden)= 0.34117E+00
  rms(prec ) = 0.38796E+00
  weight for this iteration     100.00

 eigenvalues of (default mixing * dielectric matrix)
  average eigenvalue GAMMA=   0.7580
  2.1771  1.5847  1.5847  0.6304  0.6304  0.3475  0.3475  0.2953  0.2686  0.2686
  0.2025

 Free energy of the ion-electron system (eV)
  ---------------------------------------------------
  alpha Z        PSCENC =       805.88554460
  Ewald energy   TEWEN  =    199689.20195249
  -Hartree energ DENC   =   -241820.45362244
  -exchange      EXHF   =         0.00000000
  -V(xc)+E(xc)   XCENC  =      -344.13771351
  PAW double counting   =     49241.72276271   -47322.15376546
  entropy T*S    EENTRO =        -0.26003857
  eigenvalues    EBANDS =     -2099.32187504
  atomic energy  EATOM  =     41659.78587232
  Solvation  Ediel_sol  =         0.00000000
  ---------------------------------------------------
  free energy    TOTEN  =      -189.73088291 eV

  energy without entropy =     -189.47084433  energy(sigma->0) =     -189.60086362


--------------------------------------------------------------------------------------------------------




----------------------------------------- Iteration    1(  17)  ---------------------------------------


    POTLOK:  cpu time    0.0502: real time    0.0503
    SETDIJ:  cpu time    0.0062: real time    0.0062
    EDDIAG:  cpu time    1.6635: real time    1.6660
  RMM-DIIS:  cpu time    4.5631: real time    4.5782
    ORTHCH:  cpu time    0.4132: real time    0.4132
       DOS:  cpu time    0.0017: real time    0.0017
    CHARGE:  cpu time    0.3023: real time    0.3025
    MIXING:  cpu time    0.0037: real time    0.0037
    --------------------------------------------
      LOOP:  cpu time    7.0046: real time    7.0255

 eigenvalue-minimisations  :  3678
 total energy-change (2. order) : 0.1085450E+00  (-0.1589515E-01)
 number of electron     503.9998359 magnetization 
 augmentation part      197.1290587 magnetization 

 DIPCOR: dipole corrections for dipol
 direction  3 min pos     1,
 dipolmoment           0.000000      0.000000      0.036680 electrons x Angstroem
 Tr[quadrupol]    -10222.871138

 energy correction for charged system         0.000000 eV
 dipol+quadrupol energy correction           -0.000047 eV
 added-field ion interaction          0.011611 eV  (added to PSCEN)


 Broyden mixing:
  rms(total) = 0.17327E+00    rms(broyden)= 0.17315E+00
  rms(prec ) = 0.19257E+00
  weight for this iteration     100.00

 eigenvalues of (default mixing * dielectric matrix)
  average eigenvalue GAMMA=   0.7344
  2.2085  1.6297  1.6297  0.6300  0.6300  0.3982  0.3982  0.2900  0.2900  0.2533
  0.2533  0.2014

 Free energy of the ion-electron system (eV)
  ---------------------------------------------------
  alpha Z        PSCENC =       805.88092827
  Ewald energy   TEWEN  =    199689.20195249
  -Hartree energ DENC   =   -241837.48533748
  -exchange      EXHF   =         0.00000000
  -V(xc)+E(xc)   XCENC  =      -343.91856062
  PAW double counting   =     49252.25094770   -47331.16881819
  entropy T*S    EENTRO =        -0.27498174
  eigenvalues    EBANDS =     -2083.89434067
  atomic energy  EATOM  =     41659.78587232
  Solvation  Ediel_sol  =         0.00000000
  ---------------------------------------------------
  free energy    TOTEN  =      -189.62233791 eV

  energy without entropy =     -189.34735618  energy(sigma->0) =     -189.48484705


--------------------------------------------------------------------------------------------------------




----------------------------------------- Iteration    1(  18)  ---------------------------------------


    POTLOK:  cpu time    0.0502: real time    0.0502
    SETDIJ:  cpu time    0.0061: real time    0.0061
    EDDIAG:  cpu time    1.6777: real time    1.6795
  RMM-DIIS:  cpu time    4.5666: real time    4.5699
    ORTHCH:  cpu time    0.4115: real time    0.4118
       DOS:  cpu time    0.0016: real time    0.0016
    CHARGE:  cpu time    0.3119: real time    0.3119
    MIXING:  cpu time    0.0038: real time    0.0038
    --------------------------------------------
      LOOP:  cpu time    7.0300: real time    7.0369

 eigenvalue-minimisations  :  3680
 total energy-change (2. order) : 0.2406931E-01  (-0.3677322E-02)
 number of electron     503.9998360 magnetization 
 augmentation part      197.0910331 magnetization 

 DIPCOR: dipole corrections for dipol
 direction  3 min pos     1,
 dipolmoment           0.000000      0.000000      0.030065 electrons x Angstroem
 Tr[quadrupol]    -10222.984647

 energy correction for charged system         0.000000 eV
 dipol+quadrupol energy correction           -0.000032 eV
 added-field ion interaction          0.009517 eV  (added to PSCEN)


 Broyden mixing:
  rms(total) = 0.85073E-01    rms(broyden)= 0.85029E-01
  rms(prec ) = 0.94389E-01
  weight for this iteration     100.00

 eigenvalues of (default mixing * dielectric matrix)
  average eigenvalue GAMMA=   0.7167
  2.2294  1.6555  1.6555  0.6503  0.6503  0.4433  0.3609  0.3609  0.3471  0.2665
  0.2665  0.2328  0.1987

 Free energy of the ion-electron system (eV)
  ---------------------------------------------------
  alpha Z        PSCENC =       805.87884967
  Ewald energy   TEWEN  =    199689.20195249
  -Hartree energ DENC   =   -241842.64644067
  -exchange      EXHF   =         0.00000000
  -V(xc)+E(xc)   XCENC  =      -343.88517806
  PAW double counting   =     49258.87953437   -47337.57301783
  entropy T*S    EENTRO =        -0.27356145
  eigenvalues    EBANDS =     -2078.96627944
  atomic energy  EATOM  =     41659.78587232
  Solvation  Ediel_sol  =         0.00000000
  ---------------------------------------------------
  free energy    TOTEN  =      -189.59826861 eV

  energy without entropy =     -189.32470716  energy(sigma->0) =     -189.46148788


--------------------------------------------------------------------------------------------------------




----------------------------------------- Iteration    1(  19)  ---------------------------------------


    POTLOK:  cpu time    0.0499: real time    0.0499
    SETDIJ:  cpu time    0.0061: real time    0.0061
    EDDIAG:  cpu time    1.6638: real time    1.6662
  RMM-DIIS:  cpu time    4.8245: real time    4.8480
    ORTHCH:  cpu time    0.4927: real time    0.4950
       DOS:  cpu time    0.0017: real time    0.0017
    CHARGE:  cpu time    0.3900: real time    0.3933
    MIXING:  cpu time    0.0039: real time    0.0039
    --------------------------------------------
      LOOP:  cpu time    7.4334: real time    7.4662

 eigenvalue-minimisations  :  3681
 total energy-change (2. order) : 0.5372341E-02  (-0.7805793E-03)
 number of electron     503.9998360 magnetization 
 augmentation part      197.0633773 magnetization 

 DIPCOR: dipole corrections for dipol
 direction  3 min pos     1,
 dipolmoment           0.000000      0.000000      0.028284 electrons x Angstroem
 Tr[quadrupol]    -10223.059080

 energy correction for charged system         0.000000 eV
 dipol+quadrupol energy correction           -0.000028 eV
 added-field ion interaction          0.008953 eV  (added to PSCEN)


 Broyden mixing:
  rms(total) = 0.60406E-01    rms(broyden)= 0.60397E-01
  rms(prec ) = 0.65871E-01
  weight for this iteration     100.00

 eigenvalues of (default mixing * dielectric matrix)
  average eigenvalue GAMMA=   0.7143
  2.2446  1.6584  1.6584  0.7229  0.7229  0.4909  0.4909  0.4581  0.3006  0.3006
  0.2683  0.2683  0.2176  0.1975

 Free energy of the ion-electron system (eV)
  ---------------------------------------------------
  alpha Z        PSCENC =       805.87828957
  Ewald energy   TEWEN  =    199689.20195249
  -Hartree energ DENC   =   -241846.11958120
  -exchange      EXHF   =         0.00000000
  -V(xc)+E(xc)   XCENC  =      -343.86328810
  PAW double counting   =     49262.55280672   -47341.13130414
  entropy T*S    EENTRO =        -0.27444438
  eigenvalues    EBANDS =     -2075.62319954
  atomic energy  EATOM  =     41659.78587232
  Solvation  Ediel_sol  =         0.00000000
  ---------------------------------------------------
  free energy    TOTEN  =      -189.59289627 eV

  energy without entropy =     -189.31845189  energy(sigma->0) =     -189.45567408


--------------------------------------------------------------------------------------------------------




----------------------------------------- Iteration    1(  20)  ---------------------------------------


    POTLOK:  cpu time    0.0509: real time    0.0510
    SETDIJ:  cpu time    0.0061: real time    0.0061
    EDDIAG:  cpu time    1.6649: real time    1.6656
  RMM-DIIS:  cpu time    4.5436: real time    4.5459
    ORTHCH:  cpu time    0.4127: real time    0.4128
       DOS:  cpu time    0.0018: real time    0.0018
    CHARGE:  cpu time    0.3040: real time    0.3040
    MIXING:  cpu time    0.0042: real time    0.0042
    --------------------------------------------
      LOOP:  cpu time    6.9891: real time    6.9943

 eigenvalue-minimisations  :  3680
 total energy-change (2. order) : 0.1529029E-02  (-0.3657816E-03)
 number of electron     503.9998361 magnetization 
 augmentation part      197.0435926 magnetization 

 DIPCOR: dipole corrections for dipol
 direction  3 min pos     1,
 dipolmoment           0.000000      0.000000      0.032795 electrons x Angstroem
 Tr[quadrupol]    -10223.141190

 energy correction for charged system         0.000000 eV
 dipol+quadrupol energy correction           -0.000038 eV
 added-field ion interaction          0.010381 eV  (added to PSCEN)


 Broyden mixing:
  rms(total) = 0.51282E-01    rms(broyden)= 0.51275E-01
  rms(prec ) = 0.56890E-01
  weight for this iteration     100.00

 eigenvalues of (default mixing * dielectric matrix)
  average eigenvalue GAMMA=   0.7242
  2.2602  1.6436  1.6436  0.8730  0.8730  0.6014  0.6014  0.5160  0.3258  0.3258
  0.2673  0.2673  0.2563  0.2104  0.1973

 Free energy of the ion-electron system (eV)
  ---------------------------------------------------
  alpha Z        PSCENC =       805.87970773
  Ewald energy   TEWEN  =    199689.20195249
  -Hartree energ DENC   =   -241849.75192256
  -exchange      EXHF   =         0.00000000
  -V(xc)+E(xc)   XCENC  =      -343.84333076
  PAW double counting   =     49265.47706399   -47343.98359299
  entropy T*S    EENTRO =        -0.27431403
  eigenvalues    EBANDS =     -2072.08280343
  atomic energy  EATOM  =     41659.78587232
  Solvation  Ediel_sol  =         0.00000000
  ---------------------------------------------------
  free energy    TOTEN  =      -189.59136724 eV

  energy without entropy =     -189.31705321  energy(sigma->0) =     -189.45421022


--------------------------------------------------------------------------------------------------------




----------------------------------------- Iteration    1(  21)  ---------------------------------------


    POTLOK:  cpu time    0.0507: real time    0.0508
    SETDIJ:  cpu time    0.0061: real time    0.0061
    EDDIAG:  cpu time    1.6532: real time    1.6540
  RMM-DIIS:  cpu time    4.5181: real time    4.5695
    ORTHCH:  cpu time    0.4038: real time    0.4155
       DOS:  cpu time    0.0017: real time    0.0017
    CHARGE:  cpu time    0.3027: real time    0.3028
    MIXING:  cpu time    0.0042: real time    0.0042
    --------------------------------------------
      LOOP:  cpu time    6.9413: real time    7.0087

 eigenvalue-minimisations  :  3678
 total energy-change (2. order) : 0.1688693E-02  (-0.2982055E-03)
 number of electron     503.9998361 magnetization 
 augmentation part      197.0282578 magnetization 

 DIPCOR: dipole corrections for dipol
 direction  3 min pos     1,
 dipolmoment           0.000000      0.000000      0.036285 electrons x Angstroem
 Tr[quadrupol]    -10223.243654

 energy correction for charged system         0.000000 eV
 dipol+quadrupol energy correction           -0.000046 eV
 added-field ion interaction          0.011486 eV  (added to PSCEN)


 Broyden mixing:
  rms(total) = 0.37647E-01    rms(broyden)= 0.37643E-01
  rms(prec ) = 0.42107E-01
  weight for this iteration     100.00

 eigenvalues of (default mixing * dielectric matrix)
  average eigenvalue GAMMA=   0.7593
  2.2344  1.8043  1.8043  1.3414  0.9279  0.6620  0.6620  0.5322  0.3439  0.3439
  0.2753  0.2753  0.2682  0.2682  0.2072  0.1977

 Free energy of the ion-electron system (eV)
  ---------------------------------------------------
  alpha Z        PSCENC =       805.88080428
  Ewald energy   TEWEN  =    199689.20195249
  -Hartree energ DENC   =   -241854.24549723
  -exchange      EXHF   =         0.00000000
  -V(xc)+E(xc)   XCENC  =      -343.82052068
  PAW double counting   =     49268.04757921   -47346.49536830
  entropy T*S    EENTRO =        -0.27418941
  eigenvalues    EBANDS =     -2067.67031123
  atomic energy  EATOM  =     41659.78587232
  Solvation  Ediel_sol  =         0.00000000
  ---------------------------------------------------
  free energy    TOTEN  =      -189.58967855 eV

  energy without entropy =     -189.31548914  energy(sigma->0) =     -189.45258384


--------------------------------------------------------------------------------------------------------




----------------------------------------- Iteration    1(  22)  ---------------------------------------


    POTLOK:  cpu time    0.0503: real time    0.0503
    SETDIJ:  cpu time    0.0060: real time    0.0060
    EDDIAG:  cpu time    1.6704: real time    1.6712
  RMM-DIIS:  cpu time    4.5831: real time    4.5863
    ORTHCH:  cpu time    0.4123: real time    0.4126
       DOS:  cpu time    0.0016: real time    0.0016
    CHARGE:  cpu time    0.3127: real time    0.3127
    MIXING:  cpu time    0.0043: real time    0.0043
    --------------------------------------------
      LOOP:  cpu time    7.0415: real time    7.0481

 eigenvalue-minimisations  :  3679
 total energy-change (2. order) : 0.6604606E-03  (-0.2408893E-03)
 number of electron     503.9998361 magnetization 
 augmentation part      197.0203303 magnetization 

 DIPCOR: dipole corrections for dipol
 direction  3 min pos     1,
 dipolmoment           0.000000      0.000000      0.033578 electrons x Angstroem
 Tr[quadrupol]    -10223.354631

 energy correction for charged system         0.000000 eV
 dipol+quadrupol energy correction           -0.000040 eV
 added-field ion interaction          0.010629 eV  (added to PSCEN)


 Broyden mixing:
  rms(total) = 0.25942E-01    rms(broyden)= 0.25935E-01
  rms(prec ) = 0.29729E-01
  weight for this iteration     100.00

 eigenvalues of (default mixing * dielectric matrix)
  average eigenvalue GAMMA=   0.7672
  2.2465  2.0493  2.0493  1.4558  0.8461  0.6757  0.6757  0.5439  0.3900  0.3302
  0.3302  0.2700  0.2700  0.2680  0.2397  0.2040  0.1980

 Free energy of the ion-electron system (eV)
  ---------------------------------------------------
  alpha Z        PSCENC =       805.87995378
  Ewald energy   TEWEN  =    199689.20195249
  -Hartree energ DENC   =   -241859.10707759
  -exchange      EXHF   =         0.00000000
  -V(xc)+E(xc)   XCENC  =      -343.79643235
  PAW double counting   =     49269.19810061   -47347.61789982
  entropy T*S    EENTRO =        -0.27456379
  eigenvalues    EBANDS =     -2062.85892373
  atomic energy  EATOM  =     41659.78587232
  Solvation  Ediel_sol  =         0.00000000
  ---------------------------------------------------
  free energy    TOTEN  =      -189.58901809 eV

  energy without entropy =     -189.31445429  energy(sigma->0) =     -189.45173619


--------------------------------------------------------------------------------------------------------




----------------------------------------- Iteration    1(  23)  ---------------------------------------


    POTLOK:  cpu time    0.0501: real time    0.0501
    SETDIJ:  cpu time    0.0060: real time    0.0060
    EDDIAG:  cpu time    1.6593: real time    1.6600
  RMM-DIIS:  cpu time    4.6033: real time    4.6056
    ORTHCH:  cpu time    0.4125: real time    0.4126
       DOS:  cpu time    0.0017: real time    0.0017
    CHARGE:  cpu time    0.3032: real time    0.3035
    MIXING:  cpu time    0.0045: real time    0.0045
    --------------------------------------------
      LOOP:  cpu time    7.0415: real time    7.0465

 eigenvalue-minimisations  :  3680
 total energy-change (2. order) : 0.5806279E-03  (-0.1030534E-03)
 number of electron     503.9998361 magnetization 
 augmentation part      197.0145253 magnetization 

 DIPCOR: dipole corrections for dipol
 direction  3 min pos     1,
 dipolmoment           0.000000      0.000000      0.030074 electrons x Angstroem
 Tr[quadrupol]    -10223.433842

 energy correction for charged system         0.000000 eV
 dipol+quadrupol energy correction           -0.000032 eV
[...]
    275       1.7333      0.00000
    276       1.8435      0.00000
    277       2.1394      0.00000
    278       2.2590      0.00000
    279       2.3267      0.00000
    280       2.4012      0.00000
    281       2.4708      0.00000
    282       2.6469      0.00000
    283       2.7145      0.00000
    284       2.9890      0.00000
    285       3.0319      0.00000
    286       3.2478      0.00000
    287       3.5424      0.00000
    288       3.6052      0.00000
    289       3.7687      0.00000
    290       4.0419      0.00000
    291       4.1011      0.00000
    292       4.2374      0.00000
    293       4.5018      0.00000
    294       4.5282      0.00000
    295       4.5918      0.00000
    296       4.6238      0.00000
    297       4.6482      0.00000
    298       4.8407      0.00000
    299       4.8659      0.00000
    300       4.8897      0.00000
    301       4.9649      0.00000
    302       5.0461      0.00000
    303       5.0600      0.00000
    304       5.0806      0.00000
    305       5.2364      0.00000
    306       5.2799      0.00000


--------------------------------------------------------------------------------------------------------


 soft charge-density along one line, spin component           1
         0         1         2         3         4         5         6         7         8         9
 total charge-density along one line
 
 pseudopotential strength for first ion, spin component:           1
 -8.093   0.000   0.005  -0.005   0.000  -8.238   0.000   0.005
  0.000  -8.023   0.000  -0.003   0.001   0.000  -8.170   0.000
  0.005   0.000  -8.020  -0.001   0.000   0.005   0.000  -8.167
 -0.005  -0.003  -0.001  -8.023  -0.001  -0.005  -0.003  -0.001
  0.000   0.001   0.000  -0.001  -8.092   0.000   0.001   0.000
 -8.238   0.000   0.005  -0.005   0.000  -8.368   0.000   0.005
  0.000  -8.170   0.000  -0.003   0.001   0.000  -8.301   0.000
  0.005   0.000  -8.167  -0.001   0.000   0.005   0.000  -8.298
 -0.005  -0.003  -0.001  -8.170  -0.001  -0.005  -0.003  -0.001
  0.000   0.001   0.000  -0.001  -8.237   0.000   0.001   0.000
  0.002   0.002  -0.023   0.000  -0.000   0.002   0.002  -0.023
  0.003   0.002  -0.034   0.000  -0.000   0.003   0.002  -0.034
  0.003  -0.005   0.001   0.000   0.002   0.003  -0.005   0.001
  0.000  -0.002  -0.008   0.003   0.000   0.000  -0.002  -0.007
 -0.002   0.000  -0.001  -0.005   0.002  -0.002   0.000  -0.001
  0.003  -0.006   0.002   0.000   0.003   0.003  -0.005   0.002
  0.000  -0.002  -0.009   0.003   0.000   0.000  -0.002  -0.008
 -0.003   0.000  -0.002  -0.006   0.003  -0.003   0.000  -0.002
 total augmentation occupancy for first ion, spin component:           1
  4.578   0.008  -0.040   0.022  -0.094  -2.735   0.011   0.056  -0.072   0.096  -0.124   0.061  -0.042  -0.007   0.000   0.005
  0.008   4.019   0.099   0.047   0.021   0.011  -1.772  -0.074  -0.048  -0.037  -0.079   0.030  -0.127  -0.024   0.003   0.001
 -0.040   0.099   4.495   0.070  -0.023   0.056  -0.074  -2.384  -0.077   0.016   1.049  -0.186  -0.020  -0.223   0.000   0.003
  0.022   0.047   0.070   4.084  -0.014  -0.071  -0.048  -0.077  -1.828   0.003  -0.018   0.029   0.004  -0.019  -0.098   0.000
 -0.094   0.021  -0.023  -0.014   4.663   0.096  -0.037   0.016   0.003  -2.800  -0.022   0.029  -0.028   0.005   0.025   0.004
 -2.735   0.011   0.056  -0.071   0.096   2.779  -0.026  -0.068   0.109  -0.096   0.109  -0.055   0.034   0.003   0.004  -0.002
  0.011  -1.772  -0.074  -0.048  -0.037  -0.026   1.494   0.055   0.049   0.049   0.071  -0.028   0.121   0.020  -0.005  -0.004
  0.056  -0.074  -2.384  -0.077   0.016  -0.068   0.055   2.214   0.081  -0.010  -0.987   0.206   0.014   0.235   0.003  -0.001
 -0.072  -0.048  -0.077  -1.828   0.003   0.109   0.049   0.081   1.541   0.007   0.013  -0.023  -0.005   0.015   0.092  -0.000
  0.096  -0.037   0.016   0.003  -2.800  -0.096   0.049  -0.010   0.007   2.827   0.015  -0.025   0.024  -0.007  -0.026  -0.002
 -0.124  -0.079   1.049  -0.018  -0.022   0.109   0.071  -0.987   0.013   0.015   2.458  -0.543  -0.004   0.108  -0.000   0.000
  0.061   0.030  -0.186   0.029   0.029  -0.055  -0.028   0.206  -0.023  -0.025  -0.543   0.160   0.009  -0.045  -0.008  -0.000
 -0.042  -0.127  -0.020   0.004  -0.028   0.034   0.121   0.014  -0.005   0.024  -0.004   0.009   0.200   0.003   0.004  -0.006
 -0.007  -0.024  -0.223  -0.019   0.005   0.003   0.020   0.235   0.015  -0.007   0.108  -0.045   0.003   0.093  -0.002  -0.000
  0.000   0.003   0.000  -0.098   0.025   0.004  -0.005   0.003   0.092  -0.026  -0.000  -0.008   0.004  -0.002   0.195  -0.000
  0.005   0.001   0.003   0.000   0.004  -0.002  -0.004  -0.001  -0.000  -0.002   0.000  -0.000  -0.006  -0.000  -0.000   0.000
  0.001  -0.001  -0.003   0.004   0.000  -0.000  -0.000  -0.005  -0.001   0.000  -0.008   0.002  -0.000  -0.003  -0.000   0.000
 -0.003   0.001  -0.001   0.001   0.002   0.001  -0.000  -0.000  -0.004   0.001   0.000   0.000  -0.000  -0.000  -0.006   0.000


------------------------ aborting loop because EDIFF is reached ----------------------------------------


    CHARGE:  cpu time    0.2959: real time    0.2963
    FORLOC:  cpu time    0.0187: real time    0.0187
    FORNL :  cpu time    1.6150: real time    1.6156
    FORCOR:  cpu time    0.0675: real time    0.0687
    FORHAR:  cpu time    0.0290: real time    0.0290
    MIXING:  cpu time    0.0036: real time    0.0036
    OFIELD:  cpu time    0.0000: real time    0.0000

 VOLUME and BASIS-vectors are now :
 -----------------------------------------------------------------------------
  energy-cutoff  :      400.00
  volume of cell :     2567.68
      direct lattice vectors                 reciprocal lattice vectors
    11.002581515  0.000000000  0.000000000     0.090887761 -0.052474073  0.000000000
     5.501290758  9.528515099  0.000000000     0.000000000  0.104948147  0.000000000
     0.000000000  0.000000000 24.491785094     0.000000000  0.000000000  0.040830017

  length of vectors
    11.002581515 11.002581515 24.491785094     0.104948147  0.104948147  0.040830017


 FORCES acting on ions
    electron-ion (+dipol)            ewald-force                    non-local-force                 convergence-correction
 -----------------------------------------------------------------------------------------------
   0.498E+01 -.978E+01 0.221E+04   -.555E+01 0.101E+02 -.221E+04   0.557E+00 -.374E+00 -.501E+00   0.260E-02 -.112E-02 0.341E-02
   0.124E+02 -.217E+01 -.225E+04   -.129E+02 0.224E+01 0.225E+04   0.524E+00 -.582E-01 0.535E+00   -.152E-02 0.216E-02 -.634E-02
   -.217E+01 -.501E+01 -.871E+01   0.283E+01 0.578E+01 0.936E+01   -.655E+00 -.765E+00 -.632E+00   -.192E-02 -.134E-02 -.580E-02
   0.682E+01 0.804E+00 0.228E+04   -.719E+01 -.622E+00 -.228E+04   0.381E+00 -.174E+00 0.237E+00   -.151E-03 -.231E-02 -.480E-02
   0.166E+01 0.840E-01 0.316E+02   -.177E+01 -.407E-01 -.299E+02   0.115E+00 -.539E-01 -.165E+01   0.255E-02 0.558E-02 -.100E-02
   -.210E+02 0.354E+01 0.225E+04   0.223E+02 -.371E+01 -.225E+04   -.131E+01 0.177E+00 -.294E+00   0.253E-02 0.129E-02 -.358E-04
   -.181E+01 -.281E+01 -.231E+04   0.214E+01 0.258E+01 0.231E+04   -.338E+00 0.243E+00 -.695E-01   0.145E-02 -.453E-02 0.155E-02
   -.542E+00 0.296E+01 0.224E+04   0.203E+00 -.332E+01 -.224E+04   0.339E+00 0.358E+00 -.166E+00   0.105E-02 0.103E-03 -.207E-02
   0.221E+01 -.234E+01 -.137E+02   -.255E+01 0.288E+01 0.136E+02   0.326E+00 -.523E+00 0.670E-01   0.754E-03 -.533E-02 -.404E-02
   -.120E+01 0.325E+01 -.419E+02   0.641E+00 -.397E+01 0.413E+02   0.561E+00 0.706E+00 0.579E+00   -.393E-02 0.309E-06 -.728E-02
   -.598E+01 0.430E+00 0.225E+04   0.654E+01 -.197E+00 -.225E+04   -.554E+00 -.231E+00 -.213E+00   0.148E-02 0.219E-02 0.804E-02
   -.778E+01 0.244E+00 -.223E+04   0.770E+01 -.204E+00 0.223E+04   0.776E-01 -.507E-01 0.504E+00   0.232E-02 0.342E-03 -.400E-03
   0.578E+01 0.712E+01 0.223E+04   -.624E+01 -.773E+01 -.223E+04   0.461E+00 0.607E+00 -.203E+00   0.551E-03 0.188E-03 0.310E-02
   -.564E+01 0.103E+02 -.224E+04   0.659E+01 -.111E+02 0.224E+04   -.946E+00 0.845E+00 0.287E+00   0.508E-03 -.331E-02 -.107E-02
   0.931E+01 -.712E+00 -.230E+04   -.951E+01 0.107E+01 0.230E+04   0.203E+00 -.368E+00 0.229E+00   -.525E-02 0.547E-02 -.690E-02
   0.384E+01 0.611E+01 -.206E+01   -.417E+01 -.599E+01 0.266E+01   0.323E+00 -.117E+00 -.597E+00   -.540E-03 -.568E-02 -.519E-02
   -.368E+01 -.454E+00 -.227E+04   0.374E+01 0.127E+01 0.227E+04   -.604E-01 -.810E+00 0.238E+00   -.192E-02 -.482E-02 -.421E-02
   -.124E+02 -.329E+01 0.229E+04   0.135E+02 0.295E+01 -.229E+04   -.107E+01 0.337E+00 0.853E-01   -.382E-02 -.423E-02 0.117E-02
   0.156E+02 -.152E+01 0.220E+04   -.159E+02 0.150E+01 -.220E+04   0.322E+00 0.280E-01 -.615E+00   -.200E-02 0.200E-03 -.787E-02
   -.791E+01 0.446E+00 -.227E+04   0.785E+01 -.856E+00 0.227E+04   0.445E-01 0.409E+00 0.303E+00   0.137E-02 0.494E-02 -.414E-02
   -.106E+02 -.220E+01 -.823E+01   0.110E+02 0.179E+01 0.821E+01   -.419E+00 0.402E+00 0.350E-01   0.306E-02 0.754E-03 -.767E-02
   -.270E+01 0.230E+01 -.225E+04   0.230E+01 -.212E+01 0.225E+04   0.391E+00 -.177E+00 0.360E+00   0.289E-02 0.210E-02 -.297E-02
   0.114E+02 0.252E+01 0.222E+04   -.117E+02 -.258E+01 -.222E+04   0.281E+00 0.605E-01 -.192E+00   -.105E-02 0.153E-02 0.492E-03
   0.700E+01 -.136E+02 0.224E+04   -.726E+01 0.142E+02 -.224E+04   0.259E+00 -.570E+00 -.236E-02   -.225E-02 -.992E-03 -.541E-02
   0.777E+00 0.102E+01 0.196E+04   -.555E+00 -.109E+01 -.195E+04   -.220E+00 0.646E-01 -.174E+01   -.152E-02 0.731E-04 -.462E-03
   0.148E+01 -.691E+01 -.200E+04   -.172E+01 0.719E+01 0.200E+04   0.235E+00 -.294E+00 0.116E+01   -.114E-02 0.187E-02 -.502E-02
   0.402E+01 -.501E+01 -.198E+04   -.428E+01 0.506E+01 0.198E+04   0.261E+00 -.496E-01 0.178E+01   0.747E-03 -.265E-02 -.231E-02
   0.366E+01 -.107E+01 -.657E+00   -.330E+01 0.801E+00 0.108E+01   -.351E+00 0.263E+00 -.422E+00   0.177E-03 0.199E-02 -.543E-02
   -.115E+01 -.596E+01 0.193E+04   0.810E+00 0.621E+01 -.193E+04   0.343E+00 -.249E+00 -.189E+01   -.240E-02 0.180E-02 -.795E-02
   -.959E+00 0.258E+01 -.291E+02   0.114E+01 -.267E+01 0.286E+02   -.177E+00 0.905E-01 0.467E+00   -.274E-02 0.426E-02 -.715E-02
   -.382E+01 0.813E+01 -.194E+02   0.378E+01 -.751E+01 0.194E+02   0.349E-01 -.618E+00 0.259E-02   0.246E-02 -.260E-02 -.484E-02
   0.132E+02 0.683E+01 0.196E+04   -.138E+02 -.705E+01 -.196E+04   0.588E+00 0.223E+00 -.163E+01   -.233E-02 -.141E-02 -.638E-02
   -.505E+01 -.688E+01 0.192E+04   0.522E+01 0.723E+01 -.192E+04   -.164E+00 -.357E+00 -.180E+01   0.675E-03 0.125E-02 -.232E-02
   0.883E+01 -.146E+01 -.197E+04   -.890E+01 0.155E+01 0.197E+04   0.729E-01 -.989E-01 0.169E+01   0.110E-02 0.522E-02 -.408E-02
   -.186E+01 0.440E+01 -.360E+02   0.174E+01 -.396E+01 0.356E+02   0.120E+00 -.446E+00 0.433E+00   -.155E-02 -.101E-02 -.106E-01
   -.182E+02 0.720E+01 0.196E+04   0.185E+02 -.724E+01 -.196E+04   -.373E+00 0.401E-01 -.169E+01   -.143E-02 -.164E-02 -.250E-03
   -.139E-01 -.424E+01 -.197E+04   0.184E+00 0.415E+01 0.197E+04   -.174E+00 0.777E-01 0.187E+01   0.216E-02 0.828E-03 0.167E-02
   -.546E+00 0.142E+01 -.119E+02   0.387E+00 -.111E+01 0.118E+02   0.161E+00 -.294E+00 0.850E-01   0.865E-03 -.175E-02 -.193E-02
   -.179E+01 -.134E+01 -.495E+02   0.163E+01 0.594E+00 0.490E+02   0.151E+00 0.752E+00 0.477E+00   -.125E-02 0.304E-02 -.120E-01
   0.730E+01 0.272E+00 -.200E+04   -.740E+01 -.355E+00 0.200E+04   0.105E+00 0.829E-01 0.149E+01   0.564E-04 -.279E-02 -.380E-02
   -.310E+01 0.685E+01 -.198E+04   0.328E+01 -.712E+01 0.198E+04   -.182E+00 0.268E+00 0.205E+01   -.155E-02 0.190E-03 -.875E-02
   0.122E+00 0.986E+01 0.198E+04   -.286E+00 -.994E+01 -.198E+04   0.168E+00 0.923E-01 -.118E+01   -.562E-03 -.336E-02 -.395E-03
   -.479E+00 -.642E+01 0.284E+01   0.445E+00 0.618E+01 -.241E+01   0.278E-01 0.244E+00 -.442E+00   0.296E-02 0.856E-03 -.235E-03
   0.998E+00 -.407E+00 -.866E+01   -.948E+00 0.244E+00 0.915E+01   -.502E-01 0.161E+00 -.493E+00   0.254E-02 0.419E-02 -.458E-02
   -.105E+01 -.135E+01 -.199E+04   0.107E+01 0.149E+01 0.199E+04   -.267E-01 -.135E+00 0.154E+01   0.112E-02 -.449E-02 -.411E-02
   -.676E+00 -.393E+00 -.309E+01   0.656E+00 0.767E+00 0.354E+01   0.247E-01 -.381E+00 -.434E+00   -.272E-04 -.175E-02 -.947E-02
   0.102E+02 -.636E+01 0.205E+02   -.998E+01 0.586E+01 -.200E+02   -.181E+00 0.500E+00 -.478E+00   -.801E-03 -.709E-03 -.159E-02
   -.955E+01 0.305E+01 -.197E+04   0.976E+01 -.319E+01 0.196E+04   -.213E+00 0.142E+00 0.178E+01   0.325E-02 0.502E-02 -.263E-02
 -----------------------------------------------------------------------------------------------
   0.177E-02 0.160E-01 -.785E+00   0.416E-12 -.224E-12 -.523E-11   -.658E-02 -.217E-01 0.969E+00   -.405E-03 -.345E-03 -.164E+00
 
 
 POSITION                                       TOTAL-FORCE (eV/Angst)
 -----------------------------------------------------------------------------------
      1.37321      0.81301      9.76090        -0.003079     -0.003711     -0.018468
     10.98103      4.76049     14.72518        -0.004759      0.007306      0.009536
      8.26475      1.61738     12.25384         0.001647     -0.000072      0.008699
      9.61363      0.80108      9.67772         0.003480      0.005910      0.016234
      8.24976      6.35521     12.21861        -0.002206     -0.004944     -0.001428
      9.67999      5.55812      9.73396        -0.006072      0.002743     -0.001020
      6.88341      2.36942     14.81246        -0.001927      0.002030     -0.003914
      8.25118      3.17100      9.73507         0.001486     -0.000066     -0.003014
      5.48913      1.60528     12.25199        -0.010314      0.007870     -0.003930
     12.35700      8.70122     12.27990        -0.004802     -0.007050     -0.004239
      8.28542      7.94989      9.70914         0.005194      0.004806     -0.010519
      5.49975      4.74942     14.70733         0.001368     -0.009971      0.007113
      6.87295      5.54366      9.73810         0.001594      0.001404     -0.019596
      2.77490     -0.02840     14.72139         0.002864     -0.003267      0.004601
     12.36168      7.15401     14.81176        -0.002226     -0.000102     -0.007837
      2.73324      1.59867     12.25080        -0.000598     -0.002420     -0.000310
      1.37379      2.38963     14.76538         0.002195      0.005515      0.003055
      4.17264      0.79969      9.65933        -0.002732     -0.000473      0.016264
      4.10637      5.56849      9.80286        -0.000700      0.004925      0.003875
      4.12582      7.13007     14.76784        -0.008855      0.004108      0.014491
     15.14281      8.72187     12.25168        -0.000805     -0.006468      0.007535
     -0.00474     -0.00151     14.74052        -0.007010      0.003388      0.004941
      5.48986      7.94269      9.75046         0.003344     -0.002909     -0.010955
      2.74626      3.20214      9.74662        -0.002411     -0.005401      0.009040
      5.50830      3.17413      9.87461         0.000946     -0.004566     -0.009176
      8.24688      0.00372     14.66027        -0.000051     -0.006456      0.002805
      9.61264      2.38597     14.62655         0.002435     -0.005317      0.006208
      9.64281      3.97931     12.24464         0.003039     -0.005536     -0.007870
     12.37872      5.57312      9.94370         0.005147      0.004726     -0.001393
     11.00503      6.33426     12.27182        -0.000608      0.002581      0.003693
     11.00428      1.60021     12.26657         0.003313     -0.000371      0.006110
     13.72537      7.93879      9.89585         0.004570      0.000062      0.002872
     11.01339      3.19011      9.93411         0.002782      0.000525     -0.015957
      9.61575      7.13697     14.58539         0.008293     -0.001177      0.013042
     12.37163      3.98027     12.28231         0.002235     -0.003212      0.002608
     11.03050      7.94458      9.88656         0.005472      0.000159     -0.002219
      8.25147      4.76858     14.59023        -0.001968     -0.001781     -0.005350
      6.86819      3.98581     12.25099         0.003060      0.008521     -0.009491
     13.75260      6.32666     12.29474        -0.005935      0.004439     -0.007387
      5.49375     -0.00585     14.64575         0.004934     -0.002841     -0.010392
      2.75159      4.75168     14.63232        -0.006038     -0.000226      0.012350
      6.88181      0.78574      9.86470         0.003304      0.005786     -0.000843
      6.87303      8.73066     12.23957        -0.003084      0.002030     -0.015175
      5.49014      6.33949     12.25337         0.002997      0.001658      0.000380
      4.12506      2.37496     14.63161        -0.002246      0.003357      0.008629
      4.11545      3.99831     12.24631         0.004605     -0.008804      0.005594
      9.61510      8.73018     12.21951         0.002675     -0.001920     -0.008304
      6.88786      7.12716     14.58852        -0.004557      0.005210      0.009111
 -----------------------------------------------------------------------------------
    total drift:                               -0.005218     -0.006003      0.019825


--------------------------------------------------------------------------------------------------------



  FREE ENERGIE OF THE ION-ELECTRON SYSTEM (eV)
  ---------------------------------------------------
  free  energy   TOTEN  =      -193.00545375 eV

  energy  without entropy=     -192.75124841  energy(sigma->0) =     -192.87835108
 
 d Force = 0.7326607E-03[ 0.438E-03, 0.103E-02]  d Energy = 0.7124110E-03 0.202E-04
 d Force = 0.6943293E+01[ 0.698E+01, 0.690E+01]  d Ewald  = 0.6943294E+01-0.133E-05


--------------------------------------------------------------------------------------------------------


    POTLOK:  cpu time    0.0578: real time    0.0579


--------------------------------------------------------------------------------------------------------


 stress matrix after NEB project (eV)
      0.00000      0.00000      0.00000
      0.00000      0.00000      0.00000
      0.00000      0.00000      0.00000
  FORCES: max atom, RMS     0.019711    0.010840
  FORCE total and by dimension    0.075102    0.019596
  Stress total and by dimension    0.000000    0.000000
 Conjugate gradient step on ions:
 trial-energy change:   -0.000712  1 .order   -0.000733   -0.001027   -0.000438
  (g-gl).g = 0.389E-03      g.g   = 0.489E-03  gl.gl    = 0.738E-03
 g(Force)  = 0.489E-03   g(Stress)= 0.000E+00 ortho     = 0.546E-04
 gamma     =   0.52742
 trial     =   1.98236
 opt step  =   5.18684  (harmonic =   3.45719) maximal distance =0.00999113
 next E    =  -193.005722   (d E  =  -0.00098)


--------------------------------------------------------------------------------------------------------


  
 reached required accuracy - stopping structural energy minimisation
     LOOP+:  cpu time   77.3654: real time   77.8866
    4ORBIT:  cpu time    0.0000: real time    0.0000

 total amount of memory used by VASP on root node    84353. kBytes
========================================================================

   base      :      30000. kBytes
   nonlr-proj:       4285. kBytes
   fftplans  :       4447. kBytes
   grid      :       6721. kBytes
   one-center:        124. kBytes
   wavefun   :      38776. kBytes
 
  
  
 General timing and accounting informations for this job:
 ========================================================
  
                  Total CPU time used (sec):     2521.698
                            User time (sec):     2422.240
                          System time (sec):       99.458
                         Elapsed time (sec):     2536.808
  
                   Maximum memory used (kb):      984876.
                   Average memory used (kb):           0.
  
                          Minor page faults:      1048035
                          Major page faults:            0
                 Voluntary context switches:        11262
