  56  56   0   0
  0.4903395E+02  0.1100258E-08  0.1100258E-08  0.2619179E-08  0.3500000E-15
  1.000000000000000E-004
  CAR 
 unknown system                          
      6.44776916    -21.42759742  301     -1.29229226      1.00000000
    -21.428  0.0000E+00  0.0000E+00
    -21.335  0.0000E+00  0.0000E+00
    -21.242  0.0000E+00  0.0000E+00
    -21.149  0.0000E+00  0.0000E+00
    -21.056  0.0000E+00  0.0000E+00
    -20.963  0.0000E+00  0.0000E+00
    -20.870  0.0000E+00  0.0000E+00
    -20.777  0.0000E+00  0.0000E+00
    -20.684  0.2531E-14  0.2352E-15
    -20.591  0.2206E-10  0.2050E-11
    -20.498  0.3562E-07  0.3312E-08
    -20.406  0.1087E-04  0.1013E-05
    -20.313  0.6482E-03  0.6125E-04
    -20.220  0.8096E-02  0.8135E-03
    -20.127  0.2533E-01  0.3167E-02
    -20.034  0.3357E-01  0.6287E-02
    -19.941  0.3538E-01  0.9574E-02
    -19.848  0.3847E-01  0.1315E-01
    -19.755  0.5995E-01  0.1872E-01
    -19.662  0.4660E-01  0.2305E-01
    -19.569  0.9905E-02  0.2397E-01
    -19.476  0.4075E-02  0.2435E-01
    -19.383  0.1702E-01  0.2593E-01
    -19.290  0.1789E-01  0.2759E-01
    -19.198  0.4182E-02  0.2798E-01
    -19.105  0.2136E-03  0.2800E-01
    -19.012  0.4133E-03  0.2804E-01
    -18.919  0.6163E-02  0.2861E-01
    -18.826  0.1985E-01  0.3046E-01
    -18.733  0.1428E-01  0.3178E-01
    -18.640  0.2265E-02  0.3199E-01
    -18.547  0.7537E-04  0.3200E-01
    -18.454  0.4982E-06  0.3200E-01
    -18.361  0.6291E-09  0.3200E-01
    -18.268  0.1482E-12  0.3200E-01
    -18.175  0.9559E-17  0.3200E-01
    -18.083  0.0000E+00  0.3200E-01
    -17.990  0.0000E+00  0.3200E-01
    -17.897  0.0000E+00  0.3200E-01
    -17.804  0.0000E+00  0.3200E-01
    -17.711  0.0000E+00  0.3200E-01
    -17.618  0.0000E+00  0.3200E-01
    -17.525  0.0000E+00  0.3200E-01
    -17.432  0.0000E+00  0.3200E-01
    -17.339  0.0000E+00  0.3200E-01
    -17.246  0.0000E+00  0.3200E-01
    -17.153  0.0000E+00  0.3200E-01
    -17.060  0.0000E+00  0.3200E-01
    -16.968  0.0000E+00  0.3200E-01
    -16.875  0.0000E+00  0.3200E-01
    -16.782  0.0000E+00  0.3200E-01
    -16.689  0.0000E+00  0.3200E-01
    -16.596  0.0000E+00  0.3200E-01
    -16.503  0.0000E+00  0.3200E-01
    -16.410  0.0000E+00  0.3200E-01
    -16.317  0.0000E+00  0.3200E-01
    -16.224  0.0000E+00  0.3200E-01
    -16.131  0.0000E+00  0.3200E-01
    -16.038  0.0000E+00  0.3200E-01
    -15.945  0.0000E+00  0.3200E-01
    -15.853  0.0000E+00  0.3200E-01
    -15.760  0.0000E+00  0.3200E-01
    -15.667  0.0000E+00  0.3200E-01
    -15.574  0.0000E+00  0.3200E-01
    -15.481  0.0000E+00  0.3200E-01
    -15.388  0.0000E+00  0.3200E-01
    -15.295  0.0000E+00  0.3200E-01
    -15.202  0.0000E+00  0.3200E-01
    -15.109  0.0000E+00  0.3200E-01
    -15.016  0.0000E+00  0.3200E-01
    -14.923  0.0000E+00  0.3200E-01
    -14.830  0.0000E+00  0.3200E-01
    -14.738  0.0000E+00  0.3200E-01
    -14.645  0.0000E+00  0.3200E-01
    -14.552  0.0000E+00  0.3200E-01
    -14.459  0.0000E+00  0.3200E-01
    -14.366  0.0000E+00  0.3200E-01
    -14.273  0.0000E+00  0.3200E-01
    -14.180  0.0000E+00  0.3200E-01
    -14.087  0.0000E+00  0.3200E-01
    -13.994  0.0000E+00  0.3200E-01
    -13.901  0.0000E+00  0.3200E-01
    -13.808  0.0000E+00  0.3200E-01
    -13.715  0.0000E+00  0.3200E-01
    -13.622  0.0000E+00  0.3200E-01
    -13.530  0.0000E+00  0.3200E-01
    -13.437  0.0000E+00  0.3200E-01
    -13.344  0.0000E+00  0.3200E-01
    -13.251  0.0000E+00  0.3200E-01
    -13.158  0.0000E+00  0.3200E-01
    -13.065  0.0000E+00  0.3200E-01
    -12.972  0.0000E+00  0.3200E-01
    -12.879  0.0000E+00  0.3200E-01
    -12.786  0.0000E+00  0.3200E-01
    -12.693  0.0000E+00  0.3200E-01
    -12.600  0.0000E+00  0.3200E-01
    -12.507  0.0000E+00  0.3200E-01
    -12.415  0.0000E+00  0.3200E-01
    -12.322  0.0000E+00  0.3200E-01
    -12.229  0.0000E+00  0.3200E-01
    -12.136  0.0000E+00  0.3200E-01
    -12.043  0.0000E+00  0.3200E-01
    -11.950  0.0000E+00  0.3200E-01
    -11.857  0.0000E+00  0.3200E-01
    -11.764  0.0000E+00  0.3200E-01
    -11.671  0.0000E+00  0.3200E-01
    -11.578  0.0000E+00  0.3200E-01
    -11.485  0.0000E+00  0.3200E-01
    -11.392  0.0000E+00  0.3200E-01
    -11.300  0.0000E+00  0.3200E-01
    -11.207  0.0000E+00  0.3200E-01
    -11.114  0.0000E+00  0.3200E-01
    -11.021  0.0000E+00  0.3200E-01
    -10.928  0.0000E+00  0.3200E-01
    -10.835  0.0000E+00  0.3200E-01
    -10.742  0.0000E+00  0.3200E-01
    -10.649  0.0000E+00  0.3200E-01
    -10.556  0.0000E+00  0.3200E-01
    -10.463  0.0000E+00  0.3200E-01
    -10.370  0.0000E+00  0.3200E-01
    -10.277  0.0000E+00  0.3200E-01
    -10.185  0.0000E+00  0.3200E-01
    -10.092  0.0000E+00  0.3200E-01
     -9.999  0.0000E+00  0.3200E-01
     -9.906  0.0000E+00  0.3200E-01
     -9.813  0.0000E+00  0.3200E-01
     -9.720  0.0000E+00  0.3200E-01
     -9.627  0.3566E-14  0.3200E-01
     -9.534  0.2414E-10  0.3200E-01
     -9.441  0.3109E-07  0.3200E-01
     -9.348  0.7809E-05  0.3200E-01
     -9.255  0.3967E-03  0.3204E-01
     -9.162  0.4297E-02  0.3244E-01
     -9.070  0.1097E-01  0.3346E-01
     -8.977  0.1073E-01  0.3445E-01
     -8.884  0.1062E-01  0.3544E-01
     -8.791  0.5271E-02  0.3593E-01
     -8.698  0.8040E-03  0.3600E-01
     -8.605  0.1109E-02  0.3611E-01
     -8.512  0.4865E-02  0.3656E-01
     -8.419  0.8602E-02  0.3736E-01
     -8.326  0.9898E-02  0.3828E-01
     -8.233  0.1471E-01  0.3964E-01
     -8.140  0.2529E-01  0.4199E-01
     -8.047  0.3829E-01  0.4555E-01
     -7.955  0.3137E-01  0.4847E-01
     -7.862  0.3461E-01  0.5168E-01
     -7.769  0.4976E-01  0.5631E-01
     -7.676  0.4793E-01  0.6076E-01
     -7.583  0.5200E-01  0.6559E-01
     -7.490  0.7753E-01  0.7280E-01
     -7.397  0.9434E-01  0.8156E-01
     -7.304  0.8786E-01  0.8973E-01
     -7.211  0.9065E-01  0.9815E-01
     -7.118  0.1011E+00  0.1075E+00
     -7.025  0.1088E+00  0.1177E+00
     -6.932  0.1212E+00  0.1289E+00
     -6.839  0.1246E+00  0.1405E+00
     -6.747  0.1265E+00  0.1522E+00
     -6.654  0.1318E+00  0.1645E+00
     -6.561  0.1316E+00  0.1767E+00
     -6.468  0.1420E+00  0.1899E+00
     -6.375  0.1597E+00  0.2048E+00
     -6.282  0.1638E+00  0.2200E+00
     -6.189  0.1684E+00  0.2356E+00
     -6.096  0.1683E+00  0.2513E+00
     -6.003  0.1635E+00  0.2664E+00
     -5.910  0.1649E+00  0.2818E+00
     -5.817  0.1716E+00  0.2977E+00
     -5.724  0.1775E+00  0.3142E+00
     -5.632  0.1765E+00  0.3306E+00
     -5.539  0.1731E+00  0.3467E+00
     -5.446  0.1674E+00  0.3623E+00
     -5.353  0.1772E+00  0.3787E+00
     -5.260  0.1873E+00  0.3961E+00
     -5.167  0.1801E+00  0.4128E+00
     -5.074  0.1733E+00  0.4290E+00
     -4.981  0.1657E+00  0.4443E+00
     -4.888  0.1680E+00  0.4600E+00
     -4.795  0.1761E+00  0.4763E+00
     -4.702  0.1848E+00  0.4935E+00
     -4.609  0.1825E+00  0.5105E+00
     -4.517  0.1810E+00  0.5273E+00
     -4.424  0.1894E+00  0.5449E+00
     -4.331  0.1824E+00  0.5618E+00
     -4.238  0.1802E+00  0.5786E+00
     -4.145  0.1919E+00  0.5964E+00
     -4.052  0.2016E+00  0.6151E+00
     -3.959  0.2104E+00  0.6347E+00
     -3.866  0.2105E+00  0.6542E+00
     -3.773  0.2027E+00  0.6731E+00
     -3.680  0.1963E+00  0.6913E+00
     -3.587  0.2043E+00  0.7103E+00
     -3.494  0.1971E+00  0.7286E+00
     -3.402  0.1803E+00  0.7454E+00
     -3.309  0.1790E+00  0.7620E+00
     -3.216  0.1772E+00  0.7785E+00
     -3.123  0.1709E+00  0.7943E+00
     -3.030  0.1708E+00  0.8102E+00
     -2.937  0.1754E+00  0.8265E+00
     -2.844  0.1798E+00  0.8432E+00
     -2.751  0.1939E+00  0.8612E+00
     -2.658  0.2035E+00  0.8801E+00
     -2.565  0.2003E+00  0.8987E+00
     -2.472  0.2010E+00  0.9174E+00
     -2.379  0.2024E+00  0.9362E+00
     -2.287  0.2025E+00  0.9550E+00
     -2.194  0.2045E+00  0.9740E+00
     -2.101  0.2033E+00  0.9929E+00
     -2.008  0.1956E+00  0.1011E+01
     -1.915  0.1874E+00  0.1029E+01
     -1.822  0.1764E+00  0.1045E+01
     -1.729  0.1627E+00  0.1060E+01
     -1.636  0.1407E+00  0.1073E+01
     -1.543  0.1146E+00  0.1084E+01
     -1.450  0.9263E-01  0.1092E+01
     -1.357  0.7866E-01  0.1100E+01
     -1.264  0.6551E-01  0.1106E+01
     -1.171  0.5887E-01  0.1111E+01
     -1.079  0.5176E-01  0.1116E+01
     -0.986  0.4691E-01  0.1120E+01
     -0.893  0.4479E-01  0.1125E+01
     -0.800  0.5225E-01  0.1129E+01
     -0.707  0.6440E-01  0.1135E+01
     -0.614  0.6623E-01  0.1142E+01
     -0.521  0.5392E-01  0.1147E+01
     -0.428  0.4498E-01  0.1151E+01
     -0.335  0.4623E-01  0.1155E+01
     -0.242  0.3943E-01  0.1159E+01
     -0.149  0.2810E-01  0.1161E+01
     -0.056  0.2476E-01  0.1164E+01
      0.036  0.2105E-01  0.1166E+01
      0.129  0.2240E-01  0.1168E+01
      0.222  0.3368E-01  0.1171E+01
      0.315  0.4147E-01  0.1175E+01
      0.408  0.4301E-01  0.1179E+01
      0.501  0.4234E-01  0.1183E+01
      0.594  0.4263E-01  0.1187E+01
      0.687  0.3728E-01  0.1190E+01
      0.780  0.2989E-01  0.1193E+01
      0.873  0.2648E-01  0.1195E+01
      0.966  0.2724E-01  0.1198E+01
      1.059  0.2772E-01  0.1200E+01
      1.151  0.2122E-01  0.1202E+01
      1.244  0.1979E-01  0.1204E+01
      1.337  0.1897E-01  0.1206E+01
      1.430  0.2658E-01  0.1208E+01
      1.523  0.3359E-01  0.1211E+01
      1.616  0.3496E-01  0.1215E+01
      1.709  0.2975E-01  0.1217E+01
      1.802  0.3211E-01  0.1220E+01
      1.895  0.3760E-01  0.1224E+01
      1.988  0.3354E-01  0.1227E+01
      2.081  0.3256E-01  0.1230E+01
      2.174  0.2652E-01  0.1233E+01
      2.266  0.2797E-01  0.1235E+01
      2.359  0.3296E-01  0.1238E+01
      2.452  0.2356E-01  0.1240E+01
      2.545  0.2008E-01  0.1242E+01
      2.638  0.2096E-01  0.1244E+01
      2.731  0.2256E-01  0.1246E+01
      2.824  0.2179E-01  0.1248E+01
      2.917  0.2825E-01  0.1251E+01
      3.010  0.3464E-01  0.1254E+01
      3.103  0.3123E-01  0.1257E+01
      3.196  0.3144E-01  0.1260E+01
      3.289  0.3302E-01  0.1263E+01
      3.381  0.3296E-01  0.1266E+01
      3.474  0.3614E-01  0.1270E+01
      3.567  0.3303E-01  0.1273E+01
      3.660  0.2916E-01  0.1275E+01
      3.753  0.3125E-01  0.1278E+01
      3.846  0.3280E-01  0.1281E+01
      3.939  0.3919E-01  0.1285E+01
      4.032  0.4034E-01  0.1289E+01
      4.125  0.3954E-01  0.1292E+01
      4.218  0.3858E-01  0.1296E+01
      4.311  0.4009E-01  0.1300E+01
      4.404  0.4453E-01  0.1304E+01
      4.496  0.4879E-01  0.1308E+01
      4.589  0.5408E-01  0.1313E+01
      4.682  0.5742E-01  0.1319E+01
      4.775  0.5898E-01  0.1324E+01
      4.868  0.6174E-01  0.1330E+01
      4.961  0.5535E-01  0.1335E+01
      5.054  0.4197E-01  0.1339E+01
      5.147  0.3385E-01  0.1342E+01
      5.240  0.1741E-01  0.1344E+01
      5.333  0.3279E-02  0.1344E+01
      5.426  0.1822E-03  0.1344E+01
      5.519  0.2512E-05  0.1344E+01
      5.612  0.7469E-08  0.1344E+01
      5.704  0.4410E-11  0.1344E+01
      5.797  0.4939E-15  0.1344E+01
      5.890  0.0000E+00  0.1344E+01
      5.983  0.0000E+00  0.1344E+01
      6.076  0.0000E+00  0.1344E+01
      6.169  0.0000E+00  0.1344E+01
      6.262  0.0000E+00  0.1344E+01
      6.355  0.0000E+00  0.1344E+01
      6.448  0.0000E+00  0.1344E+01
