unknown system                          
           1
    11.002582    0.000000    0.000000
     5.501291    9.528515    0.000000
     0.000000    0.000000   26.191785
   Au   O    Pd
  24   8  24
Direct configuration=     1
   0.33333333  0.33333333  0.38179910
   0.91666667  0.91666667  0.46754708
   0.83333333  0.83333333  0.38179910
   0.08333333  0.33333333  0.38179910
   0.08333333  0.58333333  0.38179910
   0.66666667  0.91666667  0.46754708
   0.00000000  0.50000000  0.55329505
   0.91666667  0.16666667  0.46754708
   0.83333333  0.58333333  0.38179910
   0.91666667  0.41666667  0.46754708
   0.58333333  0.58333333  0.38179910
   0.33333333  0.08333333  0.38179910
   0.00000000  0.75000000  0.55329505
   0.66666667  0.41666667  0.46754708
   0.16666667  0.41666667  0.46754708
   0.83333333  0.33333333  0.38179910
   0.33333333  0.58333333  0.38179910
   0.16666667  0.66666667  0.46754708
   0.66666667  0.16666667  0.46754708
   0.33333333  0.83333333  0.38179910
   0.75000000  0.75000000  0.55329505
   0.58333333  0.83333333  0.38179910
   0.41666667  0.41666667  0.46754708
   0.25000000  0.00000000  0.55329505
   0.83333333  0.08333333  0.61820090
   0.83333333  0.83333333  0.61820090
   0.58333333  0.33333333  0.61820090
   0.08333333  0.33333333  0.61820090
   0.83333333  0.33333333  0.61820090
   0.08333333  0.08333333  0.61820090
   0.58333333  0.58333333  0.61820090
   0.58333333  0.08333333  0.61820090
   0.58333333  0.08333333  0.38179910
   0.25000000  0.75000000  0.55329505
   0.16666667  0.91666667  0.46754708
   0.25000000  0.25000000  0.55329505
   0.25000000  0.50000000  0.55329505
   0.50000000  0.25000000  0.55329505
   0.16666667  0.16666667  0.46754708
   0.08333333  0.83333333  0.38179910
   0.91666667  0.66666667  0.46754708
   0.00000000  0.25000000  0.55329505
   0.00000000  0.00000000  0.55329505
   0.58333333  0.33333333  0.38179910
   0.08333333  0.08333333  0.38179910
   0.75000000  0.00000000  0.55329505
   0.41666667  0.66666667  0.46754708
   0.75000000  0.25000000  0.55329505
   0.50000000  0.50000000  0.55329505
   0.66666667  0.66666667  0.46754708
   0.75000000  0.50000000  0.55329505
   0.41666667  0.91666667  0.46754708
   0.50000000  0.75000000  0.55329505
   0.83333333  0.08333333  0.38179910
   0.41666667  0.16666667  0.46754708
   0.50000000  0.00000000  0.55329505
Direct configuration=     2
   0.33333333  0.33333333  0.38179910
   0.91759621  0.91722868  0.46771104
   0.83333333  0.83333333  0.38179910
   0.08333333  0.33333333  0.38179910
   0.08333333  0.58333333  0.38179910
   0.66506321  0.91754449  0.46790836
   0.00076235  0.49945580  0.55592444
   0.91857252  0.16542607  0.46799432
   0.83333333  0.58333333  0.38179910
   0.91616526  0.41695546  0.46853940
   0.58333333  0.58333333  0.38179910
   0.33333333  0.08333333  0.38179910
   0.00155789  0.74949693  0.55602970
   0.66566737  0.41769768  0.46817024
   0.16747561  0.41544814  0.46832541
   0.83333333  0.33333333  0.38179910
   0.33333333  0.58333333  0.38179910
   0.16665070  0.66824762  0.46829411
   0.66605660  0.16653858  0.46767007
   0.33333333  0.83333333  0.38179910
   0.74867417  0.74972404  0.55562128
   0.58333333  0.83333333  0.38179910
   0.41765089  0.41607160  0.46860061
   0.25108050 -0.00079303  0.55535933
   0.83487798  0.08235848  0.61444755
   0.83383784  0.83243969  0.61521352
   0.58144461  0.33411756  0.61410479
   0.08486635  0.33338726  0.61465593
   0.83312288  0.33406912  0.61431745
   0.08433058  0.08157970  0.61464822
   0.58219656  0.58540347  0.61389179
   0.58127338  0.08365784  0.61404937
   0.58333333  0.08333333  0.38179910
   0.25083063  0.74979667  0.55407769
   0.16691395  0.91671133  0.46778681
   0.25016448  0.24993458  0.55537073
   0.25083980  0.49972129  0.55438538
   0.49951733  0.24987755  0.55693706
   0.16719278  0.16580040  0.46785404
   0.08333333  0.83333333  0.38179910
   0.91650806  0.66603441  0.46781695
  -0.00049776  0.25043375  0.55767875
  -0.00029430  0.00024496  0.55677961
   0.58333333  0.33333333  0.38179910
   0.08333333  0.08333333  0.38179910
   0.74946823  0.00102336  0.55798150
   0.41663764  0.66745574  0.46847697
   0.75007122  0.25013175  0.55824972
   0.49962923  0.50051427  0.55690177
   0.66635206  0.66692206  0.46858387
   0.74920859  0.49982326  0.55687435
   0.41608938  0.91665848  0.46919525
   0.50003522  0.74881997  0.55522729
   0.83333333  0.08333333  0.38179910
   0.41623822  0.16639514  0.46853551
   0.49975610  0.00109670  0.55529772
Direct configuration=     3
   0.33333333  0.33333333  0.38179910
   0.91924628  0.91822634  0.46800210
   0.83333333  0.83333333  0.38179910
   0.08333333  0.33333333  0.38179910
   0.08333333  0.58333333  0.38179910
   0.66221685  0.91910276  0.46854968
   0.00211564  0.49848976  0.56059197
   0.92195570  0.16322383  0.46878823
   0.83333333  0.58333333  0.38179910
   0.91527519  0.41746810  0.47030091
   0.58333333  0.58333333  0.38179910
   0.33333333  0.08333333  0.38179910
   0.00432338  0.74860391  0.56088411
   0.66389347  0.41952788  0.46927646
   0.16891161  0.41328508  0.46970708
   0.83333333  0.33333333  0.38179910
   0.33333333  0.58333333  0.38179910
   0.16662236  0.67105403  0.46962019
   0.66497364  0.16631122  0.46788839
   0.33333333  0.83333333  0.38179910
   0.74632062  0.74923418  0.55975068
   0.58333333  0.83333333  0.38179910
   0.41939803  0.41501527  0.47047079
   0.25299855 -0.00220076  0.55902372
   0.83761996  0.08062798  0.60778480
   0.83473343  0.83085335  0.60991050
   0.57809185  0.33550967  0.60683360
   0.08758768  0.33348300  0.60836309
   0.83274929  0.33537525  0.60742377
   0.08610084  0.07846675  0.60834171
   0.58017861  0.58907826  0.60624249
   0.57761665  0.08423389  0.60667979
   0.58333333  0.08333333  0.38179910
   0.25230511  0.74943573  0.55546698
   0.16735291  0.91679062  0.46821237
   0.25045647  0.24981846  0.55905537
   0.25233056  0.49922654  0.55632087
   0.49866053  0.24966018  0.56340217
   0.16812670  0.16426265  0.46839894
   0.08333333  0.83333333  0.38179910
   0.91622651  0.66491206  0.46829602
  -0.00138136  0.25120371  0.56546044
  -0.00081673  0.00067979  0.56296519
   0.58333333  0.33333333  0.38179910
   0.08333333  0.08333333  0.38179910
   0.74852427  0.00283997  0.56630062
   0.41658610  0.66885646  0.47012766
   0.75019764  0.25036562  0.56704497
   0.49897107  0.50142719  0.56330422
   0.66579359  0.66737542  0.47042434
   0.74780373  0.49950952  0.56322814
   0.41506460  0.91664394  0.47212098
   0.50009774  0.74672524  0.55865730
   0.83333333  0.08333333  0.38179910
   0.41547767  0.16591315  0.47029013
   0.49932313  0.00304350  0.55885274
Direct configuration=     4
   0.33333333  0.33333333  0.38179910
   0.91888615  0.91800860  0.46793858
   0.83333333  0.83333333  0.38179910
   0.08333333  0.33333333  0.38179910
   0.08333333  0.58333333  0.38179910
   0.66283808  0.91876266  0.46840971
   0.00182028  0.49870060  0.55957327
   0.92121731  0.16370448  0.46861496
   0.83333333  0.58333333  0.38179910
   0.91546945  0.41735622  0.46991646
   0.58333333  0.58333333  0.38179910
   0.33333333  0.08333333  0.38179910
   0.00371980  0.74879882  0.55982462
   0.66428063  0.41912844  0.46903502
   0.16859820  0.41375717  0.46940553
   0.83333333  0.33333333  0.38179910
   0.33333333  0.58333333  0.38179910
   0.16662854  0.67044152  0.46933077
   0.66521000  0.16636084  0.46784074
   0.33333333  0.83333333  0.38179910
   0.74683429  0.74934109  0.55884943
   0.58333333  0.83333333  0.38179910
   0.41901671  0.41524581  0.47006262
   0.25257993 -0.00189352  0.55822395
   0.83702151  0.08100566  0.60923897
   0.83453796  0.83119958  0.61106790
   0.57882360  0.33520584  0.60842056
   0.08699374  0.33346211  0.60973652
   0.83283083  0.33509018  0.60892834
   0.08571447  0.07914616  0.60971812
   0.58061903  0.58827623  0.60791197
   0.57841474  0.08410817  0.60828822
   0.58333333  0.08333333  0.38179910
   0.25198330  0.74951451  0.55516377
   0.16725711  0.91677331  0.46811949
   0.25039274  0.24984380  0.55825119
   0.25200520  0.49933452  0.55589844
   0.49884753  0.24970763  0.56199114
   0.16792287  0.16459827  0.46828001
   0.08333333  0.83333333  0.38179910
   0.91628796  0.66515702  0.46819146
  -0.00118851  0.25103566  0.56376207
  -0.00070271  0.00058489  0.56161517
   0.58333333  0.33333333  0.38179910
   0.08333333  0.08333333  0.38179910
   0.74873029  0.00244349  0.56448495
   0.41659735  0.66855075  0.46976739
   0.75017004  0.25031458  0.56512538
   0.49911472  0.50122794  0.56190687
   0.66591548  0.66727647  0.47002265
   0.74811035  0.49957799  0.56184140
   0.41528826  0.91664712  0.47148243
   0.50008409  0.74718242  0.55790869
   0.83333333  0.08333333  0.38179910
   0.41564367  0.16601835  0.46990718
   0.49941763  0.00261861  0.55807685
Direct configuration=     5
   0.33333333  0.33333333  0.38179910
   0.91899082  0.91807188  0.46795704
   0.83333333  0.83333333  0.38179910
   0.08333333  0.33333333  0.38179910
   0.08333333  0.58333333  0.38179910
   0.66265752  0.91886151  0.46845039
   0.00190612  0.49863932  0.55986935
   0.92143192  0.16356478  0.46866532
   0.83333333  0.58333333  0.38179910
   0.91541299  0.41738874  0.47002820
   0.58333333  0.58333333  0.38179910
   0.33333333  0.08333333  0.38179910
   0.00389523  0.74874217  0.56013256
   0.66416810  0.41924453  0.46910520
   0.16868929  0.41361996  0.46949317
   0.83333333  0.33333333  0.38179910
   0.33333333  0.58333333  0.38179910
   0.16662675  0.67061954  0.46941489
   0.66514130  0.16634642  0.46785459
   0.33333333  0.83333333  0.38179910
   0.74668499  0.74931002  0.55911138
   0.58333333  0.83333333  0.38179910
   0.41912754  0.41517881  0.47018126
   0.25270160 -0.00198282  0.55845640
   0.83719545  0.08089589  0.60881632
   0.83459477  0.83109895  0.61073151
   0.57861092  0.33529415  0.60795932
   0.08716637  0.33346818  0.60933733
   0.83280713  0.33517304  0.60849104
   0.08582677  0.07894869  0.60931807
   0.58049103  0.58850934  0.60742674
   0.57818278  0.08414471  0.60782074
   0.58333333  0.08333333  0.38179910
   0.25207684  0.74949161  0.55525190
   0.16728495  0.91677834  0.46814648
   0.25041126  0.24983644  0.55848492
   0.25209976  0.49930313  0.55602122
   0.49879317  0.24969384  0.56240125
   0.16798211  0.16450072  0.46831458
   0.08333333  0.83333333  0.38179910
   0.91627010  0.66508582  0.46822185
  -0.00124456  0.25108451  0.56425569
  -0.00073585  0.00061247  0.56200755
   0.58333333  0.33333333  0.38179910
   0.08333333  0.08333333  0.38179910
   0.74867041  0.00255872  0.56501267
   0.41659408  0.66863961  0.46987210
   0.75017806  0.25032941  0.56568330
   0.49907296  0.50128585  0.56231301
   0.66588005  0.66730523  0.47013940
   0.74802123  0.49955809  0.56224445
   0.41522326  0.91664619  0.47166803
   0.50008806  0.74704954  0.55812627
   0.83333333  0.08333333  0.38179910
   0.41559542  0.16598777  0.47001848
   0.49939017  0.00274210  0.55830236
Direct configuration=     6
   0.33333333  0.33333333  0.38179910
   0.91798941  0.91832208  0.46977312
   0.83333333  0.83333333  0.38179910
   0.08333333  0.33333333  0.38179910
   0.08333333  0.58333333  0.38179910
   0.66314061  0.91878324  0.47004696
  -0.00138207  0.50623758  0.56021353
   0.92101447  0.16450332  0.47053896
   0.83333333  0.58333333  0.38179910
   0.91517455  0.41695808  0.47216042
   0.58333333  0.58333333  0.38179910
   0.33333333  0.08333333  0.38179910
   0.00973444  0.74568829  0.56113021
   0.66474567  0.41864541  0.47100739
   0.16853459  0.41379872  0.47085249
   0.83333333  0.33333333  0.38179910
   0.33333333  0.58333333  0.38179910
   0.16612711  0.67040564  0.47061886
   0.66612073  0.16595494  0.46955139
   0.33333333  0.83333333  0.38179910
   0.74463287  0.74687423  0.55975546
   0.58333333  0.83333333  0.38179910
   0.41955803  0.41517123  0.47191845
   0.25863335 -0.00497349  0.55915237
   0.84012266  0.07806961  0.60820432
   0.83578865  0.82795357  0.61073118
   0.57274364  0.33857614  0.60733619
   0.09265766  0.33165550  0.60916273
   0.83295361  0.33821616  0.60814142
   0.08945146  0.07510999  0.60877903
   0.57758663  0.59336552  0.60619320
   0.57277279  0.08404299  0.60686526
   0.58333333  0.08333333  0.38179910
   0.25189557  0.74940276  0.55624724
   0.16798540  0.91725146  0.46912320
   0.25358236  0.24799437  0.55956117
   0.25230934  0.49956903  0.55704287
   0.49292334  0.25304167  0.56326432
   0.16792798  0.16413822  0.46958025
   0.08333333  0.83333333  0.38179910
   0.91628945  0.66535777  0.46997840
  -0.00102024  0.25142926  0.56506341
   0.00207369 -0.00492684  0.56278476
   0.58333333  0.33333333  0.38179910
   0.08333333  0.08333333  0.38179910
   0.74970860  0.00219453  0.56574674
   0.41695922  0.66848523  0.47086899
   0.75028249  0.24965144  0.56590739
   0.49317597  0.50315222  0.56347811
   0.66594830  0.66747378  0.47167502
   0.75085968  0.50199674  0.56323325
   0.41488428  0.91653991  0.47382789
   0.49759052  0.75117956  0.55889885
   0.83333333  0.08333333  0.38179910
   0.41527643  0.16599972  0.47149058
   0.49740131  0.00058972  0.55894539
Direct configuration=     7
   0.33333333  0.33333333  0.38179910
   0.91709228  0.91854623  0.47140010
   0.83333333  0.83333333  0.38179910
   0.08333333  0.33333333  0.38179910
   0.08333333  0.58333333  0.38179910
   0.66357339  0.91871312  0.47147727
  -0.00432786  0.51304464  0.56052187
   0.92064049  0.16534413  0.47221749
   0.83333333  0.58333333  0.38179910
   0.91496094  0.41657227  0.47407061
   0.58333333  0.58333333  0.38179910
   0.33333333  0.08333333  0.38179910
   0.01496562  0.74295241  0.56202398
   0.66526309  0.41810867  0.47271151
   0.16839600  0.41395887  0.47207027
   0.83333333  0.33333333  0.38179910
   0.33333333  0.58333333  0.38179910
   0.16567951  0.67021400  0.47169746
   0.66699817  0.16560422  0.47107151
   0.33333333  0.83333333  0.38179910
   0.74279444  0.74469208  0.56033247
   0.58333333  0.83333333  0.38179910
   0.41994370  0.41516444  0.47347475
   0.26394743 -0.00765275  0.55977587
   0.84274507  0.07553762  0.60765604
   0.83685822  0.82513571  0.61073088
   0.56748731  0.34151639  0.60677795
   0.09757714  0.33003157  0.60900631
   0.83308484  0.34094241  0.60782820
   0.09269872  0.07167102  0.60829613
   0.57498466  0.59771602  0.60508811
   0.56792613  0.08395186  0.60600927
   0.58333333  0.08333333  0.38179910
   0.25173318  0.74932316  0.55713894
   0.16861291  0.91767531  0.46999820
   0.25642325  0.24634412  0.56052535
   0.25249710  0.49980724  0.55795814
   0.48766473  0.25604089  0.56403753
   0.16787949  0.16381347  0.47071412
   0.08333333  0.83333333  0.38179910
   0.91630680  0.66560140  0.47155204
  -0.00081928  0.25173812  0.56578701
   0.00459068 -0.00988934  0.56348103
   0.58333333  0.33333333  0.38179910
   0.08333333  0.08333333  0.38179910
   0.75063868  0.00186826  0.56640437
   0.41728634  0.66834694  0.47176208
   0.75037604  0.24904407  0.56610815
   0.48789303  0.50482425  0.56452189
   0.66600943  0.66762478  0.47305074
   0.75340256  0.50418145  0.56411909
   0.41458060  0.91644468  0.47576285
   0.49535305  0.75487952  0.55959098
   0.83333333  0.08333333  0.38179910
   0.41499066  0.16601042  0.47280939
   0.49561956 -0.00133854  0.55952146
Direct configuration=     8
   0.33333333  0.33333333  0.38179910
   0.91698555  0.91841749  0.47266471
   0.83333333  0.83333333  0.38179910
   0.08333333  0.33333333  0.38179910
   0.08333333  0.58333333  0.38179910
   0.66385837  0.91868184  0.47263739
  -0.00246239  0.51243995  0.56180570
   0.92040690  0.16531334  0.47369647
   0.83333333  0.58333333  0.38179910
   0.91566462  0.41633423  0.47529533
   0.58333333  0.58333333  0.38179910
   0.33333333  0.08333333  0.38179910
   0.01617394  0.74324596  0.56389432
   0.66549093  0.41809205  0.47443818
   0.16811690  0.41376694  0.47297370
   0.83333333  0.33333333  0.38179910
   0.33333333  0.58333333  0.38179910
   0.16600880  0.66996471  0.47184140
   0.66706763  0.16575760  0.47245585
   0.33333333  0.83333333  0.38179910
   0.74117517  0.74825715  0.56155111
   0.58333333  0.83333333  0.38179910
   0.42001777  0.41513773  0.47403945
   0.26111190 -0.00626304  0.56141463
   0.84507748  0.07424741  0.60932490
   0.83791828  0.82153602  0.61082530
   0.56527221  0.34208676  0.60866496
   0.10139036  0.33028545  0.60907151
   0.83161383  0.34300526  0.60934212
   0.09763318  0.06770084  0.60842514
   0.57363111  0.59942385  0.60578733
   0.56481005  0.08369322  0.60670092
   0.58333333  0.08333333  0.38179910
   0.25263048  0.74954138  0.55836337
   0.16837079  0.91779782  0.47079038
   0.25678639  0.24613122  0.56126716
   0.25069425  0.49979351  0.55938524
   0.48365111  0.25597455  0.56385347
   0.16765475  0.16428815  0.47187946
   0.08333333  0.83333333  0.38179910
   0.91582799  0.66653096  0.47244482
   0.00338483  0.25074969  0.56584646
   0.00957949 -0.01428994  0.56335337
   0.58333333  0.33333333  0.38179910
   0.08333333  0.08333333  0.38179910
   0.74856078 -0.00076733  0.56608006
   0.41770097  0.66785805  0.47241817
   0.74897338  0.25096419  0.56560205
   0.48419930  0.51075034  0.56446583
   0.66561474  0.66743788  0.47368535
   0.75208535  0.50610800  0.56450370
   0.41579392  0.91598080  0.47567406
   0.49330108  0.75707714  0.55960679
   0.83333333  0.08333333  0.38179910
   0.41543632  0.16576452  0.47362993
   0.49710657 -0.00432681  0.55969265
Direct configuration=     9
   0.33333333  0.33333333  0.38179910
   0.91698808  0.91842054  0.47263474
   0.83333333  0.83333333  0.38179910
   0.08333333  0.33333333  0.38179910
   0.08333333  0.58333333  0.38179910
   0.66385162  0.91868258  0.47260990
  -0.00250659  0.51245428  0.56177528
   0.92041244  0.16531407  0.47366143
   0.83333333  0.58333333  0.38179910
   0.91564795  0.41633987  0.47526631
   0.58333333  0.58333333  0.38179910
   0.33333333  0.08333333  0.38179910
   0.01614531  0.74323900  0.56385000
   0.66548553  0.41809244  0.47439728
   0.16812351  0.41377149  0.47295229
   0.83333333  0.33333333  0.38179910
   0.33333333  0.58333333  0.38179910
   0.16600099  0.66997061  0.47183799
   0.66706598  0.16575396  0.47242305
   0.33333333  0.83333333  0.38179910
   0.74121354  0.74817269  0.56152224
   0.58333333  0.83333333  0.38179910
   0.42001602  0.41513836  0.47402607
   0.26117908 -0.00629597  0.56137580
   0.84502222  0.07427798  0.60928536
   0.83789316  0.82162130  0.61082306
   0.56532469  0.34207324  0.60862026
   0.10130002  0.33027943  0.60906996
   0.83164869  0.34295639  0.60930625
   0.09751627  0.06779490  0.60842209
   0.57366318  0.59938338  0.60577076
   0.56488388  0.08369934  0.60668453
   0.58333333  0.08333333  0.38179910
   0.25260922  0.74953621  0.55833436
   0.16837652  0.91779492  0.47077161
   0.25677779  0.24613626  0.56124959
   0.25073696  0.49979384  0.55935143
   0.48374620  0.25597612  0.56385783
   0.16766008  0.16427691  0.47185185
   0.08333333  0.83333333  0.38179910
   0.91583933  0.66650894  0.47242366
   0.00328522  0.25077311  0.56584505
   0.00946129 -0.01418568  0.56335640
   0.58333333  0.33333333  0.38179910
   0.08333333  0.08333333  0.38179910
   0.74861001 -0.00070489  0.56608775
   0.41769115  0.66786964  0.47240262
   0.74900661  0.25091869  0.56561404
   0.48428682  0.51060994  0.56446716
   0.66562409  0.66744231  0.47367031
   0.75211656  0.50606235  0.56449459
   0.41576517  0.91599179  0.47567616
   0.49334970  0.75702507  0.55960641
   0.83333333  0.08333333  0.38179910
   0.41542577  0.16577034  0.47361049
   0.49707134 -0.00425601  0.55968859
Direct configuration=    10
   0.33333333  0.33333333  0.38179910
   0.91741710  0.91795267  0.47319838
   0.83333333  0.83333333  0.38179910
   0.08333333  0.33333333  0.38179910
   0.08333333  0.58333333  0.38179910
   0.66418808  0.91856446  0.47279548
  -0.00153524  0.51076187  0.56303822
   0.92047753  0.16498665  0.47443536
   0.83333333  0.58333333  0.38179910
   0.91615773  0.41665717  0.47570844
   0.58333333  0.58333333  0.38179910
   0.33333333  0.08333333  0.38179910
   0.01593676  0.74392810  0.56552255
   0.66554207  0.41839763  0.47531393
   0.16800095  0.41379472  0.47329090
   0.83333333  0.33333333  0.38179910
   0.33333333  0.58333333  0.38179910
   0.16649627  0.66975872  0.47189664
   0.66671153  0.16605074  0.47317016
   0.33333333  0.83333333  0.38179910
   0.74085317  0.74939004  0.56235030
   0.58333333  0.83333333  0.38179910
   0.41954575  0.41535109  0.47406192
   0.26173866 -0.00602613  0.56168559
   0.84593162  0.07324017  0.60923932
   0.83864652  0.81981968  0.61150166
   0.56334237  0.34320992  0.60892925
   0.10264944  0.33128866  0.60992695
   0.83157796  0.34283325  0.60972606
   0.09824108  0.06641699  0.60965253
   0.57287308  0.60014923  0.60675365
   0.56363666  0.08385156  0.60752410
   0.58333333  0.08333333  0.38179910
   0.25295576  0.74965724  0.55925481
   0.16832587  0.91749604  0.47112558
   0.25762209  0.24507458  0.56131787
   0.24973323  0.49986544  0.56046905
   0.48492379  0.25523745  0.56447631
   0.16785684  0.16446263  0.47243371
   0.08333333  0.83333333  0.38179910
   0.91549265  0.66705598  0.47287649
   0.00323338  0.25145763  0.56668255
   0.00902256 -0.01319950  0.56403400
   0.58333333  0.33333333  0.38179910
   0.08333333  0.08333333  0.38179910
   0.74807241 -0.00011990  0.56682037
   0.41762620  0.66767946  0.47257336
   0.74806419  0.25178013  0.56660064
   0.48522132  0.51080984  0.56527188
   0.66563225  0.66721754  0.47388516
   0.75020967  0.50657855  0.56514715
   0.41586811  0.91618813  0.47506364
   0.49306736  0.75704395  0.55965653
   0.83333333  0.08333333  0.38179910
   0.41578887  0.16551018  0.47378738
   0.49707200 -0.00521759  0.55981528
Direct configuration=    11
   0.33333333  0.33333333  0.38179910
   0.91809765  0.91721052  0.47409245
   0.83333333  0.83333333  0.38179910
   0.08333333  0.33333333  0.38179910
   0.08333333  0.58333333  0.38179910
   0.66472180  0.91837709  0.47308986
   0.00000558  0.50807726  0.56504157
   0.92058079  0.16446727  0.47566301
   0.83333333  0.58333333  0.38179910
   0.91696637  0.41716049  0.47640978
   0.58333333  0.58333333  0.38179910
   0.33333333  0.08333333  0.38179910
   0.01560595  0.74502118  0.56817564
   0.66563177  0.41888174  0.47676798
   0.16780652  0.41383158  0.47382802
   0.83333333  0.33333333  0.38179910
   0.33333333  0.58333333  0.38179910
   0.16728191  0.66942260  0.47198967
   0.66614929  0.16652152  0.47435529
   0.33333333  0.83333333  0.38179910
   0.74028153  0.75132107  0.56366382
   0.58333333  0.83333333  0.38179910
   0.41879979  0.41568853  0.47411877
   0.26262629 -0.00559810  0.56217699
   0.84737418  0.07159392  0.60916628
   0.83984154  0.81696184  0.61257809
   0.56019788  0.34501299  0.60941940
   0.10478998  0.33288956  0.61128636
   0.83146576  0.34263792  0.61039199
   0.09939080  0.06423126  0.61160434
   0.57161978  0.60136405  0.60831276
   0.56165825  0.08409302  0.60885589
   0.58333333  0.08333333  0.38179910
   0.25350545  0.74984923  0.56071489
   0.16824552  0.91702193  0.47168706
   0.25896136  0.24339047  0.56142617
   0.24814105  0.49997903  0.56224187
   0.48679174  0.25406574  0.56545738
   0.16816897  0.16475724  0.47335670
   0.08333333  0.83333333  0.38179910
   0.91494272  0.66792372  0.47359479
   0.00315113  0.25254346  0.56801104
   0.00832662 -0.01163517  0.56510885
   0.58333333  0.33333333  0.38179910
   0.08333333  0.08333333  0.38179910
   0.74721964  0.00080804  0.56798250
   0.41752317  0.66737779  0.47284419
   0.74656926  0.25314659  0.56816565
   0.48670367  0.51112695  0.56654836
   0.66564518  0.66686101  0.47422598
   0.74718484  0.50739736  0.56618227
   0.41603141  0.91649956  0.47409202
   0.49261951  0.75707389  0.55973601
   0.83333333  0.08333333  0.38179910
   0.41636484  0.16509750  0.47406799
   0.49707303 -0.00674291  0.56001625
Direct configuration=    12
   0.33333333  0.33333333  0.38179910
   0.91840727  0.91690001  0.47451926
   0.83333333  0.83333333  0.38179910
   0.08333333  0.33333333  0.38179910
   0.08333333  0.58333333  0.38179910
   0.66505707  0.91824240  0.47313281
  -0.00091096  0.50868538  0.56585806
   0.92059815  0.16461047  0.47615199
   0.83333333  0.58333333  0.38179910
   0.91700971  0.41744026  0.47677735
   0.58333333  0.58333333  0.38179910
   0.33333333  0.08333333  0.38179910
   0.01675457  0.74452586  0.56934900
   0.66580045  0.41887429  0.47724484
   0.16776160  0.41419991  0.47413041
   0.83333333  0.33333333  0.38179910
   0.33333333  0.58333333  0.38179910
   0.16734167  0.66929755  0.47246478
   0.66613658  0.16672551  0.47480724
   0.33333333  0.83333333  0.38179910
   0.74042308  0.75010167  0.56400757
   0.58333333  0.83333333  0.38179910
   0.41839843  0.41590546  0.47442214
   0.26187420 -0.00521921  0.56247613
   0.84700554  0.07165033  0.60953625
   0.83988983  0.81660618  0.61373765
   0.55903164  0.34575330  0.61011369
   0.10643823  0.33277195  0.61221302
   0.83143407  0.34251177  0.61086059
   0.10009588  0.06353132  0.61252277
   0.57062536  0.60291063  0.60930554
   0.56074159  0.08361470  0.60952009
   0.58333333  0.08333333  0.38179910
   0.25312181  0.74993078  0.56132371
   0.16837873  0.91684321  0.47198965
   0.25944303  0.24286142  0.56163240
   0.24836158  0.49989544  0.56298283
   0.48707688  0.25379492  0.56573251
   0.16812832  0.16479077  0.47367130
   0.08333333  0.83333333  0.38179910
   0.91509776  0.66792558  0.47418136
   0.00338213  0.25243992  0.56909355
   0.00880855 -0.01104422  0.56551059
   0.58333333  0.33333333  0.38179910
   0.08333333  0.08333333  0.38179910
   0.74667958  0.00109507  0.56873262
   0.41735613  0.66737559  0.47299399
   0.74617006  0.25329774  0.56918030
   0.48623500  0.51105586  0.56698182
   0.66591242  0.66685207  0.47443754
   0.74655232  0.50816080  0.56680678
   0.41585444  0.91652464  0.47378733
   0.49332718  0.75610003  0.55988090
   0.83333333  0.08333333  0.38179910
   0.41666488  0.16499175  0.47414765
   0.49748036 -0.00625412  0.56027552
Direct configuration=    13
   0.33333333  0.33333333  0.38179910
   0.91933615  0.91596848  0.47579969
   0.83333333  0.83333333  0.38179910
   0.08333333  0.33333333  0.38179910
   0.08333333  0.58333333  0.38179910
   0.66606288  0.91783835  0.47326166
  -0.00366060  0.51050974  0.56830752
   0.92065023  0.16504007  0.47761894
   0.83333333  0.58333333  0.38179910
   0.91713975  0.41827956  0.47788006
   0.58333333  0.58333333  0.38179910
   0.33333333  0.08333333  0.38179910
   0.02020043  0.74303989  0.57286907
   0.66630648  0.41885194  0.47867540
   0.16762685  0.41530492  0.47503755
   0.83333333  0.33333333  0.38179910
   0.33333333  0.58333333  0.38179910
   0.16752096  0.66892238  0.47389010
   0.66609846  0.16733751  0.47616311
   0.33333333  0.83333333  0.38179910
   0.74084773  0.74644346  0.56503883
   0.58333333  0.83333333  0.38179910
   0.41719434  0.41655627  0.47533225
   0.25961791 -0.00408253  0.56337354
   0.84589961  0.07181957  0.61064614
   0.84003471  0.81553922  0.61721632
   0.55553293  0.34797423  0.61219655
   0.11138298  0.33241911  0.61499300
   0.83133899  0.34213330  0.61226636
   0.10221113  0.06143149  0.61527808
   0.56764209  0.60755038  0.61228388
   0.55799162  0.08217974  0.61151270
   0.58333333  0.08333333  0.38179910
   0.25197089  0.75017545  0.56315018
   0.16877836  0.91630704  0.47289741
   0.26088803  0.24127425  0.56225109
   0.24902317  0.49964469  0.56520572
   0.48793229  0.25298246  0.56655790
   0.16800638  0.16489139  0.47461512
   0.08333333  0.83333333  0.38179910
   0.91556288  0.66793115  0.47594105
   0.00407514  0.25212932  0.57234109
   0.01025434 -0.00927138  0.56671582
   0.58333333  0.33333333  0.38179910
   0.08333333  0.08333333  0.38179910
   0.74505941  0.00195614  0.57098299
   0.41685500  0.66736897  0.47344339
   0.74497247  0.25375119  0.57222425
   0.48482898  0.51084258  0.56828219
   0.66671414  0.66682526  0.47507223
   0.74465477  0.51045112  0.56868032
   0.41532355  0.91659989  0.47287323
   0.49545019  0.75317844  0.56031554
   0.83333333  0.08333333  0.38179910
   0.41756498  0.16467449  0.47438664
   0.49870236 -0.00478775  0.56105333
Direct configuration=    14
   0.33333333  0.33333333  0.38179910
   0.91947001  0.91600658  0.47637101
   0.83333333  0.83333333  0.38179910
   0.08333333  0.33333333  0.38179910
   0.08333333  0.58333333  0.38179910
   0.66641551  0.91767696  0.47338799
  -0.00446139  0.51122315  0.56927126
   0.92061738  0.16552902  0.47805098
   0.83333333  0.58333333  0.38179910
   0.91706923  0.41829783  0.47846889
   0.58333333  0.58333333  0.38179910
   0.33333333  0.08333333  0.38179910
   0.02043721  0.74293377  0.57446443
   0.66643073  0.41872218  0.47904996
   0.16753928  0.41568935  0.47555098
   0.83333333  0.33333333  0.38179910
   0.33333333  0.58333333  0.38179910
   0.16719834  0.66895447  0.47475286
   0.66660569  0.16731491  0.47649500
   0.33333333  0.83333333  0.38179910
   0.74192166  0.74620779  0.56561700
   0.58333333  0.83333333  0.38179910
   0.41720254  0.41664822  0.47589821
   0.26015393 -0.00476452  0.56355526
   0.84574111  0.07208925  0.61152400
   0.83943620  0.81564302  0.61829879
   0.55420411  0.34841397  0.61330885
   0.11369919  0.33172710  0.61582232
   0.83072213  0.34294881  0.61317535
   0.10301568  0.06100201  0.61640463
   0.56621380  0.60924016  0.61324957
   0.55704116  0.08208877  0.61238071
   0.58333333  0.08333333  0.38179910
   0.25197486  0.75015931  0.56368775
   0.16887497  0.91626126  0.47319998
   0.26006326  0.24201714  0.56282319
   0.24979713  0.49897262  0.56588712
   0.48809554  0.25278303  0.56700274
   0.16769581  0.16511418  0.47477758
   0.08333333  0.83333333  0.38179910
   0.91619938  0.66761291  0.47674518
   0.00543559  0.25181556  0.57395449
   0.01019295 -0.00886692  0.56727017
   0.58333333  0.33333333  0.38179910
   0.08333333  0.08333333  0.38179910