 vasp.5.4.1 24Jun15 (build Mar 14 2019 10:18:33) complex                        
  
 executed on INTEL-19.0.2+OPENMPI date 2023.01.31  00:25:12
 running on   36 total cores
 distrk:  each k-point on   36 cores,    1 groups
 distr:  one band on NCORES_PER_BAND=   6 cores,    6 groups


--------------------------------------------------------------------------------------------------------


 INCAR:
 POTCAR:    PAW_PBE Au 04Oct2007                  
 POTCAR:    PAW_PBE Pd 04Jan2005                  
 POTCAR:    PAW_PBE Au 04Oct2007                  
  local pseudopotential read in
  partial core-charges read in
  partial kinetic energy density read in
  atomic valenz-charges read in
  non local Contribution for L=           2  read in
    real space projection operators read in
  non local Contribution for L=           2  read in
    real space projection operators read in
  non local Contribution for L=           0  read in
    real space projection operators read in
  non local Contribution for L=           0  read in
    real space projection operators read in
  non local Contribution for L=           1  read in
    real space projection operators read in
  non local Contribution for L=           1  read in
    real space projection operators read in
    PAW grid and wavefunctions read in
 
   number of l-projection  operators is LMAX  =           6
   number of lm-projection operators is LMMAX =          18
 
 POTCAR:    PAW_PBE Pd 04Jan2005                  
  local pseudopotential read in
  partial core-charges read in
  partial kinetic energy density read in
  atomic valenz-charges read in
  non local Contribution for L=           2  read in
    real space projection operators read in
  non local Contribution for L=           2  read in
    real space projection operators read in
  non local Contribution for L=           0  read in
    real space projection operators read in
  non local Contribution for L=           0  read in
    real space projection operators read in
  non local Contribution for L=           1  read in
    real space projection operators read in
  non local Contribution for L=           1  read in
    real space projection operators read in
    PAW grid and wavefunctions read in
 
   number of l-projection  operators is LMAX  =           6
   number of lm-projection operators is LMMAX =          18
 
 Optimization of the real space projectors (new method)

 maximal supplied QI-value         = 15.12
 optimisation between [QCUT,QGAM] = [ 10.13, 20.41] = [ 28.73,116.64] Ry 
 Optimized for a Real-space Cutoff    1.51 Angstroem

   l    n(q)    QCUT    max X(q) W(low)/X(q) W(high)/X(q)  e(spline) 
   2      8    10.129    60.898    0.46E-03    0.46E-03    0.14E-06
   2      8    10.129    58.894    0.47E-03    0.47E-03    0.14E-06
   0      9    10.129   109.617    0.16E-03    0.11E-03    0.54E-07
   0      9    10.129    75.026    0.15E-03    0.11E-03    0.52E-07
   1      9    10.129    16.344    0.96E-04    0.15E-03    0.14E-06
   1      9    10.129    10.160    0.81E-04    0.12E-03    0.11E-06
 Optimization of the real space projectors (new method)

 maximal supplied QI-value         = 14.36
 optimisation between [QCUT,QGAM] = [ 10.20, 20.39] = [ 29.12,116.47] Ry 
 Optimized for a Real-space Cutoff    1.51 Angstroem

   l    n(q)    QCUT    max X(q) W(low)/X(q) W(high)/X(q)  e(spline) 
   2      8    10.197    59.108    0.26E-03    0.14E-03    0.96E-07
   2      8    10.197    58.101    0.27E-03    0.14E-03    0.98E-07
   0      9    10.197   102.235    0.54E-04    0.60E-05    0.72E-07
   0      9    10.197    58.388    0.52E-04    0.60E-05    0.68E-07
   1      9    10.197    22.191    0.18E-03    0.25E-03    0.79E-07
   1      9    10.197    15.590    0.15E-03    0.21E-03    0.69E-07
  PAW_PBE Au 04Oct2007                  :
 energy of atom  1       EATOM= -926.0867
 kinetic energy error for atom=    0.0062 (will be added to EATOM!!)
  PAW_PBE Pd 04Jan2005                  :
 energy of atom  2       EATOM= -809.7530
 kinetic energy error for atom=    0.0091 (will be added to EATOM!!)
 
 
 POSCAR: Au Pd                                   
  positions in cartesian coordinates
  No initial velocities read in
 exchange correlation table for  LEXCH =        8
   RHO(1)=    0.500       N(1)  =     2000
   RHO(2)=  100.500       N(2)  =     4000

 VTST: version 3.2, (02/03/18)

 CHAIN: initializing optimizer
 
 OPT: Using VASP Conjugate-Gradient optimizer
 CHAIN: Read ICHAIN            0
 
 POSCAR: Au Pd                                   
  positions in cartesian coordinates
  No initial velocities read in
 


--------------------------------------------------------------------------------------------------------


 ion  position               nearest neighbor table
   1  0.750  0.750  0.592-  30 2.75  47 2.75  17 2.75  22 2.75   2 2.75   7 2.75  21 2.75  11 2.75
                             3 2.75
   2  0.000  0.500  0.592-  47 2.75  16 2.75  11 2.75   1 2.75  27 2.75   4 2.75  34 2.75   7 2.75
                            37 2.75
   3  0.667  0.667  0.500-  26 2.75   7 2.75  21 2.75  15 2.75  30 2.75  37 2.75  44 2.75  40 2.75
                            47 2.75  43 2.75  42 2.75   1 2.75
   4  0.000  0.250  0.592-  37 2.75  24 2.75   9 2.75   2 2.75  33 2.75   7 2.75  12 2.75  27 2.75
                            10 2.75
   5  0.083  0.583  0.408-  28 2.75  13 2.75  25 2.75   8 2.75  38 2.75  42 2.75  46 2.75  16 2.75
                            47 2.75
   6  0.333  0.083  0.408-  32 2.75  25 2.75  19 2.75  38 2.75  43 2.75  31 2.75  36 2.75  44 2.75
                            24 2.75
   7  0.750  0.500  0.592-   3 2.75  37 2.75   4 2.75  12 2.75  21 2.75   1 2.75  23 2.75   2 2.75
                            15 2.75
   8  0.833  0.833  0.408-  35 2.75  18 2.75  31 2.75   5 2.75  42 2.75  13 2.75  43 2.75  47 2.75
                            30 2.75
   9  0.000  0.000  0.592-  10 2.75  20 2.75  11 2.75  12 2.75   4 2.75  48 2.75  33 2.75  17 2.75
                            35 2.75
  10  0.917  0.167  0.500-  18 2.75   9 2.75  12 2.75  15 2.75  20 2.75  35 2.75  37 2.75  24 2.75
                            41 2.75  45 2.75  36 2.75   4 2.75
  11  0.000  0.750  0.592-  35 2.75  28 2.75  17 2.75   2 2.75  34 2.75   9 2.75   1 2.75  48 2.75
                            47 2.75
  12  0.750  0.250  0.592-  15 2.75  10 2.75   7 2.75   9 2.75  17 2.75  23 2.75   4 2.75  39 2.75
                            41 2.75
  13  0.083  0.833  0.408-  20 2.75  18 2.75   5 2.75  36 2.75  46 2.75  19 2.75   8 2.75  28 2.75
                            35 2.75
  14  0.417  0.417  0.500-  25 2.75  39 2.75  34 2.75  28 2.75  32 2.75  40 2.75  41 2.75  16 2.75
                            15 2.75  46 2.75  23 2.75  29 2.75
  15  0.667  0.417  0.500-  29 2.75  12 2.75  23 2.75  10 2.75   3 2.75  40 2.75  41 2.75  14 2.75
                            37 2.75  26 2.75   7 2.75  45 2.75
  16  0.167  0.417  0.500-  38 2.75  27 2.75   2 2.75  28 2.75  32 2.75  24 2.75  47 2.75  14 2.75
                            37 2.75   5 2.75  34 2.75  25 2.75
  17  0.750  0.000  0.592-  41 2.75  35 2.75  12 2.75   1 2.75  39 2.75  11 2.75  22 2.75   9 2.75
                            30 2.75
  18  0.833  0.083  0.408-  10 2.75   8 2.75  13 2.75  29 2.75  45 2.75  36 2.75  31 2.75  35 2.75
                            41 2.75
  19  0.333  0.833  0.408-  44 2.75  26 2.75  36 2.75   6 2.75  46 2.75  13 2.75  43 2.75  40 2.75
                            20 2.75
  20  0.167  0.917  0.500-  13 2.75  48 2.75   9 2.75  24 2.75  28 2.75  40 2.75  10 2.75  44 2.75
                            35 2.75  36 2.75  33 2.75  19 2.75
  21  0.500  0.750  0.592-  44 2.75   3 2.75  22 2.75  23 2.75  33 2.75   7 2.75   1 2.75  48 2.75
                            40 2.75
  22  0.500  0.000  0.592-  32 2.75  30 2.75  27 2.75   1 2.75  21 2.75  39 2.75  33 2.75  17 2.75
                            44 2.75
  23  0.500  0.500  0.592-  40 2.75  15 2.75  21 2.75  39 2.75  12 2.75  48 2.75  34 2.75   7 2.75
                            14 2.75
  24  0.167  0.167  0.500-  36 2.75  33 2.75   4 2.75  16 2.75  20 2.75  37 2.75  44 2.75  10 2.75
                            32 2.75  38 2.75   6 2.75  27 2.75
  25  0.333  0.333  0.408-  14 2.75   6 2.75   5 2.75  31 2.75  46 2.75  38 2.75  29 2.75  32 2.75
                            16 2.75
  26  0.583  0.583  0.408-   3 2.75  19 2.75  29 2.75  43 2.75  45 2.75  42 2.75  46 2.75  15 2.75
                            40 2.75
  27  0.250  0.250  0.592-  16 2.75  32 2.75  22 2.75   2 2.75  33 2.75  34 2.75   4 2.75  39 2.75
                            24 2.75
  28  0.167  0.667  0.500-   5 2.75  34 2.75  11 2.75  16 2.75  20 2.75  14 2.75  35 2.75  40 2.75
                            47 2.75  13 2.75  46 2.75  48 2.75
  29  0.583  0.333  0.408-  15 2.75  18 2.75  26 2.75  31 2.75  46 2.75  45 2.75  25 2.75  41 2.75
                            14 2.75
  30  0.667  0.917  0.500-  43 2.75   1 2.75  22 2.75  32 2.75  41 2.75   3 2.75  47 2.75  44 2.75
                            35 2.75  31 2.75   8 2.75  17 2.75
  31  0.583  0.083  0.408-  41 2.75  25 2.75  29 2.75   8 2.75  43 2.75   6 2.75  18 2.75  30 2.75
                            32 2.75
  32  0.417  0.167  0.500-   6 2.75  22 2.75  27 2.75  14 2.75  16 2.75  30 2.75  44 2.75  41 2.75
                            24 2.75  25 2.75  31 2.75  39 2.75
  33  0.250  0.000  0.592-  24 2.75  44 2.75   4 2.75  27 2.75  21 2.75  48 2.75   9 2.75  22 2.75
                            20 2.75
  34  0.250  0.500  0.592-  28 2.75  14 2.75  27 2.75  11 2.75  39 2.75  48 2.75   2 2.75  23 2.75
                            16 2.75
  35  0.917  0.917  0.500-   8 2.75  11 2.75  17 2.75  10 2.75  28 2.75  41 2.75  47 2.75  20 2.75
                            30 2.75  18 2.75  13 2.75   9 2.75
  36  0.083  0.083  0.408-  24 2.75  19 2.75  13 2.75  38 2.75  45 2.75   6 2.75  18 2.75  20 2.75
                            10 2.75
  37  0.917  0.417  0.500-  45 2.75   4 2.75   7 2.75  10 2.75  24 2.75   3 2.75  47 2.75  16 2.75
                            15 2.75  42 2.75  38 2.75   2 2.75
  38  0.083  0.333  0.408-  16 2.75   6 2.75   5 2.75  36 2.75  42 2.75  25 2.75  45 2.75  24 2.75
                            37 2.75
  39  0.500  0.250  0.592-  14 2.75  41 2.75  22 2.75  23 2.75  34 2.75  17 2.75  12 2.75  27 2.75
                            32 2.75
  40  0.417  0.667  0.500-  46 2.75  23 2.75  48 2.75  14 2.75  44 2.75  15 2.75  20 2.75  28 2.75
                             3 2.75  19 2.75  21 2.75  26 2.75
  41  0.667  0.167  0.500-  31 2.75  17 2.75  39 2.75  30 2.75  15 2.75  35 2.75  14 2.75  10 2.75
                            32 2.75  29 2.75  12 2.75  18 2.75
  42  0.833  0.583  0.408-  47 2.75  38 2.75  43 2.75  45 2.75   8 2.75   5 2.75  26 2.75  37 2.75
                             3 2.75
  43  0.583  0.833  0.408-  30 2.75  26 2.75   6 2.75  31 2.75  42 2.75   8 2.75  19 2.75   3 2.75
                            44 2.75
  44  0.417  0.917  0.500-  19 2.75  21 2.75  33 2.75  24 2.75  32 2.75   3 2.75  40 2.75  30 2.75
                            20 2.75   6 2.75  22 2.75  43 2.75
  45  0.833  0.333  0.408-  37 2.75  26 2.75  36 2.75  18 2.75  42 2.75  38 2.75  29 2.75  10 2.75
                            15 2.75
  46  0.333  0.583  0.408-  40 2.75  19 2.75  25 2.75  29 2.75  13 2.75   5 2.75  26 2.75  14 2.75
                            28 2.75
  47  0.917  0.667  0.500-  42 2.75   2 2.75   1 2.75  30 2.75  35 2.75  37 2.75  16 2.75   3 2.75
                            28 2.75   8 2.75   5 2.75  11 2.75
  48  0.250  0.750  0.592-  20 2.75  40 2.75  23 2.75  33 2.75  34 2.75   9 2.75  11 2.75  21 2.75
                            28 2.75
 
  LATTYP: Found a hexagonal cell.
 ALAT       =    11.0025815153
 C/A-ratio  =     2.2260035120
  
  Lattice vectors:
  
 A1 = (   5.5012907576,  -9.5285150994,   0.0000000000)
 A2 = ( -11.0025815153,   0.0000000000,   0.0000000000)
 A3 = (   0.0000000000,   0.0000000000, -24.4917850943)


Analysis of symmetry for initial positions (statically):
=====================================================================
 Subroutine PRICEL returns:
 Original cell was already a primitive cell.
 

 Routine SETGRP: Setting up the symmetry group for a 
 hexagonal supercell.


 Subroutine GETGRP returns: Found  1 space group operations
 (whereof  1 operations were pure point group operations)
 out of a pool of 24 trial point group operations.


The static configuration has the point symmetry C_1 .


Analysis of symmetry for dynamics (positions and initial velocities):
=====================================================================
 Subroutine PRICEL returns:
 Original cell was already a primitive cell.
 

 Routine SETGRP: Setting up the symmetry group for a 
 hexagonal supercell.


 Subroutine GETGRP returns: Found  1 space group operations
 (whereof  1 operations were pure point group operations)
 out of a pool of 24 trial point group operations.


The dynamic configuration has the point symmetry C_1 .


Analysis of constrained symmetry for selective dynamics:
=====================================================================
 Subroutine PRICEL returns:
 Original cell was already a primitive cell.
 

 Routine SETGRP: Setting up the symmetry group for a 
 hexagonal supercell.


 Subroutine GETGRP returns: Found  1 space group operations
 (whereof  1 operations were pure point group operations)
 out of a pool of 24 trial point group operations.


The constrained configuration has the point symmetry C_1 .
 
 
 KPOINTS: Automatic mesh                          

Automatic generation of k-mesh.
Space group operators:
 irot       det(A)        alpha          n_x          n_y          n_z        tau_x        tau_y        tau_z
    1     1.000000     0.000000     1.000000     0.000000     0.000000     0.000000     0.000000     0.000000
 
 Subroutine IBZKPT returns following result:
 ===========================================
 
 Found      6 irreducible k-points:
 
 Following reciprocal coordinates:
            Coordinates               Weight
  0.250000  0.250000  0.000000     16.000000
  0.000000  0.250000  0.000000     16.000000
 -0.250000  0.000000  0.000000     16.000000
 -0.250000  0.250000  0.000000     16.000000
  0.500000 -0.250000  0.000000     16.000000
 -0.250000  0.500000  0.000000     16.000000
 
 Following cartesian coordinates:
            Coordinates               Weight
  0.022722  0.013119  0.000000     16.000000
  0.000000  0.026237  0.000000     16.000000
 -0.022722  0.013119  0.000000     16.000000
 -0.022722  0.039356  0.000000     16.000000
  0.045444 -0.052474  0.000000     16.000000
 -0.022722  0.065593  0.000000     16.000000
 


--------------------------------------------------------------------------------------------------------




 Dimension of arrays:
   k-points           NKPTS =      6   k-points in BZ     NKDIM =      6   number of bands    NBANDS=    306
   number of dos      NEDOS =    301   number of ions     NIONS =     48
   non local maximal  LDIM  =      6   non local SUM 2l+1 LMDIM =     18
   total plane-waves  NPLWV = 349920
   max r-space proj   IRMAX =   2009   max aug-charges    IRDMAX=   8532
   dimension x,y,z NGX =    54 NGY =   54 NGZ =  120
   dimension x,y,z NGXF=   108 NGYF=  108 NGZF=  240
   support grid    NGXF=   108 NGYF=  108 NGZF=  240
   ions per type =              24  24
 NGX,Y,Z   is equivalent  to a cutoff of   8.16,  8.16,  8.15 a.u.
 NGXF,Y,Z  is equivalent  to a cutoff of  16.32, 16.32, 16.29 a.u.


 I would recommend the setting:
   dimension x,y,z NGX =    54 NGY =   54 NGZ =  120
 SYSTEM =  unknown system                          
 POSCAR =  Au Pd                                   

 Startparameter for this run:
   NWRITE =      1    write-flag & timer
   PREC   = normal    normal or accurate (medium, high low for compatibility)
   ISTART =      0    job   : 0-new  1-cont  2-samecut
   ICHARG =      2    charge: 1-file 2-atom 10-const
   ISPIN  =      1    spin polarized calculation?
   LNONCOLLINEAR =      F non collinear calculations
   LSORBIT =      F    spin-orbit coupling
   INIWAV =      1    electr: 0-lowe 1-rand  2-diag
   LASPH  =      F    aspherical Exc in radial PAW
   METAGGA=      F    non-selfconsistent MetaGGA calc.

 Electronic Relaxation 1
   ENCUT  =  400.0 eV  29.40 Ry    5.42 a.u.  17.94 17.94 39.94*2*pi/ulx,y,z
   ENINI  =  400.0     initial cutoff
   ENAUG  =  416.2 eV  augmentation charge cutoff
   NELM   =    500;   NELMIN=  2; NELMDL= -5     # of ELM steps 
   EDIFF  = 0.1E-05   stopping-criterion for ELM
   LREAL  =      T    real-space projection
   NLSPLINE    = F    spline interpolate recip. space projectors
   LCOMPAT=      F    compatible to vasp.4.4
   GGA_COMPAT  = T    GGA compatible to vasp.4.4-vasp.4.6
   LMAXPAW     = -100 max onsite density
   LMAXMIX     =    2 max onsite mixed and CHGCAR
   VOSKOWN=      1    Vosko Wilk Nusair interpolation
   ROPT   =   -0.00050  -0.00050
 Ionic relaxation
   EDIFFG = -.2E-01   stopping-criterion for IOM
   NSW    =    500    number of steps for IOM
   NBLOCK =      1;   KBLOCK =    500    inner block; outer block 
   IBRION =      2    ionic relax: 0-MD 1-quasi-New 2-CG
   NFREE  =      2    steps in history (QN), initial steepest desc. (CG)
   ISIF   =      0    stress and relaxation
   IWAVPR =     11    prediction:  0-non 1-charg 2-wave 3-comb
   ISYM   =      2    0-nonsym 1-usesym 2-fastsym
   LCORR  =      T    Harris-Foulkes like correction to forces

   POTIM  = 0.3500    time-step for ionic-motion
   TEIN   =    0.0    initial temperature
   TEBEG  =    0.0;   TEEND  =   0.0 temperature during run
   SMASS  =  -3.00    Nose mass-parameter (am)
   estimated Nose-frequenzy (Omega)   =  0.10E-29 period in steps =****** mass=  -0.277E-26a.u.
   SCALEE = 1.0000    scale energy and forces
   NPACO  =    256;   APACO  = 16.0  distance and # of slots for P.C.
   PSTRESS=    0.0 pullay stress

  Mass of Ions in am
   POMASS = 196.97106.42
  Ionic Valenz
   ZVAL   =  11.00 10.00
  Atomic Wigner-Seitz radii
   RWIGS  =  -1.00 -1.00
  virtual crystal weights 
   VCA    =   1.00  1.00
   NELECT =     504.0000    total number of electrons
   NUPDOWN=      -1.0000    fix difference up-down

 DOS related values:
   EMIN   =  10.00;   EMAX   =-10.00  energy-range for DOS
   EFERMI =   0.00
   ISMEAR =     0;   SIGMA  =   0.10  broadening in eV -4-tet -1-fermi 0-gaus

 Electronic relaxation 2 (details)
   IALGO  =     68    algorithm
   LDIAG  =      T    sub-space diagonalisation (order eigenvalues)
   LSUBROT=      F    optimize rotation matrix (better conditioning)
   TURBO    =      0    0=normal 1=particle mesh
   IRESTART =      0    0=no restart 2=restart with 2 vectors
   NREBOOT  =      0    no. of reboots
   NMIN     =      0    reboot dimension
   EREF     =   0.00    reference energy to select bands
   IMIX   =      4    mixing-type and parameters
     AMIX     =   0.40;   BMIX     =  1.00
     AMIX_MAG =   1.60;   BMIX_MAG =  1.00
     AMIN     =   0.10
     WC   =   100.;   INIMIX=   1;  MIXPRE=   1;  MAXMIX= -45

 Intra band minimization:
   WEIMIN = 0.0010     energy-eigenvalue tresh-hold
   EBREAK =  0.82E-09  absolut break condition
   DEPER  =   0.30     relativ break condition  

   TIME   =   0.40     timestep for ELM

  volume/ion in A,a.u.               =      53.49       360.99
  Fermi-wavevector in a.u.,A,eV,Ry     =   0.951418  1.797920 12.315955  0.905197
  Thomas-Fermi vector in A             =   2.079887
 
 Write flags
   LWAVE  =      F    write WAVECAR
   LCHARG =      F    write CHGCAR
   LVTOT  =      F    write LOCPOT, total local potential
   LVHAR  =      F    write LOCPOT, Hartree potential only
   LELF   =      F    write electronic localiz. function (ELF)
   LORBIT =      0    0 simple, 1 ext, 2 COOP (PROOUT)


 Dipole corrections
   LMONO  =      F    monopole corrections only (constant potential shift)
   LDIPOL =      T    correct potential (dipole corrections)
   IDIPOL =      3    1-x, 2-y, 3-z, 4-all directions 
   EPSILON=  1.0000000 bulk dielectric constant

 Exchange correlation treatment:
   GGA     =    PE    GGA type
   LEXCH   =     8    internal setting for exchange type
   VOSKOWN=      1    Vosko Wilk Nusair interpolation
   LHFCALC =     F    Hartree Fock is set to
   LHFONE  =     F    Hartree Fock one center treatment
   AEXX    =    0.0000 exact exchange contribution

 Linear response parameters
   LEPSILON=     F    determine dielectric tensor
   LRPA    =     F    only Hartree local field effects (RPA)
   LNABLA  =     F    use nabla operator in PAW spheres
   LVEL    =     F    velocity operator in full k-point grid
   LINTERFAST=   F  fast interpolation
   KINTER  =     0    interpolate to denser k-point grid
   CSHIFT  =0.1000    complex shift for real part using Kramers Kronig
   OMEGAMAX=  -1.0    maximum frequency
   DEG_THRESHOLD= 0.2000000E-02 threshold for treating states as degnerate
   RTIME   =    0.100 relaxation time in fs

 Orbital magnetization related:
   ORBITALMAG=     F  switch on orbital magnetization
   LCHIMAG   =     F  perturbation theory with respect to B field
   DQ        =  0.001000  dq finite difference perturbation B field



--------------------------------------------------------------------------------------------------------


 conjugate gradient relaxation of ions
   using selective dynamics as specified on POSCAR
   WARNING: If single coordinates had been selected the selection of coordinates
            is made according to the corresponding   d i r e c t   coordinates!
            Don't support selection of single cartesian coordinates -- sorry ...
  !
 charge density and potential will be updated during run
 non-spin polarized calculation
 RMM-DIIS sequential band-by-band and
  variant of blocked Davidson during initial phase
 perform sub-space diagonalisation
    before iterative eigenvector-optimisation
 modified Broyden-mixing scheme, WC =      100.0
 initial mixing is a Kerker type mixing with AMIX =  0.4000 and BMIX =      1.0000
 Hartree-type preconditioning will be used
 using additional bands           54
 real space projection scheme for non local part
 use partial core corrections
 calculate Harris-corrections to forces 
   (improved forces if not selfconsistent)
 use gradient corrections 
 use of overlap-Matrix (Vanderbilt PP)
 Gauss-broadening in eV      SIGMA  =   0.10


--------------------------------------------------------------------------------------------------------


  energy-cutoff  :      400.00
  volume of cell :     2567.68
      direct lattice vectors                 reciprocal lattice vectors
    11.002581515  0.000000000  0.000000000     0.090887761 -0.052474073  0.000000000
     5.501290758  9.528515099  0.000000000     0.000000000  0.104948147  0.000000000
     0.000000000  0.000000000 24.491785094     0.000000000  0.000000000  0.040830017

  length of vectors
    11.002581515 11.002581515 24.491785094     0.104948147  0.104948147  0.040830017


 
 k-points in units of 2pi/SCALE and weight: Automatic mesh                          
   0.02272194  0.01311852  0.00000000       0.167
   0.00000000  0.02623704  0.00000000       0.167
  -0.02272194  0.01311852  0.00000000       0.167
  -0.02272194  0.03935555  0.00000000       0.167
   0.04544388 -0.05247407  0.00000000       0.167
  -0.02272194  0.06559259  0.00000000       0.167
 
 k-points in reciprocal lattice and weights: Automatic mesh                          
   0.25000000  0.25000000  0.00000000       0.167
   0.00000000  0.25000000  0.00000000       0.167
  -0.25000000  0.00000000  0.00000000       0.167
  -0.25000000  0.25000000  0.00000000       0.167
   0.50000000 -0.25000000  0.00000000       0.167
  -0.25000000  0.50000000  0.00000000       0.167
 
 position of ions in fractional coordinates (direct lattice) 
   0.75000000  0.75000000  0.59169983
   0.00000000  0.50000000  0.59169983
   0.66666667  0.66666667  0.50000000
   0.00000000  0.25000000  0.59169983
   0.08333333  0.58333333  0.40830017
   0.33333333  0.08333333  0.40830017
   0.75000000  0.50000000  0.59169983
   0.83333333  0.83333333  0.40830017
   0.00000000  0.00000000  0.59169983
   0.91666667  0.16666667  0.50000000
   0.00000000  0.75000000  0.59169983
   0.75000000  0.25000000  0.59169983
   0.08333333  0.83333333  0.40830017
   0.41666667  0.41666667  0.50000000
   0.66666667  0.41666667  0.50000000
   0.16666667  0.41666667  0.50000000
   0.75000000  0.00000000  0.59169983
   0.83333333  0.08333333  0.40830017
   0.33333333  0.83333333  0.40830017
   0.16666667  0.91666667  0.50000000
   0.50000000  0.75000000  0.59169983
   0.50000000  0.00000000  0.59169983
   0.50000000  0.50000000  0.59169983
   0.16666667  0.16666667  0.50000000
   0.33333333  0.33333333  0.40830017
   0.58333333  0.58333333  0.40830017
   0.25000000  0.25000000  0.59169983
   0.16666667  0.66666667  0.50000000
   0.58333333  0.33333333  0.40830017
   0.66666667  0.91666667  0.50000000
   0.58333333  0.08333333  0.40830017
   0.41666667  0.16666667  0.50000000
   0.25000000  0.00000000  0.59169983
   0.25000000  0.50000000  0.59169983
   0.91666667  0.91666667  0.50000000
   0.08333333  0.08333333  0.40830017
   0.91666667  0.41666667  0.50000000
   0.08333333  0.33333333  0.40830017
   0.50000000  0.25000000  0.59169983
   0.41666667  0.66666667  0.50000000
   0.66666667  0.16666667  0.50000000
   0.83333333  0.58333333  0.40830017
   0.58333333  0.83333333  0.40830017
   0.41666667  0.91666667  0.50000000
   0.83333333  0.33333333  0.40830017
   0.33333333  0.58333333  0.40830017
   0.91666667  0.66666667  0.50000000
   0.25000000  0.75000000  0.59169983
 
 position of ions in cartesian coordinates  (Angst):
  12.37790420  7.14638632 14.49178509
   2.75064538  4.76425755 14.49178509
  11.00258152  6.35234340 12.24589255
   1.37532269  2.38212877 14.49178509
   4.12596807  5.55830047 10.00000000
   4.12596807  0.79404292 10.00000000
  11.00258152  4.76425755 14.49178509
  13.75322689  7.94042925 10.00000000
   0.00000000  0.00000000 14.49178509
  11.00258152  1.58808585 12.24589255
   4.12596807  7.14638632 14.49178509
   9.62725883  2.38212877 14.49178509
   5.50129076  7.94042925 10.00000000
   6.87661345  3.97021462 12.24589255
   9.62725883  3.97021462 12.24589255
   4.12596807  3.97021462 12.24589255
   8.25193614  0.00000000 14.49178509
   9.62725883  0.79404292 10.00000000
   8.25193614  7.94042925 10.00000000
   6.87661345  8.73447217 12.24589255
   9.62725883  7.14638632 14.49178509
   5.50129076  0.00000000 14.49178509
   8.25193614  4.76425755 14.49178509
   2.75064538  1.58808585 12.24589255
   5.50129076  3.17617170 10.00000000
   9.62725883  5.55830047 10.00000000
   4.12596807  2.38212877 14.49178509
   5.50129076  6.35234340 12.24589255
   8.25193614  3.17617170 10.00000000
  12.37790420  8.73447217 12.24589255
   6.87661345  0.79404292 10.00000000
   5.50129076  1.58808585 12.24589255
   2.75064538  0.00000000 14.49178509
   5.50129076  4.76425755 14.49178509
  15.12854958  8.73447217 12.24589255
   1.37532269  0.79404292 10.00000000
  12.37790420  3.97021462 12.24589255
   2.75064538  3.17617170 10.00000000
   6.87661345  2.38212877 14.49178509
   8.25193614  6.35234340 12.24589255
   8.25193614  1.58808585 12.24589255
  12.37790420  5.55830047 10.00000000
  11.00258152  7.94042925 10.00000000
   9.62725883  8.73447217 12.24589255
  11.00258152  3.17617170 10.00000000
   6.87661345  5.55830047 10.00000000
  13.75322689  6.35234340 12.24589255
   6.87661345  7.14638632 14.49178509
 


--------------------------------------------------------------------------------------------------------


 k-point  1 :   0.2500 0.2500 0.0000  plane waves:   46635
 k-point  2 :   0.0000 0.2500 0.0000  plane waves:   46635
 k-point  3 :  -0.2500 0.0000 0.0000  plane waves:   46635
 k-point  4 :  -0.2500 0.2500 0.0000  plane waves:   46644
 k-point  5 :   0.5000-0.2500 0.0000  plane waves:   46644
 k-point  6 :  -0.2500 0.5000 0.0000  plane waves:   46644

 maximum and minimum number of plane-waves per node :      7818     7732

 maximum number of plane-waves:     46644
 maximum index in each direction: 
   IXMAX=   18   IYMAX=   18   IZMAX=   39
   IXMIN=  -18   IYMIN=  -18   IZMIN=  -39

 WARNING: aliasing errors must be expected set NGX to  74 to avoid them
 WARNING: aliasing errors must be expected set NGY to  74 to avoid them
 WARNING: aliasing errors must be expected set NGZ to 158 to avoid them
 aliasing errors are usually negligible using standard VASP settings
 and one can safely disregard these warnings

 real space projection operators:
  total allocation   :      12803.06 KBytes
  max/ min on nodes  :       2145.66       2127.94


 parallel 3D FFT for wavefunctions:
    minimum data exchange during FFTs selected (reduces bandwidth)
 parallel 3D FFT for charge:
    minimum data exchange during FFTs selected (reduces bandwidth)


 total amount of memory used by VASP on root node    84353. kBytes
========================================================================

   base      :      30000. kBytes
   nonlr-proj:       4285. kBytes
   fftplans  :       4447. kBytes
   grid      :       6721. kBytes
   one-center:        124. kBytes
   wavefun   :      38776. kBytes
 
     INWAV:  cpu time    0.0000: real time    0.0000
 Broyden mixing: mesh for mixing (old mesh)
   NGX = 35   NGY = 35   NGZ = 79
  (NGX  =108   NGY  =108   NGZ  =240)
  gives a total of  96775 points

 initial charge density was supplied:
 charge density of overlapping atoms calculated
 number of electron     504.0000000 magnetization 
 keeping initial charge density in first step


--------------------------------------------------------------------------------------------------------


 Maximum index for non-local projection operator          355
 Maximum index for augmentation-charges          437 (set IRDMAX)


--------------------------------------------------------------------------------------------------------


 First call to EWALD:  gamma=   0.129
 Maximum number of real-space cells 4x 4x 2
 Maximum number of reciprocal cells 2x 2x 5

 FEWALD executed in parallel
    FEWALD:  cpu time    0.0022: real time    0.0024


----------------------------------------- Iteration    1(   1)  ---------------------------------------


    POTLOK:  cpu time    0.0468: real time    0.0471
    SETDIJ:  cpu time    0.0060: real time    0.0060
     EDDAV:  cpu time    6.8839: real time    6.9049
       DOS:  cpu time    0.0014: real time    0.0014
    --------------------------------------------
      LOOP:  cpu time    6.9409: real time    6.9671

 eigenvalue-minimisations  :  3672
 total energy-change (2. order) : 0.3200405E+04  (-0.1898017E+05)
 number of electron     504.0000000 magnetization 
 augmentation part      504.0000000 magnetization 

 DIPCOR: dipole corrections for dipol
 direction  3 min pos     1,
 dipolmoment           0.000000      0.000000     -0.000004 electrons x Angstroem
 Tr[quadrupol]    -10241.173216

 energy correction for charged system         0.000000 eV
 dipol+quadrupol energy correction           -0.000000 eV
 added-field ion interaction          0.000003 eV  (added to PSCEN)


 Free energy of the ion-electron system (eV)
  ---------------------------------------------------
  alpha Z        PSCENC =       805.86936721
  Ewald energy   TEWEN  =    199939.08935982
  -Hartree energ DENC   =   -242352.53084977
  -exchange      EXHF   =         0.00000000
  -V(xc)+E(xc)   XCENC  =      -327.69370108
  PAW double counting   =     40340.05962942   -38292.62782345
  entropy T*S    EENTRO =        -0.12459219
  eigenvalues    EBANDS =      1428.57763673
  atomic energy  EATOM  =     41659.78587232
  Solvation  Ediel_sol  =         0.00000000
  ---------------------------------------------------
  free energy    TOTEN  =      3200.40489902 eV

  energy without entropy =     3200.52949121  energy(sigma->0) =     3200.46719512


--------------------------------------------------------------------------------------------------------




----------------------------------------- Iteration    1(   2)  ---------------------------------------


     EDDAV:  cpu time    8.0080: real time    8.0332
       DOS:  cpu time    0.0014: real time    0.0015
    --------------------------------------------
      LOOP:  cpu time    8.0102: real time    8.0368

 eigenvalue-minimisations  :  4380
 total energy-change (2. order) :-0.3184759E+04  (-0.2935061E+04)
 number of electron     504.0000000 magnetization 
 augmentation part      504.0000000 magnetization 

 DIPCOR: dipole corrections for dipol
 direction  3 min pos     1,
 dipolmoment           0.000000      0.000000     -0.000004 electrons x Angstroem
 Tr[quadrupol]    -10241.173216

 energy correction for charged system         0.000000 eV
 dipol+quadrupol energy correction           -0.000000 eV
 added-field ion interaction          0.000003 eV  (added to PSCEN)


 Free energy of the ion-electron system (eV)
  ---------------------------------------------------
  alpha Z        PSCENC =       805.86936721
  Ewald energy   TEWEN  =    199939.08935982
  -Hartree energ DENC   =   -242352.53084977
  -exchange      EXHF   =         0.00000000
  -V(xc)+E(xc)   XCENC  =      -327.69370108
  PAW double counting   =     40340.05962942   -38292.62782345
  entropy T*S    EENTRO =        -0.13079060
  eigenvalues    EBANDS =     -1756.17475683
  atomic energy  EATOM  =     41659.78587232
  Solvation  Ediel_sol  =         0.00000000
  ---------------------------------------------------
  free energy    TOTEN  =        15.64630706 eV

  energy without entropy =       15.77709766  energy(sigma->0) =       15.71170236


--------------------------------------------------------------------------------------------------------




----------------------------------------- Iteration    1(   3)  ---------------------------------------


     EDDAV:  cpu time    7.9332: real time    7.9545
       DOS:  cpu time    0.0016: real time    0.0016
    --------------------------------------------
      LOOP:  cpu time    7.9352: real time    7.9580

 eigenvalue-minimisations  :  4140
 total energy-change (2. order) :-0.2169371E+03  (-0.2014315E+03)
 number of electron     504.0000000 magnetization 
 augmentation part      504.0000000 magnetization 

 DIPCOR: dipole corrections for dipol
 direction  3 min pos     1,
 dipolmoment           0.000000      0.000000     -0.000004 electrons x Angstroem
 Tr[quadrupol]    -10241.173216

 energy correction for charged system         0.000000 eV
 dipol+quadrupol energy correction           -0.000000 eV
 added-field ion interaction          0.000003 eV  (added to PSCEN)


 Free energy of the ion-electron system (eV)
  ---------------------------------------------------
  alpha Z        PSCENC =       805.86936721
  Ewald energy   TEWEN  =    199939.08935982
  -Hartree energ DENC   =   -242352.53084977
  -exchange      EXHF   =         0.00000000
  -V(xc)+E(xc)   XCENC  =      -327.69370108
  PAW double counting   =     40340.05962942   -38292.62782345
  entropy T*S    EENTRO =        -0.18273627
  eigenvalues    EBANDS =     -1973.05994558
  atomic energy  EATOM  =     41659.78587232
  Solvation  Ediel_sol  =         0.00000000
  ---------------------------------------------------
  free energy    TOTEN  =      -201.29082737 eV

  energy without entropy =     -201.10809110  energy(sigma->0) =     -201.19945923


--------------------------------------------------------------------------------------------------------




----------------------------------------- Iteration    1(   4)  ---------------------------------------


     EDDAV:  cpu time    8.1064: real time    8.1317
       DOS:  cpu time    0.0016: real time    0.0016
    --------------------------------------------
      LOOP:  cpu time    8.1085: real time    8.1369

 eigenvalue-minimisations  :  4236
 total energy-change (2. order) :-0.5835658E+01  (-0.5767251E+01)
 number of electron     504.0000000 magnetization 
 augmentation part      504.0000000 magnetization 

 DIPCOR: dipole corrections for dipol
 direction  3 min pos     1,
 dipolmoment           0.000000      0.000000     -0.000004 electrons x Angstroem
 Tr[quadrupol]    -10241.173216

 energy correction for charged system         0.000000 eV
 dipol+quadrupol energy correction           -0.000000 eV
 added-field ion interaction          0.000003 eV  (added to PSCEN)


 Free energy of the ion-electron system (eV)
  ---------------------------------------------------
  alpha Z        PSCENC =       805.86936721
  Ewald energy   TEWEN  =    199939.08935982
  -Hartree energ DENC   =   -242352.53084977
  -exchange      EXHF   =         0.00000000
  -V(xc)+E(xc)   XCENC  =      -327.69370108
  PAW double counting   =     40340.05962942   -38292.62782345
  entropy T*S    EENTRO =        -0.19051706
  eigenvalues    EBANDS =     -1978.88782273
  atomic energy  EATOM  =     41659.78587232
  Solvation  Ediel_sol  =         0.00000000
  ---------------------------------------------------
  free energy    TOTEN  =      -207.12648530 eV

  energy without entropy =     -206.93596825  energy(sigma->0) =     -207.03122677


--------------------------------------------------------------------------------------------------------




----------------------------------------- Iteration    1(   5)  ---------------------------------------


     EDDAV:  cpu time    8.2697: real time    8.3742
       DOS:  cpu time    0.0015: real time    0.0015
    CHARGE:  cpu time    0.2379: real time    0.2384
    MIXING:  cpu time    0.0020: real time    0.0022
    --------------------------------------------
      LOOP:  cpu time    8.5117: real time    8.6201

 eigenvalue-minimisations  :  4380
 total energy-change (2. order) :-0.1874351E+00  (-0.1868931E+00)
 number of electron     503.9998404 magnetization 
 augmentation part      191.2726129 magnetization 

 DIPCOR: dipole corrections for dipol
 direction  3 min pos     1,
 dipolmoment           0.000000      0.000000     -0.000004 electrons x Angstroem
 Tr[quadrupol]    -10241.173216

 energy correction for charged system         0.000000 eV
 dipol+quadrupol energy correction           -0.000000 eV
 added-field ion interaction          0.000003 eV  (added to PSCEN)


 Broyden mixing:
  rms(total) = 0.62273E+01    rms(broyden)= 0.62273E+01
  rms(prec ) = 0.63778E+01
  weight for this iteration     100.00

 Free energy of the ion-electron system (eV)
  ---------------------------------------------------
  alpha Z        PSCENC =       805.86936721
  Ewald energy   TEWEN  =    199939.08935982
  -Hartree energ DENC   =   -242352.53084977
  -exchange      EXHF   =         0.00000000
  -V(xc)+E(xc)   XCENC  =      -327.69370108
  PAW double counting   =     40340.05962942   -38292.62782345
  entropy T*S    EENTRO =        -0.19039779
  eigenvalues    EBANDS =     -1979.07537713
  atomic energy  EATOM  =     41659.78587232
  Solvation  Ediel_sol  =         0.00000000
  ---------------------------------------------------
  free energy    TOTEN  =      -207.31392044 eV

  energy without entropy =     -207.12352265  energy(sigma->0) =     -207.21872155


--------------------------------------------------------------------------------------------------------




----------------------------------------- Iteration    1(   6)  ---------------------------------------


    POTLOK:  cpu time    0.0425: real time    0.0427
    SETDIJ:  cpu time    0.0062: real time    0.0063
    EDDIAG:  cpu time    1.2246: real time    1.2346
  RMM-DIIS:  cpu time    3.4235: real time    3.4330
    ORTHCH:  cpu time    0.2946: real time    0.2953
       DOS:  cpu time    0.0014: real time    0.0014
    CHARGE:  cpu time    0.2403: real time    0.2411
    MIXING:  cpu time    0.0020: real time    0.0020
    --------------------------------------------
      LOOP:  cpu time    5.2358: real time    5.2600

 eigenvalue-minimisations  :  3674
 total energy-change (2. order) :-0.4694205E+01  (-0.1087279E+02)
 number of electron     503.9998440 magnetization 
 augmentation part      190.0893523 magnetization 

 DIPCOR: dipole corrections for dipol
 direction  3 min pos     1,
 dipolmoment           0.000000      0.000000     -1.678996 electrons x Angstroem
 Tr[quadrupol]    -10243.283480

 energy correction for charged system         0.000000 eV
 dipol+quadrupol energy correction           -0.099335 eV
 added-field ion interaction          1.328745 eV  (added to PSCEN)


 Broyden mixing:
  rms(total) = 0.60403E+01    rms(broyden)= 0.60402E+01
  rms(prec ) = 0.66237E+01
  weight for this iteration     100.00

 eigenvalues of (default mixing * dielectric matrix)
  average eigenvalue GAMMA=   0.5669
  0.5669

 Free energy of the ion-electron system (eV)
  ---------------------------------------------------
  alpha Z        PSCENC =       807.09877407
  Ewald energy   TEWEN  =    199939.08935982
  -Hartree energ DENC   =   -242124.60552997
  -exchange      EXHF   =         0.00000000
  -V(xc)+E(xc)   XCENC  =      -340.42541385
  PAW double counting   =     43907.79984709   -41919.78452106
  entropy T*S    EENTRO =        -0.31176821
  eigenvalues    EBANDS =     -2140.65474599
  atomic energy  EATOM  =     41659.78587232
  Solvation  Ediel_sol  =         0.00000000
  ---------------------------------------------------
  free energy    TOTEN  =      -212.00812576 eV

  energy without entropy =     -211.69635756  energy(sigma->0) =     -211.85224166


--------------------------------------------------------------------------------------------------------




----------------------------------------- Iteration    1(   7)  ---------------------------------------


    POTLOK:  cpu time    0.0418: real time    0.0425
    SETDIJ:  cpu time    0.0059: real time    0.0060
    EDDIAG:  cpu time    1.2329: real time    1.2381
  RMM-DIIS:  cpu time    3.3995: real time    3.4101
    ORTHCH:  cpu time    0.2952: real time    0.2959
       DOS:  cpu time    0.0015: real time    0.0017
    CHARGE:  cpu time    0.2363: real time    0.2369
    MIXING:  cpu time    0.0020: real time    0.0020
    --------------------------------------------
      LOOP:  cpu time    5.2158: real time    5.2364

 eigenvalue-minimisations  :  3679
 total energy-change (2. order) :-0.8004697E+01  (-0.6117869E+01)
 number of electron     503.9998379 magnetization 
 augmentation part      193.7152232 magnetization 

 DIPCOR: dipole corrections for dipol
 direction  3 min pos     1,
 dipolmoment           0.000000      0.000000      1.424976 electrons x Angstroem
 Tr[quadrupol]    -10242.488169

 energy correction for charged system         0.000000 eV
 dipol+quadrupol energy correction           -0.071551 eV
 added-field ion interaction         -1.127715 eV  (added to PSCEN)


 Broyden mixing:
  rms(total) = 0.55375E+01    rms(broyden)= 0.55372E+01
  rms(prec ) = 0.66529E+01
  weight for this iteration     100.00

 eigenvalues of (default mixing * dielectric matrix)
  average eigenvalue GAMMA=   0.6613
  1.0534  0.2692

 Free energy of the ion-electron system (eV)
  ---------------------------------------------------
  alpha Z        PSCENC =       804.67009783
  Ewald energy   TEWEN  =    199939.08935982
  -Hartree energ DENC   =   -242010.64842459
  -exchange      EXHF   =         0.00000000
  -V(xc)+E(xc)   XCENC  =      -342.59755382
  PAW double counting   =     44911.14212770   -42944.04269005
  entropy T*S    EENTRO =        -0.20305263
  eigenvalues    EBANDS =     -2237.20855951
  atomic energy  EATOM  =     41659.78587232
  Solvation  Ediel_sol  =         0.00000000
  ---------------------------------------------------
  free energy    TOTEN  =      -220.01282293 eV

  energy without entropy =     -219.80977030  energy(sigma->0) =     -219.91129662


--------------------------------------------------------------------------------------------------------




----------------------------------------- Iteration    1(   8)  ---------------------------------------


    POTLOK:  cpu time    0.0420: real time    0.0422
    SETDIJ:  cpu time    0.0057: real time    0.0057
    EDDIAG:  cpu time    1.2452: real time    1.2495
  RMM-DIIS:  cpu time    3.3932: real time    3.4034
    ORTHCH:  cpu time    0.2914: real time    0.2924
       DOS:  cpu time    0.0015: real time    0.0015
    CHARGE:  cpu time    0.2388: real time    0.2394
    MIXING:  cpu time    0.0021: real time    0.0021
    --------------------------------------------
      LOOP:  cpu time    5.2206: real time    5.2406

 eigenvalue-minimisations  :  3677
 total energy-change (2. order) : 0.7501924E+01  (-0.8945923E+01)
 number of electron     503.9998348 magnetization 
 augmentation part      197.7964637 magnetization 

 DIPCOR: dipole corrections for dipol
 direction  3 min pos     1,
 dipolmoment           0.000000      0.000000     -1.068639 electrons x Angstroem
 Tr[quadrupol]    -10242.562021

 energy correction for charged system         0.000000 eV
 dipol+quadrupol energy correction           -0.040241 eV
 added-field ion interaction          0.845713 eV  (added to PSCEN)


 Broyden mixing:
  rms(total) = 0.39342E+01    rms(broyden)= 0.39338E+01
  rms(prec ) = 0.43630E+01
  weight for this iteration     100.00

 eigenvalues of (default mixing * dielectric matrix)
  average eigenvalue GAMMA=   0.8077
  1.7904  0.4249  0.2078

 Free energy of the ion-electron system (eV)
  ---------------------------------------------------
  alpha Z        PSCENC =       806.67483683
  Ewald energy   TEWEN  =    199939.08935982
  -Hartree energ DENC   =   -241931.11448800
  -exchange      EXHF   =         0.00000000
  -V(xc)+E(xc)   XCENC  =      -344.70614819
  PAW double counting   =     46188.83199107   -44245.52691566
  entropy T*S    EENTRO =        -0.21285416
  eigenvalues    EBANDS =     -2285.33255254
  atomic energy  EATOM  =     41659.78587232
  Solvation  Ediel_sol  =         0.00000000
  ---------------------------------------------------
  free energy    TOTEN  =      -212.51089851 eV

  energy without entropy =     -212.29804434  energy(sigma->0) =     -212.40447142


--------------------------------------------------------------------------------------------------------




----------------------------------------- Iteration    1(   9)  ---------------------------------------


    POTLOK:  cpu time    0.0418: real time    0.0419
    SETDIJ:  cpu time    0.0057: real time    0.0057
    EDDIAG:  cpu time    1.2331: real time    1.2363
  RMM-DIIS:  cpu time    3.4572: real time    3.4669
    ORTHCH:  cpu time    0.2906: real time    0.2913
       DOS:  cpu time    0.0015: real time    0.0015
    CHARGE:  cpu time    0.2426: real time    0.2434
    MIXING:  cpu time    0.0021: real time    0.0021
    --------------------------------------------
      LOOP:  cpu time    5.2752: real time    5.2931

 eigenvalue-minimisations  :  3678
 total energy-change (2. order) : 0.1390125E+01  (-0.4935900E+01)
 number of electron     503.9998342 magnetization 
 augmentation part      198.0894827 magnetization 

 DIPCOR: dipole corrections for dipol
 direction  3 min pos     1,
 dipolmoment           0.000000      0.000000     -0.274203 electrons x Angstroem
 Tr[quadrupol]    -10242.050695

 energy correction for charged system         0.000000 eV
 dipol+quadrupol energy correction           -0.002649 eV
 added-field ion interaction          0.217002 eV  (added to PSCEN)


 Broyden mixing:
  rms(total) = 0.36421E+01    rms(broyden)= 0.36419E+01
  rms(prec ) = 0.40355E+01
  weight for this iteration     100.00

 eigenvalues of (default mixing * dielectric matrix)
  average eigenvalue GAMMA=   0.7881
  2.1666  0.3967  0.2653  0.3237

 Free energy of the ion-electron system (eV)
  ---------------------------------------------------
  alpha Z        PSCENC =       806.08371679
  Ewald energy   TEWEN  =    199939.08935982
  -Hartree energ DENC   =   -241881.39066244
  -exchange      EXHF   =         0.00000000
  -V(xc)+E(xc)   XCENC  =      -345.90304295
  PAW double counting   =     47994.33850706   -46075.70929753
  entropy T*S    EENTRO =        -0.17677060
  eigenvalues    EBANDS =     -2307.23845551
  atomic energy  EATOM  =     41659.78587232
  Solvation  Ediel_sol  =         0.00000000
  ---------------------------------------------------
  free energy    TOTEN  =      -211.12077305 eV

  energy without entropy =     -210.94400244  energy(sigma->0) =     -211.03238775


--------------------------------------------------------------------------------------------------------




----------------------------------------- Iteration    1(  10)  ---------------------------------------


    POTLOK:  cpu time    0.0415: real time    0.0417
    SETDIJ:  cpu time    0.0061: real time    0.0063
    EDDIAG:  cpu time    1.2231: real time    1.2276
  RMM-DIIS:  cpu time    3.4486: real time    3.4601
    ORTHCH:  cpu time    0.2916: real time    0.2923
       DOS:  cpu time    0.0015: real time    0.0015
    CHARGE:  cpu time    0.2356: real time    0.2364
    MIXING:  cpu time    0.0031: real time    0.0031
    --------------------------------------------
      LOOP:  cpu time    5.2518: real time    5.2732

 eigenvalue-minimisations  :  3680
 total energy-change (2. order) : 0.9846773E+01  (-0.1480268E+01)
 number of electron     503.9998341 magnetization 
 augmentation part      198.5218844 magnetization 

 DIPCOR: dipole corrections for dipol
 direction  3 min pos     1,
 dipolmoment           0.000000      0.000000     -0.518218 electrons x Angstroem
 Tr[quadrupol]    -10243.211594

 energy correction for charged system         0.000000 eV
 dipol+quadrupol energy correction           -0.009463 eV
 added-field ion interaction          0.410114 eV  (added to PSCEN)


 Broyden mixing:
  rms(total) = 0.21647E+01    rms(broyden)= 0.21645E+01
  rms(prec ) = 0.25292E+01
  weight for this iteration     100.00

 eigenvalues of (default mixing * dielectric matrix)
  average eigenvalue GAMMA=   0.7523
  2.1970  0.5074  0.5074  0.2272  0.3228

 Free energy of the ion-electron system (eV)
  ---------------------------------------------------
  alpha Z        PSCENC =       806.27001550
  Ewald energy   TEWEN  =    199939.08935982
  -Hartree energ DENC   =   -241918.78582101
  -exchange      EXHF   =         0.00000000
  -V(xc)+E(xc)   XCENC  =      -346.37843653
  PAW double counting   =     48901.37311399   -46993.47444179
  entropy T*S    EENTRO =        -0.21514617
  eigenvalues    EBANDS =     -2248.93851645
  atomic energy  EATOM  =     41659.78587232
  Solvation  Ediel_sol  =         0.00000000
  ---------------------------------------------------
  free energy    TOTEN  =      -201.27400032 eV

  energy without entropy =     -201.05885415  energy(sigma->0) =     -201.16642723


--------------------------------------------------------------------------------------------------------




----------------------------------------- Iteration    1(  11)  ---------------------------------------


    POTLOK:  cpu time    0.0407: real time    0.0408
    SETDIJ:  cpu time    0.0046: real time    0.0054
    EDDIAG:  cpu time    1.2278: real time    1.2321
  RMM-DIIS:  cpu time    3.4510: real time    3.4603
    ORTHCH:  cpu time    0.2915: real time    0.2925
       DOS:  cpu time    0.0014: real time    0.0014
    CHARGE:  cpu time    0.2349: real time    0.2355
    MIXING:  cpu time    0.0025: real time    0.0026
    --------------------------------------------
      LOOP:  cpu time    5.2552: real time    5.2740

 eigenvalue-minimisations  :  3679
 total energy-change (2. order) : 0.6250002E+01  (-0.1411759E+01)
 number of electron     503.9998345 magnetization 
 augmentation part      198.5311528 magnetization 

 DIPCOR: dipole corrections for dipol
 direction  3 min pos     1,
 dipolmoment           0.000000      0.000000     -0.433713 electrons x Angstroem
 Tr[quadrupol]    -10243.294256

 energy correction for charged system         0.000000 eV
 dipol+quadrupol energy correction           -0.006628 eV
 added-field ion interaction          0.343238 eV  (added to PSCEN)


 Broyden mixing:
  rms(total) = 0.15843E+01    rms(broyden)= 0.15840E+01
  rms(prec ) = 0.18488E+01
  weight for this iteration     100.00

 eigenvalues of (default mixing * dielectric matrix)
  average eigenvalue GAMMA=   0.7233
  2.2209  0.6354  0.6354  0.3559  0.2462  0.2462

 Free energy of the ion-electron system (eV)
  ---------------------------------------------------
  alpha Z        PSCENC =       806.20597347
  Ewald energy   TEWEN  =    199939.08935982
  -Hartree energ DENC   =   -241940.61187435
  -exchange      EXHF   =         0.00000000
  -V(xc)+E(xc)   XCENC  =      -345.91956172
  PAW double counting   =     49047.21072428   -47138.69602794
  entropy T*S    EENTRO =        -0.18131558
  eigenvalues    EBANDS =     -2221.90714882
  atomic energy  EATOM  =     41659.78587232
  Solvation  Ediel_sol  =         0.00000000
  ---------------------------------------------------
  free energy    TOTEN  =      -195.02399853 eV

  energy without entropy =     -194.84268295  energy(sigma->0) =     -194.93334074


--------------------------------------------------------------------------------------------------------




----------------------------------------- Iteration    1(  12)  ---------------------------------------


    POTLOK:  cpu time    0.0411: real time    0.0412
    SETDIJ:  cpu time    0.0055: real time    0.0055
    EDDIAG:  cpu time    1.2337: real time    1.2370
  RMM-DIIS:  cpu time    3.4031: real time    3.4180
    ORTHCH:  cpu time    0.2910: real time    0.2917
       DOS:  cpu time    0.0014: real time    0.0014
    CHARGE:  cpu time    0.2364: real time    0.2369
    MIXING:  cpu time    0.0026: real time    0.0026
    --------------------------------------------
      LOOP:  cpu time    5.2153: real time    5.2370

 eigenvalue-minimisations  :  3680
 total energy-change (2. order) : 0.3923536E+01  (-0.5360139E+00)
 number of electron     503.9998356 magnetization 
 augmentation part      197.9296111 magnetization 

 DIPCOR: dipole corrections for dipol
 direction  3 min pos     1,
 dipolmoment           0.000000      0.000000     -0.335024 electrons x Angstroem
 Tr[quadrupol]    -10243.527480

 energy correction for charged system         0.000000 eV
 dipol+quadrupol energy correction           -0.003955 eV
 added-field ion interaction          0.265135 eV  (added to PSCEN)


 Broyden mixing:
  rms(total) = 0.13501E+01    rms(broyden)= 0.13499E+01
  rms(prec ) = 0.15625E+01
  weight for this iteration     100.00

 eigenvalues of (default mixing * dielectric matrix)
  average eigenvalue GAMMA=   0.6657
  2.2614  0.5955  0.5955  0.3543  0.3543  0.2287  0.2702

 Free energy of the ion-electron system (eV)
  ---------------------------------------------------
  alpha Z        PSCENC =       806.13054462
  Ewald energy   TEWEN  =    199939.08935982
  -Hartree energ DENC   =   -241976.76790401
  -exchange      EXHF   =         0.00000000
  -V(xc)+E(xc)   XCENC  =      -345.18518221
  PAW double counting   =     49172.21794217   -47260.98090910
  entropy T*S    EENTRO =        -0.18188331
  eigenvalues    EBANDS =     -2185.20830321
  atomic energy  EATOM  =     41659.78587232
  Solvation  Ediel_sol  =         0.00000000
  ---------------------------------------------------
  free energy    TOTEN  =      -191.10046290 eV

  energy without entropy =     -190.91857959  energy(sigma->0) =     -191.00952124


--------------------------------------------------------------------------------------------------------




----------------------------------------- Iteration    1(  13)  ---------------------------------------


    POTLOK:  cpu time    0.0420: real time    0.0422
    SETDIJ:  cpu time    0.0060: real time    0.0062
    EDDIAG:  cpu time    1.2243: real time    1.2883
  RMM-DIIS:  cpu time    3.3949: real time    3.4263
    ORTHCH:  cpu time    0.2900: real time    0.2908
       DOS:  cpu time    0.0015: real time    0.0015
    CHARGE:  cpu time    0.2353: real time    0.2377
    MIXING:  cpu time    0.0028: real time    0.0028
    --------------------------------------------
      LOOP:  cpu time    5.1975: real time    5.2992

 eigenvalue-minimisations  :  3681
 total energy-change (2. order) : 0.1057076E+01  (-0.1895957E+00)
 number of electron     503.9998355 magnetization 
 augmentation part      197.8289204 magnetization 

 DIPCOR: dipole corrections for dipol
 direction  3 min pos     1,
 dipolmoment           0.000000      0.000000     -0.230917 electrons x Angstroem
 Tr[quadrupol]    -10244.001322

 energy correction for charged system         0.000000 eV
 dipol+quadrupol energy correction           -0.001879 eV
 added-field ion interaction          0.182746 eV  (added to PSCEN)


 Broyden mixing:
  rms(total) = 0.79871E+00    rms(broyden)= 0.79844E+00
  rms(prec ) = 0.90359E+00
  weight for this iteration     100.00

 eigenvalues of (default mixing * dielectric matrix)
  average eigenvalue GAMMA=   0.6386
  2.2342  0.6526  0.6526  0.5057  0.3178  0.3178  0.2138  0.2138

 Free energy of the ion-electron system (eV)
  ---------------------------------------------------
  alpha Z        PSCENC =       806.05023145
  Ewald energy   TEWEN  =    199939.08935982
  -Hartree energ DENC   =   -241997.38138029
  -exchange      EXHF   =         0.00000000
  -V(xc)+E(xc)   XCENC  =      -345.09582983
  PAW double counting   =     49235.01894508   -47323.37203090
  entropy T*S    EENTRO =        -0.22418029
  eigenvalues    EBANDS =     -2163.91437458
  atomic energy  EATOM  =     41659.78587232
  Solvation  Ediel_sol  =         0.00000000
  ---------------------------------------------------
  free energy    TOTEN  =      -190.04338721 eV

  energy without entropy =     -189.81920692  energy(sigma->0) =     -189.93129707


--------------------------------------------------------------------------------------------------------




----------------------------------------- Iteration    1(  14)  ---------------------------------------


    POTLOK:  cpu time    0.0414: real time    0.0416
    SETDIJ:  cpu time    0.0058: real time    0.0059
    EDDIAG:  cpu time    1.2228: real time    1.2274
  RMM-DIIS:  cpu time    3.4305: real time    3.4417
    ORTHCH:  cpu time    0.2889: real time    0.2898
       DOS:  cpu time    0.0016: real time    0.0016
    CHARGE:  cpu time    0.2361: real time    0.2370
    MIXING:  cpu time    0.0029: real time    0.0029
    --------------------------------------------
      LOOP:  cpu time    5.2306: real time    5.2519

 eigenvalue-minimisations  :  3679
 total energy-change (2. order) : 0.4497624E+00  (-0.4040452E-01)
 number of electron     503.9998358 magnetization 
 augmentation part      197.7103472 magnetization 

 DIPCOR: dipole corrections for dipol
 direction  3 min pos     1,
 dipolmoment           0.000000      0.000000     -0.245164 electrons x Angstroem
 Tr[quadrupol]    -10243.880779

 energy correction for charged system         0.000000 eV
 dipol+quadrupol energy correction           -0.002118 eV
 added-field ion interaction          0.194021 eV  (added to PSCEN)


 Broyden mixing:
  rms(total) = 0.65868E+00    rms(broyden)= 0.65863E+00
  rms(prec ) = 0.73139E+00
  weight for this iteration     100.00

 eigenvalues of (default mixing * dielectric matrix)
  average eigenvalue GAMMA=   0.6671
  2.2174  0.9197  0.9197  0.5659  0.3553  0.3553  0.2375  0.2375  0.1954

 Free energy of the ion-electron system (eV)
  ---------------------------------------------------
  alpha Z        PSCENC =       806.06126739
  Ewald energy   TEWEN  =    199939.08935982
  -Hartree energ DENC   =   -242000.29792604
  -exchange      EXHF   =         0.00000000
  -V(xc)+E(xc)   XCENC  =      -344.87888892
  PAW double counting   =     49230.30830570   -47317.31792683
  entropy T*S    EENTRO =        -0.21624129
  eigenvalues    EBANDS =     -2162.12744697
  atomic energy  EATOM  =     41659.78587232
  Solvation  Ediel_sol  =         0.00000000
  ---------------------------------------------------
  free energy    TOTEN  =      -189.59362481 eV

  energy without entropy =     -189.37738352  energy(sigma->0) =     -189.48550417


--------------------------------------------------------------------------------------------------------




----------------------------------------- Iteration    1(  15)  ---------------------------------------


    POTLOK:  cpu time    0.0418: real time    0.0419
    SETDIJ:  cpu time    0.0057: real time    0.0058
    EDDIAG:  cpu time    1.2231: real time    1.2264
  RMM-DIIS:  cpu time    3.4218: real time    3.4319
    ORTHCH:  cpu time    0.2893: real time    0.2903
       DOS:  cpu time    0.0015: real time    0.0015
    CHARGE:  cpu time    0.2343: real time    0.2349
    MIXING:  cpu time    0.0030: real time    0.0031
    --------------------------------------------
      LOOP:  cpu time    5.2213: real time    5.2395

 eigenvalue-minimisations  :  3681
 total energy-change (2. order) : 0.7285519E-01  (-0.3086376E-01)
 number of electron     503.9998360 magnetization 
 augmentation part      197.4566777 magnetization 

 DIPCOR: dipole corrections for dipol
 direction  3 min pos     1,
 dipolmoment           0.000000      0.000000     -0.185300 electrons x Angstroem
 Tr[quadrupol]    -10244.264316

 energy correction for charged system         0.000000 eV
 dipol+quadrupol energy correction           -0.001210 eV
 added-field ion interaction          0.146645 eV  (added to PSCEN)


 Broyden mixing:
  rms(total) = 0.58737E+00    rms(broyden)= 0.58735E+00
  rms(prec ) = 0.66259E+00
  weight for this iteration     100.00

 eigenvalues of (default mixing * dielectric matrix)
  average eigenvalue GAMMA=   0.7379
  2.1384  1.3985  1.3985  0.6060  0.4221  0.4221  0.3119  0.2408  0.2408  0.1998

 Free energy of the ion-electron system (eV)
  ---------------------------------------------------
  alpha Z        PSCENC =       806.01479940
  Ewald energy   TEWEN  =    199939.08935982
  -Hartree energ DENC   =   -242022.42451806
  -exchange      EXHF   =         0.00000000
  -V(xc)+E(xc)   XCENC  =      -344.57029594
  PAW double counting   =     49235.50876450   -47320.02117502
  entropy T*S    EENTRO =        -0.22770567
  eigenvalues    EBANDS =     -2142.67587098
  atomic energy  EATOM  =     41659.78587232
  Solvation  Ediel_sol  =         0.00000000
  ---------------------------------------------------
  free energy    TOTEN  =      -189.52076962 eV

  energy without entropy =     -189.29306395  energy(sigma->0) =     -189.40691679


--------------------------------------------------------------------------------------------------------




----------------------------------------- Iteration    1(  16)  ---------------------------------------


    POTLOK:  cpu time    0.0415: real time    0.0417
    SETDIJ:  cpu time    0.0060: real time    0.0062
    EDDIAG:  cpu time    1.2306: real time    1.2339
  RMM-DIIS:  cpu time    3.4539: real time    3.4651
    ORTHCH:  cpu time    0.2903: real time    0.2910
       DOS:  cpu time    0.0014: real time    0.0014
    CHARGE:  cpu time    0.2359: real time    0.2364
    MIXING:  cpu time    0.0031: real time    0.0031
    --------------------------------------------
      LOOP:  cpu time    5.2632: real time    5.2815

 eigenvalue-minimisations  :  3678
 total energy-change (2. order) : 0.1987843E+00  (-0.4449660E-01)
 number of electron     503.9998363 magnetization 
 augmentation part      197.1073374 magnetization 

 DIPCOR: dipole corrections for dipol
 direction  3 min pos     1,
 dipolmoment           0.000000      0.000000     -0.188105 electrons x Angstroem
 Tr[quadrupol]    -10244.743161

 energy correction for charged system         0.000000 eV
 dipol+quadrupol energy correction           -0.001247 eV
 added-field ion interaction          0.148865 eV  (added to PSCEN)


 Broyden mixing:
  rms(total) = 0.49643E+00    rms(broyden)= 0.49637E+00
  rms(prec ) = 0.58605E+00
  weight for this iteration     100.00

 eigenvalues of (default mixing * dielectric matrix)
  average eigenvalue GAMMA=   0.7493
  2.0944  1.6316  1.6316  0.6434  0.4573  0.4573  0.3339  0.3339  0.2325  0.2325
  0.1943

 Free energy of the ion-electron system (eV)
  ---------------------------------------------------
  alpha Z        PSCENC =       806.01698207
  Ewald energy   TEWEN  =    199939.08935982
  -Hartree energ DENC   =   -242054.44571095
  -exchange      EXHF   =         0.00000000
  -V(xc)+E(xc)   XCENC  =      -344.01685844
  PAW double counting   =     49244.29493945   -47324.62710427
  entropy T*S    EENTRO =        -0.22065203
  eigenvalues    EBANDS =     -2115.19881331
  atomic energy  EATOM  =     41659.78587232
  Solvation  Ediel_sol  =         0.00000000
  ---------------------------------------------------
  free energy    TOTEN  =      -189.32198534 eV

  energy without entropy =     -189.10133330  energy(sigma->0) =     -189.21165932


--------------------------------------------------------------------------------------------------------




----------------------------------------- Iteration    1(  17)  ---------------------------------------


    POTLOK:  cpu time    0.0411: real time    0.0412
    SETDIJ:  cpu time    0.0050: real time    0.0054
    EDDIAG:  cpu time    1.2320: real time    1.2366
  RMM-DIIS:  cpu time    3.4360: real time    3.4531
    ORTHCH:  cpu time    0.2894: real time    0.2901
       DOS:  cpu time    0.0015: real time    0.0015
    CHARGE:  cpu time    0.2368: real time    0.2374
    MIXING:  cpu time    0.0032: real time    0.0032
    --------------------------------------------
      LOOP:  cpu time    5.2456: real time    5.2719

 eigenvalue-minimisations  :  3680
 total energy-change (2. order) : 0.1918156E+00  (-0.3812598E-01)
 number of electron     503.9998364 magnetization 
 augmentation part      197.0119355 magnetization 

 DIPCOR: dipole corrections for dipol
 direction  3 min pos     1,
 dipolmoment           0.000000      0.000000     -0.169041 electrons x Angstroem
 Tr[quadrupol]    -10245.144157

 energy correction for charged system         0.000000 eV
 dipol+quadrupol energy correction           -0.001007 eV
 added-field ion interaction          0.133778 eV  (added to PSCEN)


 Broyden mixing:
  rms(total) = 0.32705E+00    rms(broyden)= 0.32696E+00
  rms(prec ) = 0.39235E+00
  weight for this iteration     100.00

 eigenvalues of (default mixing * dielectric matrix)
  average eigenvalue GAMMA=   0.7342
  2.2141  1.6248  1.6248  0.6505  0.5285  0.5285  0.3752  0.3752  0.2365  0.2365
  0.1982  0.2176

 Free energy of the ion-electron system (eV)
  ---------------------------------------------------
  alpha Z        PSCENC =       806.00213544
  Ewald energy   TEWEN  =    199939.08935982
  -Hartree energ DENC   =   -242075.45380495
  -exchange      EXHF   =         0.00000000
  -V(xc)+E(xc)   XCENC  =      -343.72324923
  PAW double counting   =     49274.57877796   -47352.83581192
  entropy T*S    EENTRO =        -0.22477309
  eigenvalues    EBANDS =     -2096.34867605
  atomic energy  EATOM  =     41659.78587232
  Solvation  Ediel_sol  =         0.00000000
  ---------------------------------------------------
  free energy    TOTEN  =      -189.13016971 eV

  energy without entropy =     -188.90539661  energy(sigma->0) =     -189.01778316


--------------------------------------------------------------------------------------------------------




----------------------------------------- Iteration    1(  18)  ---------------------------------------


    POTLOK:  cpu time    0.0413: real time    0.0414
    SETDIJ:  cpu time    0.0055: real time    0.0055
    EDDIAG:  cpu time    1.2213: real time    1.2258
  RMM-DIIS:  cpu time    3.4225: real time    3.4343
    ORTHCH:  cpu time    0.2894: real time    0.2901
       DOS:  cpu time    0.0015: real time    0.0015
    CHARGE:  cpu time    0.2347: real time    0.2355
    MIXING:  cpu time    0.0034: real time    0.0034
    --------------------------------------------
      LOOP:  cpu time    5.2202: real time    5.2400

 eigenvalue-minimisations  :  3681
 total energy-change (2. order) : 0.1123263E+00  (-0.1173297E-01)
 number of electron     503.9998363 magnetization 
 augmentation part      197.0478036 magnetization 

 DIPCOR: dipole corrections for dipol
 direction  3 min pos     1,
 dipolmoment           0.000000      0.000000     -0.140873 electrons x Angstroem
 Tr[quadrupol]    -10245.313623

 energy correction for charged system         0.000000 eV
 dipol+quadrupol energy correction           -0.000699 eV
 added-field ion interaction          0.111486 eV  (added to PSCEN)


 Broyden mixing:
  rms(total) = 0.14076E+00    rms(broyden)= 0.14068E+00
  rms(prec ) = 0.16154E+00
  weight for this iteration     100.00

 eigenvalues of (default mixing * dielectric matrix)
  average eigenvalue GAMMA=   0.7211
  2.2879  1.6170  1.6170  0.6592  0.6592  0.5572  0.3955  0.3955  0.2935  0.2379
  0.2379  0.1952  0.2208

 Free energy of the ion-electron system (eV)
  ---------------------------------------------------
  alpha Z        PSCENC =       805.98015059
  Ewald energy   TEWEN  =    199939.08935982
  -Hartree energ DENC   =   -242081.94039506
  -exchange      EXHF   =         0.00000000
  -V(xc)+E(xc)   XCENC  =      -343.69105959
  PAW double counting   =     49303.46543177   -47381.64753946
  entropy T*S    EENTRO =        -0.24374868
  eigenvalues    EBANDS =     -2089.81591515
  atomic energy  EATOM  =     41659.78587232
  Solvation  Ediel_sol  =         0.00000000
  ---------------------------------------------------
  free energy    TOTEN  =      -189.01784343 eV

  energy without entropy =     -188.77409475  energy(sigma->0) =     -188.89596909


--------------------------------------------------------------------------------------------------------




----------------------------------------- Iteration    1(  19)  ---------------------------------------


    POTLOK:  cpu time    0.0410: real time    0.0411
    SETDIJ:  cpu time    0.0055: real time    0.0055
    EDDIAG:  cpu time    1.2256: real time    1.2298
  RMM-DIIS:  cpu time    3.4264: real time    3.4357
    ORTHCH:  cpu time    0.2895: real time    0.2904
       DOS:  cpu time    0.0015: real time    0.0015
    CHARGE:  cpu time    0.2338: real time    0.2344
    MIXING:  cpu time    0.0035: real time    0.0035
    --------------------------------------------
      LOOP:  cpu time    5.2275: real time    5.2442

 eigenvalue-minimisations  :  3681
 total energy-change (2. order) : 0.1789914E-01  (-0.3638351E-02)
 number of electron     503.9998363 magnetization 
 augmentation part      197.0695146 magnetization 

 DIPCOR: dipole corrections for dipol
 direction  3 min pos     1,
 dipolmoment           0.000000      0.000000     -0.116088 electrons x Angstroem
 Tr[quadrupol]    -10245.387753

 energy correction for charged system         0.000000 eV
 dipol+quadrupol energy correction           -0.000475 eV
 added-field ion interaction          0.091871 eV  (added to PSCEN)


 Broyden mixing:
  rms(total) = 0.98806E-01    rms(broyden)= 0.98769E-01
  rms(prec ) = 0.10897E+00
  weight for this iteration     100.00

 eigenvalues of (default mixing * dielectric matrix)
  average eigenvalue GAMMA=   0.7089
  2.3021  1.6315  1.6315  0.7440  0.7440  0.5236  0.4264  0.4264  0.3263  0.2913
  0.2367  0.2367  0.1980  0.2061

 Free energy of the ion-electron system (eV)
  ---------------------------------------------------
  alpha Z        PSCENC =       805.96076020
  Ewald energy   TEWEN  =    199939.08935982
  -Hartree energ DENC   =   -242084.63042305
  -exchange      EXHF   =         0.00000000
  -V(xc)+E(xc)   XCENC  =      -343.69736115
  PAW double counting   =     49316.66721854   -47394.98582474
  entropy T*S    EENTRO =        -0.23543662
  eigenvalues    EBANDS =     -2086.95410961
  atomic energy  EATOM  =     41659.78587232
  Solvation  Ediel_sol  =         0.00000000
  ---------------------------------------------------
  free energy    TOTEN  =      -188.99994429 eV

  energy without entropy =     -188.76450767  energy(sigma->0) =     -188.88222598


--------------------------------------------------------------------------------------------------------




----------------------------------------- Iteration    1(  20)  ---------------------------------------


    POTLOK:  cpu time    0.0411: real time    0.0412
    SETDIJ:  cpu time    0.0054: real time    0.0054
    EDDIAG:  cpu time    1.2279: real time    1.2312
  RMM-DIIS:  cpu time    3.3682: real time    3.4620
    ORTHCH:  cpu time    0.2891: real time    0.2913
       DOS:  cpu time    0.0015: real time    0.0015
    CHARGE:  cpu time    0.2361: real time    0.2367
    MIXING:  cpu time    0.0039: real time    0.0039
    --------------------------------------------
      LOOP:  cpu time    5.1738: real time    5.2758

 eigenvalue-minimisations  :  3682
 total energy-change (2. order) : 0.7141558E-02  (-0.9603278E-03)
 number of electron     503.9998363 magnetization 
 augmentation part      197.0560614 magnetization 

 DIPCOR: dipole corrections for dipol
 direction  3 min pos     1,
 dipolmoment           0.000000      0.000000     -0.100795 electrons x Angstroem
 Tr[quadrupol]    -10245.486791

 energy correction for charged system         0.000000 eV
 dipol+quadrupol energy correction           -0.000358 eV
 added-field ion interaction          0.079768 eV  (added to PSCEN)


 Broyden mixing:
  rms(total) = 0.61462E-01    rms(broyden)= 0.61451E-01
  rms(prec ) = 0.67771E-01
  weight for this iteration     100.00

 eigenvalues of (default mixing * dielectric matrix)
  average eigenvalue GAMMA=   0.7326
  2.3132  1.6334  1.6334  1.0150  1.0150  0.5166  0.4526  0.4526  0.4450  0.3727
  0.2589  0.2381  0.2381  0.1962  0.2089

 Free energy of the ion-electron system (eV)
  ---------------------------------------------------
  alpha Z        PSCENC =       805.94877461
  Ewald energy   TEWEN  =    199939.08935982
  -Hartree energ DENC   =   -242088.74612895
  -exchange      EXHF   =         0.00000000
  -V(xc)+E(xc)   XCENC  =      -343.68336009
  PAW double counting   =     49321.45972022   -47399.68648922
  entropy T*S    EENTRO =        -0.24149491
  eigenvalues    EBANDS =     -2082.91905652
  atomic energy  EATOM  =     41659.78587232
  Solvation  Ediel_sol  =         0.00000000
  ---------------------------------------------------
  free energy    TOTEN  =      -188.99280273 eV

  energy without entropy =     -188.75130782  energy(sigma->0) =     -188.87205527


--------------------------------------------------------------------------------------------------------




----------------------------------------- Iteration    1(  21)  ---------------------------------------


    POTLOK:  cpu time    0.0415: real time    0.0416
    SETDIJ:  cpu time    0.0054: real time    0.0054
    EDDIAG:  cpu time    1.2306: real time    1.2338
  RMM-DIIS:  cpu time    3.3988: real time    3.4090
    ORTHCH:  cpu time    0.2896: real time    0.2904
       DOS:  cpu time    0.0015: real time    0.0015
    CHARGE:  cpu time    0.2373: real time    0.2379
    MIXING:  cpu time    0.0039: real time    0.0039
    --------------------------------------------
      LOOP:  cpu time    5.2093: real time    5.2274

 eigenvalue-minimisations  :  3681
 total energy-change (2. order) : 0.2140156E-02  (-0.7391819E-03)
 number of electron     503.9998364 magnetization 
 augmentation part      197.0346058 magnetization 

 DIPCOR: dipole corrections for dipol
 direction  3 min pos     1,
 dipolmoment           0.000000      0.000000     -0.094129 electrons x Angstroem
 Tr[quadrupol]    -10245.645775

 energy correction for charged system         0.000000 eV
 dipol+quadrupol energy correction           -0.000312 eV
 added-field ion interaction          0.074493 eV  (added to PSCEN)


 Broyden mixing:
  rms(total) = 0.54497E-01    rms(broyden)= 0.54487E-01
  rms(prec ) = 0.60747E-01
  weight for this iteration     100.00

 eigenvalues of (default mixing * dielectric matrix)
  average eigenvalue GAMMA=   0.7646
  2.3410  1.8114  1.5734  1.5734  0.8744  0.8744  0.4793  0.4793  0.3987  0.3987
  0.2997  0.2532  0.2361  0.2361  0.1966  0.2076

 Free energy of the ion-electron system (eV)
  ---------------------------------------------------
  alpha Z        PSCENC =       805.94354473
  Ewald energy   TEWEN  =    199939.08935982
  -Hartree energ DENC   =   -242095.14734251
  -exchange      EXHF   =         0.00000000
  -V(xc)+E(xc)   XCENC  =      -343.66006382
  PAW double counting   =     49328.06989018   -47406.21213423
  entropy T*S    EENTRO =        -0.23761620
  eigenvalues    EBANDS =     -2076.62217287
  atomic energy  EATOM  =     41659.78587232
  Solvation  Ediel_sol  =         0.00000000
  ---------------------------------------------------
  free energy    TOTEN  =      -188.99066257 eV

  energy without entropy =     -188.75304638  energy(sigma->0) =     -188.87185447


--------------------------------------------------------------------------------------------------------




----------------------------------------- Iteration    1(  22)  ---------------------------------------


    POTLOK:  cpu time    0.0412: real time    0.0413
    SETDIJ:  cpu time    0.0056: real time    0.0056
    EDDIAG:  cpu time    1.2218: real time    1.2280
  RMM-DIIS:  cpu time    3.4182: real time    3.4274
    ORTHCH:  cpu time    0.2886: real time    0.2892
       DOS:  cpu time    0.0015: real time    0.0015
    CHARGE:  cpu time    0.2356: real time    0.2365
    MIXING:  cpu time    0.0041: real time    0.0041
    --------------------------------------------
      LOOP:  cpu time    5.2171: real time    5.2360

 eigenvalue-minimisations  :  3682
 total energy-change (2. order) : 0.2171347E-02  (-0.5932669E-03)
 number of electron     503.9998364 magnetization 
 augmentation part      197.0262029 magnetization 

 DIPCOR: dipole corrections for dipol
 direction  3 min pos     1,
 dipolmoment           0.000000      0.000000     -0.090340 electrons x Angstroem
 Tr[quadrupol]    -10245.855931

 energy correction for charged system         0.000000 eV
 dipol+quadrupol energy correction           -0.000288 eV
 added-field ion interaction          0.071495 eV  (added to PSCEN)


 Broyden mixing:
  rms(total) = 0.39151E-01    rms(broyden)= 0.39139E-01
  rms(prec ) = 0.46762E-01
  weight for this iteration     100.00

 eigenvalues of (default mixing * dielectric matrix)
  average eigenvalue GAMMA=   0.7508
  2.2904  1.6756  1.6756  1.6074  0.9450  0.9450  0.5319  0.5319  0.4107  0.4107
  0.3097  0.3097  0.2378  0.2378  0.2404  0.1962  0.2087

 Free energy of the ion-electron system (eV)
  ---------------------------------------------------
  alpha Z        PSCENC =       805.94057138
  Ewald energy   TEWEN  =    199939.08935982
  -Hartree energ DENC   =   -242103.18705303
  -exchange      EXHF   =         0.00000000
  -V(xc)+E(xc)   XCENC  =      -343.63708834
  PAW double counting   =     49334.61748099   -47412.76020182
  entropy T*S    EENTRO =        -0.23952558
  eigenvalues    EBANDS =     -2068.59790697
  atomic energy  EATOM  =     41659.78587232
  Solvation  Ediel_sol  =         0.00000000
  ---------------------------------------------------
  free energy    TOTEN  =      -188.98849123 eV

  energy without entropy =     -188.74896565  energy(sigma->0) =     -188.86872844


--------------------------------------------------------------------------------------------------------




----------------------------------------- Iteration    1(  23)  ---------------------------------------


    POTLOK:  cpu time    0.0423: real time    0.0426
    SETDIJ:  cpu time    0.0055: real time    0.0055
    EDDIAG:  cpu time    1.2335: real time    1.2372
  RMM-DIIS:  cpu time    3.4150: real time    3.4242
[...]
    275       1.7887      0.00000
    276       1.8428      0.00000
    277       2.1799      0.00000
    278       2.3085      0.00000
    279       2.3594      0.00000
    280       2.4301      0.00000
    281       2.4713      0.00000
    282       2.5947      0.00000
    283       2.6803      0.00000
    284       2.9883      0.00000
    285       3.0915      0.00000
    286       3.2915      0.00000
    287       3.5899      0.00000
    288       3.6230      0.00000
    289       3.7097      0.00000
    290       3.9556      0.00000
    291       4.1156      0.00000
    292       4.2083      0.00000
    293       4.5013      0.00000
    294       4.5759      0.00000
    295       4.6059      0.00000
    296       4.6276      0.00000
    297       4.6794      0.00000
    298       4.7876      0.00000
    299       4.8183      0.00000
    300       4.9056      0.00000
    301       4.9819      0.00000
    302       5.0601      0.00000
    303       5.0752      0.00000
    304       5.1009      0.00000
    305       5.1642      0.00000
    306       5.2455      0.00000


--------------------------------------------------------------------------------------------------------


 soft charge-density along one line, spin component           1
         0         1         2         3         4         5         6         7         8         9
 total charge-density along one line
 
 pseudopotential strength for first ion, spin component:           1
 -8.080   0.000   0.002  -0.000   0.001  -8.226   0.000   0.002
  0.000  -8.006   0.000  -0.001  -0.003   0.000  -8.154   0.000
  0.002   0.000  -8.000   0.000   0.000   0.002   0.000  -8.148
 -0.000  -0.001   0.000  -8.007   0.000  -0.000  -0.001   0.000
  0.001  -0.003   0.000   0.000  -8.079   0.001  -0.003   0.000
 -8.226   0.000   0.002  -0.000   0.001  -8.356   0.000   0.002
  0.000  -8.154   0.000  -0.001  -0.003   0.000  -8.285   0.000
  0.002   0.000  -8.148   0.000   0.000   0.002   0.000  -8.280
 -0.000  -0.001   0.000  -8.154   0.000  -0.000  -0.001   0.000
  0.001  -0.003   0.000   0.000  -8.225   0.001  -0.003   0.000
  0.001  -0.001  -0.025  -0.001  -0.000   0.001  -0.001  -0.025
  0.001  -0.001  -0.036  -0.001  -0.000   0.001  -0.001  -0.036
 -0.001   0.005   0.000  -0.000   0.000  -0.001   0.005   0.000
 -0.000  -0.001   0.007  -0.001  -0.000  -0.000  -0.001   0.007
 -0.001  -0.000   0.000   0.005  -0.001  -0.001  -0.000   0.000
 -0.001   0.005   0.000  -0.000   0.001  -0.001   0.005   0.000
 -0.000  -0.001   0.008  -0.001  -0.000  -0.000  -0.001   0.008
 -0.001  -0.000   0.000   0.005  -0.001  -0.001  -0.000   0.000
 total augmentation occupancy for first ion, spin component:           1
  4.733  -0.014   0.011   0.038  -0.014  -2.886   0.019   0.001  -0.056   0.027  -0.035   0.012  -0.006   0.001   0.025  -0.001
 -0.014   3.986   0.054   0.034   0.060   0.019  -1.745  -0.055  -0.035  -0.090   0.025   0.006   0.120   0.011  -0.002  -0.001
  0.011   0.054   4.575   0.067   0.044   0.001  -0.056  -2.454  -0.061  -0.043   1.148  -0.219   0.006   0.228   0.003  -0.000
  0.038   0.034   0.067   4.010  -0.004  -0.055  -0.035  -0.060  -1.769   0.006   0.010   0.019  -0.002   0.011   0.128  -0.000
 -0.014   0.060   0.044  -0.004   4.758   0.027  -0.091  -0.043   0.007  -2.894   0.023   0.005   0.036   0.009  -0.003  -0.000
 -2.886   0.019   0.001  -0.055   0.027   2.929  -0.023  -0.012   0.069  -0.037   0.035  -0.012   0.006   0.000  -0.024  -0.000
  0.019  -1.745  -0.056  -0.035  -0.091  -0.023   1.475   0.056   0.034   0.114  -0.022  -0.004  -0.111  -0.009   0.003   0.004
  0.001  -0.055  -2.454  -0.060  -0.043  -0.012   0.056   2.279   0.054   0.043  -1.070   0.236  -0.005  -0.235  -0.002   0.000
 -0.056  -0.035  -0.061  -1.769   0.007   0.069   0.034   0.054   1.497  -0.008  -0.011  -0.014   0.003  -0.007  -0.118   0.000
  0.027  -0.090  -0.043   0.006  -2.894  -0.037   0.114   0.043  -0.008   2.924  -0.023  -0.001  -0.033  -0.007   0.002   0.001
 -0.035   0.025   1.148   0.010   0.023   0.035  -0.022  -1.070  -0.011  -0.023   2.499  -0.571  -0.001  -0.104   0.003   0.000
  0.012   0.006  -0.219   0.019   0.005  -0.012  -0.004   0.236  -0.014  -0.001  -0.571   0.175   0.002   0.046   0.001  -0.000
 -0.006   0.120   0.006  -0.002   0.036   0.006  -0.111  -0.005   0.003  -0.033  -0.001   0.002   0.196  -0.002   0.001  -0.006
  0.001   0.011   0.228   0.011   0.009   0.000  -0.009  -0.235  -0.007  -0.007  -0.104   0.046  -0.002   0.091  -0.002   0.000
  0.025  -0.002   0.003   0.128  -0.003  -0.024   0.003  -0.002  -0.118   0.002   0.003   0.001   0.001  -0.002   0.193  -0.000
 -0.001  -0.001  -0.000  -0.000  -0.000  -0.000   0.004   0.000   0.000   0.001   0.000  -0.000  -0.006   0.000  -0.000   0.000
 -0.000  -0.001   0.002  -0.002  -0.000   0.000   0.001   0.005   0.001   0.000   0.007  -0.002   0.000  -0.003  -0.000  -0.000
 -0.001  -0.000  -0.000  -0.002  -0.001   0.001   0.000   0.000   0.005   0.000  -0.000  -0.000  -0.000  -0.000  -0.006   0.000


------------------------ aborting loop because EDIFF is reached ----------------------------------------


    CHARGE:  cpu time    0.2312: real time    0.2318
    FORLOC:  cpu time    0.0164: real time    0.0164
    FORNL :  cpu time    1.3263: real time    1.3301
    FORCOR:  cpu time    0.0576: real time    0.0589
    FORHAR:  cpu time    0.0248: real time    0.0248
    MIXING:  cpu time    0.0028: real time    0.0029
    OFIELD:  cpu time    0.0000: real time    0.0000

 VOLUME and BASIS-vectors are now :
 -----------------------------------------------------------------------------
  energy-cutoff  :      400.00
  volume of cell :     2567.68
      direct lattice vectors                 reciprocal lattice vectors
    11.002581515  0.000000000  0.000000000     0.090887761 -0.052474073  0.000000000
     5.501290758  9.528515099  0.000000000     0.000000000  0.104948147  0.000000000
     0.000000000  0.000000000 24.491785094     0.000000000  0.000000000  0.040830017

  length of vectors
    11.002581515 11.002581515 24.491785094     0.104948147  0.104948147  0.040830017


 FORCES acting on ions
    electron-ion (+dipol)            ewald-force                    non-local-force                 convergence-correction
 -----------------------------------------------------------------------------------------------
   0.133E+01 -.391E+01 -.220E+04   -.120E+01 0.396E+01 0.220E+04   -.132E+00 -.495E-01 0.180E+00   0.146E-02 -.370E-02 -.107E-01
   -.130E+02 0.254E+01 -.222E+04   0.135E+02 -.298E+01 0.221E+04   -.425E+00 0.431E+00 0.222E+00   0.855E-03 -.311E-02 -.989E-02
   0.452E+00 0.631E+01 0.634E+02   -.143E+00 -.598E+01 -.649E+02   -.310E+00 -.329E+00 0.148E+01   0.141E-02 -.900E-02 -.396E-02
   -.134E+02 0.104E+01 -.226E+04   0.141E+02 -.121E+01 0.226E+04   -.627E+00 0.164E+00 -.269E+00   0.304E-03 0.257E-02 -.150E-01
   0.568E+01 0.189E+02 0.223E+04   -.565E+01 -.196E+02 -.223E+04   -.596E-01 0.366E+00 -.401E+00   -.134E-02 -.167E-02 0.554E-02
   -.969E+01 -.755E+01 0.224E+04   0.103E+02 0.787E+01 -.224E+04   -.441E+00 -.194E+00 -.281E+00   -.878E-02 0.658E-02 -.130E-02
   0.939E+00 -.638E+01 -.222E+04   -.665E+00 0.623E+01 0.222E+04   -.272E+00 0.161E+00 -.900E-01   0.227E-02 -.235E-02 -.194E-01
   0.250E+02 0.248E+00 0.222E+04   -.262E+02 -.228E+00 -.222E+04   0.841E+00 0.695E-02 -.592E+00   0.719E-02 -.612E-02 0.238E-02
   -.344E+01 0.858E+01 -.227E+04   0.415E+01 -.898E+01 0.227E+04   -.708E+00 0.401E+00 -.143E+00   0.666E-02 -.606E-02 -.712E-02
   0.288E+01 -.924E+01 0.960E+01   -.316E+01 0.953E+01 -.107E+02   0.272E+00 -.291E+00 0.107E+01   0.747E-02 0.219E-02 -.962E-02
   -.494E+01 0.837E+01 -.220E+04   0.572E+01 -.885E+01 0.220E+04   -.780E+00 0.486E+00 0.669E+00   0.495E-02 -.262E-02 -.149E-01
   0.133E+02 -.112E+01 -.224E+04   -.140E+02 0.106E+01 0.224E+04   0.746E+00 0.440E-01 -.225E-01   -.197E-02 0.375E-03 -.658E-02
   -.735E+01 0.857E+00 0.222E+04   0.784E+01 -.101E+01 -.222E+04   -.321E+00 0.103E+00 -.378E+00   0.590E-04 -.922E-03 0.496E-02
   -.106E+02 -.688E+00 0.717E+02   0.106E+02 0.607E+00 -.723E+02   0.565E-01 0.764E-01 0.571E+00   0.550E-03 0.391E-02 -.110E-02
   -.534E+01 -.203E+01 0.443E+02   0.549E+01 0.202E+01 -.459E+02   -.148E+00 0.109E-01 0.154E+01   0.715E-03 0.386E-02 -.145E-02
   0.874E+01 -.206E+01 0.389E+02   -.890E+01 0.211E+01 -.387E+02   0.172E+00 -.621E-01 -.101E+00   -.806E-02 0.535E-02 -.606E-02
   0.983E+01 -.347E+01 -.218E+04   -.101E+02 0.404E+01 0.218E+04   0.320E+00 -.569E+00 0.641E+00   -.666E-03 0.355E-02 -.114E-01
   0.487E+01 -.227E+02 0.223E+04   -.524E+01 0.235E+02 -.223E+04   0.259E+00 -.462E+00 -.287E+00   0.815E-02 -.199E-02 0.604E-03
   -.141E+02 0.130E+02 0.223E+04   0.146E+02 -.136E+02 -.223E+04   -.319E+00 0.417E+00 -.869E-01   -.765E-02 0.311E-02 0.164E-02
   0.290E+01 -.239E+01 -.431E+01   -.274E+01 0.160E+01 0.504E+01   -.150E+00 0.785E+00 -.712E+00   -.901E-03 -.133E-02 -.167E-01
   0.451E+01 -.557E+01 -.221E+04   -.555E+01 0.598E+01 0.221E+04   0.105E+01 -.411E+00 0.172E+00   -.914E-02 -.390E-02 -.840E-02
   0.254E+01 -.124E+02 -.220E+04   -.310E+01 0.134E+02 0.220E+04   0.570E+00 -.103E+01 0.532E+00   -.129E-03 0.369E-02 -.704E-02
   0.167E+02 -.209E+00 -.224E+04   -.177E+02 0.311E+00 0.224E+04   0.990E+00 -.970E-01 -.145E+00   -.281E-02 0.460E-02 0.426E-02
   0.700E+01 -.713E+01 0.234E+02   -.665E+01 0.726E+01 -.233E+02   -.338E+00 -.133E+00 -.368E-01   -.729E-02 0.472E-02 -.132E-01
   -.992E+01 0.641E+01 0.205E+04   0.103E+02 -.660E+01 -.205E+04   -.195E+00 0.131E+00 -.148E+01   -.700E-02 0.508E-02 -.347E-03
   -.384E+01 0.102E+02 0.205E+04   0.368E+01 -.102E+02 -.204E+04   0.169E+00 -.268E-01 -.176E+01   0.110E-02 -.231E-02 0.227E-02
   -.173E+02 -.757E+00 -.197E+04   0.176E+02 0.504E+00 0.197E+04   -.331E+00 0.248E+00 0.154E+01   -.477E-02 0.126E-02 -.915E-02
   0.908E+00 0.775E+00 0.179E+02   -.670E+00 -.658E+00 -.174E+02   -.226E+00 -.117E+00 -.457E+00   -.627E-02 0.744E-03 -.860E-02
   0.131E+01 -.535E+01 0.205E+04   -.156E+01 0.543E+01 -.205E+04   0.128E+00 -.892E-02 -.172E+01   0.106E-02 0.167E-02 0.375E-03
   0.129E+01 0.309E+01 0.367E+02   -.130E+01 -.269E+01 -.375E+02   0.903E-02 -.395E+00 0.797E+00   0.200E-02 -.476E-02 -.207E-02
   0.502E+01 -.102E+02 0.204E+04   -.524E+01 0.104E+02 -.203E+04   0.119E+00 -.102E+00 -.205E+01   0.567E-03 0.129E-02 -.235E-02
   -.318E+01 0.241E+01 0.516E+02   0.382E+01 -.281E+01 -.516E+02   -.639E+00 0.391E+00 0.291E-01   -.134E-02 0.324E-02 0.306E-02
   -.948E+01 0.131E+01 -.197E+04   0.971E+01 -.134E+01 0.197E+04   -.219E+00 0.414E-01 0.148E+01   -.819E-02 -.295E-02 -.942E-02
   -.411E+01 0.843E+01 -.196E+04   0.429E+01 -.852E+01 0.196E+04   -.170E+00 0.789E-01 0.150E+01   -.541E-03 0.682E-02 -.897E-02
   0.415E+01 -.495E+01 -.137E+02   -.465E+01 0.470E+01 0.137E+02   0.501E+00 0.260E+00 -.365E-01   0.460E-02 -.780E-02 -.999E-02
   -.857E+00 -.236E+02 0.204E+04   0.881E+00 0.241E+02 -.204E+04   -.246E-01 -.258E+00 -.135E+01   0.146E-04 0.309E-02 0.292E-02
   0.697E+01 -.813E+00 0.290E+02   -.691E+01 0.110E+01 -.304E+02   -.645E-01 -.294E+00 0.134E+01   0.340E-02 -.157E-02 -.857E-02
   0.177E+02 -.323E+01 0.204E+04   -.181E+02 0.336E+01 -.204E+04   0.215E+00 -.910E-01 -.168E+01   -.217E-02 0.117E-02 0.317E-02
   0.151E+02 -.379E+01 -.193E+04   -.154E+02 0.388E+01 0.193E+04   0.269E+00 -.934E-01 0.147E+01   0.270E-02 0.416E-03 -.149E-01
   -.865E+01 0.806E+01 0.260E+02   0.836E+01 -.785E+01 -.264E+02   0.290E+00 -.199E+00 0.409E+00   -.493E-02 -.219E-02 0.262E-02
   -.493E+01 -.510E+00 0.373E+02   0.424E+01 0.153E+00 -.376E+02   0.700E+00 0.360E+00 0.410E+00   -.122E-02 -.814E-03 -.427E-02
   0.138E+02 0.158E+02 0.204E+04   -.140E+02 -.162E+02 -.204E+04   0.925E-02 0.209E+00 -.177E+01   0.631E-02 -.677E-02 0.450E-02
   -.357E+01 0.515E+01 0.204E+04   0.369E+01 -.513E+01 -.204E+04   -.467E-01 -.425E-01 -.191E+01   0.325E-03 -.235E-02 -.656E-03
   -.736E+01 0.533E+01 0.136E+02   0.775E+01 -.541E+01 -.135E+02   -.381E+00 0.940E-01 -.512E-01   -.829E-02 -.114E-02 -.809E-03
   -.915E+01 -.140E+02 0.204E+04   0.950E+01 0.143E+02 -.204E+04   -.176E+00 -.202E+00 -.155E+01   0.814E-02 -.227E-02 0.267E-02
   -.155E+02 0.161E+02 0.204E+04   0.158E+02 -.164E+02 -.204E+04   -.130E+00 0.169E+00 -.170E+01   -.615E-02 0.236E-02 0.281E-02
   0.762E+01 0.226E+01 0.134E+02   -.778E+01 -.208E+01 -.138E+02   0.160E+00 -.169E+00 0.411E+00   0.414E-02 -.680E-02 -.645E-02
   -.747E+00 0.899E+01 -.196E+04   0.852E+00 -.912E+01 0.196E+04   -.103E+00 0.129E+00 0.175E+01   -.617E-03 0.798E-03 -.161E-01
 -----------------------------------------------------------------------------------------------
   -.620E-01 0.727E-01 0.305E+01   -.500E-13 0.711E-12 0.455E-11   0.110E+00 -.666E-01 -.286E+01   -.238E-01 -.120E-01 -.223E+00
 
 
 POSITION                                       TOTAL-FORCE (eV/Angst)
 -----------------------------------------------------------------------------------
     12.37661      7.15403     14.91166        -0.003765     -0.002151      0.003077
      2.77085      4.74902     14.92479         0.003004     -0.004837      0.007193
     11.02137      6.36986     12.36908        -0.000034     -0.002421      0.014230
      1.40266      2.37053     15.01074         0.004948     -0.004035      0.009512
      4.12597      5.55830     10.00000        -0.026409     -0.298144     -0.247270
      4.12597      0.79404     10.00000         0.193160      0.126310     -0.288975
     10.99842      4.75936     14.98405         0.003782      0.003974      0.015484
     13.75323      7.94043     10.00000        -0.414755      0.020314     -0.064147
      0.02439     -0.01472     14.99790         0.003949      0.001512      0.009043
     10.99690      1.59653     12.42773         0.002148      0.006879      0.010522
      4.15590      7.12507     14.88856         0.006292      0.003710      0.005550
      9.60627      2.38317     14.98740        -0.001205     -0.008724      0.004116
      5.50129      7.94043     10.00000         0.173031     -0.046842     -0.188682
      6.88074      3.97049     12.37304        -0.000738     -0.000148      0.005505
      9.63201      3.97551     12.38579         0.004730      0.001942      0.007710
      4.12610      3.97276     12.41419         0.006014     -0.001719      0.005481
      8.24277      0.01703     14.88103         0.007498      0.004511      0.008967
      9.62726      0.79404     10.00000        -0.105151      0.299093     -0.191891
      8.25194      7.94043     10.00000         0.150182     -0.222739     -0.228101
      6.87908      8.72103     12.46357         0.010934     -0.010899      0.004230
      9.59743      7.16002     14.91970         0.000881     -0.002667      0.004322
      5.48452      0.03486     14.88344         0.001578      0.004949      0.006102
      8.21395      4.76760     14.96447        -0.002524      0.010387     -0.004019
      2.76328      1.59344     12.43129         0.007416      0.001099     -0.001225
      5.50129      3.17617     10.00000         0.132829     -0.054043      0.033118
      9.62726      5.55830     10.00000         0.014735     -0.084084      0.066779
      4.14240      2.38297     14.80213         0.003009     -0.003450     -0.001020
      5.50291      6.35983     12.43639         0.004908      0.000548      0.007045
      8.25194      3.17617     10.00000        -0.120397      0.076108      0.025682
     12.38879      8.75296     12.40959         0.000141      0.001308     -0.003196
      6.87661      0.79404     10.00000        -0.096827      0.109376      0.157086
      5.52971      1.55514     12.39653        -0.005769     -0.002758      0.006512
      2.75829      0.00401     14.82447        -0.002583      0.003746      0.007750
      5.51009      4.74938     14.79250         0.001800     -0.000770     -0.000310
     15.11381      8.72332     12.46716         0.003505      0.004254      0.009256
      1.37532      0.79404     10.00000        -0.001271      0.239843      0.119806
     12.38564      3.99099     12.41190        -0.005818     -0.008417     -0.013263
      2.75065      3.17617     10.00000        -0.223247      0.038154      0.111753
      6.86562      2.39646     14.76682        -0.003998     -0.002611      0.000558
      8.25507      6.35545     12.42014        -0.004457      0.010702     -0.005350
      8.24256      1.57341     12.40667         0.006350      0.002227      0.008550
     12.37790      5.55830     10.00000        -0.138321     -0.145348      0.179016
     11.00258      7.94043     10.00000         0.070969     -0.023808      0.136541
      9.65454      8.72598     12.44055        -0.005224      0.010511     -0.002333
     11.00258      3.17617     10.00000         0.190010      0.112428      0.125875
      6.87661      5.55830     10.00000         0.149768     -0.168029      0.116137
     13.75548      6.36669     12.43385         0.004106      0.005988      0.005937
      6.88055      7.13788     14.80945         0.000817     -0.001227      0.001339
 -----------------------------------------------------------------------------------
    total drift:                                0.024095     -0.005881     -0.036681


--------------------------------------------------------------------------------------------------------



  FREE ENERGIE OF THE ION-ELECTRON SYSTEM (eV)
  ---------------------------------------------------
  free  energy   TOTEN  =      -192.38612076 eV

  energy  without entropy=     -192.14841164  energy(sigma->0) =     -192.26726620
 
 d Force = 0.6441371E-03[ 0.283E-03, 0.101E-02]  d Energy = 0.6113298E-03 0.328E-04
 d Force = 0.6791656E+02[ 0.679E+02, 0.679E+02]  d Ewald  = 0.6791656E+02 0.167E-05


--------------------------------------------------------------------------------------------------------


    POTLOK:  cpu time    0.0490: real time    0.0491


--------------------------------------------------------------------------------------------------------


 stress matrix after NEB project (eV)
      0.00000      0.00000      0.00000
      0.00000      0.00000      0.00000
      0.00000      0.00000      0.00000
  FORCES: max atom, RMS     0.016751    0.008232
  FORCE total and by dimension    0.057034    0.015484
  Stress total and by dimension    0.000000    0.000000
 Conjugate gradient step on ions:
 trial-energy change:   -0.000611  1 .order   -0.000644   -0.001005   -0.000283
  (g-gl).g = 0.365E-03      g.g   = 0.363E-03  gl.gl    = 0.649E-03
 g(Force)  = 0.363E-03   g(Stress)= 0.000E+00 ortho     = 0.726E-05
 gamma     =   0.56257
 trial     =   2.74027
 opt step  =   4.79083  (harmonic =   3.81385) maximal distance =0.00750246
 next E    =  -192.386213   (d E  =  -0.00070)


--------------------------------------------------------------------------------------------------------


  
 reached required accuracy - stopping structural energy minimisation
     LOOP+:  cpu time   53.2065: real time   53.5300
    4ORBIT:  cpu time    0.0000: real time    0.0000

 total amount of memory used by VASP on root node    84353. kBytes
========================================================================

   base      :      30000. kBytes
   nonlr-proj:       4285. kBytes
   fftplans  :       4447. kBytes
   grid      :       6721. kBytes
   one-center:        124. kBytes
   wavefun   :      38776. kBytes
 
  
  
 General timing and accounting informations for this job:
 ========================================================
  
                  Total CPU time used (sec):     1358.621
                            User time (sec):     1290.809
                          System time (sec):       67.812
                         Elapsed time (sec):     1367.428
  
                   Maximum memory used (kb):      779624.
                   Average memory used (kb):           0.
  
                          Minor page faults:       642265
                          Major page faults:            2
                 Voluntary context switches:         8723
