unknown system                          
           1
    11.002582    0.000000    0.000000
     5.501291    9.528515    0.000000
     0.000000    0.000000   24.491785
   Au   Pd
  24  24
Direct configuration=     1
   0.75000000  0.75000000  0.59169983
   0.00000000  0.50000000  0.59169983
   0.66666667  0.66666667  0.50000000
   0.00000000  0.25000000  0.59169983
   0.08333333  0.58333333  0.40830017
   0.33333333  0.08333333  0.40830017
   0.75000000  0.50000000  0.59169983
   0.83333333  0.83333333  0.40830017
   0.00000000  0.00000000  0.59169983
   0.91666667  0.16666667  0.50000000
   0.00000000  0.75000000  0.59169983
   0.75000000  0.25000000  0.59169983
   0.08333333  0.83333333  0.40830017
   0.41666667  0.41666667  0.50000000
   0.66666667  0.41666667  0.50000000
   0.16666667  0.41666667  0.50000000
   0.75000000  0.00000000  0.59169983
   0.83333333  0.08333333  0.40830017
   0.33333333  0.83333333  0.40830017
   0.16666667  0.91666667  0.50000000
   0.50000000  0.75000000  0.59169983
   0.50000000  0.00000000  0.59169983
   0.50000000  0.50000000  0.59169983
   0.16666667  0.16666667  0.50000000
   0.33333333  0.33333333  0.40830017
   0.58333333  0.58333333  0.40830017
   0.25000000  0.25000000  0.59169983
   0.16666667  0.66666667  0.50000000
   0.58333333  0.33333333  0.40830017
   0.66666667  0.91666667  0.50000000
   0.58333333  0.08333333  0.40830017
   0.41666667  0.16666667  0.50000000
   0.25000000  0.00000000  0.59169983
   0.25000000  0.50000000  0.59169983
   0.91666667  0.91666667  0.50000000
   0.08333333  0.08333333  0.40830017
   0.91666667  0.41666667  0.50000000
   0.08333333  0.33333333  0.40830017
   0.50000000  0.25000000  0.59169983
   0.41666667  0.66666667  0.50000000
   0.66666667  0.16666667  0.50000000
   0.83333333  0.58333333  0.40830017
   0.58333333  0.83333333  0.40830017
   0.41666667  0.91666667  0.50000000
   0.83333333  0.33333333  0.40830017
   0.33333333  0.58333333  0.40830017
   0.91666667  0.66666667  0.50000000
   0.25000000  0.75000000  0.59169983
Direct configuration=     2
   0.75022919  0.75039889  0.59357251
   0.00106434  0.49951062  0.59357383
   0.66677987  0.66745466  0.49878169
   0.00134323  0.24979284  0.59397747
   0.08333333  0.58333333  0.40830017
   0.33333333  0.08333333  0.40830017
   0.75055348  0.49973689  0.59399771
   0.83333333  0.83333333  0.40830017
   0.00123897 -0.00112854  0.59389627
   0.91613328  0.16714513  0.49910567
   0.00154897  0.74917746  0.59319986
   0.74890485  0.24963445  0.59399302
   0.08333333  0.83333333  0.40830017
   0.41626573  0.41632409  0.49959246
   0.66658967  0.41666341  0.49876762
   0.16692740  0.41651716  0.49996206
   0.74907142  0.00083068  0.59322966
   0.83333333  0.08333333  0.40830017
   0.33333333  0.83333333  0.40830017
   0.16793831  0.91518384  0.50032970
   0.49792678  0.75106343  0.59361186
   0.49855338  0.00155261  0.59325442
   0.49813337  0.50052212  0.59390475
   0.16756548  0.16684208  0.49993488
   0.33333333  0.33333333  0.40830017
   0.58333333  0.58333333  0.40830017
   0.25086101  0.24966311  0.59287656
   0.16708104  0.66672968  0.50028241
   0.58333333  0.33333333  0.40830017
   0.66619743  0.91759123  0.49950550
   0.58333333  0.08333333  0.40830017
   0.41805864  0.16592916  0.49998798
   0.25050654 -0.00019578  0.59287822
   0.25033842  0.49981525  0.59282532
   0.91609325  0.91601422  0.49998106
   0.08333333  0.08333333  0.40830017
   0.91666725  0.41733169  0.49923370
   0.08333333  0.33333333  0.40830017
   0.49936862  0.25007266  0.59271597
   0.41568291  0.66717146  0.49969774
   0.66555353  0.16602173  0.49967837
   0.83333333  0.58333333  0.40830017
   0.58333333  0.83333333  0.40830017
   0.41730334  0.91664971  0.49999493
   0.83333333  0.33333333  0.40830017
   0.33333333  0.58333333  0.40830017
   0.91637433  0.66698574  0.49968617
   0.25022313  0.74973519  0.59267956
Direct configuration=     3
   0.75072038  0.75125380  0.59758608
   0.00334544  0.49846178  0.59759023
   0.66702248  0.66914350  0.49617057
   0.00422207  0.24934886  0.59885894
   0.08333333  0.58333333  0.40830017
   0.33333333  0.08333333  0.40830017
   0.75173970  0.49917298  0.59892259
   0.83333333  0.83333333  0.40830017
   0.00389435 -0.00354725  0.59860372
   0.91499012  0.16817060  0.49718892
   0.00486877  0.74741457  0.59641474
   0.74655771  0.24885099  0.59890784
   0.08333333  0.83333333  0.40830017
   0.41540642  0.41558986  0.49871900
   0.66642464  0.41665644  0.49612634
   0.16748622  0.41619672  0.49988076
   0.74708126  0.00261101  0.59650843
   0.83333333  0.08333333  0.40830017
   0.33333333  0.83333333  0.40830017
   0.17066373  0.91200582  0.50103631
   0.49348341  0.75334259  0.59770977
   0.49545297  0.00488021  0.59658626
   0.49413276  0.50164115  0.59863040
   0.16949185  0.16721803  0.49979531
   0.33333333  0.33333333  0.40830017
   0.58333333  0.58333333  0.40830017
   0.25270634  0.24894108  0.59539856
   0.16796915  0.66686474  0.50088769
   0.58333333  0.33333333  0.40830017
   0.66519176  0.91957277  0.49844566
   0.58333333  0.08333333  0.40830017
   0.42104194  0.16434851  0.49996221
   0.25159216 -0.00061538  0.59540378
   0.25106372  0.49941928  0.59523751
   0.91486428  0.91461589  0.49994046
   0.08333333  0.08333333  0.40830017
   0.91666851  0.41875697  0.49759134
   0.08333333  0.33333333  0.40830017
   0.49801543  0.25022838  0.59489378
   0.41357451  0.66825336  0.49904993
   0.66316783  0.16463950  0.49898906
   0.83333333  0.58333333  0.40830017
   0.58333333  0.83333333  0.40830017
   0.41866787  0.91661335  0.49998406
   0.83333333  0.33333333  0.40830017
   0.33333333  0.58333333  0.40830017
   0.91574778  0.66766960  0.49901357
   0.25070135  0.74916764  0.59477933
Direct configuration=     4
   0.74997254  0.75165851  0.59958962
   0.00419317  0.49813565  0.59989682
   0.66668858  0.66948593  0.49796715
   0.00465642  0.24843382  0.60138980
   0.08333333  0.58333333  0.40830017
   0.33333333  0.08333333  0.40830017
   0.75086042  0.49927895  0.60120630
   0.83333333  0.83333333  0.40830017
   0.00401058 -0.00290278  0.60113757
   0.91555397  0.16764040  0.49932750
   0.00532927  0.74698389  0.59843304
   0.74641490  0.24953795  0.60127557
   0.08333333  0.83333333  0.40830017
   0.41593055  0.41591397  0.49988987
   0.66557506  0.41731241  0.49805230
   0.16711650  0.41648643  0.50130440
   0.74704549  0.00233143  0.59845961
   0.83333333  0.08333333  0.40830017
   0.33333333  0.83333333  0.40830017
   0.16926285  0.91359215  0.50270988
   0.49407752  0.75285785  0.59988715
   0.49520784  0.00489072  0.59874960
   0.49428224  0.50135841  0.60108721
   0.16914433  0.16712068  0.50136603
   0.33333333  0.33333333  0.40830017
   0.58333333  0.58333333  0.40830017
   0.25291502  0.24939408  0.59696039
   0.16761686  0.66643641  0.50206086
   0.58333333  0.33333333  0.40830017
   0.66496411  0.91971007  0.49964461
   0.58333333  0.08333333  0.40830017
   0.42184128  0.16351246  0.50081492
   0.25105247  0.00007618  0.59695184
   0.25155505  0.49850251  0.59675588
   0.91479363  0.91456784  0.50165287
   0.08333333  0.08333333  0.40830017
   0.91656612  0.41934179  0.49882905
   0.08333333  0.33333333  0.40830017
   0.49699514  0.25127593  0.59624309
   0.41524335  0.66673884  0.50020509
   0.66335231  0.16456520  0.50009258
   0.83333333  0.58333333  0.40830017
   0.58333333  0.83333333  0.40830017
   0.41992472  0.91615312  0.50129652
   0.83333333  0.33333333  0.40830017
   0.33333333  0.58333333  0.40830017
   0.91565813  0.66781246  0.50051566
   0.25087231  0.74883847  0.59645259
Direct configuration=     5
   0.74772901  0.75287267  0.60560021
   0.00673635  0.49715724  0.60681660
   0.66568686  0.67051321  0.50335691
   0.00595947  0.24568869  0.60898238
   0.08333333  0.58333333  0.40830017
   0.33333333  0.08333333  0.40830017
   0.74822257  0.49959685  0.60805744
   0.83333333  0.83333333  0.40830017
   0.00435927 -0.00096937  0.60873912
   0.91724553  0.16604981  0.50574322
   0.00671077  0.74569185  0.60448794
   0.74598647  0.25159885  0.60837877
   0.08333333  0.83333333  0.40830017
   0.41750293  0.41688630  0.50340249
   0.66302631  0.41928033  0.50383019
   0.16600736  0.41735558  0.50557534
   0.74693818  0.00149271  0.60431314
   0.83333333  0.08333333  0.40830017
   0.33333333  0.83333333  0.40830017
   0.16506022  0.91835114  0.50773059
   0.49585985  0.75140362  0.60641929
   0.49447247  0.00492224  0.60523961
   0.49473069  0.50051018  0.60845764
   0.16810177  0.16682862  0.50607819
   0.33333333  0.33333333  0.40830017
   0.58333333  0.58333333  0.40830017
   0.25354103  0.25075308  0.60164589
   0.16656000  0.66515143  0.50558038
   0.58333333  0.33333333  0.40830017
   0.66428115  0.92012198  0.50324144
   0.58333333  0.08333333  0.40830017
   0.42423932  0.16100434  0.50337307
   0.24943343  0.00215084  0.60159601
   0.25302902  0.49575222  0.60131100
   0.91458169  0.91442370  0.50679013
   0.08333333  0.08333333  0.40830017
   0.91625894  0.42109622  0.50254217
   0.08333333  0.33333333  0.40830017
   0.49393427  0.25441857  0.60029104
   0.42024986  0.66219530  0.50367056
   0.66390576  0.16434231  0.50340316
   0.83333333  0.58333333  0.40830017
   0.58333333  0.83333333  0.40830017
   0.42369527  0.91477241  0.50523390
   0.83333333  0.33333333  0.40830017
   0.33333333  0.58333333  0.40830017
   0.91538917  0.66824103  0.50502190
   0.25138518  0.74785095  0.60147237
Direct configuration=     6
   0.74742647  0.75303640  0.60641075
   0.00707930  0.49702530  0.60774975
   0.66555178  0.67065174  0.50408373
   0.00613519  0.24531851  0.61000626
   0.08333333  0.58333333  0.40830017
   0.33333333  0.08333333  0.40830017
   0.74786685  0.49963972  0.60898133
   0.83333333  0.83333333  0.40830017
   0.00440629 -0.00070865  0.60976420
   0.91747364  0.16583531  0.50660840
   0.00689706  0.74551762  0.60530445
   0.74592869  0.25187676  0.60933665
   0.08333333  0.83333333  0.40830017
   0.41771497  0.41701742  0.50387617
   0.66268261  0.41954571  0.50460935
   0.16585779  0.41747279  0.50615129
   0.74692371  0.00137961  0.60510250
   0.83333333  0.08333333  0.40830017
   0.33333333  0.83333333  0.40830017
   0.16449349  0.91899290  0.50840764
   0.49610020  0.75120751  0.60730017
   0.49437331  0.00492649  0.60611481
   0.49479117  0.50039579  0.60945156
   0.16796118  0.16678923  0.50671363
   0.33333333  0.33333333  0.40830017
   0.58333333  0.58333333  0.40830017
   0.25362545  0.25093634  0.60227774
   0.16641748  0.66497814  0.50605499
   0.58333333  0.33333333  0.40830017
   0.66418905  0.92017753  0.50372648
   0.58333333  0.08333333  0.40830017
   0.42456270  0.16066611  0.50371804
   0.24921509  0.00243061  0.60222228
   0.25322779  0.49538134  0.60192527
   0.91455311  0.91440426  0.50748290
   0.08333333  0.08333333  0.40830017
   0.91621752  0.42133281  0.50304290
   0.08333333  0.33333333  0.40830017
   0.49352150  0.25484237  0.60083691
   0.42092500  0.66158259  0.50413789
   0.66398039  0.16431225  0.50384960
   0.83333333  0.58333333  0.40830017
   0.58333333  0.83333333  0.40830017
   0.42420374  0.91458622  0.50576487
   0.83333333  0.33333333  0.40830017
   0.33333333  0.58333333  0.40830017
   0.91535290  0.66829882  0.50562958
   0.25145435  0.74771778  0.60214929
Direct configuration=     7
   0.74912456  0.75089455  0.60787364
   0.00276584  0.49747997  0.60944332
   0.66809148  0.66817551  0.50562854
   0.00313903  0.24987666  0.61203340
   0.08333333  0.58333333  0.40830017
   0.33333333  0.08333333  0.40830017
   0.75058981  0.49931708  0.61057436
   0.83333333  0.83333333  0.40830017
   0.00207427 -0.00171262  0.61192049
   0.91302426  0.16965473  0.50803194
   0.00481804  0.74729284  0.60692554
   0.74685082  0.25021935  0.61091323
   0.08333333  0.83333333  0.40830017
   0.41616937  0.41597733  0.50487331
   0.66910177  0.41519956  0.50622860
   0.16720263  0.41579371  0.50684364
   0.74754974  0.00262012  0.60648893
   0.83333333  0.08333333  0.40830017
   0.33333333  0.83333333  0.40830017
   0.16853514  0.91384564  0.50894615
   0.49554617  0.75169786  0.60876895
   0.49532851  0.00438020  0.60768939
   0.49525700  0.50091651  0.61139883
   0.16863983  0.16801292  0.50749232
   0.33333333  0.33333333  0.40830017
   0.58333333  0.58333333  0.40830017
   0.25229193  0.25003802  0.60360516
   0.16650624  0.66722588  0.50716128
   0.58333333  0.33333333  0.40830017
   0.66724472  0.91830273  0.50550907
   0.58333333  0.08333333  0.40830017
   0.42090726  0.16310542  0.50508838
   0.25185849  0.00013849  0.60392989
   0.25258216  0.49770970  0.60337567
   0.91499944  0.91480537  0.50900290
   0.08333333  0.08333333  0.40830017
   0.91486980  0.42008750  0.50505947
   0.08333333  0.33333333  0.40830017
   0.49748524  0.25190782  0.60194536
   0.41599938  0.66757392  0.50587907
   0.66696836  0.16500224  0.50558226
   0.83333333  0.58333333  0.40830017
   0.58333333  0.83333333  0.40830017
   0.41988325  0.91524094  0.50724037
   0.83333333  0.33333333  0.40830017
   0.33333333  0.58333333  0.40830017
   0.91468917  0.66896274  0.50735537
   0.25174412  0.74820511  0.60327530
Direct configuration=     8
   0.74882769  0.75126900  0.60761789
   0.00351995  0.49740048  0.60914724
   0.66764748  0.66860842  0.50535847
   0.00366284  0.24907978  0.61167901
   0.08333333  0.58333333  0.40830017
   0.33333333  0.08333333  0.40830017
   0.75011377  0.49937349  0.61029586
   0.83333333  0.83333333  0.40830017
   0.00248196 -0.00153710  0.61154352
   0.91380213  0.16898700  0.50778307
   0.00518151  0.74698249  0.60664214
   0.74668961  0.25050911  0.61063761
   0.08333333  0.83333333  0.40830017
   0.41643958  0.41615917  0.50469898
   0.66797953  0.41595938  0.50594551
   0.16696752  0.41608725  0.50672260
   0.74744029  0.00240324  0.60624655
   0.83333333  0.08333333  0.40830017
   0.33333333  0.83333333  0.40830017
   0.16782856  0.91474551  0.50885200
   0.49564303  0.75161214  0.60851217
   0.49516152  0.00447571  0.60741411
   0.49517556  0.50082548  0.61105840
   0.16852119  0.16779899  0.50735618
   0.33333333  0.33333333  0.40830017
   0.58333333  0.58333333  0.40830017
   0.25252506  0.25019507  0.60337310
   0.16649072  0.66683292  0.50696787
   0.58333333  0.33333333  0.40830017
   0.66671052  0.91863050  0.50519743
   0.58333333  0.08333333  0.40830017
   0.42154632  0.16267897  0.50484881
   0.25139636  0.00053921  0.60363136
   0.25269503  0.49730264  0.60312210
   0.91492141  0.91473525  0.50873716
   0.08333333  0.08333333  0.40830017
   0.91510542  0.42030522  0.50470692
   0.08333333  0.33333333  0.40830017
   0.49679228  0.25242086  0.60175158
   0.41686050  0.66652648  0.50557467
   0.66644599  0.16488162  0.50527935
   0.83333333  0.58333333  0.40830017
   0.58333333  0.83333333  0.40830017
   0.42063858  0.91512647  0.50698241
   0.83333333  0.33333333  0.40830017
   0.33333333  0.58333333  0.40830017
   0.91480521  0.66884667  0.50705366
   0.25169346  0.74811991  0.60307845
Direct configuration=     9
   0.74949793  0.75097315  0.60801652
   0.00225602  0.49841400  0.60932180
   0.66732582  0.66798261  0.50542060
   0.00297577  0.24927883  0.61209037
   0.08333333  0.58333333  0.40830017
   0.33333333  0.08333333  0.40830017
   0.75038788  0.49942464  0.61073659
   0.83333333  0.83333333  0.40830017
   0.00257895 -0.00160139  0.61188749
   0.91577097  0.16760426  0.50781156
   0.00400270  0.74735898  0.60708710
   0.74724718  0.25020150  0.61113271
   0.08333333  0.83333333  0.40830017
   0.41710313  0.41636440  0.50489131
   0.66686227  0.41699132  0.50604773
   0.16613796  0.41701252  0.50674182
   0.74744193  0.00224581  0.60662093
   0.83333333  0.08333333  0.40830017
   0.33333333  0.83333333  0.40830017
   0.16752376  0.91505320  0.50859526
   0.49626034  0.75137932  0.60877179
   0.49671199  0.00376935  0.60756699
   0.49618438  0.50071231  0.61128334
   0.16729620  0.16732256  0.50727558
   0.33333333  0.33333333  0.40830017
   0.58333333  0.58333333  0.40830017
   0.25166101  0.24998340  0.60384570
   0.16633408  0.66723552  0.50722016
   0.58333333  0.33333333  0.40830017
   0.66679328  0.91849774  0.50594567
   0.58333333  0.08333333  0.40830017
   0.42107663  0.16289469  0.50551118
   0.25075415  0.00024371  0.60429803
   0.25160389  0.49860321  0.60351565
   0.91589711  0.91535629  0.50892746
   0.08333333  0.08333333  0.40830017
   0.91619004  0.41903424  0.50554560
   0.08333333  0.33333333  0.40830017
   0.49861572  0.25099415  0.60205325
   0.41659192  0.66708713  0.50622335
   0.66668492  0.16508845  0.50590556
   0.83333333  0.58333333  0.40830017
   0.58333333  0.83333333  0.40830017
   0.41935820  0.91554011  0.50739622
   0.83333333  0.33333333  0.40830017
   0.33333333  0.58333333  0.40830017
   0.91588417  0.66814791  0.50750775
   0.25110636  0.74885234  0.60358094
Direct configuration=    10
   0.74959217  0.75093155  0.60807257
   0.00207829  0.49855651  0.60934635
   0.66728059  0.66789462  0.50542934
   0.00287916  0.24930682  0.61214821
   0.08333333  0.58333333  0.40830017
   0.33333333  0.08333333  0.40830017
   0.75042643  0.49943183  0.61079857
   0.83333333  0.83333333  0.40830017
   0.00259258 -0.00161042  0.61193585
   0.91604781  0.16740983  0.50781557
   0.00383694  0.74741192  0.60714967
   0.74732558  0.25015824  0.61120233
   0.08333333  0.83333333  0.40830017
   0.41719643  0.41639326  0.50491836
   0.66670517  0.41713642  0.50606210
   0.16602131  0.41714263  0.50674452
   0.74744216  0.00222367  0.60667357
   0.83333333  0.08333333  0.40830017
   0.33333333  0.83333333  0.40830017
   0.16748090  0.91509646  0.50855916
   0.49634715  0.75134658  0.60880829
   0.49693000  0.00367003  0.60758849
   0.49632624  0.50069640  0.61131497
   0.16712395  0.16725557  0.50726424
   0.33333333  0.33333333  0.40830017
   0.58333333  0.58333333  0.40830017
   0.25153951  0.24995364  0.60391216
   0.16631206  0.66729213  0.50725564
   0.58333333  0.33333333  0.40830017
   0.66680492  0.91847907  0.50605088
   0.58333333  0.08333333  0.40830017
   0.42101059  0.16292502  0.50560432
   0.25066385  0.00020216  0.60439177
   0.25145046  0.49878608  0.60357099
   0.91603430  0.91544361  0.50895422
   0.08333333  0.08333333  0.40830017
   0.91634256  0.41885553  0.50566353
   0.08333333  0.33333333  0.40830017
   0.49887212  0.25079354  0.60209566
   0.41655416  0.66716597  0.50631457
   0.66671852  0.16511753  0.50599361
   0.83333333  0.58333333  0.40830017
   0.58333333  0.83333333  0.40830017
   0.41917816  0.91559828  0.50745441
   0.83333333  0.33333333  0.40830017
   0.33333333  0.58333333  0.40830017
   0.91603588  0.66804965  0.50757160
   0.25102381  0.74895533  0.60365159
Direct configuration=    11
   0.74937451  0.75106055  0.60829369
   0.00255264  0.49849564  0.60935422
   0.66719929  0.66825576  0.50524218
   0.00299574  0.24872124  0.61235596
   0.08333333  0.58333333  0.40830017
   0.33333333  0.08333333  0.40830017
   0.75004188  0.49946017  0.61106170
   0.83333333  0.83333333  0.40830017
   0.00281957 -0.00160277  0.61206388
   0.91601401  0.16732628  0.50762194
   0.00363356  0.74783137  0.60738941
   0.74784536  0.25015047  0.61144756
   0.08333333  0.83333333  0.40830017
   0.41703622  0.41668736  0.50506331
   0.66653437  0.41722352  0.50592639
   0.16636241  0.41705626  0.50681942
   0.74821595  0.00170755  0.60693441
   0.83333333  0.08333333  0.40830017
   0.33333333  0.83333333  0.40830017
   0.16741278  0.91517198  0.50846087
   0.49666270  0.75141743  0.60888923
   0.49671010  0.00339534  0.60755177
   0.49635381  0.50047549  0.61125578
   0.16729176  0.16721050  0.50726863
   0.33333333  0.33333333  0.40830017
   0.58333333  0.58333333  0.40830017
   0.25146152  0.25001308  0.60401841
   0.16646777  0.66720556  0.50739427
   0.58333333  0.33333333  0.40830017
   0.66657612  0.91833164  0.50630859
   0.58333333  0.08333333  0.40830017
   0.42077077  0.16294893  0.50591686
   0.25032143  0.00041615  0.60473867
   0.25152369  0.49857177  0.60366078
   0.91614214  0.91563021  0.50892660
   0.08333333  0.08333333  0.40830017
   0.91644324  0.41856514  0.50603365
   0.08333333  0.33333333  0.40830017
   0.49831270  0.25141785  0.60227206
   0.41655079  0.66702650  0.50664379
   0.66685250  0.16507955  0.50616206
   0.83333333  0.58333333  0.40830017
   0.58333333  0.83333333  0.40830017
   0.41931623  0.91582403  0.50765147
   0.83333333  0.33333333  0.40830017
   0.33333333  0.58333333  0.40830017
   0.91608070  0.66806631  0.50759821
   0.25072383  0.74914055  0.60394244
Direct configuration=    12
   0.74929788  0.75110596  0.60837153
   0.00271962  0.49847421  0.60935699
   0.66717067  0.66838290  0.50517629
   0.00303678  0.24851510  0.61242909
   0.08333333  0.58333333  0.40830017
   0.33333333  0.08333333  0.40830017
   0.74990651  0.49947015  0.61115433
   0.83333333  0.83333333  0.40830017
   0.00289948 -0.00160007  0.61210895
   0.91600211  0.16729686  0.50755378
   0.00356197  0.74797904  0.60747381
   0.74802833  0.25014773  0.61153389
   0.08333333  0.83333333  0.40830017
   0.41697982  0.41679090  0.50511434
   0.66647424  0.41725418  0.50587862
   0.16648248  0.41702586  0.50684579
   0.74848835  0.00152586  0.60702623
   0.83333333  0.08333333  0.40830017
   0.33333333  0.83333333  0.40830017
   0.16738880  0.91519857  0.50842627
   0.49677379  0.75144236  0.60891773
   0.49663268  0.00329865  0.60753884
   0.49636352  0.50039772  0.61123494
   0.16735084  0.16719463  0.50727018
   0.33333333  0.33333333  0.40830017
   0.58333333  0.58333333  0.40830017
   0.25143407  0.25003400  0.60405581
   0.16652258  0.66717509  0.50744308
   0.58333333  0.33333333  0.40830017
   0.66649558  0.91827975  0.50639931
   0.58333333  0.08333333  0.40830017
   0.42068635  0.16295735  0.50602689
   0.25020089  0.00049149  0.60486079
   0.25154947  0.49849632  0.60369239
   0.91618010  0.91569591  0.50891687
   0.08333333  0.08333333  0.40830017
   0.91647868  0.41846292  0.50616395
   0.08333333  0.33333333  0.40830017
   0.49811577  0.25163762  0.60233416
   0.41654961  0.66697740  0.50675969
   0.66689966  0.16506618  0.50622135
   0.83333333  0.58333333  0.40830017
   0.58333333  0.83333333  0.40830017
   0.41936483  0.91590350  0.50772085
   0.83333333  0.33333333  0.40830017
   0.33333333  0.58333333  0.40830017
   0.91609648  0.66807217  0.50760757
   0.25061822  0.74920576  0.60404482
Direct configuration=    13
   0.74938725  0.75084682  0.60857130
   0.00283676  0.49827346  0.60935019
   0.66734662  0.66841415  0.50501926
   0.00312407  0.24862049  0.61261038
   0.08333333  0.58333333  0.40830017
   0.33333333  0.08333333  0.40830017
   0.74995296  0.49950127  0.61138645
   0.83333333  0.83333333  0.40830017
   0.00311510 -0.00167014  0.61222847
   0.91558931  0.16767362  0.50740000
   0.00379500  0.74789466  0.60765407
   0.74812144  0.24993738  0.61172142
   0.08333333  0.83333333  0.40830017
   0.41696119  0.41668062  0.50517192
   0.66671821  0.41717356  0.50574242
   0.16669958  0.41683015  0.50687107
   0.74837098  0.00182558  0.60724546
   0.83333333  0.08333333  0.40830017
   0.33333333  0.83333333  0.40830017
   0.16777469  0.91506350  0.50850826
   0.49653990  0.75140843  0.60899678
   0.49640841  0.00368062  0.60754187
   0.49612991  0.50051517  0.61115982
   0.16761537  0.16720751  0.50735478
   0.33333333  0.33333333  0.40830017
   0.58333333  0.58333333  0.40830017
   0.25143570  0.24999587  0.60415980
   0.16645549  0.66727717  0.50757050
   0.58333333  0.33333333  0.40830017
   0.66652775  0.91845417  0.50652993
   0.58333333  0.08333333  0.40830017
   0.42081420  0.16309261  0.50616832
   0.25022759  0.00046777  0.60505354
   0.25157592  0.49848138  0.60380099
   0.91599643  0.91555130  0.50888928
   0.08333333  0.08333333  0.40830017
   0.91627286  0.41859786  0.50646208
   0.08333333  0.33333333  0.40830017
   0.49807028  0.25160368  0.60251716
   0.41656271  0.66703095  0.50699397
   0.66670729  0.16498971  0.50636383
   0.83333333  0.58333333  0.40830017
   0.58333333  0.83333333  0.40830017
   0.41933877  0.91591304  0.50784825
   0.83333333  0.33333333  0.40830017
   0.33333333  0.58333333  0.40830017
   0.91604692  0.66815327  0.50760027
   0.25071182  0.74918322  0.60426867
Direct configuration=    14
   0.74940831  0.75078576  0.60861838
   0.00286436  0.49822616  0.60934858
   0.66738809  0.66842151  0.50498226
   0.00314464  0.24864532  0.61265310
   0.08333333  0.58333333  0.40830017
   0.33333333  0.08333333  0.40830017
   0.74996391  0.49950860  0.61144115
   0.83333333  0.83333333  0.40830017
   0.00316591 -0.00168665  0.61225663
   0.91549204  0.16776240  0.50736376
   0.00384992  0.74787477  0.60769655
   0.74814338  0.24988781  0.61176561
   0.08333333  0.83333333  0.40830017
   0.41695680  0.41665463  0.50518548
   0.66677570  0.41715457  0.50571033
   0.16675073  0.41678403  0.50687702
   0.74834332  0.00189621  0.60729712
   0.83333333  0.08333333  0.40830017
   0.33333333  0.83333333  0.40830017
   0.16786563  0.91503167  0.50852758
   0.49648478  0.75140043  0.60901541
   0.49635556  0.00377063  0.60754259
   0.49607486  0.50054285  0.61114212
   0.16767771  0.16721055  0.50737471
   0.33333333  0.33333333  0.40830017
   0.58333333  0.58333333  0.40830017
   0.25143608  0.24998689  0.60418431
   0.16643968  0.66730123  0.50760052
   0.58333333  0.33333333  0.40830017
   0.66653533  0.91849527  0.50656071
   0.58333333  0.08333333  0.40830017
   0.42084433  0.16312448  0.50620165
   0.25023388  0.00046218  0.60509897
   0.25158216  0.49847786  0.60382658
   0.91595315  0.91551722  0.50888278
   0.08333333  0.08333333  0.40830017
   0.91622436  0.41862966  0.50653234
   0.08333333  0.33333333  0.40830017
   0.49805957  0.25159568  0.60256029
   0.41656579  0.66704358  0.50704918
   0.66666195  0.16497169  0.50639741
   0.83333333  0.58333333  0.40830017
   0.58333333  0.83333333  0.40830017
   0.41933263  0.91591529  0.50787827
   0.83333333  0.33333333  0.40830017
   0.33333333  0.58333333  0.40830017
   0.91603524  0.66817239  0.50759854
   0.25073388  0.74917791  0.60432142
Direct configuration=    15
   0.74946022  0.75079947  0.60873965
   0.00278588  0.49826139  0.60934965
   0.66738966  0.66846096  0.50496420
   0.00312170  0.24878158  0.61276776
   0.08333333  0.58333333  0.40830017
   0.33333333  0.08333333  0.40830017
   0.74995441  0.49944081  0.61161430
   0.83333333  0.83333333  0.40830017
   0.00318984 -0.00166884  0.61230982
   0.91568499  0.16760491  0.50735936
   0.00391262  0.74774372  0.60779359
   0.74801069  0.25004071  0.61186248
   0.08333333  0.83333333  0.40830017
   0.41712271  0.41662136  0.50517913
   0.66667011  0.41727430  0.50568719
   0.16654772  0.41688026  0.50686660
   0.74817310  0.00190124  0.60744679
   0.83333333  0.08333333  0.40830017
   0.33333333  0.83333333  0.40830017
   0.16769295  0.91524563  0.50869127
   0.49642747  0.75141987  0.60908531
   0.49652331  0.00377676  0.60759773
   0.49622960  0.50044060  0.61107454
   0.16754481  0.16721087  0.50746718
   0.33333333  0.33333333  0.40830017
   0.58333333  0.58333333  0.40830017
   0.25138953  0.25004559  0.60428753
   0.16635287  0.66740295  0.50768425
   0.58333333  0.33333333  0.40830017
   0.66658764  0.91860971  0.50663189
   0.58333333  0.08333333  0.40830017
   0.42103920  0.16314320  0.50618441
   0.25035163  0.00039704  0.60518986
   0.25150608  0.49852713  0.60391696
   0.91591254  0.91546841  0.50893359
   0.08333333  0.08333333  0.40830017
   0.91629409  0.41876972  0.50669454
   0.08333333  0.33333333  0.40830017
   0.49824252  0.25149064  0.60274145
   0.41678657  0.66693360  0.50711119
   0.66650514  0.16503071  0.50647735
   0.83333333  0.58333333  0.40830017
   0.58333333  0.83333333  0.40830017
   0.41950653  0.91578706  0.50792927
   0.83333333  0.33333333  0.40830017
   0.33333333  0.58333333  0.40830017
   0.91611492  0.66813090  0.50762362
   0.25077172  0.74915994  0.60450385
Direct configuration=    16
   0.74946700  0.75080126  0.60875548
   0.00277565  0.49826599  0.60934979
   0.66738987  0.66846611  0.50496185
   0.00311871  0.24879936  0.61278273
   0.08333333  0.58333333  0.40830017
   0.33333333  0.08333333  0.40830017
   0.74995317  0.49943197  0.61163689
   0.83333333  0.83333333  0.40830017
   0.00319297 -0.00166652  0.61231676
   0.91571017  0.16758436  0.50735878
   0.00392080  0.74772662  0.60780625
   0.74799338  0.25006066  0.61187512
   0.08333333  0.83333333  0.40830017
   0.41714436  0.41661702  0.50517830
   0.66665633  0.41728992  0.50568417
   0.16652124  0.41689282  0.50686524
   0.74815089  0.00190189  0.60746632
   0.83333333  0.08333333  0.40830017
   0.33333333  0.83333333  0.40830017
   0.16767042  0.91527355  0.50871262
   0.49641999  0.75142241  0.60909443
   0.49654520  0.00377756  0.60760492
   0.49624978  0.50042726  0.61106573
   0.16752747  0.16721091  0.50747925
   0.33333333  0.33333333  0.40830017
   0.58333333  0.58333333  0.40830017
   0.25138345  0.25005325  0.60430100
   0.16634154  0.66741623  0.50769517
   0.58333333  0.33333333  0.40830017
   0.66659446  0.91862465  0.50664118
   0.58333333  0.08333333  0.40830017
   0.42106463  0.16314564  0.50618216
   0.25036700  0.00038854  0.60520172
   0.25149615  0.49853356  0.60392875
   0.91590724  0.91546204  0.50894022
   0.08333333  0.08333333  0.40830017
   0.91630319  0.41878799  0.50671571
   0.08333333  0.33333333  0.40830017
   0.49826639  0.25147693  0.60276509
   0.41681538  0.66691925  0.50711928
   0.66648468  0.16503841  0.50648778
   0.83333333  0.58333333  0.40830017
   0.58333333  0.83333333  0.40830017
   0.41952923  0.91577033  0.50793593
   0.83333333  0.33333333  0.40830017
   0.33333333  0.58333333  0.40830017
   0.91612532  0.66812548  0.50762689
   0.25077666  0.74915760  0.60452765
Direct configuration=    17
   0.74948109  0.75080222  0.60884349
   0.00263626  0.49840061  0.60937933
   0.66745489  0.66850493  0.50502977
   0.00309357  0.24878236  0.61288868