  48  48   0   0
  0.5349325E+02  0.1100258E-08  0.1100258E-08  0.2449179E-08  0.3500000E-15
  1.000000000000000E-004
  CAR 
 unknown system                          
      6.32732501     -9.86269496  301     -1.10299919      1.00000000
     -9.863  0.0000E+00  0.0000E+00
     -9.809  0.0000E+00  0.0000E+00
     -9.755  0.0000E+00  0.0000E+00
     -9.701  0.0000E+00  0.0000E+00
     -9.647  0.0000E+00  0.0000E+00
     -9.593  0.0000E+00  0.0000E+00
     -9.539  0.0000E+00  0.0000E+00
     -9.485  0.0000E+00  0.0000E+00
     -9.431  0.1029E-16  0.5551E-18
     -9.377  0.4335E-14  0.2345E-15
     -9.323  0.9562E-12  0.5184E-13
     -9.269  0.1193E-09  0.6489E-11
     -9.215  0.8426E-08  0.4612E-09
     -9.161  0.3379E-06  0.1870E-07
     -9.107  0.7707E-05  0.4346E-06
     -9.053  0.1003E-03  0.5845E-05
     -8.999  0.7458E-03  0.4609E-04
     -8.945  0.3179E-02  0.2177E-03
     -8.891  0.7794E-02  0.6383E-03
     -8.837  0.1110E-01  0.1237E-02
     -8.783  0.9827E-02  0.1768E-02
     -8.729  0.7791E-02  0.2188E-02
     -8.675  0.9308E-02  0.2690E-02
     -8.621  0.1096E-01  0.3282E-02
     -8.567  0.8356E-02  0.3733E-02
     -8.514  0.3787E-02  0.3937E-02
     -8.460  0.1095E-02  0.3996E-02
     -8.406  0.7647E-03  0.4038E-02
     -8.352  0.2371E-02  0.4166E-02
     -8.298  0.5604E-02  0.4468E-02
     -8.244  0.8577E-02  0.4931E-02
     -8.190  0.9042E-02  0.5419E-02
     -8.136  0.7518E-02  0.5825E-02
     -8.082  0.7235E-02  0.6215E-02
     -8.028  0.1057E-01  0.6785E-02
     -7.974  0.1536E-01  0.7614E-02
     -7.920  0.1710E-01  0.8537E-02
     -7.866  0.1413E-01  0.9300E-02
     -7.812  0.8551E-02  0.9761E-02
     -7.758  0.4098E-02  0.9982E-02
     -7.704  0.3543E-02  0.1017E-01
     -7.650  0.6941E-02  0.1055E-01
     -7.596  0.1199E-01  0.1120E-01
     -7.542  0.1671E-01  0.1210E-01
     -7.488  0.2053E-01  0.1320E-01
     -7.434  0.2270E-01  0.1443E-01
     -7.380  0.2475E-01  0.1577E-01
     -7.326  0.3080E-01  0.1743E-01
     -7.272  0.4067E-01  0.1962E-01
     -7.218  0.4893E-01  0.2226E-01
     -7.164  0.5151E-01  0.2504E-01
     -7.110  0.4843E-01  0.2766E-01
     -7.056  0.4354E-01  0.3001E-01
     -7.002  0.4275E-01  0.3231E-01
     -6.948  0.4771E-01  0.3489E-01
     -6.895  0.5557E-01  0.3789E-01
     -6.841  0.6290E-01  0.4128E-01
     -6.787  0.6717E-01  0.4491E-01
     -6.733  0.6986E-01  0.4868E-01
     -6.679  0.7566E-01  0.5276E-01
     -6.625  0.8442E-01  0.5732E-01
     -6.571  0.9179E-01  0.6227E-01
     -6.517  0.9637E-01  0.6747E-01
     -6.463  0.9984E-01  0.7286E-01
     -6.409  0.1078E+00  0.7868E-01
     -6.355  0.1259E+00  0.8547E-01
     -6.301  0.1503E+00  0.9359E-01
     -6.247  0.1692E+00  0.1027E+00
     -6.193  0.1757E+00  0.1122E+00
     -6.139  0.1733E+00  0.1216E+00
     -6.085  0.1671E+00  0.1306E+00
     -6.031  0.1599E+00  0.1392E+00
     -5.977  0.1562E+00  0.1476E+00
     -5.923  0.1588E+00  0.1562E+00
     -5.869  0.1632E+00  0.1650E+00
     -5.815  0.1648E+00  0.1739E+00
     -5.761  0.1623E+00  0.1827E+00
     -5.707  0.1538E+00  0.1910E+00
     -5.653  0.1402E+00  0.1985E+00
     -5.599  0.1296E+00  0.2055E+00
     -5.545  0.1259E+00  0.2123E+00
     -5.491  0.1223E+00  0.2189E+00
     -5.437  0.1163E+00  0.2252E+00
     -5.383  0.1160E+00  0.2314E+00
     -5.329  0.1261E+00  0.2383E+00
     -5.276  0.1417E+00  0.2459E+00
     -5.222  0.1576E+00  0.2544E+00
     -5.168  0.1715E+00  0.2637E+00
     -5.114  0.1821E+00  0.2735E+00
     -5.060  0.1876E+00  0.2836E+00
     -5.006  0.1864E+00  0.2937E+00
     -4.952  0.1813E+00  0.3035E+00
     -4.898  0.1779E+00  0.3131E+00
     -4.844  0.1789E+00  0.3227E+00
     -4.790  0.1813E+00  0.3325E+00
     -4.736  0.1812E+00  0.3423E+00
     -4.682  0.1780E+00  0.3519E+00
     -4.628  0.1721E+00  0.3612E+00
     -4.574  0.1647E+00  0.3701E+00
     -4.520  0.1584E+00  0.3786E+00
     -4.466  0.1544E+00  0.3869E+00
     -4.412  0.1537E+00  0.3952E+00
     -4.358  0.1577E+00  0.4038E+00
     -4.304  0.1628E+00  0.4125E+00
     -4.250  0.1640E+00  0.4214E+00
     -4.196  0.1622E+00  0.4301E+00
     -4.142  0.1630E+00  0.4389E+00
     -4.088  0.1658E+00  0.4479E+00
     -4.034  0.1667E+00  0.4569E+00
     -3.980  0.1671E+00  0.4659E+00
     -3.926  0.1715E+00  0.4752E+00
     -3.872  0.1807E+00  0.4849E+00
     -3.818  0.1905E+00  0.4952E+00
     -3.764  0.1974E+00  0.5058E+00
     -3.710  0.2013E+00  0.5167E+00
     -3.657  0.2009E+00  0.5275E+00
     -3.603  0.1970E+00  0.5382E+00
     -3.549  0.1941E+00  0.5487E+00
     -3.495  0.1949E+00  0.5592E+00
     -3.441  0.1972E+00  0.5698E+00
     -3.387  0.1965E+00  0.5804E+00
     -3.333  0.1910E+00  0.5907E+00
     -3.279  0.1842E+00  0.6007E+00
     -3.225  0.1801E+00  0.6104E+00
     -3.171  0.1791E+00  0.6201E+00
     -3.117  0.1782E+00  0.6297E+00
     -3.063  0.1756E+00  0.6391E+00
     -3.009  0.1740E+00  0.6485E+00
     -2.955  0.1776E+00  0.6581E+00
     -2.901  0.1869E+00  0.6682E+00
     -2.847  0.1961E+00  0.6788E+00
     -2.793  0.2009E+00  0.6896E+00
     -2.739  0.2031E+00  0.7006E+00
     -2.685  0.2034E+00  0.7116E+00
     -2.631  0.2009E+00  0.7224E+00
     -2.577  0.1961E+00  0.7330E+00
     -2.523  0.1907E+00  0.7433E+00
     -2.469  0.1861E+00  0.7533E+00
     -2.415  0.1825E+00  0.7632E+00
     -2.361  0.1775E+00  0.7728E+00
     -2.307  0.1708E+00  0.7820E+00
     -2.253  0.1680E+00  0.7910E+00
     -2.199  0.1738E+00  0.8004E+00
     -2.145  0.1853E+00  0.8104E+00
     -2.091  0.1956E+00  0.8210E+00
     -2.038  0.2017E+00  0.8319E+00
     -1.984  0.2055E+00  0.8429E+00
     -1.930  0.2098E+00  0.8543E+00
     -1.876  0.2139E+00  0.8658E+00
     -1.822  0.2158E+00  0.8775E+00
     -1.768  0.2157E+00  0.8891E+00
     -1.714  0.2142E+00  0.9007E+00
     -1.660  0.2114E+00  0.9121E+00
     -1.606  0.2090E+00  0.9233E+00
     -1.552  0.2082E+00  0.9346E+00
     -1.498  0.2066E+00  0.9457E+00
     -1.444  0.2023E+00  0.9566E+00
     -1.390  0.1952E+00  0.9672E+00
     -1.336  0.1860E+00  0.9772E+00
     -1.282  0.1731E+00  0.9866E+00
     -1.228  0.1524E+00  0.9948E+00
     -1.174  0.1242E+00  0.1001E+01
     -1.120  0.9551E-01  0.1007E+01
     -1.066  0.7411E-01  0.1011E+01
     -1.012  0.6000E-01  0.1014E+01
     -0.958  0.4695E-01  0.1016E+01
     -0.904  0.3292E-01  0.1018E+01
     -0.850  0.2114E-01  0.1019E+01
     -0.796  0.1443E-01  0.1020E+01
     -0.742  0.1470E-01  0.1021E+01
     -0.688  0.2150E-01  0.1022E+01
     -0.634  0.3057E-01  0.1024E+01
     -0.580  0.3762E-01  0.1026E+01
     -0.526  0.4220E-01  0.1028E+01
     -0.472  0.4506E-01  0.1030E+01
     -0.419  0.4452E-01  0.1033E+01
     -0.365  0.4006E-01  0.1035E+01
     -0.311  0.3750E-01  0.1037E+01
     -0.257  0.4121E-01  0.1039E+01
     -0.203  0.4310E-01  0.1042E+01
     -0.149  0.3576E-01  0.1044E+01
     -0.095  0.2478E-01  0.1045E+01
     -0.041  0.1800E-01  0.1046E+01
      0.013  0.1693E-01  0.1047E+01
      0.067  0.1946E-01  0.1048E+01
      0.121  0.2373E-01  0.1049E+01
      0.175  0.2727E-01  0.1051E+01
      0.229  0.2864E-01  0.1052E+01
      0.283  0.3106E-01  0.1054E+01
      0.337  0.3539E-01  0.1056E+01
      0.391  0.3942E-01  0.1058E+01
      0.445  0.4393E-01  0.1060E+01
      0.499  0.4803E-01  0.1063E+01
      0.553  0.4995E-01  0.1065E+01
      0.607  0.5142E-01  0.1068E+01
      0.661  0.5141E-01  0.1071E+01
      0.715  0.4722E-01  0.1074E+01
      0.769  0.4099E-01  0.1076E+01
      0.823  0.3498E-01  0.1078E+01
      0.877  0.2906E-01  0.1079E+01
      0.931  0.2374E-01  0.1081E+01
      0.985  0.1989E-01  0.1082E+01
      1.039  0.1867E-01  0.1083E+01
      1.093  0.1927E-01  0.1084E+01
      1.147  0.1835E-01  0.1085E+01
      1.200  0.1611E-01  0.1085E+01
      1.254  0.1476E-01  0.1086E+01
      1.308  0.1365E-01  0.1087E+01
      1.362  0.1151E-01  0.1088E+01
      1.416  0.1089E-01  0.1088E+01
      1.470  0.1617E-01  0.1089E+01
      1.524  0.2609E-01  0.1091E+01
      1.578  0.3406E-01  0.1092E+01
      1.632  0.3529E-01  0.1094E+01
      1.686  0.3117E-01  0.1096E+01
      1.740  0.2837E-01  0.1097E+01
      1.794  0.2968E-01  0.1099E+01
      1.848  0.3026E-01  0.1101E+01
      1.902  0.2691E-01  0.1102E+01
      1.956  0.2292E-01  0.1103E+01
      2.010  0.2284E-01  0.1105E+01
      2.064  0.2750E-01  0.1106E+01
      2.118  0.3365E-01  0.1108E+01
      2.172  0.3893E-01  0.1110E+01
      2.226  0.4401E-01  0.1112E+01
      2.280  0.4879E-01  0.1115E+01
      2.334  0.5016E-01  0.1118E+01
      2.388  0.4611E-01  0.1120E+01
      2.442  0.4007E-01  0.1122E+01
      2.496  0.3686E-01  0.1124E+01
      2.550  0.3752E-01  0.1126E+01
      2.604  0.4116E-01  0.1129E+01
      2.658  0.4668E-01  0.1131E+01
      2.712  0.4816E-01  0.1134E+01
      2.766  0.3965E-01  0.1136E+01
      2.819  0.2538E-01  0.1137E+01
      2.873  0.1482E-01  0.1138E+01
      2.927  0.1197E-01  0.1139E+01
      2.981  0.1171E-01  0.1139E+01
      3.035  0.8593E-02  0.1140E+01
      3.089  0.5814E-02  0.1140E+01
      3.143  0.8935E-02  0.1141E+01
      3.197  0.1734E-01  0.1142E+01
      3.251  0.2434E-01  0.1143E+01
      3.305  0.2478E-01  0.1144E+01
      3.359  0.1991E-01  0.1145E+01
      3.413  0.1554E-01  0.1146E+01
      3.467  0.1790E-01  0.1147E+01
      3.521  0.2596E-01  0.1148E+01
      3.575  0.3421E-01  0.1150E+01
      3.629  0.4232E-01  0.1153E+01
      3.683  0.4761E-01  0.1155E+01
      3.737  0.4357E-01  0.1158E+01
      3.791  0.3340E-01  0.1159E+01
      3.845  0.2557E-01  0.1161E+01
      3.899  0.2269E-01  0.1162E+01
      3.953  0.2454E-01  0.1163E+01
      4.007  0.2888E-01  0.1165E+01
      4.061  0.2908E-01  0.1166E+01
      4.115  0.2374E-01  0.1168E+01
      4.169  0.2050E-01  0.1169E+01
      4.223  0.2180E-01  0.1170E+01
      4.277  0.2084E-01  0.1171E+01
      4.331  0.1648E-01  0.1172E+01
      4.385  0.1616E-01  0.1173E+01
      4.438  0.2221E-01  0.1174E+01
      4.492  0.3019E-01  0.1176E+01
      4.546  0.3857E-01  0.1178E+01
      4.600  0.4720E-01  0.1180E+01
      4.654  0.5142E-01  0.1183E+01
      4.708  0.4868E-01  0.1186E+01
      4.762  0.4512E-01  0.1188E+01
      4.816  0.4766E-01  0.1191E+01
      4.870  0.5463E-01  0.1194E+01
      4.924  0.5868E-01  0.1197E+01
      4.978  0.5938E-01  0.1200E+01
      5.032  0.6295E-01  0.1203E+01
      5.086  0.6715E-01  0.1207E+01
      5.140  0.6580E-01  0.1211E+01
      5.194  0.6373E-01  0.1214E+01
      5.248  0.6421E-01  0.1217E+01
      5.302  0.5760E-01  0.1221E+01
      5.356  0.3882E-01  0.1223E+01
      5.410  0.1794E-01  0.1224E+01
      5.464  0.5405E-02  0.1224E+01
      5.518  0.1025E-02  0.1224E+01
      5.572  0.1191E-03  0.1224E+01
      5.626  0.8313E-05  0.1224E+01
      5.680  0.3425E-06  0.1224E+01
      5.734  0.8228E-08  0.1224E+01
      5.788  0.1141E-09  0.1224E+01
      5.842  0.9066E-12  0.1224E+01
      5.896  0.4105E-14  0.1224E+01
      5.950  0.9600E-17  0.1224E+01
      6.004  0.0000E+00  0.1224E+01
      6.057  0.0000E+00  0.1224E+01
      6.111  0.0000E+00  0.1224E+01
      6.165  0.0000E+00  0.1224E+01
      6.219  0.0000E+00  0.1224E+01
      6.273  0.0000E+00  0.1224E+01
      6.327  0.0000E+00  0.1224E+01
