unknown system                          
           1
    11.002582    0.000000    0.000000
     5.501291    9.528515    0.000000
     0.000000    0.000000   24.491785
   Au   Pd
  24  24
Direct configuration=     1
   0.08333333  0.08333333  0.40830017
   0.33333333  0.08333333  0.40830017
   0.16666667  0.16666667  0.50000000
   0.91666667  0.91666667  0.50000000
   0.91666667  0.16666667  0.50000000
   0.08333333  0.33333333  0.40830017
   0.91666667  0.41666667  0.50000000
   0.00000000  0.50000000  0.59169983
   0.75000000  0.75000000  0.59169983
   0.25000000  0.75000000  0.59169983
   0.25000000  0.25000000  0.59169983
   0.16666667  0.66666667  0.50000000
   0.08333333  0.58333333  0.40830017
   0.66666667  0.91666667  0.50000000
   0.58333333  0.08333333  0.40830017
   0.50000000  0.00000000  0.59169983
   0.50000000  0.50000000  0.59169983
   0.58333333  0.83333333  0.40830017
   0.50000000  0.75000000  0.59169983
   0.83333333  0.33333333  0.40830017
   0.75000000  0.25000000  0.59169983
   0.83333333  0.58333333  0.40830017
   0.66666667  0.66666667  0.50000000
   0.16666667  0.91666667  0.50000000
   0.41666667  0.41666667  0.50000000
   0.58333333  0.33333333  0.40830017
   0.41666667  0.16666667  0.50000000
   0.08333333  0.83333333  0.40830017
   0.16666667  0.41666667  0.50000000
   0.33333333  0.83333333  0.40830017
   0.25000000  0.50000000  0.59169983
   0.33333333  0.58333333  0.40830017
   0.50000000  0.25000000  0.59169983
   0.00000000  0.75000000  0.59169983
   0.58333333  0.58333333  0.40830017
   0.66666667  0.16666667  0.50000000
   0.33333333  0.33333333  0.40830017
   0.00000000  0.25000000  0.59169983
   0.83333333  0.08333333  0.40830017
   0.75000000  0.00000000  0.59169983
   0.83333333  0.83333333  0.40830017
   0.66666667  0.41666667  0.50000000
   0.41666667  0.91666667  0.50000000
   0.75000000  0.50000000  0.59169983
   0.00000000  0.00000000  0.59169983
   0.91666667  0.66666667  0.50000000
   0.25000000  0.00000000  0.59169983
   0.41666667  0.66666667  0.50000000
Direct configuration=     2
   0.08333333  0.08333333  0.40830017
   0.33333333  0.08333333  0.40830017
   0.16822560  0.16616412  0.50080789
   0.91577364  0.91662809  0.50000555
   0.91504842  0.16676955  0.50045556
   0.08333333  0.33333333  0.40830017
   0.91615701  0.41718230  0.50081549
   0.00029820  0.50025679  0.59356557
   0.75123382  0.74972725  0.59391148
   0.24917143  0.75042570  0.59381103
   0.25028539  0.25019984  0.59348294
   0.16752065  0.66492733  0.49991614
   0.08333333  0.58333333  0.40830017
   0.66716408  0.91772072  0.50003128
   0.58333333  0.08333333  0.40830017
   0.49943147  0.00106180  0.59356486
   0.50007499  0.49913531  0.59324047
   0.58333333  0.83333333  0.40830017
   0.49944064  0.75020870  0.59362017
   0.83333333  0.33333333  0.40830017
   0.75007119  0.24963973  0.59352606
   0.83333333  0.58333333  0.40830017
   0.66564820  0.66550839  0.49993802
   0.16847016  0.91556465  0.49997495
   0.41711564  0.41580620  0.49965881
   0.58333333  0.33333333  0.40830017
   0.41656685  0.16844034  0.50004275
   0.08333333  0.83333333  0.40830017
   0.16833297  0.41663893  0.50007716
   0.33333333  0.83333333  0.40830017
   0.25029052  0.49964233  0.59259949
   0.33333333  0.58333333  0.40830017
   0.49997355  0.25023632  0.59235026
  -0.00015356  0.75024306  0.59291541
   0.58333333  0.58333333  0.40830017
   0.66538827  0.16788453  0.49998042
   0.33333333  0.33333333  0.40830017
   0.00003855  0.24953038  0.59307977
   0.83333333  0.08333333  0.40830017
   0.75034410  0.00041612  0.59282185
   0.83333333  0.83333333  0.40830017
   0.66493197  0.41707601  0.49971357
   0.41584544  0.91654944  0.49998829
   0.75031574  0.49935746  0.59290819
  -0.00006987  0.00007034  0.59310626
   0.91740432  0.66691396  0.50008008
   0.24934528  0.00034742  0.59296099
   0.41730729  0.66591226  0.49925011
Direct configuration=     3
   0.08333333  0.08333333  0.40830017
   0.33333333  0.08333333  0.40830017
   0.17290240  0.16465650  0.50323157
   0.91309455  0.91651237  0.50002220
   0.91019367  0.16707818  0.50182226
   0.08333333  0.33333333  0.40830017
   0.91462803  0.41872920  0.50326197
   0.00119279  0.50102714  0.59916279
   0.75493529  0.74890898  0.60054643
   0.24668570  0.75170278  0.60014465
   0.25114155  0.25079937  0.59883225
   0.17008259  0.65970934  0.49966457
   0.08333333  0.58333333  0.40830017
   0.66865631  0.92088289  0.50012510
   0.58333333  0.08333333  0.40830017
   0.49772589  0.00424721  0.59915993
   0.50029994  0.49654125  0.59786239
   0.58333333  0.83333333  0.40830017
   0.49776257  0.75083479  0.59938120
   0.83333333  0.33333333  0.40830017
   0.75028477  0.24855891  0.59900476
   0.83333333  0.58333333  0.40830017
   0.66259280  0.66203356  0.49975206
   0.17388065  0.91225860  0.49989980
   0.41846257  0.41322479  0.49863523
   0.58333333  0.33333333  0.40830017
   0.41626740  0.17376136  0.50017099
   0.08333333  0.83333333  0.40830017
   0.17333187  0.41655571  0.50030862
   0.33333333  0.83333333  0.40830017
   0.25116208  0.49856931  0.59529847
   0.33333333  0.58333333  0.40830017
   0.49989419  0.25094527  0.59430156
  -0.00061423  0.75097224  0.59656216
   0.58333333  0.58333333  0.40830017
   0.66155307  0.17153812  0.49992169
   0.33333333  0.33333333  0.40830017
   0.00015420  0.24812150  0.59721959
   0.83333333  0.08333333  0.40830017
   0.75137641  0.00166447  0.59618792
   0.83333333  0.83333333  0.40830017
   0.65972787  0.41830404  0.49885426
   0.41338176  0.91619774  0.49995317
   0.75126298  0.49742985  0.59653327
  -0.00027947  0.00028137  0.59732556
   0.91961726  0.66765586  0.50032032
   0.24738113  0.00138969  0.59674449
   0.41922915  0.66364905  0.49700045
Direct configuration=     4
   0.08333333  0.08333333  0.40830017
   0.33333333  0.08333333  0.40830017
   0.17199460  0.16604189  0.50493997
   0.91539417  0.91644045  0.50128249
   0.91038340  0.16688248  0.50341369
   0.08333333  0.33333333  0.40830017
   0.91597258  0.41789837  0.50504495
   0.00193020  0.50053222  0.60143371
   0.75397814  0.74954759  0.60277866
   0.24629037  0.75151301  0.60240806
   0.25057814  0.25149869  0.60128709
   0.17111095  0.66092340  0.50127145
   0.08333333  0.58333333  0.40830017
   0.66667520  0.92003914  0.50218398
   0.58333333  0.08333333  0.40830017
   0.49850040  0.00355371  0.60107675
   0.49978104  0.49709751  0.59958580
   0.58333333  0.83333333  0.40830017
   0.49795100  0.75081870  0.60146121
   0.83333333  0.33333333  0.40830017
   0.75040898  0.24843686  0.60134298
   0.83333333  0.58333333  0.40830017
   0.66240928  0.66370609  0.50183810
   0.17268122  0.91106903  0.50148880
   0.41909687  0.41390033  0.49929246
   0.58333333  0.33333333  0.40830017
   0.41650439  0.17342155  0.50139938
   0.08333333  0.83333333  0.40830017
   0.17305979  0.41546015  0.50164740
   0.33333333  0.83333333  0.40830017
   0.25141089  0.49885205  0.59653661
   0.33333333  0.58333333  0.40830017
   0.50009402  0.25093542  0.59531254
  -0.00007339  0.75138659  0.59792094
   0.58333333  0.58333333  0.40830017
   0.66121204  0.17265805  0.50096556
   0.33333333  0.33333333  0.40830017
   0.00027377  0.24788188  0.59893692
   0.83333333  0.08333333  0.40830017
   0.75135982  0.00177552  0.59761364
   0.83333333  0.83333333  0.40830017
   0.65878700  0.41746657  0.50003901
   0.41604851  0.91547015  0.50155097
   0.75078121  0.49758715  0.59808831
  -0.00009735  0.00001532  0.59879927
   0.91876291  0.66709059  0.50187325
   0.24696997  0.00129011  0.59853247
   0.41831296  0.66279801  0.49817128
Direct configuration=     5
   0.08333333  0.08333333  0.40830017
   0.33333333  0.08333333  0.40830017
   0.16975155  0.16946496  0.50916116
   0.92107615  0.91626275  0.50439646
   0.91085220  0.16639894  0.50734586
   0.08333333  0.33333333  0.40830017
   0.91929472  0.41584553  0.50945041
   0.00375220  0.49930933  0.60704480
   0.75161318  0.75112550  0.60829414
   0.24531356  0.75104411  0.60800058
   0.24918604  0.25322660  0.60735259
   0.17365184  0.66392313  0.50524178
   0.08333333  0.58333333  0.40830017
   0.66178022  0.91795437  0.50727113
   0.58333333  0.08333333  0.40830017
   0.50041410  0.00184019  0.60581291
   0.49849891  0.49847194  0.60384403
   0.58333333  0.83333333  0.40830017
   0.49841656  0.75077894  0.60660057
   0.83333333  0.33333333  0.40830017
   0.75071589  0.24813529  0.60712032
   0.83333333  0.58333333  0.40830017
   0.66195582  0.66783862  0.50699236
   0.16971762  0.90812978  0.50541496
   0.42066412  0.41556948  0.50091639
   0.58333333  0.33333333  0.40830017
   0.41708998  0.17258195  0.50443453
   0.08333333  0.83333333  0.40830017
   0.17238754  0.41275320  0.50495528
   0.33333333  0.83333333  0.40830017
   0.25202565  0.49955064  0.59959582
   0.33333333  0.58333333  0.40830017
   0.50058776  0.25091107  0.59781050
   0.00126292  0.75241041  0.60127826
   0.58333333  0.58333333  0.40830017
   0.66036942  0.17542520  0.50354478
   0.33333333  0.33333333  0.40830017
   0.00056922  0.24728982  0.60318016
   0.83333333  0.08333333  0.40830017
   0.75131881  0.00204992  0.60113636
   0.83333333  0.83333333  0.40830017
   0.65646227  0.41539731  0.50296631
   0.42263761  0.91367239  0.50549888
   0.74959085  0.49797581  0.60193054
   0.00035263 -0.00064203  0.60244056
   0.91665194  0.66569390  0.50571030
   0.24595404  0.00104407  0.60295029
   0.41604920  0.66069526  0.50106420
Direct configuration=     6
   0.08333333  0.08333333  0.40830017
   0.33333333  0.08333333  0.40830017
   0.17029166  0.16655266  0.51104491
   0.91834109  0.91566231  0.50593652
   0.91213550  0.16775564  0.50925215
   0.08333333  0.33333333  0.40830017
   0.91790978  0.41619018  0.51126750
   0.00279305  0.50049906  0.60992590
   0.75188666  0.75065973  0.61111124
   0.24677547  0.75074766  0.61100118
   0.25013443  0.25225411  0.61051443
   0.17199510  0.66212501  0.50720314
   0.08333333  0.58333333  0.40830017
   0.66408469  0.91810416  0.50963166
   0.58333333  0.08333333  0.40830017
   0.49960236  0.00221161  0.60844454
   0.49826766  0.49965560  0.60593519
   0.58333333  0.83333333  0.40830017
   0.49774405  0.75068505  0.60923789
   0.83333333  0.33333333  0.40830017
   0.75057226  0.24858742  0.61000244
   0.83333333  0.58333333  0.40830017
   0.66370593  0.66559519  0.50954187
   0.17144088  0.91124720  0.50755340
   0.41838128  0.41637597  0.50239116
   0.58333333  0.33333333  0.40830017
   0.41704050  0.17109987  0.50637899
   0.08333333  0.83333333  0.40830017
   0.17142735  0.41426359  0.50692727
   0.33333333  0.83333333  0.40830017
   0.25206443  0.49969574  0.60125002
   0.33333333  0.58333333  0.40830017
   0.50044302  0.25082952  0.59936740
   0.00061333  0.75212229  0.60304908
   0.58333333  0.58333333  0.40830017
   0.66251202  0.17187692  0.50520623
   0.33333333  0.33333333  0.40830017
   0.00020204  0.24761519  0.60585776
   0.83333333  0.08333333  0.40830017
   0.75148885  0.00167076  0.60276576
   0.83333333  0.83333333  0.40830017
   0.65926653  0.41607377  0.50516464
   0.41969815  0.91494966  0.50786782
   0.74913145  0.49845887  0.60398623
   0.00022901 -0.00046457  0.60461814
   0.91638117  0.66569899  0.50803308
   0.24687921  0.00040828  0.60511003
   0.41733697  0.66177536  0.50347269
Direct configuration=     7
   0.08333333  0.08333333  0.40830017
   0.33333333  0.08333333  0.40830017
   0.17056617  0.16507249  0.51200233
   0.91695100  0.91535714  0.50671926
   0.91278774  0.16844519  0.51022102
   0.08333333  0.33333333  0.40830017
   0.91720589  0.41636535  0.51219103
   0.00230556  0.50110375  0.61139023
   0.75202566  0.75042301  0.61254304
   0.24751849  0.75059699  0.61252624
   0.25061645  0.25175983  0.61212143
   0.17115305  0.66121111  0.50820001
   0.08333333  0.58333333  0.40830017
   0.66525594  0.91818029  0.51083140
   0.58333333  0.08333333  0.40830017
   0.49918979  0.00240038  0.60978207
   0.49815013  0.50025720  0.60699802
   0.58333333  0.83333333  0.40830017
   0.49740225  0.75063733  0.61057831
   0.83333333  0.33333333  0.40830017
   0.75049926  0.24881722  0.61146728
   0.83333333  0.58333333  0.40830017
   0.66459542  0.66445497  0.51083765
   0.17231672  0.91283163  0.50864027
   0.41722103  0.41678587  0.50314072
   0.58333333  0.33333333  0.40830017
   0.41701535  0.17034660  0.50736727
   0.08333333  0.83333333  0.40830017
   0.17093934  0.41503125  0.50792953
   0.33333333  0.83333333  0.40830017
   0.25208415  0.49976949  0.60209077
   0.33333333  0.58333333  0.40830017
   0.50036945  0.25078807  0.60015869
   0.00028317  0.75197585  0.60394911
   0.58333333  0.58333333  0.40830017
   0.66360100  0.17007350  0.50605066
   0.33333333  0.33333333  0.40830017
   0.00001542  0.24778056  0.60721865
   0.83333333  0.08333333  0.40830017
   0.75157527  0.00147805  0.60359390
   0.83333333  0.83333333  0.40830017
   0.66069180  0.41641758  0.50628195
   0.41820416  0.91559883  0.50907184
   0.74889795  0.49870438  0.60503103
   0.00016618 -0.00037438  0.60572489
   0.91624355  0.66570158  0.50921363
   0.24734942  0.00008514  0.60620772
   0.41799148  0.66232432  0.50469681
Direct configuration=     8
   0.08333333  0.08333333  0.40830017
   0.33333333  0.08333333  0.40830017
   0.17097702  0.16548310  0.51186423
   0.91667758  0.91551458  0.50637801
   0.91280735  0.16784084  0.51011843
   0.08333333  0.33333333  0.40830017
   0.91732517  0.41661504  0.51187603
   0.00177852  0.50111100  0.61164217
   0.75222943  0.75006249  0.61295878
   0.24730894  0.75102625  0.61275210
   0.25065687  0.25133424  0.61229153
   0.16935581  0.66305413  0.50775332
   0.08333333  0.58333333  0.40830017
   0.66602597  0.91789197  0.51028870
   0.58333333  0.08333333  0.40830017
   0.49862442  0.00262442  0.61021489
   0.49897119  0.49930624  0.60712142
   0.58333333  0.83333333  0.40830017
   0.49752583  0.75101317  0.61101256
   0.83333333  0.33333333  0.40830017
   0.74993507  0.24916532  0.61155959
   0.83333333  0.58333333  0.40830017
   0.66424423  0.66454942  0.51030378
   0.17212323  0.91253631  0.50845038
   0.41800444  0.41547296  0.50346793
   0.58333333  0.33333333  0.40830017
   0.41640046  0.17003942  0.50750360
   0.08333333  0.83333333  0.40830017
   0.17013086  0.41468694  0.50813538
   0.33333333  0.83333333  0.40830017
   0.25177473  0.49927152  0.60274279
   0.33333333  0.58333333  0.40830017
   0.50035535  0.25106199  0.60057255
   0.00000841  0.75170565  0.60444218
   0.58333333  0.58333333  0.40830017
   0.66454754  0.16932554  0.50617216
   0.33333333  0.33333333  0.40830017
   0.00006623  0.24850022  0.60792000
   0.83333333  0.08333333  0.40830017
   0.75160227  0.00146157  0.60416342
   0.83333333  0.83333333  0.40830017
   0.66186772  0.41626096  0.50657974
   0.41782468  0.91532844  0.50911803
   0.74939295  0.49865251  0.60585675
   0.00009378 -0.00044853  0.60611835
   0.91669853  0.66553503  0.50931037
   0.24794736  0.00020260  0.60690058
   0.41836967  0.66363823  0.50510264
Direct configuration=     9
   0.08333333  0.08333333  0.40830017
   0.33333333  0.08333333  0.40830017
   0.17118524  0.16569119  0.51179424
   0.91653901  0.91559437  0.50620507
   0.91281729  0.16753456  0.51006644
   0.08333333  0.33333333  0.40830017
   0.91738562  0.41674158  0.51171639
   0.00151141  0.50111467  0.61176985
   0.75233270  0.74987979  0.61316947
   0.24720275  0.75124380  0.61286657
   0.25067736  0.25111855  0.61237773
   0.16844499  0.66398816  0.50752694
   0.08333333  0.58333333  0.40830017
   0.66641622  0.91774585  0.51001366
   0.58333333  0.08333333  0.40830017
   0.49833789  0.00273796  0.61043424
   0.49938729  0.49882430  0.60718395
   0.58333333  0.83333333  0.40830017
   0.49758846  0.75120365  0.61123264
   0.83333333  0.33333333  0.40830017
   0.74964914  0.24934173  0.61160638
   0.83333333  0.58333333  0.40830017
   0.66406625  0.66459728  0.51003322
   0.17202517  0.91238664  0.50835414
   0.41840146  0.41480759  0.50363376
   0.58333333  0.33333333  0.40830017
   0.41608885  0.16988374  0.50757269
   0.08333333  0.83333333  0.40830017
   0.16972113  0.41451246  0.50823970
   0.33333333  0.83333333  0.40830017
   0.25161793  0.49901914  0.60307323
   0.33333333  0.58333333  0.40830017
   0.50034821  0.25120081  0.60078229
  -0.00013083  0.75156872  0.60469206
   0.58333333  0.58333333  0.40830017
   0.66502724  0.16894648  0.50623373
   0.33333333  0.33333333  0.40830017
   0.00009197  0.24886493  0.60827544
   0.83333333  0.08333333  0.40830017
   0.75161595  0.00145321  0.60445205
   0.83333333  0.83333333  0.40830017
   0.66246367  0.41618159  0.50673066
   0.41763237  0.91519141  0.50914144
   0.74964381  0.49862622  0.60627521
   0.00005708 -0.00048611  0.60631776
   0.91692910  0.66545063  0.50935940
   0.24825039  0.00026213  0.60725172
   0.41856133  0.66430410  0.50530831
Direct configuration=    10
   0.08333333  0.08333333  0.40830017
   0.33333333  0.08333333  0.40830017
   0.17074345  0.16552700  0.51179903
   0.91634265  0.91590291  0.50607229
   0.91358152  0.16711860  0.51007043
   0.08333333  0.33333333  0.40830017
   0.91722780  0.41660734  0.51160201
   0.00142721  0.50084774  0.61180191
   0.75193927  0.75016133  0.61324955
   0.24720627  0.75101252  0.61273477
   0.25045181  0.25117642  0.61234033
   0.16903345  0.66345390  0.50729677
   0.08333333  0.58333333  0.40830017
   0.66628542  0.91755846  0.50964932
   0.58333333  0.08333333  0.40830017
   0.49888261  0.00260101  0.61050434
   0.49923252  0.49908105  0.60709913
   0.58333333  0.83333333  0.40830017
   0.49807965  0.75093133  0.61145468
   0.83333333  0.33333333  0.40830017
   0.75001285  0.24912963  0.61145037
   0.83333333  0.58333333  0.40830017
   0.66435755  0.66477443  0.50967136
   0.17150151  0.91286411  0.50826236
   0.41843552  0.41491775  0.50385240
   0.58333333  0.33333333  0.40830017
   0.41639053  0.16945040  0.50763416
   0.08333333  0.83333333  0.40830017
   0.16962581  0.41502893  0.50837530
   0.33333333  0.83333333  0.40830017
   0.25129262  0.49924183  0.60328677
   0.33333333  0.58333333  0.40830017
   0.50021812  0.25093894  0.60104664
  -0.00012516  0.75144782  0.60494705
   0.58333333  0.58333333  0.40830017
   0.66499755  0.16885057  0.50632618
   0.33333333  0.33333333  0.40830017
   0.00008717  0.24903058  0.60850010
   0.83333333  0.08333333  0.40830017
   0.75143382  0.00117901  0.60473451
   0.83333333  0.83333333  0.40830017
   0.66280368  0.41606503  0.50688067
   0.41770144  0.91523165  0.50912218
   0.74999938  0.49881981  0.60671038
  -0.00000886 -0.00020450  0.60639547
   0.91695572  0.66537310  0.50935858
   0.24795602  0.00062275  0.60756751
   0.41832058  0.66419660  0.50555211
Direct configuration=    11
   0.08333333  0.08333333  0.40830017
   0.33333333  0.08333333  0.40830017
   0.17053871  0.16545090  0.51180125
   0.91625164  0.91604590  0.50601075
   0.91393568  0.16692582  0.51007228
   0.08333333  0.33333333  0.40830017
   0.91715466  0.41654513  0.51154900
   0.00138819  0.50072403  0.61181677
   0.75175694  0.75029180  0.61328666
   0.24720791  0.75090534  0.61267370
   0.25034728  0.25120324  0.61232300
   0.16930616  0.66320631  0.50719011
   0.08333333  0.58333333  0.40830017
   0.66622481  0.91747162  0.50948047
   0.58333333  0.08333333  0.40830017
   0.49913504  0.00253754  0.61053683
   0.49916080  0.49920004  0.60705982
   0.58333333  0.83333333  0.40830017
   0.49830728  0.75080513  0.61155758
   0.83333333  0.33333333  0.40830017
   0.75018140  0.24903134  0.61137807
   0.83333333  0.58333333  0.40830017
   0.66449255  0.66485653  0.50950366
   0.17125882  0.91308538  0.50821983
   0.41845130  0.41496881  0.50395372
   0.58333333  0.33333333  0.40830017
   0.41653033  0.16924958  0.50766265
   0.08333333  0.83333333  0.40830017
   0.16958164  0.41526828  0.50843814
   0.33333333  0.83333333  0.40830017
   0.25114186  0.49934503  0.60338574
   0.33333333  0.58333333  0.40830017
   0.50015783  0.25081758  0.60116915
  -0.00012253  0.75139179  0.60506522
   0.58333333  0.58333333  0.40830017
   0.66498380  0.16880613  0.50636902
   0.33333333  0.33333333  0.40830017
   0.00008494  0.24910735  0.60860421
   0.83333333  0.08333333  0.40830017
   0.75134942  0.00105194  0.60486541
   0.83333333  0.83333333  0.40830017
   0.66296125  0.41601102  0.50695019
   0.41773346  0.91525029  0.50911325
   0.75016416  0.49890953  0.60691205
  -0.00003943 -0.00007400  0.60643149
   0.91696805  0.66533717  0.50935820
   0.24781960  0.00078988  0.60771387
   0.41820900  0.66414678  0.50566509
Direct configuration=    12
   0.08333333  0.08333333  0.40830017
   0.33333333  0.08333333  0.40830017
   0.17055481  0.16553945  0.51188853
   0.91622465  0.91577290  0.50613283
   0.91391116  0.16702896  0.51009935
   0.08333333  0.33333333  0.40830017
   0.91701023  0.41648488  0.51162287
   0.00127335  0.50082193  0.61178059
   0.75178879  0.75034285  0.61323755
   0.24719758  0.75102242  0.61245588
   0.25042659  0.25112945  0.61222049
   0.16954614  0.66304631  0.50719652
   0.08333333  0.58333333  0.40830017
   0.66630434  0.91744666  0.50939933
   0.58333333  0.08333333  0.40830017
   0.49919519  0.00249525  0.61048678
   0.49922249  0.49918061  0.60698452
   0.58333333  0.83333333  0.40830017
   0.49836763  0.75078175  0.61162260
   0.83333333  0.33333333  0.40830017
   0.75025988  0.24901080  0.61117135
   0.83333333  0.58333333  0.40830017
   0.66455148  0.66470425  0.50943783
   0.17139665  0.91286834  0.50824941
   0.41862940  0.41489112  0.50410470
   0.58333333  0.33333333  0.40830017
   0.41647513  0.16933632  0.50771144
   0.08333333  0.83333333  0.40830017
   0.16980306  0.41514255  0.50852287
   0.33333333  0.83333333  0.40830017
   0.25097175  0.49954050  0.60347239
   0.33333333  0.58333333  0.40830017
   0.50009955  0.25073765  0.60133703
  -0.00018865  0.75146461  0.60505831
   0.58333333  0.58333333  0.40830017
   0.66483604  0.16898827  0.50648225
   0.33333333  0.33333333  0.40830017
   0.00000895  0.24911312  0.60867573
   0.83333333  0.08333333  0.40830017
   0.75145290  0.00081453  0.60489752
   0.83333333  0.83333333  0.40830017
   0.66297436  0.41595746  0.50704659
   0.41756187  0.91525835  0.50919111
   0.75021216  0.49906790  0.60702453
  -0.00001816 -0.00017105  0.60641947
   0.91707284  0.66545891  0.50941222
   0.24784037  0.00071220  0.60782036
   0.41821502  0.66400449  0.50580943
Direct configuration=    13
   0.08333333  0.08333333  0.40830017
   0.33333333  0.08333333  0.40830017
   0.17056853  0.16561489  0.51196289
   0.91620166  0.91554028  0.50623685
   0.91389026  0.16711683  0.51012242
   0.08333333  0.33333333  0.40830017
   0.91688717  0.41643355  0.51168581
   0.00117551  0.50090535  0.61174976
   0.75181592  0.75038636  0.61319571
   0.24718878  0.75112219  0.61227029
   0.25049417  0.25106657  0.61213314
   0.16975062  0.66290999  0.50720198
   0.08333333  0.58333333  0.40830017
   0.66637211  0.91742538  0.50933019
   0.58333333  0.08333333  0.40830017
   0.49924643  0.00245922  0.61044413
   0.49927506  0.49916406  0.60692037
   0.58333333  0.83333333  0.40830017
   0.49841906  0.75076183  0.61167800
   0.83333333  0.33333333  0.40830017
   0.75032675  0.24899330  0.61099522
   0.83333333  0.58333333  0.40830017
   0.66460169  0.66457449  0.50938174
   0.17151409  0.91268340  0.50827460
   0.41878115  0.41482493  0.50423335
   0.58333333  0.33333333  0.40830017
   0.41642810  0.16941023  0.50775302
   0.08333333  0.83333333  0.40830017
   0.16999173  0.41503542  0.50859507
   0.33333333  0.83333333  0.40830017
   0.25082681  0.49970705  0.60354622
   0.33333333  0.58333333  0.40830017
   0.50004990  0.25066955  0.60148007
  -0.00024498  0.75152666  0.60505242
   0.58333333  0.58333333  0.40830017
   0.66471014  0.16914346  0.50657873
   0.33333333  0.33333333  0.40830017
  -0.00005580  0.24911803  0.60873667
   0.83333333  0.08333333  0.40830017
   0.75154106  0.00061224  0.60492489
   0.83333333  0.83333333  0.40830017
   0.66298553  0.41591183  0.50712873
   0.41741568  0.91526522  0.50925746
   0.75025306  0.49920285  0.60712038
  -0.00000005 -0.00025376  0.60640923
   0.91716213  0.66556263  0.50945825
   0.24785806  0.00064602  0.60791110
   0.41822015  0.66388326  0.50593242
Direct configuration=    14
   0.08333333  0.08333333  0.40830017
   0.33333333  0.08333333  0.40830017
   0.17056476  0.16558728  0.51205268
   0.91633190  0.91563958  0.50632737
   0.91395920  0.16677189  0.51007989
   0.08333333  0.33333333  0.40830017
   0.91696301  0.41655054  0.51178829
   0.00121720  0.50092574  0.61171091
   0.75179306  0.75040062  0.61312797
   0.24727735  0.75113856  0.61203282
   0.25043607  0.25113861  0.61205465
   0.16982865  0.66271746  0.50720843
   0.08333333  0.58333333  0.40830017
   0.66617170  0.91750203  0.50929990
   0.58333333  0.08333333  0.40830017
   0.49921999  0.00234791  0.61036437
   0.49935666  0.49907161  0.60690869
   0.58333333  0.83333333  0.40830017
   0.49847896  0.75078351  0.61172775
   0.83333333  0.33333333  0.40830017
   0.75022579  0.24897874  0.61078237
   0.83333333  0.58333333  0.40830017
   0.66451230  0.66455459  0.50941235
   0.17141637  0.91273712  0.50827888
   0.41892076  0.41463908  0.50433180
   0.58333333  0.33333333  0.40830017
   0.41650720  0.16940633  0.50778792
   0.08333333  0.83333333  0.40830017
   0.17004117  0.41497488  0.50865329
   0.33333333  0.83333333  0.40830017
   0.25078577  0.49978193  0.60364339
   0.33333333  0.58333333  0.40830017
   0.50006578  0.25074898  0.60166489
  -0.00019967  0.75151596  0.60505689
   0.58333333  0.58333333  0.40830017
   0.66474768  0.16904003  0.50667193
   0.33333333  0.33333333  0.40830017
  -0.00003184  0.24908843  0.60880441
   0.83333333  0.08333333  0.40830017
   0.75156584  0.00063102  0.60492390
   0.83333333  0.83333333  0.40830017
   0.66298137  0.41592130  0.50715697
   0.41746155  0.91518269  0.50934289
   0.75017196  0.49932997  0.60719835
  -0.00001130 -0.00030026  0.60638650
   0.91734555  0.66527565  0.50947378
   0.24789628  0.00059737  0.60798902
   0.41847944  0.66375605  0.50601417
Direct configuration=    15
   0.08333333  0.08333333  0.40830017
   0.33333333  0.08333333  0.40830017
   0.17056411  0.16558251  0.51206816
   0.91635436  0.91565670  0.50634298
   0.91397108  0.16671241  0.51007256
   0.08333333  0.33333333  0.40830017
   0.91697609  0.41657072  0.51180596
   0.00122439  0.50092926  0.61170421
   0.75178912  0.75040308  0.61311628
   0.24729262  0.75114139  0.61199187
   0.25042605  0.25115103  0.61204111
   0.16984211  0.66268427  0.50720955
   0.08333333  0.58333333  0.40830017
   0.66613714  0.91751524  0.50929467
   0.58333333  0.08333333  0.40830017
   0.49921543  0.00232872  0.61035062
   0.49937073  0.49905567  0.60690668
   0.58333333  0.83333333  0.40830017
   0.49848928  0.75078725  0.61173633
   0.83333333  0.33333333  0.40830017
   0.75020838  0.24897623  0.61074567
   0.83333333  0.58333333  0.40830017
   0.66449689  0.66455115  0.50941763
   0.17139952  0.91274638  0.50827962
   0.41894484  0.41460704  0.50434878
   0.58333333  0.33333333  0.40830017
   0.41652084  0.16940566  0.50779394
   0.08333333  0.83333333  0.40830017
   0.17004970  0.41496444  0.50866333
   0.33333333  0.83333333  0.40830017
   0.25077869  0.49979484  0.60366015
   0.33333333  0.58333333  0.40830017
   0.50006852  0.25076268  0.60169676
  -0.00019186  0.75151412  0.60505766
   0.58333333  0.58333333  0.40830017
   0.66475415  0.16902220  0.50668801
   0.33333333  0.33333333  0.40830017
  -0.00002771  0.24908333  0.60881609
   0.83333333  0.08333333  0.40830017
   0.75157012  0.00063425  0.60492373
   0.83333333  0.83333333  0.40830017
   0.66298065  0.41592293  0.50716184
   0.41746946  0.91516846  0.50935762
   0.75015798  0.49935189  0.60721179
  -0.00001325 -0.00030827  0.60638258
   0.91737717  0.66522617  0.50947646
   0.24790286  0.00058897  0.60800245
   0.41852415  0.66373411  0.50602827
Direct configuration=    16
   0.08333333  0.08333333  0.40830017
   0.33333333  0.08333333  0.40830017
   0.17053506  0.16549342  0.51211079
   0.91638038  0.91553793  0.50634733
   0.91402837  0.16671995  0.51000029
   0.08333333  0.33333333  0.40830017
   0.91707826  0.41644753  0.51188196
   0.00128053  0.50092409  0.61170733
   0.75182178  0.75039761  0.61305279
   0.24739173  0.75106309  0.61181462
   0.25040977  0.25120610  0.61201796
   0.16988533  0.66259097  0.50718925
   0.08333333  0.58333333  0.40830017
   0.66620257  0.91743041  0.50928494
   0.58333333  0.08333333  0.40830017
   0.49914590  0.00238271  0.61029965
   0.49936444  0.49907668  0.60696441
   0.58333333  0.83333333  0.40830017
   0.49851572  0.75075825  0.61179827
   0.83333333  0.33333333  0.40830017
   0.75018497  0.24901972  0.61059966
   0.83333333  0.58333333  0.40830017
   0.66455100  0.66457685  0.50946794
   0.17149032  0.91271961  0.50823208
   0.41894808  0.41453943  0.50436761
   0.58333333  0.33333333  0.40830017
   0.41658405  0.16935485  0.50781700
   0.08333333  0.83333333  0.40830017
   0.17011353  0.41486348  0.50866586
   0.33333333  0.83333333  0.40830017
   0.25086484  0.49977267  0.60374171
   0.33333333  0.58333333  0.40830017
   0.50004272  0.25079885  0.60184040
  -0.00012391  0.75146411  0.60507311
   0.58333333  0.58333333  0.40830017
   0.66482173  0.16881795  0.50671472
   0.33333333  0.33333333  0.40830017
  -0.00004376  0.24905275  0.60886000
   0.83333333  0.08333333  0.40830017
   0.75149251  0.00071076  0.60491670
   0.83333333  0.83333333  0.40830017
   0.66316565  0.41581514  0.50712024
   0.41747176  0.91510970  0.50939509
   0.75011610  0.49930045  0.60725952
  -0.00000622 -0.00025825  0.60639794
   0.91736141  0.66518397  0.50944505
   0.24787779  0.00061799  0.60805950
   0.41856659  0.66375825  0.50601402
