  48  48   0   0
  0.5349325E+02  0.1100258E-08  0.1100258E-08  0.2449179E-08  0.3500000E-15
  1.000000000000000E-004
  CAR 
 unknown system                          
      6.32636542     -9.90062096  301     -1.10110991      1.00000000
     -9.901  0.0000E+00  0.0000E+00
     -9.847  0.0000E+00  0.0000E+00
     -9.792  0.0000E+00  0.0000E+00
     -9.738  0.0000E+00  0.0000E+00
     -9.684  0.0000E+00  0.0000E+00
     -9.630  0.0000E+00  0.0000E+00
     -9.576  0.0000E+00  0.0000E+00
     -9.522  0.0000E+00  0.0000E+00
     -9.468  0.8894E-17  0.4811E-18
     -9.414  0.3697E-14  0.2004E-15
     -9.360  0.8197E-12  0.4454E-13
     -9.306  0.1028E-09  0.5605E-11
     -9.252  0.7308E-08  0.4009E-09
     -9.197  0.2953E-06  0.1637E-07
     -9.143  0.6801E-05  0.3843E-06
     -9.089  0.8962E-04  0.5232E-05
     -9.035  0.6779E-03  0.4190E-04
     -8.981  0.2956E-02  0.2018E-03
     -8.927  0.7486E-02  0.6067E-03
     -8.873  0.1129E-01  0.1217E-02
     -8.819  0.1132E-01  0.1830E-02
     -8.765  0.1045E-01  0.2395E-02
     -8.711  0.1109E-01  0.2995E-02
     -8.657  0.9999E-02  0.3536E-02
     -8.602  0.5921E-02  0.3856E-02
     -8.548  0.2136E-02  0.3972E-02
     -8.494  0.4641E-03  0.3997E-02
     -8.440  0.1195E-03  0.4003E-02
     -8.386  0.4161E-03  0.4026E-02
     -8.332  0.1636E-02  0.4114E-02
     -8.278  0.4035E-02  0.4333E-02
     -8.224  0.6676E-02  0.4694E-02
     -8.170  0.8178E-02  0.5136E-02
     -8.116  0.8156E-02  0.5577E-02
     -8.062  0.7813E-02  0.6000E-02
     -8.007  0.9512E-02  0.6514E-02
     -7.953  0.1362E-01  0.7251E-02
     -7.899  0.1725E-01  0.8184E-02
     -7.845  0.1751E-01  0.9131E-02
     -7.791  0.1537E-01  0.9963E-02
     -7.737  0.1486E-01  0.1077E-01
     -7.683  0.1641E-01  0.1165E-01
     -7.629  0.1717E-01  0.1258E-01
     -7.575  0.1785E-01  0.1355E-01
     -7.521  0.2119E-01  0.1469E-01
     -7.467  0.2536E-01  0.1607E-01
     -7.412  0.2615E-01  0.1748E-01
     -7.358  0.2409E-01  0.1878E-01
     -7.304  0.2261E-01  0.2001E-01
     -7.250  0.2371E-01  0.2129E-01
     -7.196  0.2857E-01  0.2283E-01
     -7.142  0.3594E-01  0.2478E-01
     -7.088  0.4327E-01  0.2712E-01
     -7.034  0.5008E-01  0.2983E-01
     -6.980  0.5533E-01  0.3282E-01
     -6.926  0.5837E-01  0.3598E-01
     -6.872  0.6139E-01  0.3930E-01
     -6.817  0.6555E-01  0.4284E-01
     -6.763  0.7118E-01  0.4669E-01
     -6.709  0.7913E-01  0.5097E-01
     -6.655  0.8804E-01  0.5574E-01
     -6.601  0.9440E-01  0.6084E-01
     -6.547  0.9679E-01  0.6608E-01
     -6.493  0.9931E-01  0.7145E-01
     -6.439  0.1074E+00  0.7726E-01
     -6.385  0.1208E+00  0.8380E-01
     -6.331  0.1349E+00  0.9109E-01
     -6.277  0.1474E+00  0.9907E-01
     -6.223  0.1563E+00  0.1075E+00
     -6.168  0.1592E+00  0.1161E+00
     -6.114  0.1576E+00  0.1247E+00
     -6.060  0.1560E+00  0.1331E+00
     -6.006  0.1526E+00  0.1413E+00
     -5.952  0.1428E+00  0.1491E+00
     -5.898  0.1325E+00  0.1562E+00
     -5.844  0.1298E+00  0.1633E+00
     -5.790  0.1328E+00  0.1704E+00
     -5.736  0.1353E+00  0.1778E+00
     -5.682  0.1354E+00  0.1851E+00
     -5.628  0.1348E+00  0.1924E+00
     -5.573  0.1360E+00  0.1997E+00
     -5.519  0.1395E+00  0.2073E+00
     -5.465  0.1446E+00  0.2151E+00
     -5.411  0.1504E+00  0.2232E+00
     -5.357  0.1557E+00  0.2317E+00
     -5.303  0.1587E+00  0.2402E+00
     -5.249  0.1597E+00  0.2489E+00
     -5.195  0.1602E+00  0.2575E+00
     -5.141  0.1615E+00  0.2663E+00
     -5.087  0.1649E+00  0.2752E+00
     -5.033  0.1693E+00  0.2844E+00
     -4.978  0.1717E+00  0.2936E+00
     -4.924  0.1723E+00  0.3030E+00
     -4.870  0.1723E+00  0.3123E+00
     -4.816  0.1722E+00  0.3216E+00
     -4.762  0.1737E+00  0.3310E+00
     -4.708  0.1769E+00  0.3406E+00
     -4.654  0.1795E+00  0.3503E+00
     -4.600  0.1787E+00  0.3599E+00
     -4.546  0.1748E+00  0.3694E+00
     -4.492  0.1715E+00  0.3787E+00
     -4.438  0.1715E+00  0.3879E+00
     -4.383  0.1733E+00  0.3973E+00
     -4.329  0.1754E+00  0.4068E+00
     -4.275  0.1805E+00  0.4166E+00
     -4.221  0.1889E+00  0.4268E+00
     -4.167  0.1953E+00  0.4374E+00
     -4.113  0.1961E+00  0.4480E+00
     -4.059  0.1935E+00  0.4584E+00
     -4.005  0.1892E+00  0.4687E+00
     -3.951  0.1817E+00  0.4785E+00
     -3.897  0.1739E+00  0.4879E+00
     -3.843  0.1722E+00  0.4972E+00
     -3.788  0.1761E+00  0.5067E+00
     -3.734  0.1815E+00  0.5166E+00
     -3.680  0.1892E+00  0.5268E+00
     -3.626  0.1975E+00  0.5375E+00
     -3.572  0.2012E+00  0.5484E+00
     -3.518  0.1995E+00  0.5592E+00
     -3.464  0.1957E+00  0.5697E+00
     -3.410  0.1939E+00  0.5802E+00
     -3.356  0.1963E+00  0.5908E+00
     -3.302  0.2011E+00  0.6017E+00
     -3.248  0.2049E+00  0.6128E+00
     -3.193  0.2043E+00  0.6239E+00
     -3.139  0.1983E+00  0.6346E+00
     -3.085  0.1901E+00  0.6449E+00
     -3.031  0.1848E+00  0.6549E+00
     -2.977  0.1847E+00  0.6649E+00
     -2.923  0.1881E+00  0.6750E+00
     -2.869  0.1920E+00  0.6854E+00
     -2.815  0.1949E+00  0.6960E+00
     -2.761  0.1974E+00  0.7066E+00
     -2.707  0.1989E+00  0.7174E+00
     -2.653  0.1974E+00  0.7281E+00
     -2.598  0.1940E+00  0.7386E+00
     -2.544  0.1921E+00  0.7490E+00
     -2.490  0.1908E+00  0.7593E+00
     -2.436  0.1898E+00  0.7695E+00
     -2.382  0.1901E+00  0.7798E+00
     -2.328  0.1898E+00  0.7901E+00
     -2.274  0.1878E+00  0.8002E+00
     -2.220  0.1860E+00  0.8103E+00
     -2.166  0.1848E+00  0.8203E+00
     -2.112  0.1839E+00  0.8302E+00
     -2.058  0.1830E+00  0.8401E+00
     -2.003  0.1819E+00  0.8500E+00
     -1.949  0.1799E+00  0.8597E+00
     -1.895  0.1778E+00  0.8693E+00
     -1.841  0.1775E+00  0.8789E+00
     -1.787  0.1786E+00  0.8886E+00
     -1.733  0.1794E+00  0.8983E+00
     -1.679  0.1799E+00  0.9080E+00
     -1.625  0.1798E+00  0.9177E+00
     -1.571  0.1795E+00  0.9275E+00
     -1.517  0.1793E+00  0.9372E+00
     -1.463  0.1817E+00  0.9470E+00
     -1.408  0.1895E+00  0.9572E+00
     -1.354  0.1979E+00  0.9679E+00
     -1.300  0.1972E+00  0.9786E+00
     -1.246  0.1823E+00  0.9885E+00
     -1.192  0.1569E+00  0.9970E+00
     -1.138  0.1295E+00  0.1004E+01
     -1.084  0.1058E+00  0.1010E+01
     -1.030  0.8260E-01  0.1014E+01
     -0.976  0.5650E-01  0.1017E+01
     -0.922  0.3194E-01  0.1019E+01
     -0.868  0.1608E-01  0.1020E+01
     -0.814  0.1246E-01  0.1020E+01
     -0.759  0.1900E-01  0.1022E+01
     -0.705  0.2843E-01  0.1023E+01
     -0.651  0.3537E-01  0.1025E+01
     -0.597  0.4031E-01  0.1027E+01
     -0.543  0.4402E-01  0.1030E+01
     -0.489  0.4417E-01  0.1032E+01
     -0.435  0.3765E-01  0.1034E+01
     -0.381  0.2753E-01  0.1035E+01
     -0.327  0.2379E-01  0.1037E+01
     -0.273  0.3086E-01  0.1038E+01
     -0.219  0.4011E-01  0.1041E+01
     -0.164  0.4118E-01  0.1043E+01
     -0.110  0.3393E-01  0.1045E+01
     -0.056  0.2553E-01  0.1046E+01
     -0.002  0.2143E-01  0.1047E+01
      0.052  0.2324E-01  0.1048E+01
      0.106  0.2902E-01  0.1050E+01
      0.160  0.3318E-01  0.1052E+01
      0.214  0.3416E-01  0.1054E+01
      0.268  0.3543E-01  0.1056E+01
      0.322  0.3696E-01  0.1058E+01
      0.376  0.3716E-01  0.1060E+01
      0.431  0.3837E-01  0.1062E+01
      0.485  0.4204E-01  0.1064E+01
      0.539  0.4490E-01  0.1066E+01
      0.593  0.4449E-01  0.1069E+01
      0.647  0.4308E-01  0.1071E+01
      0.701  0.4228E-01  0.1073E+01
      0.755  0.3889E-01  0.1075E+01
      0.809  0.2983E-01  0.1077E+01
      0.863  0.2023E-01  0.1078E+01
      0.917  0.1790E-01  0.1079E+01
      0.971  0.2099E-01  0.1080E+01
      1.026  0.2349E-01  0.1082E+01
      1.080  0.2494E-01  0.1083E+01
      1.134  0.2628E-01  0.1084E+01
      1.188  0.2455E-01  0.1086E+01
      1.242  0.1810E-01  0.1087E+01
      1.296  0.1072E-01  0.1087E+01
      1.350  0.7744E-02  0.1088E+01
      1.404  0.1120E-01  0.1088E+01
      1.458  0.1969E-01  0.1089E+01
      1.512  0.2890E-01  0.1091E+01
      1.566  0.3254E-01  0.1093E+01
      1.621  0.2994E-01  0.1094E+01
      1.675  0.2780E-01  0.1096E+01
      1.729  0.3043E-01  0.1097E+01
      1.783  0.3479E-01  0.1099E+01
      1.837  0.3586E-01  0.1101E+01
      1.891  0.3413E-01  0.1103E+01
      1.945  0.3304E-01  0.1105E+01
      1.999  0.3142E-01  0.1107E+01
      2.053  0.2912E-01  0.1108E+01
      2.107  0.2967E-01  0.1110E+01
      2.161  0.3309E-01  0.1112E+01
      2.216  0.3695E-01  0.1114E+01
      2.270  0.3962E-01  0.1116E+01
      2.324  0.4002E-01  0.1118E+01
      2.378  0.3699E-01  0.1120E+01
      2.432  0.3254E-01  0.1122E+01
      2.486  0.3210E-01  0.1123E+01
      2.540  0.3732E-01  0.1125E+01
      2.594  0.4411E-01  0.1128E+01
      2.648  0.4744E-01  0.1130E+01
      2.702  0.4519E-01  0.1133E+01
      2.756  0.3834E-01  0.1135E+01
      2.811  0.2957E-01  0.1136E+01
      2.865  0.2178E-01  0.1138E+01
      2.919  0.1704E-01  0.1138E+01
      2.973  0.1420E-01  0.1139E+01
      3.027  0.1094E-01  0.1140E+01
      3.081  0.9787E-02  0.1140E+01
      3.135  0.1276E-01  0.1141E+01
      3.189  0.1721E-01  0.1142E+01
      3.243  0.2159E-01  0.1143E+01
      3.297  0.2363E-01  0.1144E+01
      3.351  0.2145E-01  0.1146E+01
      3.406  0.2106E-01  0.1147E+01
      3.460  0.2662E-01  0.1148E+01
      3.514  0.3252E-01  0.1150E+01
      3.568  0.3463E-01  0.1152E+01
      3.622  0.3545E-01  0.1154E+01
      3.676  0.3719E-01  0.1156E+01
      3.730  0.3816E-01  0.1158E+01
      3.784  0.3466E-01  0.1160E+01
      3.838  0.2761E-01  0.1161E+01
      3.892  0.2296E-01  0.1162E+01
      3.946  0.2326E-01  0.1164E+01
      4.000  0.2574E-01  0.1165E+01
      4.055  0.2719E-01  0.1167E+01
      4.109  0.2621E-01  0.1168E+01
      4.163  0.2285E-01  0.1169E+01
      4.217  0.1903E-01  0.1170E+01
      4.271  0.1664E-01  0.1171E+01
      4.325  0.1627E-01  0.1172E+01
      4.379  0.2077E-01  0.1173E+01
      4.433  0.2923E-01  0.1175E+01
      4.487  0.3529E-01  0.1177E+01
      4.541  0.4020E-01  0.1179E+01
      4.595  0.4758E-01  0.1181E+01
      4.650  0.5149E-01  0.1184E+01
      4.704  0.4825E-01  0.1187E+01
      4.758  0.4456E-01  0.1189E+01
      4.812  0.4580E-01  0.1192E+01
      4.866  0.4928E-01  0.1194E+01
      4.920  0.5263E-01  0.1197E+01
      4.974  0.5991E-01  0.1200E+01
      5.028  0.7102E-01  0.1204E+01
      5.082  0.7678E-01  0.1208E+01
      5.136  0.7300E-01  0.1212E+01
      5.190  0.6552E-01  0.1216E+01
      5.245  0.5732E-01  0.1219E+01
      5.299  0.4496E-01  0.1221E+01
      5.353  0.2857E-01  0.1223E+01
      5.407  0.1353E-01  0.1224E+01
      5.461  0.4381E-02  0.1224E+01
      5.515  0.9027E-03  0.1224E+01
      5.569  0.1128E-03  0.1224E+01
      5.623  0.8301E-05  0.1224E+01
      5.677  0.3543E-06  0.1224E+01
      5.731  0.8677E-08  0.1224E+01
      5.785  0.1212E-09  0.1224E+01
      5.840  0.9608E-12  0.1224E+01
      5.894  0.4308E-14  0.1224E+01
      5.948  0.9579E-17  0.1224E+01
      6.002  0.0000E+00  0.1224E+01
      6.056  0.0000E+00  0.1224E+01
      6.110  0.0000E+00  0.1224E+01
      6.164  0.0000E+00  0.1224E+01
      6.218  0.0000E+00  0.1224E+01
      6.272  0.0000E+00  0.1224E+01
      6.326  0.0000E+00  0.1224E+01
