<?xml version="1.0" encoding="ISO-8859-1"?>
<modeling>
 <generator>
  <i name="program" type="string">vasp </i>
  <i name="version" type="string">5.4.1  </i>
  <i name="subversion" type="string">24Jun15 (build Mar 14 2019 10:18:33) complex                          parallel </i>
  <i name="platform" type="string">INTEL-19.0.2+OPENMPI-3.1.3 </i>
  <i name="date" type="string">2022 07 11 </i>
  <i name="time" type="string">19:57:16 </i>
 </generator>
 <incar>
  <i type="int" name="ISTART">     0</i>
  <i type="string" name="PREC">normal</i>
  <i type="string" name="ALGO"> Fast</i>
  <i type="int" name="NELM">   500</i>
  <i type="int" name="IBRION">     2</i>
  <i type="int" name="NFREE">     2</i>
  <i name="EDIFF">      0.00000100</i>
  <i name="EDIFFG">     -0.02000000</i>
  <i type="int" name="NSW">   500</i>
  <i type="int" name="ISIF">     0</i>
  <i type="int" name="ISYM">     2</i>
  <i name="ENCUT">    400.00000000</i>
  <i name="POTIM">      0.35000000</i>
  <i type="string" name="LREAL"> Auto</i>
  <i type="logical" name="LPLANE"> T  </i>
  <i type="int" name="ISMEAR">     0</i>
  <i name="SIGMA">      0.10000000</i>
  <i type="int" name="NWRITE">     1</i>
  <i type="logical" name="LWAVE"> F  </i>
  <i type="logical" name="LCHARG"> F  </i>
  <i type="logical" name="LVTOT"> F  </i>
  <i type="logical" name="LORBIT"> F  </i>
  <i type="logical" name="LAECHG"> F  </i>
  <v type="int" name="KPOINT_BSE">    -1     0     0     0</v>
  <i type="int" name="NELM">   500</i>
  <i type="string" name="GGA"> PE          ! optPBE-vdW XC-functional</i>
  <i type="int" name="VOSKOWN">     1</i>
  <i type="logical" name="LDIPOL"> T  </i>
  <i type="logical" name="LMONO"> F  </i>
  <i type="int" name="IDIPOL">     3</i>
  <v name="DIPOL">      0.00000000      0.00000000      0.50000000</v>
 </incar>
 <kpoints>
  <generation param="Monkhorst-Pack">
   <v type="int" name="divisions">       2        2        1 </v>
   <v name="usershift">      0.00000000       0.00000000       0.00000000 </v>
   <v name="genvec1">      0.50000000      -0.00000000       0.00000000 </v>
   <v name="genvec2">      0.00000000       0.50000000       0.00000000 </v>
   <v name="genvec3">      0.00000000       0.00000000       1.00000000 </v>
   <v name="shift">      0.50000000       0.50000000       0.00000000 </v>
  </generation>
  <varray name="kpointlist" >
   <v>       0.25000000       0.25000000       0.00000000 </v>
   <v>       0.00000000       0.25000000       0.00000000 </v>
   <v>      -0.25000000       0.00000000       0.00000000 </v>
   <v>      -0.25000000       0.25000000       0.00000000 </v>
   <v>       0.50000000      -0.25000000       0.00000000 </v>
   <v>      -0.25000000       0.50000000       0.00000000 </v>
  </varray>
  <varray name="weights" >
   <v>       0.16666667 </v>
   <v>       0.16666667 </v>
   <v>       0.16666667 </v>
   <v>       0.16666667 </v>
   <v>       0.16666667 </v>
   <v>       0.16666667 </v>
  </varray>
 </kpoints>
 <parameters>
  <separator name="general" >
   <i type="string" name="SYSTEM">unknown system</i>
   <i type="logical" name="LCOMPAT"> F  </i>
  </separator>
  <separator name="electronic" >
   <i type="string" name="PREC">normal</i>
   <i name="ENMAX">    400.00000000</i>
   <i name="ENAUG">    416.23000000</i>
   <i name="EDIFF">      0.00000100</i>
   <i type="int" name="IALGO">    68</i>
   <i type="int" name="IWAVPR">    11</i>
   <i type="int" name="NBANDS">   306</i>
   <i name="NELECT">    504.00000000</i>
   <i type="int" name="TURBO">     0</i>
   <i type="int" name="IRESTART">     0</i>
   <i type="int" name="NREBOOT">     0</i>
   <i type="int" name="NMIN">     0</i>
   <i name="EREF">      0.00000000</i>
   <separator name="electronic smearing" >
    <i type="int" name="ISMEAR">     0</i>
    <i name="SIGMA">      0.10000000</i>
    <i name="KSPACING">      0.50000000</i>
    <i type="logical" name="KGAMMA"> T  </i>
   </separator>
   <separator name="electronic projectors" >
    <i type="logical" name="LREAL"> T  </i>
    <v name="ROPT">     -0.00050000     -0.00050000</v>
    <i type="int" name="LMAXPAW">  -100</i>
    <i type="int" name="LMAXMIX">     2</i>
    <i type="logical" name="NLSPLINE"> F  </i>
   </separator>
   <separator name="electronic startup" >
    <i type="int" name="ISTART">     0</i>
    <i type="int" name="ICHARG">     2</i>
    <i type="int" name="INIWAV">     1</i>
   </separator>
   <separator name="electronic spin" >
    <i type="int" name="ISPIN">     1</i>
    <i type="logical" name="LNONCOLLINEAR"> F  </i>
    <v name="MAGMOM">      1.00000000      1.00000000      1.00000000      1.00000000      1.00000000      1.00000000      1.00000000      1.00000000      1.00000000      1.00000000      1.00000000      1.00000000      1.00000000      1.00000000      1.00000000      1.00000000      1.00000000      1.00000000      1.00000000      1.00000000
      1.00000000      1.00000000      1.00000000      1.00000000      1.00000000      1.00000000      1.00000000      1.00000000      1.00000000      1.00000000      1.00000000      1.00000000      1.00000000      1.00000000      1.00000000      1.00000000      1.00000000      1.00000000      1.00000000      1.00000000
      1.00000000      1.00000000      1.00000000      1.00000000      1.00000000      1.00000000      1.00000000      1.00000000</v>
    <i name="NUPDOWN">     -1.00000000</i>
    <i type="logical" name="LSORBIT"> F  </i>
    <v name="SAXIS">      0.00000000      0.00000000      1.00000000</v>
    <i type="logical" name="LSPIRAL"> F  </i>
    <v name="QSPIRAL">      0.00000000      0.00000000      0.00000000</v>
    <i type="logical" name="LZEROZ"> F  </i>
   </separator>
   <separator name="electronic exchange-correlation" >
    <i type="logical" name="LASPH"> F  </i>
    <i type="logical" name="LMETAGGA"> F  </i>
   </separator>
   <separator name="electronic convergence" >
    <i type="int" name="NELM">   500</i>
    <i type="int" name="NELMDL">    -5</i>
    <i type="int" name="NELMIN">     2</i>
    <i name="ENINI">    400.00000000</i>
    <separator name="electronic convergence detail" >
     <i type="logical" name="LDIAG"> T  </i>
     <i type="logical" name="LSUBROT"> F  </i>
     <i name="WEIMIN">      0.00100000</i>
     <i name="EBREAK">      0.00000000</i>
     <i name="DEPER">      0.30000000</i>
     <i type="int" name="NRMM">     4</i>
     <i name="TIME">      0.40000000</i>
    </separator>
   </separator>
   <separator name="electronic mixer" >
    <i name="AMIX">      0.40000000</i>
    <i name="BMIX">      1.00000000</i>
    <i name="AMIN">      0.10000000</i>
    <i name="AMIX_MAG">      1.60000000</i>
    <i name="BMIX_MAG">      1.00000000</i>
    <separator name="electronic mixer details" >
     <i type="int" name="IMIX">     4</i>
     <i type="logical" name="MIXFIRST"> F  </i>
     <i type="int" name="MAXMIX">   -45</i>
     <i name="WC">    100.00000000</i>
     <i type="int" name="INIMIX">     1</i>
     <i type="int" name="MIXPRE">     1</i>
     <i type="int" name="MREMOVE">     5</i>
    </separator>
   </separator>
   <separator name="electronic dipolcorrection" >
    <i type="logical" name="LDIPOL"> T  </i>
    <i type="logical" name="LMONO"> F  </i>
    <i type="int" name="IDIPOL">     3</i>
    <i name="EPSILON">      1.00000000</i>
    <v name="DIPOL">      0.00000000      0.00000000      0.50000000</v>
    <i name="EFIELD">      0.00000000</i>
   </separator>
  </separator>
  <separator name="grids" >
   <i type="int" name="NGX">    54</i>
   <i type="int" name="NGY">    54</i>
   <i type="int" name="NGZ">   120</i>
   <i type="int" name="NGXF">   108</i>
   <i type="int" name="NGYF">   108</i>
   <i type="int" name="NGZF">   240</i>
   <i type="logical" name="ADDGRID"> F  </i>
  </separator>
  <separator name="ionic" >
   <i type="int" name="NSW">   500</i>
   <i type="int" name="IBRION">     2</i>
   <i type="int" name="ISIF">     0</i>
   <i name="PSTRESS">      0.00000000</i>
   <i name="EDIFFG">     -0.02000000</i>
   <i type="int" name="NFREE">     2</i>
   <i name="POTIM">      0.35000000</i>
   <i name="SMASS">     -3.00000000</i>
   <i name="SCALEE">      1.00000000</i>
  </separator>
  <separator name="ionic md" >
   <i name="TEBEG">      0.00010000</i>
   <i name="TEEND">      0.00010000</i>
   <i type="int" name="NBLOCK">     1</i>
   <i type="int" name="KBLOCK">   500</i>
   <i type="int" name="NPACO">   256</i>
   <i name="APACO">     16.00000000</i>
  </separator>
  <separator name="symmetry" >
   <i type="int" name="ISYM">     2</i>
   <i name="SYMPREC">      0.00001000</i>
  </separator>
  <separator name="dos" >
   <i type="logical" name="LORBIT"> F  </i>
   <v name="RWIGS">     -1.00000000     -1.00000000</v>
   <i type="int" name="NEDOS">   301</i>
   <i name="EMIN">     10.00000000</i>
   <i name="EMAX">    -10.00000000</i>
   <i name="EFERMI">      0.00000000</i>
  </separator>
  <separator name="writing" >
   <i type="int" name="NWRITE">     1</i>
   <i type="logical" name="LWAVE"> F  </i>
   <i type="logical" name="LCHARG"> F  </i>
   <i type="logical" name="LPARD"> F  </i>
   <i type="logical" name="LVTOT"> F  </i>
   <i type="logical" name="LVHAR"> F  </i>
   <i type="logical" name="LELF"> F  </i>
   <i type="logical" name="LOPTICS"> F  </i>
   <v name="STM">      0.00000000      0.00000000      0.00000000      0.00000000      0.00000000      0.00000000      0.00000000</v>
  </separator>
  <separator name="performance" >
   <i type="int" name="NPAR">     6</i>
   <i type="int" name="NSIM">     4</i>
   <i type="int" name="NBLK">    -1</i>
   <i type="logical" name="LPLANE"> T  </i>
   <i type="logical" name="LSCALAPACK"> T  </i>
   <i type="logical" name="LSCAAWARE"> F  </i>
   <i type="logical" name="LSCALU"> F  </i>
   <i type="logical" name="LASYNC"> F  </i>
   <i type="logical" name="LORBITALREAL"> F  </i>
  </separator>
  <separator name="miscellaneous" >
   <i type="int" name="IDIOT">     3</i>
   <i type="logical" name="LMUSIC"> F  </i>
   <v name="POMASS">    196.96600000    106.42000000</v>
   <v name="DARWINR">      0.00000000      0.00000000</v>
   <v name="DARWINV">      1.00000000      1.00000000</v>
   <i type="logical" name="LCORR"> T  </i>
  </separator>
  <i type="logical" name="GGA_COMPAT"> T  </i>
  <i type="logical" name="LBERRY"> F  </i>
  <i type="int" name="ICORELEVEL">     0</i>
  <i type="logical" name="LDAU"> F  </i>
  <i type="int" name="I_CONSTRAINED_M">     0</i>
  <separator name="electronic exchange-correlation" >
   <i type="string" name="GGA">PE</i>
   <i type="int" name="VOSKOWN">     1</i>
   <i type="logical" name="LHFCALC"> F  </i>
   <i type="string" name="PRECFOCK"></i>
   <i type="logical" name="LSYMGRAD"> F  </i>
   <i type="logical" name="LHFONE"> F  </i>
   <i type="logical" name="LRHFCALC"> F  </i>
   <i type="logical" name="LTHOMAS"> F  </i>
   <i type="logical" name="LMODELHF"> F  </i>
   <i name="ENCUT4O">     -1.00000000</i>
   <i type="int" name="EXXOEP">     0</i>
   <i type="int" name="FOURORBIT">     0</i>
   <i name="AEXX">      0.00000000</i>
   <i name="HFALPHA">      0.00000000</i>
   <i name="MCALPHA">      0.00000000</i>
   <i name="ALDAX">      1.00000000</i>
   <i name="AGGAX">      1.00000000</i>
   <i name="ALDAC">      1.00000000</i>
   <i name="AGGAC">      1.00000000</i>
   <i type="int" name="NKREDX">     1</i>
   <i type="int" name="NKREDY">     1</i>
   <i type="int" name="NKREDZ">     1</i>
   <i type="logical" name="SHIFTRED"> F  </i>
   <i type="logical" name="ODDONLY"> F  </i>
   <i type="logical" name="EVENONLY"> F  </i>
   <i type="int" name="LMAXFOCK">     0</i>
   <i type="int" name="NMAXFOCKAE">     0</i>
   <i type="logical" name="LFOCKAEDFT"> F  </i>
   <i name="HFSCREEN">      0.00000000</i>
   <i name="HFSCREENC">      0.00000000</i>
   <i type="int" name="NBANDSGWLOW">     0</i>
  </separator>
  <separator name="vdW DFT" >
   <i type="logical" name="LUSE_VDW"> F  </i>
   <i name="Zab_VDW">     -0.84910000</i>
   <i name="PARAM1">      0.12340000</i>
   <i name="PARAM2">      1.00000000</i>
   <i name="PARAM3">      0.00000000</i>
  </separator>
  <separator name="model GW" >
   <i type="int" name="MODEL_GW">     0</i>
   <i name="MODEL_EPS0">     32.09595293</i>
   <i name="MODEL_ALPHA">      1.00000000</i>
  </separator>
  <separator name="linear response parameters" >
   <i type="logical" name="LEPSILON"> F  </i>
   <i type="logical" name="LRPA"> F  </i>
   <i type="logical" name="LNABLA"> F  </i>
   <i type="logical" name="LVEL"> F  </i>
   <i type="int" name="KINTER">     0</i>
   <i name="CSHIFT">      0.10000000</i>
   <i name="OMEGAMAX">     -1.00000000</i>
   <i name="DEG_THRESHOLD">      0.00200000</i>
  </separator>
  <separator name="orbital magnetization" >
   <i type="logical" name="NUCIND"> F  </i>
   <v name="MAGPOS">      0.00000000      0.00000000      0.00000000</v>
   <i type="logical" name="LNICSALL"> T  </i>
   <i type="logical" name="ORBITALMAG"> F  </i>
   <i type="logical" name="LMAGBLOCH"> F  </i>
   <i type="logical" name="LCHIMAG"> F  </i>
   <i type="logical" name="LGAUGE"> T  </i>
   <i type="int" name="MAGATOM">     0</i>
   <v name="MAGDIPOL">      0.00000000      0.00000000      0.00000000</v>
   <v name="AVECCONST">      0.00000000      0.00000000      0.00000000</v>
  </separator>
  <separator name="response functions" >
   <i type="logical" name="LADDER"> F  </i>
   <i type="logical" name="LFXC"> F  </i>
   <i type="logical" name="LHARTREE"> T  </i>
   <i type="int" name="IBSE">     0</i>
   <v type="int" name="KPOINT">    -1     0     0     0</v>
   <i type="logical" name="LTCTE"> F  </i>
   <i type="logical" name="LTETE"> F  </i>
   <i type="logical" name="LTRIPLET"> F  </i>
   <i type="logical" name="LFXCEPS"> F  </i>
   <i type="logical" name="LFXHEG"> F  </i>
   <i type="int" name="NATURALO">     0</i>
   <i type="logical" name="L2ORDER"> F  </i>
   <i type="logical" name="LUSEW"> F  </i>
   <i name="ENCUTGW">     -2.00000000</i>
   <i name="ENCUTGWSOFT">     -2.00000000</i>
   <i name="ENCUTLF">     -1.00000000</i>
   <i type="int" name="LMAXMP2">    -1</i>
   <i name="SCISSOR">      0.00000000</i>
   <i type="int" name="NOMEGA">     0</i>
   <i type="int" name="NOMEGAR">     0</i>
   <i type="int" name="NBANDSGW">    -1</i>
   <i type="int" name="NBANDSO">    -1</i>
   <i type="int" name="NBANDSV">    -1</i>
   <i type="int" name="NELM">   500</i>
   <i type="int" name="NELMHF">     1</i>
   <i type="int" name="DIM">     3</i>
   <i type="int" name="ANTIRES">     0</i>
   <i name="OMEGAMAX">    -30.00000000</i>
   <i name="OMEGAMIN">    -30.00000000</i>
   <i name="OMEGATL">   -200.00000000</i>
   <i type="int" name="OMEGAGRID">     0</i>
   <i name="CSHIFT">     -0.10000000</i>
   <i type="logical" name="SELFENERGY"> F  </i>
   <i type="logical" name="LSPECTRAL"> F  </i>
   <i type="logical" name="LSPECTRALGW"> F  </i>
   <i type="logical" name="LSINGLES"> F  </i>
   <i type="logical" name="LFERMIGW"> F  </i>
   <i type="logical" name="ODDONLYGW"> F  </i>
   <i type="logical" name="EVENONLYGW"> F  </i>
   <i type="int" name="NKREDLFX">     1</i>
   <i type="int" name="NKREDLFY">     1</i>
   <i type="int" name="NKREDLFZ">     1</i>
   <i type="int" name="MAXMEM">  1800</i>
   <i type="int" name="TELESCOPE">     0</i>
   <i type="int" name="TAUPAR">     1</i>
   <i type="int" name="OMEGAPAR">    -1</i>
   <i name="LAMBDA">      1.00000000</i>
  </separator>
  <separator name="External order field" >
   <i name="OFIELD_KAPPA">      0.00000000</i>
   <v name="OFIELD_K">      0.00000000      0.00000000      0.00000000</v>
   <i name="OFIELD_Q6_NEAR">      0.00000000</i>
   <i name="OFIELD_Q6_FAR">      0.00000000</i>
   <i name="OFIELD_A">      0.00000000</i>
  </separator>
 </parameters>
 <atominfo>
  <atoms>      48 </atoms>
  <types>       2 </types>
  <array name="atoms" >
   <dimension dim="1">ion</dimension>
   <field type="string">element</field>
   <field type="int">atomtype</field>
   <set>
    <rc><c>Au</c><c>   1</c></rc>
    <rc><c>Au</c><c>   1</c></rc>
    <rc><c>Au</c><c>   1</c></rc>
    <rc><c>Au</c><c>   1</c></rc>
    <rc><c>Au</c><c>   1</c></rc>
    <rc><c>Au</c><c>   1</c></rc>
    <rc><c>Au</c><c>   1</c></rc>
    <rc><c>Au</c><c>   1</c></rc>
    <rc><c>Au</c><c>   1</c></rc>
    <rc><c>Au</c><c>   1</c></rc>
    <rc><c>Au</c><c>   1</c></rc>
    <rc><c>Au</c><c>   1</c></rc>
    <rc><c>Au</c><c>   1</c></rc>
    <rc><c>Au</c><c>   1</c></rc>
    <rc><c>Au</c><c>   1</c></rc>
    <rc><c>Au</c><c>   1</c></rc>
    <rc><c>Au</c><c>   1</c></rc>
    <rc><c>Au</c><c>   1</c></rc>
    <rc><c>Au</c><c>   1</c></rc>
    <rc><c>Au</c><c>   1</c></rc>
    <rc><c>Au</c><c>   1</c></rc>
    <rc><c>Au</c><c>   1</c></rc>
    <rc><c>Au</c><c>   1</c></rc>
    <rc><c>Au</c><c>   1</c></rc>
    <rc><c>Pd</c><c>   2</c></rc>
    <rc><c>Pd</c><c>   2</c></rc>
    <rc><c>Pd</c><c>   2</c></rc>
    <rc><c>Pd</c><c>   2</c></rc>
    <rc><c>Pd</c><c>   2</c></rc>
    <rc><c>Pd</c><c>   2</c></rc>
    <rc><c>Pd</c><c>   2</c></rc>
    <rc><c>Pd</c><c>   2</c></rc>
    <rc><c>Pd</c><c>   2</c></rc>
    <rc><c>Pd</c><c>   2</c></rc>
    <rc><c>Pd</c><c>   2</c></rc>
    <rc><c>Pd</c><c>   2</c></rc>
    <rc><c>Pd</c><c>   2</c></rc>
    <rc><c>Pd</c><c>   2</c></rc>
    <rc><c>Pd</c><c>   2</c></rc>
    <rc><c>Pd</c><c>   2</c></rc>
    <rc><c>Pd</c><c>   2</c></rc>
    <rc><c>Pd</c><c>   2</c></rc>
    <rc><c>Pd</c><c>   2</c></rc>
    <rc><c>Pd</c><c>   2</c></rc>
    <rc><c>Pd</c><c>   2</c></rc>
    <rc><c>Pd</c><c>   2</c></rc>
    <rc><c>Pd</c><c>   2</c></rc>
    <rc><c>Pd</c><c>   2</c></rc>
   </set>
  </array>
  <array name="atomtypes" >
   <dimension dim="1">type</dimension>
   <field type="int">atomspertype</field>
   <field type="string">element</field>
   <field>mass</field>
   <field>valence</field>
   <field type="string">pseudopotential</field>
   <set>
    <rc><c>  24</c><c>Au</c><c>    196.96600000</c><c>     11.00000000</c><c>  PAW_PBE Au 04Oct2007                  </c></rc>
    <rc><c>  24</c><c>Pd</c><c>    106.42000000</c><c>     10.00000000</c><c>  PAW_PBE Pd 04Jan2005                  </c></rc>
   </set>
  </array>
 </atominfo>
 <structure name="initialpos" >
  <crystal>
   <varray name="basis" >
    <v>      11.00258152       0.00000000       0.00000000 </v>
    <v>       5.50129076       9.52851510       0.00000000 </v>
    <v>       0.00000000       0.00000000      24.49178509 </v>
   </varray>
   <i name="volume">   2567.67623402 </i>
   <varray name="rec_basis" >
    <v>       0.09088776      -0.05247407       0.00000000 </v>
    <v>       0.00000000       0.10494815       0.00000000 </v>
    <v>       0.00000000       0.00000000       0.04083002 </v>
   </varray>
  </crystal>
  <varray name="positions" >
   <v>       0.08333333       0.08333333       0.40830017 </v>
   <v>       0.16666667       0.91666667       0.50000000 </v>
   <v>       0.66666667       0.91666667       0.50000000 </v>
   <v>       0.58333333       0.08333333       0.40830017 </v>
   <v>       0.41666667       0.16666667       0.50000000 </v>
   <v>       0.58333333       0.33333333       0.40830017 </v>
   <v>       0.41666667       0.41666667       0.50000000 </v>
   <v>       0.33333333       0.83333333       0.40830017 </v>
   <v>       0.50000000       0.25000000       0.59169983 </v>
   <v>       0.50000000       0.75000000       0.59169983 </v>
   <v>       0.83333333       0.08333333       0.40830017 </v>
   <v>       0.75000000       0.00000000       0.59169983 </v>
   <v>       0.83333333       0.58333333       0.40830017 </v>
   <v>       0.66666667       0.66666667       0.50000000 </v>
   <v>       0.83333333       0.83333333       0.40830017 </v>
   <v>       0.41666667       0.91666667       0.50000000 </v>
   <v>       0.25000000       0.50000000       0.59169983 </v>
   <v>       0.75000000       0.75000000       0.59169983 </v>
   <v>       0.91666667       0.66666667       0.50000000 </v>
   <v>       0.16666667       0.41666667       0.50000000 </v>
   <v>       0.33333333       0.08333333       0.40830017 </v>
   <v>       0.00000000       0.75000000       0.59169983 </v>
   <v>       0.08333333       0.58333333       0.40830017 </v>
   <v>       0.91666667       0.91666667       0.50000000 </v>
   <v>       0.00000000       0.25000000       0.59169983 </v>
   <v>       0.66666667       0.16666667       0.50000000 </v>
   <v>       0.91666667       0.41666667       0.50000000 </v>
   <v>       0.83333333       0.33333333       0.40830017 </v>
   <v>       0.33333333       0.58333333       0.40830017 </v>
   <v>       0.08333333       0.33333333       0.40830017 </v>
   <v>       0.00000000       0.00000000       0.59169983 </v>
   <v>       0.75000000       0.50000000       0.59169983 </v>
   <v>       0.91666667       0.16666667       0.50000000 </v>
   <v>       0.66666667       0.41666667       0.50000000 </v>
   <v>       0.75000000       0.25000000       0.59169983 </v>
   <v>       0.50000000       0.50000000       0.59169983 </v>
   <v>       0.25000000       0.25000000       0.59169983 </v>
   <v>       0.41666667       0.66666667       0.50000000 </v>
   <v>       0.58333333       0.58333333       0.40830017 </v>
   <v>       0.00000000       0.50000000       0.59169983 </v>
   <v>       0.08333333       0.83333333       0.40830017 </v>
   <v>       0.50000000       0.00000000       0.59169983 </v>
   <v>       0.16666667       0.16666667       0.50000000 </v>
   <v>       0.25000000       0.00000000       0.59169983 </v>
   <v>       0.33333333       0.33333333       0.40830017 </v>
   <v>       0.16666667       0.66666667       0.50000000 </v>
   <v>       0.58333333       0.83333333       0.40830017 </v>
   <v>       0.25000000       0.75000000       0.59169983 </v>
  </varray>
 </structure>
 <calculation>
  <scstep>
   <time name="dav">    9.46    9.47</time>
   <time name="total">    9.53    9.54</time>
   <dipole>
    <v name="dipole">      0.00000000       0.00000000       0.00000222 </v>
    <i name="Tr[quadrupol]"> -10244.53589554 </i>
    <i name="Echarged">      0.00000000 </i>
    <i name="Edipol_quadrupol">      0.00000000 </i>
    <i name="Eion">      0.00000000 </i>
   </dipole>
   <energy>
    <i name="alphaZ">    805.86936534 </i>
    <i name="ewald"> 200414.22373832 </i>
    <i name="hartreedc">-242830.03179861 </i>
    <i name="XCdc">   -327.56398189 </i>
    <i name="pawpsdc">  40340.05962942 </i>
    <i name="pawaedc"> -38292.62782345 </i>
    <i name="eentropy">     -0.13102214 </i>
    <i name="bandstr">   1431.37872719 </i>
    <i name="atom">  41659.78587232 </i>
    <i name="e_fr_energy">   3200.96270650 </i>
    <i name="e_wo_entrp">   3201.09372864 </i>
    <i name="e_0_energy">   3201.02821757 </i>
   </energy>
  </scstep>
  <scstep>
   <time name="dav">   11.17   11.23</time>
   <time name="total">   11.17   11.24</time>
   <dipole>
    <v name="dipole">      0.00000000       0.00000000       0.00000222 </v>
    <i name="Tr[quadrupol]"> -10244.53589554 </i>
    <i name="Echarged">      0.00000000 </i>
    <i name="Edipol_quadrupol">      0.00000000 </i>
    <i name="Eion">      0.00000000 </i>
   </dipole>
   <energy>
    <i name="e_fr_energy">     15.69987840 </i>
    <i name="e_wo_entrp">     15.84473720 </i>
    <i name="e_0_energy">     15.77230780 </i>
   </energy>
  </scstep>
  <scstep>
   <time name="dav">   11.02   11.02</time>
   <time name="total">   11.02   11.03</time>
   <dipole>
    <v name="dipole">      0.00000000       0.00000000       0.00000222 </v>
    <i name="Tr[quadrupol]"> -10244.53589554 </i>
    <i name="Echarged">      0.00000000 </i>
    <i name="Edipol_quadrupol">      0.00000000 </i>
    <i name="Eion">      0.00000000 </i>
   </dipole>
   <energy>
    <i name="e_fr_energy">   -200.49877084 </i>
    <i name="e_wo_entrp">   -200.29447304 </i>
    <i name="e_0_energy">   -200.39662194 </i>
   </energy>
  </scstep>
  <scstep>
   <time name="dav">   11.64   11.67</time>
   <time name="total">   11.64   11.68</time>
   <dipole>
    <v name="dipole">      0.00000000       0.00000000       0.00000222 </v>
    <i name="Tr[quadrupol]"> -10244.53589554 </i>
    <i name="Echarged">      0.00000000 </i>
    <i name="Edipol_quadrupol">      0.00000000 </i>
    <i name="Eion">      0.00000000 </i>
   </dipole>
   <energy>
    <i name="e_fr_energy">   -206.33113226 </i>
    <i name="e_wo_entrp">   -206.11969391 </i>
    <i name="e_0_energy">   -206.22541309 </i>
   </energy>
  </scstep>
  <scstep>
   <time name="dav">   11.30   11.30</time>
   <time name="total">   11.61   11.62</time>
   <dipole>
    <v name="dipole">      0.00000000       0.00000000       0.00000222 </v>
    <i name="Tr[quadrupol]"> -10244.53589554 </i>
    <i name="Echarged">      0.00000000 </i>
    <i name="Edipol_quadrupol">      0.00000000 </i>
    <i name="Eion">      0.00000000 </i>
   </dipole>
   <energy>
    <i name="e_fr_energy">   -206.51467334 </i>
    <i name="e_wo_entrp">   -206.30341804 </i>
    <i name="e_0_energy">   -206.40904569 </i>
   </energy>
  </scstep>
  <scstep>
   <time name="diag">    1.67    1.67</time>
   <time name="diis">    4.45    4.53</time>
   <time name="orth">    0.41    0.42</time>
   <time name="total">    6.91    6.99</time>
   <dipole>
    <v name="dipole">      0.00000000       0.00000000       1.00159426 </v>
    <i name="Tr[quadrupol]"> -10245.19750197 </i>
    <i name="Echarged">      0.00000000 </i>
    <i name="Edipol_quadrupol">      0.00000000 </i>
    <i name="Eion">      0.00000000 </i>
   </dipole>
   <energy>
    <i name="e_fr_energy">   -207.94290887 </i>
    <i name="e_wo_entrp">   -207.70687518 </i>
    <i name="e_0_energy">   -207.82489203 </i>
   </energy>
  </scstep>
  <scstep>
   <time name="diag">    1.68    1.68</time>
   <time name="diis">    4.42    4.42</time>
   <time name="orth">    0.42    0.42</time>
   <time name="total">    6.89    6.89</time>
   <dipole>
    <v name="dipole">      0.00000000       0.00000000      -1.19935357 </v>
    <i name="Tr[quadrupol]"> -10244.69284517 </i>
    <i name="Echarged">      0.00000000 </i>
    <i name="Edipol_quadrupol">      0.00000000 </i>
    <i name="Eion">      0.00000000 </i>
   </dipole>
   <energy>
    <i name="e_fr_energy">   -213.42022648 </i>
    <i name="e_wo_entrp">   -213.22656485 </i>
    <i name="e_0_energy">   -213.32339567 </i>
   </energy>
  </scstep>
  <scstep>
   <time name="diag">    1.67    1.67</time>
   <time name="diis">    4.53    4.54</time>
   <time name="orth">    0.42    0.42</time>
   <time name="total">    6.99    7.00</time>
   <dipole>
    <v name="dipole">      0.00000000       0.00000000       1.56698457 </v>
    <i name="Tr[quadrupol]"> -10245.53991866 </i>
    <i name="Echarged">      0.00000000 </i>
    <i name="Edipol_quadrupol">      0.00000000 </i>
    <i name="Eion">      0.00000000 </i>
   </dipole>
   <energy>
    <i name="e_fr_energy">   -220.04583733 </i>
    <i name="e_wo_entrp">   -219.76747631 </i>
    <i name="e_0_energy">   -219.90665682 </i>
   </energy>
  </scstep>
  <scstep>
   <time name="diag">    1.69    1.69</time>
   <time name="diis">    4.56    4.56</time>
   <time name="orth">    0.42    0.42</time>
   <time name="total">    7.03    7.04</time>
   <dipole>
    <v name="dipole">      0.00000000       0.00000000      -0.59233302 </v>
    <i name="Tr[quadrupol]"> -10246.62407009 </i>
    <i name="Echarged">      0.00000000 </i>
    <i name="Edipol_quadrupol">      0.00000000 </i>
    <i name="Eion">      0.00000000 </i>
   </dipole>
   <energy>
    <i name="e_fr_energy">   -215.29270142 </i>
    <i name="e_wo_entrp">   -215.05584445 </i>
    <i name="e_0_energy">   -215.17427294 </i>
   </energy>
  </scstep>
  <scstep>
   <time name="diag">    1.67    1.67</time>
   <time name="diis">    4.60    4.60</time>
   <time name="orth">    0.41    0.41</time>
   <time name="total">    7.05    7.06</time>
   <dipole>
    <v name="dipole">      0.00000000       0.00000000       0.40869775 </v>
    <i name="Tr[quadrupol]"> -10245.31300103 </i>
    <i name="Echarged">      0.00000000 </i>
    <i name="Edipol_quadrupol">      0.00000000 </i>
    <i name="Eion">      0.00000000 </i>
   </dipole>
   <energy>
    <i name="e_fr_energy">   -200.35833800 </i>
    <i name="e_wo_entrp">   -200.21606227 </i>
    <i name="e_0_energy">   -200.28720014 </i>
   </energy>
  </scstep>
  <scstep>
   <time name="diag">    1.66    1.67</time>
   <time name="diis">    4.83    4.86</time>
   <time name="orth">    0.41    0.41</time>
   <time name="total">    7.27    7.31</time>
   <dipole>
    <v name="dipole">      0.00000000       0.00000000       0.06754124 </v>
    <i name="Tr[quadrupol]"> -10246.68973095 </i>
    <i name="Echarged">      0.00000000 </i>
    <i name="Edipol_quadrupol">      0.00000000 </i>
    <i name="Eion">      0.00000000 </i>
   </dipole>
   <energy>
    <i name="e_fr_energy">   -192.64678562 </i>
    <i name="e_wo_entrp">   -192.42989495 </i>
    <i name="e_0_energy">   -192.53834029 </i>
   </energy>
  </scstep>
  <scstep>
   <time name="diag">    1.67    1.67</time>
   <time name="diis">    4.40    4.48</time>
   <time name="orth">    0.41    0.41</time>
   <time name="total">    6.85    6.93</time>
   <dipole>
    <v name="dipole">      0.00000000       0.00000000       0.13423296 </v>
    <i name="Tr[quadrupol]"> -10246.51482962 </i>
    <i name="Echarged">      0.00000000 </i>
    <i name="Edipol_quadrupol">      0.00000000 </i>
    <i name="Eion">      0.00000000 </i>
   </dipole>
   <energy>
    <i name="e_fr_energy">   -189.42059323 </i>
    <i name="e_wo_entrp">   -189.23225828 </i>
    <i name="e_0_energy">   -189.32642576 </i>
   </energy>
  </scstep>
  <scstep>
   <time name="diag">    1.67    1.67</time>
   <time name="diis">    4.60    4.61</time>
   <time name="orth">    0.41    0.41</time>
   <time name="total">    7.05    7.06</time>
   <dipole>
    <v name="dipole">      0.00000000       0.00000000       0.12441536 </v>
    <i name="Tr[quadrupol]"> -10246.89659132 </i>
    <i name="Echarged">      0.00000000 </i>
    <i name="Edipol_quadrupol">      0.00000000 </i>
    <i name="Eion">      0.00000000 </i>
   </dipole>
   <energy>
    <i name="e_fr_energy">   -188.37625505 </i>
    <i name="e_wo_entrp">   -188.13766200 </i>
    <i name="e_0_energy">   -188.25695853 </i>
   </energy>
  </scstep>
  <scstep>
   <time name="diag">    1.66    1.66</time>
   <time name="diis">    4.49    4.49</time>
   <time name="orth">    0.41    0.41</time>
   <time name="total">    6.93    6.93</time>
   <dipole>
    <v name="dipole">      0.00000000       0.00000000       0.09000775 </v>
    <i name="Tr[quadrupol]"> -10247.16151669 </i>
    <i name="Echarged">      0.00000000 </i>
    <i name="Edipol_quadrupol">      0.00000000 </i>
    <i name="Eion">      0.00000000 </i>
   </dipole>
   <energy>
    <i name="e_fr_energy">   -188.38030800 </i>
    <i name="e_wo_entrp">   -188.13843988 </i>
    <i name="e_0_energy">   -188.25937394 </i>
   </energy>
  </scstep>
  <scstep>
   <time name="diag">    1.67    1.67</time>
   <time name="diis">    4.58    4.58</time>
   <time name="orth">    0.41    0.41</time>
   <time name="total">    7.02    7.03</time>
   <dipole>
    <v name="dipole">      0.00000000       0.00000000       0.09124359 </v>
    <i name="Tr[quadrupol]"> -10247.44511714 </i>
    <i name="Echarged">      0.00000000 </i>
    <i name="Edipol_quadrupol">      0.00000000 </i>
    <i name="Eion">      0.00000000 </i>
   </dipole>
   <energy>
    <i name="e_fr_energy">   -188.42785309 </i>
    <i name="e_wo_entrp">   -188.16391349 </i>
    <i name="e_0_energy">   -188.29588329 </i>
   </energy>
  </scstep>
  <scstep>
   <time name="diag">    1.67    1.67</time>
   <time name="diis">    4.51    4.52</time>
   <time name="orth">    0.42    0.42</time>
   <time name="total">    6.97    6.98</time>
   <dipole>
    <v name="dipole">      0.00000000       0.00000000       0.04741241 </v>
    <i name="Tr[quadrupol]"> -10247.82230600 </i>
    <i name="Echarged">      0.00000000 </i>
    <i name="Edipol_quadrupol">      0.00000000 </i>
    <i name="Eion">      0.00000000 </i>
   </dipole>
   <energy>
    <i name="e_fr_energy">   -188.29234859 </i>
    <i name="e_wo_entrp">   -188.03489688 </i>
    <i name="e_0_energy">   -188.16362274 </i>
   </energy>
  </scstep>
  <scstep>
   <time name="diag">    1.68    1.68</time>
   <time name="diis">    4.60    4.60</time>
   <time name="orth">    0.42    0.42</time>
   <time name="total">    7.06    7.06</time>
   <dipole>
    <v name="dipole">      0.00000000       0.00000000       0.05378390 </v>
    <i name="Tr[quadrupol]"> -10248.09850022 </i>
    <i name="Echarged">      0.00000000 </i>
    <i name="Edipol_quadrupol">      0.00000000 </i>
    <i name="Eion">      0.00000000 </i>
   </dipole>
   <energy>
    <i name="e_fr_energy">   -188.08485843 </i>
    <i name="e_wo_entrp">   -187.82545229 </i>
    <i name="e_0_energy">   -187.95515536 </i>
   </energy>
  </scstep>
  <scstep>
   <time name="diag">    1.67    1.68</time>
   <time name="diis">    4.38    4.46</time>
   <time name="orth">    0.41    0.41</time>
   <time name="total">    6.84    6.92</time>
   <dipole>
    <v name="dipole">      0.00000000       0.00000000       0.06947486 </v>
    <i name="Tr[quadrupol]"> -10248.39296951 </i>
    <i name="Echarged">      0.00000000 </i>
    <i name="Edipol_quadrupol">      0.00000000 </i>
    <i name="Eion">      0.00000000 </i>
   </dipole>
   <energy>
    <i name="e_fr_energy">   -187.98245549 </i>
    <i name="e_wo_entrp">   -187.72151173 </i>
    <i name="e_0_energy">   -187.85198361 </i>
   </energy>
  </scstep>
  <scstep>
   <time name="diag">    1.67    1.67</time>
   <time name="diis">    4.59    4.60</time>
   <time name="orth">    0.41    0.41</time>
   <time name="total">    7.04    7.04</time>
   <dipole>
    <v name="dipole">      0.00000000       0.00000000       0.07184238 </v>
    <i name="Tr[quadrupol]"> -10248.50711976 </i>
    <i name="Echarged">      0.00000000 </i>
    <i name="Edipol_quadrupol">      0.00000000 </i>
    <i name="Eion">      0.00000000 </i>
   </dipole>
   <energy>
    <i name="e_fr_energy">   -187.91357863 </i>
    <i name="e_wo_entrp">   -187.65989317 </i>
    <i name="e_0_energy">   -187.78673590 </i>
   </energy>
  </scstep>
  <scstep>
   <time name="diag">    1.95    1.97</time>
   <time name="diis">    4.55    4.60</time>
   <time name="orth">    0.42    0.43</time>
   <time name="total">    7.31    7.40</time>
   <dipole>
    <v name="dipole">      0.00000000       0.00000000       0.05742128 </v>
    <i name="Tr[quadrupol]"> -10248.55756520 </i>
    <i name="Echarged">      0.00000000 </i>
    <i name="Edipol_quadrupol">      0.00000000 </i>
    <i name="Eion">      0.00000000 </i>
   </dipole>
   <energy>
    <i name="e_fr_energy">   -187.89069194 </i>
    <i name="e_wo_entrp">   -187.63114761 </i>
    <i name="e_0_energy">   -187.76091978 </i>
   </energy>
  </scstep>
  <scstep>
   <time name="diag">    1.68    1.68</time>
   <time name="diis">    4.47    4.52</time>
   <time name="orth">    0.41    0.41</time>
   <time name="total">    6.93    6.98</time>
   <dipole>
    <v name="dipole">      0.00000000       0.00000000       0.04415139 </v>
    <i name="Tr[quadrupol]"> -10248.64567768 </i>
    <i name="Echarged">      0.00000000 </i>
    <i name="Edipol_quadrupol">      0.00000000 </i>
    <i name="Eion">      0.00000000 </i>
   </dipole>
   <energy>
    <i name="e_fr_energy">   -187.88594194 </i>
    <i name="e_wo_entrp">   -187.62335299 </i>
    <i name="e_0_energy">   -187.75464747 </i>
   </energy>
  </scstep>
  <scstep>
   <time name="diag">    1.66    1.66</time>
   <time name="diis">    4.60    4.60</time>
   <time name="orth">    0.41    0.41</time>
   <time name="total">    7.03    7.04</time>
   <dipole>
    <v name="dipole">      0.00000000       0.00000000       0.04114657 </v>
    <i name="Tr[quadrupol]"> -10248.73523850 </i>
    <i name="Echarged">      0.00000000 </i>
    <i name="Edipol_quadrupol">      0.00000000 </i>
    <i name="Eion">      0.00000000 </i>
   </dipole>
   <energy>
    <i name="e_fr_energy">   -187.88346838 </i>
    <i name="e_wo_entrp">   -187.62201045 </i>
    <i name="e_0_energy">   -187.75273942 </i>
   </energy>
  </scstep>
  <scstep>
   <time name="diag">    1.67    1.67</time>
   <time name="diis">    4.59    4.59</time>
   <time name="orth">    0.41    0.41</time>
   <time name="total">    7.03    7.05</time>
   <dipole>
    <v name="dipole">      0.00000000       0.00000000       0.03989264 </v>
    <i name="Tr[quadrupol]"> -10248.94530167 </i>
    <i name="Echarged">      0.00000000 </i>
    <i name="Edipol_quadrupol">      0.00000000 </i>
    <i name="Eion">      0.00000000 </i>
   </dipole>
   <energy>
    <i name="e_fr_energy">   -187.88075841 </i>
    <i name="e_wo_entrp">   -187.61909699 </i>
    <i name="e_0_energy">   -187.74992770 </i>
   </energy>
  </scstep>
  <scstep>
   <time name="diag">    1.63    1.68</time>
   <time name="diis">    4.54    4.54</time>
   <time name="orth">    0.41    0.41</time>
   <time name="total">    6.95    7.00</time>
   <dipole>
    <v name="dipole">      0.00000000       0.00000000       0.03468844 </v>
    <i name="Tr[quadrupol]"> -10249.08272549 </i>
    <i name="Echarged">      0.00000000 </i>
    <i name="Edipol_quadrupol">      0.00000000 </i>
    <i name="Eion">      0.00000000 </i>
   </dipole>
   <energy>
    <i name="e_fr_energy">   -187.87998969 </i>
    <i name="e_wo_entrp">   -187.61785305 </i>
    <i name="e_0_energy">   -187.74892137 </i>
   </energy>
  </scstep>
  <scstep>
   <time name="diag">    1.68    1.68</time>
   <time name="diis">    4.61    4.61</time>
   <time name="orth">    0.41    0.41</time>
   <time name="total">    7.07    7.07</time>
   <dipole>
    <v name="dipole">      0.00000000       0.00000000       0.03394930 </v>
    <i name="Tr[quadrupol]"> -10249.13314334 </i>
    <i name="Echarged">      0.00000000 </i>
    <i name="Edipol_quadrupol">      0.00000000 </i>
    <i name="Eion">      0.00000000 </i>
   </dipole>
   <energy>
    <i name="e_fr_energy">   -187.87977721 </i>
    <i name="e_wo_entrp">   -187.61730445 </i>
    <i name="e_0_energy">   -187.74854083 </i>
   </energy>
  </scstep>
  <scstep>
   <time name="diag">    1.66    1.66</time>
   <time name="diis">    4.60    4.60</time>
   <time name="orth">    0.41    0.41</time>
   <time name="total">    7.04    7.05</time>
   <dipole>
    <v name="dipole">      0.00000000       0.00000000       0.02898421 </v>
    <i name="Tr[quadrupol]"> -10249.22744638 </i>
    <i name="Echarged">      0.00000000 </i>
    <i name="Edipol_quadrupol">      0.00000000 </i>
    <i name="Eion">      0.00000000 </i>
   </dipole>
   <energy>
    <i name="e_fr_energy">   -187.87999615 </i>
    <i name="e_wo_entrp">   -187.61755312 </i>
    <i name="e_0_energy">   -187.74877464 </i>
   </energy>
  </scstep>
  <scstep>
   <time name="diag">    1.67    1.67</time>
   <time name="diis">    4.62    4.62</time>
   <time name="orth">    0.41    0.41</time>
   <time name="total">    7.06    7.06</time>
   <dipole>
    <v name="dipole">      0.00000000       0.00000000       0.02603496 </v>
    <i name="Tr[quadrupol]"> -10249.29571025 </i>
    <i name="Echarged">      0.00000000 </i>
    <i name="Edipol_quadrupol">      0.00000000 </i>
    <i name="Eion">      0.00000000 </i>
   </dipole>
   <energy>
    <i name="e_fr_energy">   -187.88023986 </i>
    <i name="e_wo_entrp">   -187.61719008 </i>
    <i name="e_0_energy">   -187.74871497 </i>
   </energy>
  </scstep>
  <scstep>
   <time name="diag">    1.66    1.67</time>
   <time name="diis">    4.79    4.83</time>
   <time name="orth">    0.41    0.41</time>
   <time name="total">    7.23    7.61</time>
   <dipole>
    <v name="dipole">      0.00000000       0.00000000       0.02418432 </v>
    <i name="Tr[quadrupol]"> -10249.35625780 </i>
    <i name="Echarged">      0.00000000 </i>
    <i name="Edipol_quadrupol">      0.00000000 </i>
    <i name="Eion">      0.00000000 </i>
   </dipole>
   <energy>
    <i name="e_fr_energy">   -187.88061253 </i>
    <i name="e_wo_entrp">   -187.61787260 </i>
    <i name="e_0_energy">   -187.74924257 </i>
   </energy>
  </scstep>
  <scstep>
   <time name="diag">    1.67    1.67</time>
   <time name="diis">    4.47    4.49</time>
   <time name="orth">    0.39    0.42</time>
   <time name="total">    6.92    6.99</time>
   <dipole>
    <v name="dipole">      0.00000000       0.00000000       0.02228777 </v>
    <i name="Tr[quadrupol]"> -10249.41122553 </i>
    <i name="Echarged">      0.00000000 </i>
    <i name="Edipol_quadrupol">      0.00000000 </i>
    <i name="Eion">      0.00000000 </i>
   </dipole>
   <energy>
    <i name="e_fr_energy">   -187.88096176 </i>
    <i name="e_wo_entrp">   -187.61791988 </i>
    <i name="e_0_energy">   -187.74944082 </i>
   </energy>
  </scstep>
  <scstep>
   <time name="diag">    1.66    1.66</time>
   <time name="diis">    4.60    4.60</time>
   <time name="orth">    0.41    0.41</time>
   <time name="total">    7.04    7.04</time>
   <dipole>
    <v name="dipole">      0.00000000       0.00000000       0.01977705 </v>
    <i name="Tr[quadrupol]"> -10249.49569433 </i>
    <i name="Echarged">      0.00000000 </i>
    <i name="Edipol_quadrupol">      0.00000000 </i>
    <i name="Eion">      0.00000000 </i>
   </dipole>
   <energy>
    <i name="e_fr_energy">   -187.88160198 </i>
    <i name="e_wo_entrp">   -187.61876568 </i>
    <i name="e_0_energy">   -187.75018383 </i>
   </energy>
  </scstep>
  <scstep>
   <time name="diag">    1.66    1.66</time>
   <time name="diis">    4.41    4.41</time>
   <time name="orth">    0.41    0.41</time>
   <time name="total">    6.85    6.86</time>
   <dipole>
    <v name="dipole">      0.00000000       0.00000000       0.01723255 </v>
    <i name="Tr[quadrupol]"> -10249.55527323 </i>
    <i name="Echarged">      0.00000000 </i>
    <i name="Edipol_quadrupol">      0.00000000 </i>
    <i name="Eion">      0.00000000 </i>
   </dipole>
   <energy>
    <i name="e_fr_energy">   -187.88214956 </i>
    <i name="e_wo_entrp">   -187.61925077 </i>
    <i name="e_0_energy">   -187.75070017 </i>
   </energy>
  </scstep>
  <scstep>
   <time name="diag">    1.67    1.67</time>
   <time name="diis">    4.39    4.39</time>
   <time name="orth">    0.41    0.41</time>
   <time name="total">    6.84    6.84</time>
   <dipole>
    <v name="dipole">      0.00000000       0.00000000       0.01400550 </v>
    <i name="Tr[quadrupol]"> -10249.62574453 </i>
    <i name="Echarged">      0.00000000 </i>
    <i name="Edipol_quadrupol">      0.00000000 </i>
    <i name="Eion">      0.00000000 </i>
   </dipole>
   <energy>
    <i name="e_fr_energy">   -187.88275747 </i>
    <i name="e_wo_entrp">   -187.61973873 </i>
    <i name="e_0_energy">   -187.75124810 </i>
   </energy>
  </scstep>
  <scstep>
   <time name="diag">    1.68    1.68</time>
   <time name="diis">    3.85    3.85</time>
   <time name="orth">    0.41    0.41</time>
   <time name="total">    6.31    6.31</time>
   <dipole>
    <v name="dipole">      0.00000000       0.00000000       0.01233586 </v>
    <i name="Tr[quadrupol]"> -10249.65867851 </i>
    <i name="Echarged">      0.00000000 </i>
    <i name="Edipol_quadrupol">      0.00000000 </i>
    <i name="Eion">      0.00000000 </i>
   </dipole>
   <energy>
    <i name="e_fr_energy">   -187.88301789 </i>
    <i name="e_wo_entrp">   -187.62000939 </i>
    <i name="e_0_energy">   -187.75151364 </i>
   </energy>
  </scstep>
  <scstep>
   <time name="diag">    1.65    1.65</time>
   <time name="diis">    3.46    3.46</time>
   <time name="orth">    0.41    0.41</time>
   <time name="total">    5.89    5.90</time>
   <dipole>
    <v name="dipole">      0.00000000       0.00000000       0.01130196 </v>
    <i name="Tr[quadrupol]"> -10249.67818274 </i>
    <i name="Echarged">      0.00000000 </i>
    <i name="Edipol_quadrupol">      0.00000000 </i>
    <i name="Eion">      0.00000000 </i>
   </dipole>
   <energy>
    <i name="e_fr_energy">   -187.88314506 </i>
    <i name="e_wo_entrp">   -187.62018531 </i>
    <i name="e_0_energy">   -187.75166519 </i>
   </energy>
  </scstep>
  <scstep>
   <time name="diag">    1.66    1.66</time>
   <time name="diis">    3.16    3.16</time>
   <time name="orth">    0.41    0.41</time>
   <time name="total">    5.60    5.60</time>
   <dipole>
    <v name="dipole">      0.00000000       0.00000000       0.01042939 </v>
    <i name="Tr[quadrupol]"> -10249.69241226 </i>
    <i name="Echarged">      0.00000000 </i>
    <i name="Edipol_quadrupol">      0.00000000 </i>
    <i name="Eion">      0.00000000 </i>
   </dipole>
   <energy>
    <i name="e_fr_energy">   -187.88324537 </i>
    <i name="e_wo_entrp">   -187.62031369 </i>
    <i name="e_0_energy">   -187.75177953 </i>
   </energy>
  </scstep>
  <scstep>
   <time name="diag">    1.62    1.69</time>
   <time name="diis">    2.85    2.85</time>
   <time name="orth">    0.41    0.41</time>
   <time name="total">    5.25    5.32</time>
   <dipole>
    <v name="dipole">      0.00000000       0.00000000       0.00986709 </v>
    <i name="Tr[quadrupol]"> -10249.70058321 </i>
    <i name="Echarged">      0.00000000 </i>
    <i name="Edipol_quadrupol">      0.00000000 </i>
    <i name="Eion">      0.00000000 </i>
   </dipole>
   <energy>
    <i name="e_fr_energy">   -187.88329692 </i>
    <i name="e_wo_entrp">   -187.62037984 </i>
    <i name="e_0_energy">   -187.75183838 </i>
   </energy>
  </scstep>
  <scstep>
   <time name="diag">    1.67    1.68</time>
   <time name="diis">    2.82    2.82</time>
   <time name="orth">    0.41    0.41</time>
   <time name="total">    5.31    5.32</time>
   <dipole>
    <v name="dipole">      0.00000000       0.00000000       0.00914516 </v>
    <i name="Tr[quadrupol]"> -10249.70875943 </i>
    <i name="Echarged">      0.00000000 </i>
    <i name="Edipol_quadrupol">      0.00000000 </i>
    <i name="Eion">      0.00000000 </i>
   </dipole>
   <energy>
    <i name="e_fr_energy">   -187.88334404 </i>
    <i name="e_wo_entrp">   -187.62041141 </i>
    <i name="e_0_energy">   -187.75187772 </i>
   </energy>
  </scstep>
  <scstep>
   <time name="diag">    1.45    1.99</time>
   <time name="diis">    2.48    2.63</time>
   <time name="orth">    0.41    0.41</time>
   <time name="total">    4.71    5.43</time>
   <dipole>
    <v name="dipole">      0.00000000       0.00000000       0.00879673 </v>
    <i name="Tr[quadrupol]"> -10249.71252826 </i>
    <i name="Echarged">      0.00000000 </i>
    <i name="Edipol_quadrupol">      0.00000000 </i>
    <i name="Eion">      0.00000000 </i>
   </dipole>
   <energy>
    <i name="e_fr_energy">   -187.88336171 </i>
    <i name="e_wo_entrp">   -187.62043615 </i>
    <i name="e_0_energy">   -187.75189893 </i>
   </energy>
  </scstep>
  <scstep>
   <time name="diag">    1.66    1.66</time>
   <time name="diis">    2.78    2.78</time>
   <time name="orth">    0.41    0.41</time>
   <time name="total">    5.22    5.22</time>
   <dipole>
    <v name="dipole">      0.00000000       0.00000000       0.00819820 </v>
    <i name="Tr[quadrupol]"> -10249.71886673 </i>
    <i name="Echarged">      0.00000000 </i>
    <i name="Edipol_quadrupol">      0.00000000 </i>
    <i name="Eion">      0.00000000 </i>
   </dipole>
   <energy>
    <i name="e_fr_energy">   -187.88338305 </i>
    <i name="e_wo_entrp">   -187.62046832 </i>
    <i name="e_0_energy">   -187.75192569 </i>
   </energy>
  </scstep>
  <scstep>
   <time name="diag">    1.67    1.67</time>
   <time name="diis">    2.23    2.23</time>
   <time name="orth">    0.41    0.41</time>
   <time name="total">    4.68    4.69</time>
   <dipole>
    <v name="dipole">      0.00000000       0.00000000       0.00796774 </v>
    <i name="Tr[quadrupol]"> -10249.72148282 </i>
    <i name="Echarged">      0.00000000 </i>
    <i name="Edipol_quadrupol">      0.00000000 </i>
    <i name="Eion">      0.00000000 </i>
   </dipole>
   <energy>
    <i name="e_fr_energy">   -187.88338711 </i>
    <i name="e_wo_entrp">   -187.62047439 </i>
    <i name="e_0_energy">   -187.75193075 </i>
   </energy>
  </scstep>
  <scstep>
   <time name="diag">    1.67    1.68</time>
   <time name="diis">    2.29    2.30</time>
   <time name="orth">    0.41    0.41</time>
   <time name="total">    4.75    4.76</time>
   <dipole>
    <v name="dipole">      0.00000000       0.00000000       0.00770241 </v>
    <i name="Tr[quadrupol]"> -10249.72460275 </i>
    <i name="Echarged">      0.00000000 </i>
    <i name="Edipol_quadrupol">      0.00000000 </i>
    <i name="Eion">      0.00000000 </i>
   </dipole>
   <energy>
    <i name="e_fr_energy">   -187.88339001 </i>
    <i name="e_wo_entrp">   -187.62047619 </i>
    <i name="e_0_energy">   -187.75193310 </i>
   </energy>
  </scstep>
  <scstep>
   <time name="diag">    1.65    1.65</time>
   <time name="diis">    2.16    2.17</time>
   <time name="orth">    0.41    0.41</time>
   <time name="total">    4.59    4.60</time>
   <dipole>
    <v name="dipole">      0.00000000       0.00000000       0.00751826 </v>
    <i name="Tr[quadrupol]"> -10249.72684052 </i>
    <i name="Echarged">      0.00000000 </i>
    <i name="Edipol_quadrupol">      0.00000000 </i>
    <i name="Eion">      0.00000000 </i>
   </dipole>
   <energy>
    <i name="e_fr_energy">   -187.88339126 </i>
    <i name="e_wo_entrp">   -187.62047713 </i>
    <i name="e_0_energy">   -187.75193420 </i>
   </energy>
  </scstep>
  <scstep>
   <time name="diag">    1.66    1.66</time>
   <time name="diis">    2.05    2.05</time>
   <time name="orth">    0.41    0.41</time>
   <time name="total">    4.18    4.19</time>
   <dipole>
    <v name="dipole">      0.00000000       0.00000000       0.00734303 </v>
    <i name="Tr[quadrupol]"> -10249.72908529 </i>
    <i name="Echarged">      0.00000000 </i>
    <i name="Edipol_quadrupol">      0.00000000 </i>
    <i name="Eion">      0.00000000 </i>
   </dipole>
   <energy>
    <i name="alphaZ">    805.87284912 </i>
    <i name="ewald"> 200414.22373832 </i>
    <i name="hartreedc">-242592.89569439 </i>
    <i name="XCdc">   -343.26710003 </i>
    <i name="pawpsdc">  49435.42421071 </i>
    <i name="pawaedc"> -47513.69357289 </i>
    <i name="eentropy">     -0.26291535 </i>
    <i name="bandstr">  -2053.07078001 </i>
    <i name="atom">  41659.78587232 </i>
    <i name="e_fr_energy">   -187.88339219 </i>
    <i name="e_wo_entrp">   -187.62047685 </i>
    <i name="e_0_energy">   -187.75193452 </i>
   </energy>
  </scstep>
  <structure>
   <crystal>
    <varray name="basis" >
     <v>      11.00258152       0.00000000       0.00000000 </v>
     <v>       5.50129076       9.52851510       0.00000000 </v>
     <v>       0.00000000       0.00000000      24.49178509 </v>
    </varray>
    <i name="volume">   2567.67623402 </i>
    <varray name="rec_basis" >
     <v>       0.09088776      -0.05247407       0.00000000 </v>
     <v>       0.00000000       0.10494815       0.00000000 </v>
     <v>       0.00000000       0.00000000       0.04083002 </v>
    </varray>
   </crystal>
   <varray name="positions" >
    <v>       0.08333333       0.08333333       0.40830017 </v>
    <v>       0.16666667       0.91666667       0.50000000 </v>
    <v>       0.66666667       0.91666667       0.50000000 </v>
    <v>       0.58333333       0.08333333       0.40830017 </v>
    <v>       0.41666667       0.16666667       0.50000000 </v>
    <v>       0.58333333       0.33333333       0.40830017 </v>
    <v>       0.41666667       0.41666667       0.50000000 </v>
    <v>       0.33333333       0.83333333       0.40830017 </v>
    <v>       0.50000000       0.25000000       0.59169983 </v>
    <v>       0.50000000       0.75000000       0.59169983 </v>
    <v>       0.83333333       0.08333333       0.40830017 </v>
    <v>       0.75000000       0.00000000       0.59169983 </v>
    <v>       0.83333333       0.58333333       0.40830017 </v>
    <v>       0.66666667       0.66666667       0.50000000 </v>
    <v>       0.83333333       0.83333333       0.40830017 </v>
    <v>       0.41666667       0.91666667       0.50000000 </v>
    <v>       0.25000000       0.50000000       0.59169983 </v>
    <v>       0.75000000       0.75000000       0.59169983 </v>
    <v>       0.91666667       0.66666667       0.50000000 </v>
    <v>       0.16666667       0.41666667       0.50000000 </v>
    <v>       0.33333333       0.08333333       0.40830017 </v>
    <v>       0.00000000       0.75000000       0.59169983 </v>
    <v>       0.08333333       0.58333333       0.40830017 </v>
    <v>       0.91666667       0.91666667       0.50000000 </v>
    <v>       0.00000000       0.25000000       0.59169983 </v>
    <v>       0.66666667       0.16666667       0.50000000 </v>
    <v>       0.91666667       0.41666667       0.50000000 </v>
    <v>       0.83333333       0.33333333       0.40830017 </v>
    <v>       0.33333333       0.58333333       0.40830017 </v>
    <v>       0.08333333       0.33333333       0.40830017 </v>
    <v>       0.00000000       0.00000000       0.59169983 </v>
    <v>       0.75000000       0.50000000       0.59169983 </v>
    <v>       0.91666667       0.16666667       0.50000000 </v>
    <v>       0.66666667       0.41666667       0.50000000 </v>
    <v>       0.75000000       0.25000000       0.59169983 </v>
    <v>       0.50000000       0.50000000       0.59169983 </v>
    <v>       0.25000000       0.25000000       0.59169983 </v>
    <v>       0.41666667       0.66666667       0.50000000 </v>
    <v>       0.58333333       0.58333333       0.40830017 </v>
    <v>       0.00000000       0.50000000       0.59169983 </v>
    <v>       0.08333333       0.83333333       0.40830017 </v>
    <v>       0.50000000       0.00000000       0.59169983 </v>
    <v>       0.16666667       0.16666667       0.50000000 </v>
    <v>       0.25000000       0.00000000       0.59169983 </v>
    <v>       0.33333333       0.33333333       0.40830017 </v>
    <v>       0.16666667       0.66666667       0.50000000 </v>
    <v>       0.58333333       0.83333333       0.40830017 </v>
    <v>       0.25000000       0.75000000       0.59169983 </v>
   </varray>
  </structure>
  <varray name="forces" >
   <v>      -0.10878549       0.37869961      -1.36459919 </v>
   <v>      -0.17797619      -0.11571177       0.55685141 </v>
   <v>      -0.27125931       0.26070016       0.00003133 </v>
   <v>      -0.09573352       0.11187640      -1.67227993 </v>
   <v>      -0.27702462       0.12021279       0.26854076 </v>
   <v>       0.15335137       0.37424038      -1.29087803 </v>
   <v>       0.49290950       0.52872416      -0.24114880 </v>
   <v>      -0.01818618      -0.60711592      -1.58204139 </v>
   <v>       0.14177950      -0.07027268       1.60014970 </v>
   <v>      -0.38434582      -0.09339689       1.55646456 </v>
   <v>       0.24536034       0.18462449      -1.37804601 </v>
   <v>       0.15619919       0.39124076       1.61787997 </v>
   <v>      -0.37730852      -0.37262193      -1.56625724 </v>
   <v>      -0.48889255      -0.71449529      -0.24326420 </v>
   <v>       0.02247929      -0.02073061      -1.85456833 </v>
   <v>      -0.18711618       0.08734671       0.32023729 </v>
   <v>       0.01475260       0.16282721       1.60470857 </v>
   <v>      -0.14260702      -0.26187088       1.89348213 </v>
   <v>       0.13589036      -0.58185879       0.24909456 </v>
   <v>      -0.49978041      -0.31590057       0.01386683 </v>
   <v>      -0.01978547       0.28819856      -1.65341981 </v>
   <v>       0.37541713      -0.08078916       1.63190302 </v>
   <v>       0.52450526      -0.11152149      -1.58850174 </v>
   <v>       0.63224336       0.27423941       0.04743762 </v>
   <v>      -0.03493588       0.03581999       0.42956633 </v>
   <v>       0.50920209       0.29737776       0.22024933 </v>
   <v>      -0.22862186      -0.48661804       0.20579718 </v>
   <v>       0.12082835       0.10898661      -0.44781057 </v>
   <v>       0.01314534       0.10486550      -0.67348734 </v>
   <v>      -0.14585850      -0.07653987      -0.68636347 </v>
   <v>       0.26936126       0.31985078       0.78898405 </v>
   <v>       0.00471323      -0.38450316       0.64974826 </v>
   <v>       0.04599322       0.52559187       0.38340854 </v>
   <v>       0.22818801      -0.09784654       0.16888899 </v>
   <v>       0.24805250       0.17377117       0.49306684 </v>
   <v>       0.28093350      -0.00509303       0.71075476 </v>
   <v>      -0.33312894      -0.19327505       0.84347116 </v>
   <v>      -0.19752728      -0.40419734      -0.00453430 </v>
   <v>      -0.07516346      -0.07311044      -0.65349767 </v>
   <v>      -0.27088166      -0.37591248       0.87266024 </v>
   <v>       0.07196224      -0.23619157      -0.91734966 </v>
   <v>      -0.24973016       0.18909813       1.07017417 </v>
   <v>      -0.38655023       0.35887566       0.39947157 </v>
   <v>      -0.09882612       0.26292228       0.77123440 </v>
   <v>      -0.08242057       0.10808406      -1.04685343 </v>
   <v>       0.44868146       0.13388371      -0.13080449 </v>
   <v>      -0.07307143      -0.13356473      -1.07051337 </v>
   <v>       0.08956830       0.03108009       0.69809538 </v>
  </varray>
  <energy>
   <i name="e_fr_energy">   -187.88339219 </i>
   <i name="e_wo_entrp">   -187.75193452 </i>
   <i name="e_0_energy">     -0.26291535 </i>
  </energy>
  <time name="totalsc">  303.73  305.82</time>
 </calculation>
 <calculation>
  <scstep>
   <time name="dav">    9.76    9.76</time>
   <time name="total">   10.12   10.13</time>
   <dipole>
    <v name="dipole">      0.00000000       0.00000000       0.00719474 </v>
    <i name="Tr[quadrupol]"> -10249.50957864 </i>
    <i name="Echarged">      0.00000000 </i>
    <i name="Edipol_quadrupol">      0.00000000 </i>
    <i name="Eion">      0.00000000 </i>
   </dipole>
   <energy>
    <i name="alphaZ">    805.87283142 </i>
    <i name="ewald"> 197636.41104957 </i>
    <i name="hartreedc">-239832.43317354 </i>
    <i name="XCdc">   -345.58253520 </i>
    <i name="pawpsdc">  49435.42571449 </i>
    <i name="pawaedc"> -47513.69509602 </i>
    <i name="eentropy">     -0.26180032 </i>
    <i name="bandstr">  -2034.61260976 </i>
    <i name="atom">  41659.78587232 </i>
    <i name="e_fr_energy">   -189.08974704 </i>
    <i name="e_wo_entrp">   -188.82794672 </i>
    <i name="e_0_energy">   -188.95884688 </i>
   </energy>
  </scstep>
  <scstep>
   <time name="diag">    1.66    1.67</time>
   <time name="diis">    4.59    4.59</time>
   <time name="orth">    0.40    0.40</time>
   <time name="total">    7.02    7.03</time>
   <dipole>
    <v name="dipole">      0.00000000       0.00000000      -0.00788810 </v>
    <i name="Tr[quadrupol]"> -10249.25839550 </i>
    <i name="Echarged">      0.00000000 </i>
    <i name="Edipol_quadrupol">      0.00000000 </i>
    <i name="Eion">      0.00000000 </i>
   </dipole>
   <energy>
    <i name="e_fr_energy">   -189.51912154 </i>
    <i name="e_wo_entrp">   -189.25937033 </i>
    <i name="e_0_energy">   -189.38924593 </i>
   </energy>
  </scstep>
  <scstep>
   <time name="diag">    1.65    1.65</time>
   <time name="diis">    4.59    4.59</time>
   <time name="orth">    0.40    0.40</time>
   <time name="total">    7.01    7.01</time>
   <dipole>
    <v name="dipole">      0.00000000       0.00000000       0.07811132 </v>
    <i name="Tr[quadrupol]"> -10249.73517324 </i>
    <i name="Echarged">      0.00000000 </i>
    <i name="Edipol_quadrupol">      0.00000000 </i>
    <i name="Eion">      0.00000000 </i>
   </dipole>
   <energy>
    <i name="e_fr_energy">   -189.66064427 </i>
    <i name="e_wo_entrp">   -189.39625575 </i>
    <i name="e_0_energy">   -189.52845001 </i>
   </energy>
  </scstep>
  <scstep>
   <time name="diag">    1.65    1.65</time>
   <time name="diis">    4.20    4.89</time>
   <time name="orth">    0.40    0.40</time>
   <time name="total">    6.62    7.31</time>
   <dipole>
    <v name="dipole">      0.00000000       0.00000000      -0.04146361 </v>
    <i name="Tr[quadrupol]"> -10249.65964647 </i>
    <i name="Echarged">      0.00000000 </i>
    <i name="Edipol_quadrupol">      0.00000000 </i>
    <i name="Eion">      0.00000000 </i>
   </dipole>
   <energy>
    <i name="e_fr_energy">   -189.54298843 </i>
    <i name="e_wo_entrp">   -189.26833142 </i>
    <i name="e_0_energy">   -189.40565993 </i>
   </energy>
  </scstep>
  <scstep>
   <time name="diag">    1.66    1.66</time>
   <time name="diis">    4.58    4.58</time>
   <time name="orth">    0.39    0.41</time>
   <time name="total">    6.99    7.04</time>
   <dipole>
    <v name="dipole">      0.00000000       0.00000000       0.05350618 </v>
    <i name="Tr[quadrupol]"> -10249.57836197 </i>
    <i name="Echarged">      0.00000000 </i>
    <i name="Edipol_quadrupol">      0.00000000 </i>
    <i name="Eion">      0.00000000 </i>
   </dipole>
   <energy>
    <i name="e_fr_energy">   -189.54937155 </i>
    <i name="e_wo_entrp">   -189.30794342 </i>
    <i name="e_0_energy">   -189.42865749 </i>
   </energy>
  </scstep>
  <scstep>
   <time name="diag">    1.64    1.66</time>
   <time name="diis">    4.59    4.59</time>
   <time name="orth">    0.40    0.40</time>
   <time name="total">    7.00    7.02</time>
   <dipole>
    <v name="dipole">      0.00000000       0.00000000      -0.02365425 </v>
    <i name="Tr[quadrupol]"> -10249.61018448 </i>
    <i name="Echarged">      0.00000000 </i>
    <i name="Edipol_quadrupol">      0.00000000 </i>
    <i name="Eion">      0.00000000 </i>
   </dipole>
   <energy>
    <i name="e_fr_energy">   -189.50859580 </i>
    <i name="e_wo_entrp">   -189.24250194 </i>
    <i name="e_0_energy">   -189.37554887 </i>
   </energy>
  </scstep>
  <scstep>
   <time name="diag">    1.65    1.65</time>
   <time name="diis">    4.56    4.56</time>
   <time name="orth">    0.40    0.40</time>
   <time name="total">    6.98    6.98</time>
   <dipole>
    <v name="dipole">      0.00000000       0.00000000       0.00919572 </v>
    <i name="Tr[quadrupol]"> -10249.58337820 </i>
    <i name="Echarged">      0.00000000 </i>
    <i name="Edipol_quadrupol">      0.00000000 </i>
    <i name="Eion">      0.00000000 </i>
   </dipole>
   <energy>
    <i name="e_fr_energy">   -189.48884152 </i>
    <i name="e_wo_entrp">   -189.22677981 </i>
    <i name="e_0_energy">   -189.35781067 </i>
   </energy>
  </scstep>
  <scstep>
   <time name="diag">    1.65    1.65</time>
   <time name="diis">    4.57    4.57</time>
   <time name="orth">    0.40    0.41</time>
   <time name="total">    6.99    7.00</time>
   <dipole>
    <v name="dipole">      0.00000000       0.00000000       0.00429624 </v>
    <i name="Tr[quadrupol]"> -10249.55656878 </i>
    <i name="Echarged">      0.00000000 </i>
    <i name="Edipol_quadrupol">      0.00000000 </i>
    <i name="Eion">      0.00000000 </i>
   </dipole>
   <energy>
    <i name="e_fr_energy">   -189.48646505 </i>
    <i name="e_wo_entrp">   -189.22454738 </i>
    <i name="e_0_energy">   -189.35550622 </i>
   </energy>
  </scstep>
  <scstep>
   <time name="diag">    1.66    1.66</time>
   <time name="diis">    4.57    4.57</time>
   <time name="orth">    0.40    0.40</time>
   <time name="total">    6.99    7.00</time>
   <dipole>
    <v name="dipole">      0.00000000       0.00000000       0.00560702 </v>
    <i name="Tr[quadrupol]"> -10249.54951218 </i>
    <i name="Echarged">      0.00000000 </i>
    <i name="Edipol_quadrupol">      0.00000000 </i>
    <i name="Eion">      0.00000000 </i>
   </dipole>
   <energy>
    <i name="e_fr_energy">   -189.48494220 </i>
    <i name="e_wo_entrp">   -189.22295428 </i>
    <i name="e_0_energy">   -189.35394824 </i>
   </energy>
  </scstep>
  <scstep>
   <time name="diag">    1.66    1.66</time>
   <time name="diis">    4.46    4.46</time>
   <time name="orth">    0.40    0.40</time>
   <time name="total">    6.88    6.89</time>
   <dipole>
    <v name="dipole">      0.00000000       0.00000000       0.00409478 </v>
    <i name="Tr[quadrupol]"> -10249.54423429 </i>
    <i name="Echarged">      0.00000000 </i>
    <i name="Edipol_quadrupol">      0.00000000 </i>
    <i name="Eion">      0.00000000 </i>
   </dipole>
   <energy>
    <i name="e_fr_energy">   -189.48462160 </i>
    <i name="e_wo_entrp">   -189.22085423 </i>
    <i name="e_0_energy">   -189.35273791 </i>
   </energy>
  </scstep>
  <scstep>
   <time name="diag">    1.66    1.66</time>
   <time name="diis">    4.54    4.62</time>
   <time name="orth">    0.40    0.40</time>
   <time name="total">    6.96    7.04</time>
   <dipole>
    <v name="dipole">      0.00000000       0.00000000       0.00356639 </v>
    <i name="Tr[quadrupol]"> -10249.54459515 </i>
    <i name="Echarged">      0.00000000 </i>
    <i name="Edipol_quadrupol">      0.00000000 </i>
    <i name="Eion">      0.00000000 </i>
   </dipole>
   <energy>
    <i name="e_fr_energy">   -189.48452058 </i>
    <i name="e_wo_entrp">   -189.22129144 </i>
    <i name="e_0_energy">   -189.35290601 </i>
   </energy>
  </scstep>
  <scstep>
   <time name="diag">    1.65    1.65</time>
   <time name="diis">    4.58    4.58</time>
   <time name="orth">    0.40    0.40</time>
   <time name="total">    6.99    7.00</time>
   <dipole>
    <v name="dipole">      0.00000000       0.00000000       0.00393379 </v>
    <i name="Tr[quadrupol]"> -10249.54843019 </i>
    <i name="Echarged">      0.00000000 </i>
    <i name="Edipol_quadrupol">      0.00000000 </i>
    <i name="Eion">      0.00000000 </i>
   </dipole>
   <energy>
    <i name="e_fr_energy">   -189.48451653 </i>
    <i name="e_wo_entrp">   -189.22095457 </i>
    <i name="e_0_energy">   -189.35273555 </i>
   </energy>
  </scstep>
  <scstep>
   <time name="diag">    1.49    2.09</time>
   <time name="diis">    4.56    4.59</time>
   <time name="orth">    0.40    0.40</time>
   <time name="total">    6.81    7.44</time>
   <dipole>
    <v name="dipole">      0.00000000       0.00000000       0.00412711 </v>
    <i name="Tr[quadrupol]"> -10249.55280464 </i>
    <i name="Echarged">      0.00000000 </i>
    <i name="Edipol_quadrupol">      0.00000000 </i>
    <i name="Eion">      0.00000000 </i>
   </dipole>
   <energy>
    <i name="e_fr_energy">   -189.48450041 </i>
    <i name="e_wo_entrp">   -189.22124975 </i>
    <i name="e_0_energy">   -189.35287508 </i>
   </energy>
  </scstep>
  <scstep>
   <time name="diag">    1.66    1.66</time>
   <time name="diis">    4.42    4.42</time>
   <time name="orth">    0.40    0.40</time>
   <time name="total">    6.85    6.85</time>
   <dipole>
    <v name="dipole">      0.00000000       0.00000000       0.00427125 </v>
    <i name="Tr[quadrupol]"> -10249.55684123 </i>
    <i name="Echarged">      0.00000000 </i>
    <i name="Edipol_quadrupol">      0.00000000 </i>
    <i name="Eion">      0.00000000 </i>
   </dipole>
   <energy>
    <i name="e_fr_energy">   -189.48449910 </i>
    <i name="e_wo_entrp">   -189.22112824 </i>
    <i name="e_0_energy">   -189.35281367 </i>
   </energy>
  </scstep>
  <scstep>
   <time name="diag">    1.65    1.65</time>
   <time name="diis">    3.45    3.45</time>
   <time name="orth">    0.40    0.40</time>
   <time name="total">    5.87    5.87</time>
   <dipole>
    <v name="dipole">      0.00000000       0.00000000       0.00421408 </v>
    <i name="Tr[quadrupol]"> -10249.55852978 </i>
    <i name="Echarged">      0.00000000 </i>
    <i name="Edipol_quadrupol">      0.00000000 </i>
    <i name="Eion">      0.00000000 </i>
   </dipole>
   <energy>
    <i name="e_fr_energy">   -189.48449762 </i>
    <i name="e_wo_entrp">   -189.22128216 </i>
    <i name="e_0_energy">   -189.35288989 </i>
   </energy>
  </scstep>
  <scstep>
   <time name="diag">    1.65    1.65</time>
   <time name="diis">    2.74    2.74</time>
   <time name="orth">    0.40    0.40</time>
   <time name="total">    4.85    4.85</time>
   <dipole>
    <v name="dipole">      0.00000000       0.00000000       0.00426816 </v>
    <i name="Tr[quadrupol]"> -10249.56075784 </i>
    <i name="Echarged">      0.00000000 </i>
    <i name="Edipol_quadrupol">      0.00000000 </i>
    <i name="Eion">      0.00000000 </i>
   </dipole>
   <energy>
    <i name="alphaZ">    805.87142155 </i>
    <i name="ewald"> 197636.41104957 </i>
    <i name="hartreedc">-239834.94944902 </i>
    <i name="XCdc">   -345.51486070 </i>
    <i name="pawpsdc">  48957.46230560 </i>
    <i name="pawaedc"> -47032.56519790 </i>
    <i name="eentropy">     -0.26326714 </i>
    <i name="bandstr">  -2035.72237252 </i>
    <i name="atom">  41659.78587232 </i>
    <i name="e_fr_energy">   -189.48449826 </i>
    <i name="e_wo_entrp">   -189.22123111 </i>
    <i name="e_0_energy">   -189.35286469 </i>
   </energy>
  </scstep>
  <structure>
   <crystal>
    <varray name="basis" >
     <v>      11.00258152       0.00000000       0.00000000 </v>
     <v>       5.50129076       9.52851510       0.00000000 </v>
     <v>       0.00000000       0.00000000      24.49178509 </v>
    </varray>
    <i name="volume">   2567.67623402 </i>
    <varray name="rec_basis" >
     <v>       0.09088776      -0.05247407       0.00000000 </v>
     <v>       0.00000000       0.10494815       0.00000000 </v>
     <v>       0.00000000       0.00000000       0.04083002 </v>
    </varray>
   </crystal>
   <varray name="positions" >
    <v>       0.08232837       0.08467548       0.40641863 </v>
    <v>       0.16632546       0.91625657       0.50076780 </v>
    <v>       0.66537213       0.91759061       0.50000004 </v>
    <v>       0.58284125       0.08372983       0.40599439 </v>
    <v>       0.41560338       0.16709271       0.50037027 </v>
    <v>       0.58314084       0.33465967       0.40652028 </v>
    <v>       0.41724262       0.41854051       0.49966750 </v>
    <v>       0.33435335       0.83118166       0.40611881 </v>
    <v>       0.50055969       0.24975095       0.59390616 </v>
    <v>       0.49898584       0.74966899       0.59384592 </v>
    <v>       0.83375925       0.08398766       0.40640009 </v>
    <v>       0.74978612       0.00138659       0.59393060 </v>
    <v>       0.83283557       0.58201273       0.40614058 </v>
    <v>       0.66643224       0.66413444       0.49966458 </v>
    <v>       0.83343906       0.83325986       0.40574305 </v>
    <v>       0.41593758       0.91697623       0.50044155 </v>
    <v>       0.24975674       0.50057707       0.59391244 </v>
    <v>       0.75002635       0.74907191       0.59431061 </v>
    <v>       0.91811483       0.66460451       0.50034346 </v>
    <v>       0.16569250       0.41554709       0.50001912 </v>
    <v>       0.33276191       0.08435473       0.40602039 </v>
    <v>       0.00129542       0.74971368       0.59394994 </v>
    <v>       0.08514080       0.58293809       0.40610991 </v>
    <v>       0.91812123       0.91763859       0.50006541 </v>
    <v>      -0.00017070       0.25012695       0.59229213 </v>
    <v>       0.66770258       0.16772060       0.50030369 </v>
    <v>       0.91682727       0.41494205       0.50028376 </v>
    <v>       0.83351106       0.33371959       0.40768272 </v>
    <v>       0.33318785       0.58370499       0.40737155 </v>
    <v>       0.08302129       0.33306207       0.40735379 </v>
    <v>       0.00025995       0.00113358       0.59278770 </v>
    <v>       0.75069582       0.49863729       0.59259572 </v>
    <v>       0.91587646       0.16852941       0.50052865 </v>
    <v>       0.66754042       0.41631989       0.50023287 </v>
    <v>       0.75045341       0.25061586       0.59237968 </v>
    <v>       0.50087128       0.49998195       0.59267984 </v>
    <v>       0.24932003       0.24931502       0.59286283 </v>
    <v>       0.41677666       0.66523416       0.49999375 </v>
    <v>       0.58323219       0.58307422       0.40739911 </v>
    <v>      -0.00016528       0.49866773       0.59290308 </v>
    <v>       0.08397275       0.83249625       0.40703531 </v>
    <v>       0.49889842       0.00067018       0.59317541 </v>
    <v>       0.16484430       0.16793855       0.50055080 </v>
    <v>       0.24923077       0.00093182       0.59276323 </v>
    <v>       0.33288883       0.33371639       0.40685674 </v>
    <v>       0.16780654       0.66714116       0.49981964 </v>
    <v>       0.58334574       0.83285997       0.40682412 </v>
    <v>       0.25021983       0.75011015       0.59266238 </v>
   </varray>
  </structure>
  <varray name="forces" >
   <v>      -0.01088100       0.09526397      -0.91453695 </v>
   <v>       0.07360229       0.01771901       0.09875413 </v>
   <v>       0.02566746       0.00287239       0.02646398 </v>
   <v>      -0.02760005       0.11922611      -1.13454464 </v>
   <v>      -0.04351201       0.17349892       0.08368429 </v>
   <v>       0.09269790       0.19937314      -0.98169949 </v>
   <v>       0.14229677       0.13515540      -0.02335915 </v>
   <v>      -0.01865539      -0.24059388      -1.05218979 </v>
   <v>       0.03726168       0.06440217       1.12037226 </v>
   <v>      -0.19416831      -0.05649451       1.12123327 </v>
   <v>       0.12251076       0.11343555      -0.98709466 </v>
   <v>       0.10798211       0.11846148       1.12178154 </v>
   <v>      -0.10822526      -0.19651826      -1.11278164 </v>
   <v>      -0.16333880      -0.28148778      -0.03133005 </v>
   <v>       0.00888843      -0.07794506      -1.15871168 </v>
   <v>      -0.21864755      -0.01788396       0.05322552 </v>
   <v>       0.01803511      -0.00070365       1.08962172 </v>
   <v>      -0.10400607      -0.12711269       1.25203519 </v>
   <v>       0.02558073      -0.14957720       0.05921147 </v>
   <v>      -0.11022304      -0.08937605       0.02307455 </v>
   <v>      -0.07365230       0.10072087      -1.12716609 </v>
   <v>       0.16397179       0.00950842       1.14318859 </v>
   <v>       0.23159438      -0.07259617      -1.11844895 </v>
   <v>       0.10686128       0.08744033       0.00962708 </v>
   <v>      -0.02907619       0.02181586       0.48764484 </v>
   <v>       0.21701268       0.15701132       0.04762357 </v>
   <v>      -0.15826950      -0.21152097       0.04878243 </v>
   <v>       0.05573902       0.07767457      -0.38317031 </v>
   <v>       0.01433307       0.04376627      -0.62172106 </v>
   <v>      -0.07923252       0.00366655      -0.55706610 </v>
   <v>       0.16330999       0.23248641       0.69543800 </v>
   <v>       0.00303052      -0.20764693       0.56599824 </v>
   <v>       0.04280213       0.25693511       0.11009500 </v>
   <v>       0.09782001      -0.11394976       0.05562755 </v>
   <v>       0.15845645       0.13118655       0.47949318 </v>
   <v>       0.16357680      -0.04794279       0.58930282 </v>
   <v>      -0.17604681      -0.08392652       0.71518318 </v>
   <v>      -0.02657635      -0.10667713       0.01301889 </v>
   <v>      -0.06571784      -0.06862101      -0.57821556 </v>
   <v>      -0.16002322      -0.24746963       0.71723117 </v>
   <v>       0.07880981      -0.06601489      -0.69443009 </v>
   <v>      -0.13826993       0.07033388       0.82562916 </v>
   <v>      -0.28378577       0.06678650       0.08782283 </v>
   <v>      -0.06657141       0.17181548       0.67111715 </v>
   <v>      -0.01600770       0.05443932      -0.71122086 </v>
   <v>       0.10954467      -0.01661387      -0.01457536 </v>
   <v>      -0.06084627      -0.05893855      -0.72078259 </v>
   <v>       0.07194743       0.01461564       0.61076342 </v>
  </varray>
  <energy>
   <i name="e_fr_energy">   -189.48449826 </i>
   <i name="e_wo_entrp">   -189.35286469 </i>
   <i name="e_0_energy">     -0.26326714 </i>
  </energy>
  <time name="totalsc">  114.01  115.56</time>
 </calculation>
 <calculation>
  <scstep>
   <time name="dav">    9.62    9.69</time>
   <time name="total">    9.98   10.05</time>
   <dipole>
    <v name="dipole">      0.00000000       0.00000000       0.00430930 </v>
    <i name="Tr[quadrupol]"> -10250.10480192 </i>
    <i name="Echarged">      0.00000000 </i>
    <i name="Edipol_quadrupol">      0.00000000 </i>
    <i name="Eion">      0.00000000 </i>
   </dipole>
   <energy>
    <i name="alphaZ">    805.87153120 </i>
    <i name="ewald"> 189864.89316151 </i>
    <i name="hartreedc">-232105.27099121 </i>
    <i name="XCdc">   -350.93457785 </i>
    <i name="pawpsdc">  48957.36277625 </i>
    <i name="pawaedc"> -47032.46539226 </i>
    <i name="eentropy">     -0.26165919 </i>
    <i name="bandstr">  -1986.94971165 </i>
    <i name="atom">  41659.78587232 </i>
    <i name="e_fr_energy">   -187.96899088 </i>
    <i name="e_wo_entrp">   -187.70733170 </i>
    <i name="e_0_energy">   -187.83816129 </i>
   </energy>
  </scstep>
  <scstep>
   <time name="diag">    1.66    1.66</time>
   <time name="diis">    4.50    4.50</time>
   <time name="orth">    0.40    0.40</time>
   <time name="total">    6.92    6.93</time>
   <dipole>
    <v name="dipole">      0.00000000       0.00000000      -0.03410768 </v>
    <i name="Tr[quadrupol]"> -10249.25993405 </i>
    <i name="Echarged">      0.00000000 </i>
    <i name="Edipol_quadrupol">      0.00000000 </i>
    <i name="Eion">      0.00000000 </i>
   </dipole>
   <energy>
    <i name="e_fr_energy">   -191.43227372 </i>
    <i name="e_wo_entrp">   -191.19565583 </i>
    <i name="e_0_energy">   -191.31396477 </i>
   </energy>
  </scstep>
  <scstep>
   <time name="diag">    1.66    1.66</time>
   <time name="diis">    4.54    4.55</time>
   <time name="orth">    0.40    0.40</time>
   <time name="total">    6.97    6.98</time>
   <dipole>
    <v name="dipole">      0.00000000       0.00000000       0.13887646 </v>
    <i name="Tr[quadrupol]"> -10250.44557182 </i>
    <i name="Echarged">      0.00000000 </i>
    <i name="Edipol_quadrupol">      0.00000000 </i>
    <i name="Eion">      0.00000000 </i>
   </dipole>
   <energy>
    <i name="e_fr_energy">   -192.16853920 </i>
    <i name="e_wo_entrp">   -191.89884032 </i>
    <i name="e_0_energy">   -192.03368976 </i>
   </energy>
  </scstep>
  <scstep>
   <time name="diag">    1.66    1.66</time>
   <time name="diis">    4.51    4.51</time>
   <time name="orth">    0.40    0.40</time>
   <time name="total">    6.94    6.94</time>
   <dipole>
    <v name="dipole">      0.00000000       0.00000000      -0.03221190 </v>
    <i name="Tr[quadrupol]"> -10250.16505880 </i>
    <i name="Echarged">      0.00000000 </i>
    <i name="Edipol_quadrupol">      0.00000000 </i>
    <i name="Eion">      0.00000000 </i>
   </dipole>
   <energy>
    <i name="e_fr_energy">   -191.28211401 </i>
    <i name="e_wo_entrp">   -191.03690205 </i>
    <i name="e_0_energy">   -191.15950803 </i>
   </energy>
  </scstep>
  <scstep>
   <time name="diag">    1.61    1.78</time>
   <time name="diis">    4.23    4.67</time>
   <time name="orth">    0.40    0.40</time>
   <time name="total">    6.61    7.22</time>
   <dipole>
    <v name="dipole">      0.00000000       0.00000000       0.02560651 </v>
    <i name="Tr[quadrupol]"> -10250.19761963 </i>
    <i name="Echarged">      0.00000000 </i>
    <i name="Edipol_quadrupol">      0.00000000 </i>
    <i name="Eion">      0.00000000 </i>
   </dipole>
   <energy>
    <i name="e_fr_energy">   -191.36319408 </i>
    <i name="e_wo_entrp">   -191.10162749 </i>
    <i name="e_0_energy">   -191.23241078 </i>
   </energy>
  </scstep>
  <scstep>
   <time name="diag">    1.67    1.67</time>
   <time name="diis">    4.43    4.51</time>
   <time name="orth">    0.40    0.40</time>
   <time name="total">    6.86    6.94</time>
   <dipole>
    <v name="dipole">      0.00000000       0.00000000      -0.09606674 </v>
    <i name="Tr[quadrupol]"> -10250.27997130 </i>
    <i name="Echarged">      0.00000000 </i>
    <i name="Edipol_quadrupol">      0.00000000 </i>
    <i name="Eion">      0.00000000 </i>
[...]
       <r>    2.2247    0.0000 </r>
       <r>    2.2941    0.0000 </r>
       <r>    2.5033    0.0000 </r>
       <r>    2.6043    0.0000 </r>
       <r>    2.7234    0.0000 </r>
       <r>    2.9554    0.0000 </r>
       <r>    3.1236    0.0000 </r>
       <r>    3.2692    0.0000 </r>
       <r>    3.5054    0.0000 </r>
       <r>    3.5620    0.0000 </r>
       <r>    3.7311    0.0000 </r>
       <r>    4.0237    0.0000 </r>
       <r>    4.0655    0.0000 </r>
       <r>    4.1239    0.0000 </r>
       <r>    4.4282    0.0000 </r>
       <r>    4.4848    0.0000 </r>
       <r>    4.5914    0.0000 </r>
       <r>    4.6307    0.0000 </r>
       <r>    4.7245    0.0000 </r>
       <r>    4.8197    0.0000 </r>
       <r>    4.8708    0.0000 </r>
       <r>    4.9407    0.0000 </r>
       <r>    4.9995    0.0000 </r>
       <r>    5.0246    0.0000 </r>
       <r>    5.0685    0.0000 </r>
       <r>    5.0801    0.0000 </r>
       <r>    5.1846    0.0000 </r>
       <r>    5.2231    0.0000 </r>
      </set>
     </set>
    </set>
   </array>
  </eigenvalues>
  <separator name="orbital magnetization" >
   <v name="MAGDIPOLOUT">      0.00000000      0.00000000      0.00000000</v>
  </separator>
  <dos>
   <i name="efermi">     -1.10110991 </i>
   <total>
    <array>
     <dimension dim="1">gridpoints</dimension>
     <dimension dim="2">spin</dimension>
     <field>energy</field>
     <field>total</field>
     <field>integrated</field>
     <set>
      <set comment="spin 1">
       <r>    -9.9006     0.0000     0.0000 </r>
       <r>    -9.8465     0.0000     0.0000 </r>
       <r>    -9.7924     0.0000     0.0000 </r>
       <r>    -9.7384     0.0000     0.0000 </r>
       <r>    -9.6843     0.0000     0.0000 </r>
       <r>    -9.6302     0.0000     0.0000 </r>
       <r>    -9.5761     0.0000     0.0000 </r>
       <r>    -9.5220     0.0000     0.0000 </r>
       <r>    -9.4679     0.0000     0.0000 </r>
       <r>    -9.4138     0.0000     0.0000 </r>
       <r>    -9.3597     0.0000     0.0000 </r>
       <r>    -9.3056     0.0000     0.0000 </r>
       <r>    -9.2515     0.0000     0.0000 </r>
       <r>    -9.1975     0.0001     0.0000 </r>
       <r>    -9.1434     0.0034     0.0002 </r>
       <r>    -9.0893     0.0448     0.0026 </r>
       <r>    -9.0352     0.3390     0.0210 </r>
       <r>    -8.9811     1.4780     0.1009 </r>
       <r>    -8.9270     3.7428     0.3033 </r>
       <r>    -8.8729     5.6457     0.6087 </r>
       <r>    -8.8188     5.6620     0.9150 </r>
       <r>    -8.7647     5.2247     1.1976 </r>
       <r>    -8.7106     5.5467     1.4976 </r>
       <r>    -8.6566     4.9993     1.7680 </r>
       <r>    -8.6025     2.9604     1.9281 </r>
       <r>    -8.5484     1.0680     1.9859 </r>
       <r>    -8.4943     0.2321     1.9985 </r>
       <r>    -8.4402     0.0598     2.0017 </r>
       <r>    -8.3861     0.2080     2.0129 </r>
       <r>    -8.3320     0.8178     2.0572 </r>
       <r>    -8.2779     2.0176     2.1663 </r>
       <r>    -8.2238     3.3378     2.3469 </r>
       <r>    -8.1697     4.0888     2.5680 </r>
       <r>    -8.1157     4.0782     2.7886 </r>
       <r>    -8.0616     3.9065     2.9999 </r>
       <r>    -8.0075     4.7562     3.2572 </r>
       <r>    -7.9534     6.8103     3.6255 </r>
       <r>    -7.8993     8.6240     4.0920 </r>
       <r>    -7.8452     8.7573     4.5657 </r>
       <r>    -7.7911     7.6860     4.9814 </r>
       <r>    -7.7370     7.4315     5.3834 </r>
       <r>    -7.6829     8.2061     5.8273 </r>
       <r>    -7.6288     8.5840     6.2916 </r>
       <r>    -7.5748     8.9273     6.7745 </r>
       <r>    -7.5207    10.5936     7.3475 </r>
       <r>    -7.4666    12.6804     8.0334 </r>
       <r>    -7.4125    13.0728     8.7405 </r>
       <r>    -7.3584    12.0431     9.3919 </r>
       <r>    -7.3043    11.3032    10.0033 </r>
       <r>    -7.2502    11.8545    10.6445 </r>
       <r>    -7.1961    14.2862    11.4172 </r>
       <r>    -7.1420    17.9722    12.3893 </r>
       <r>    -7.0879    21.6370    13.5597 </r>
       <r>    -7.0339    25.0406    14.9141 </r>
       <r>    -6.9798    27.6664    16.4106 </r>
       <r>    -6.9257    29.1861    17.9893 </r>
       <r>    -6.8716    30.6948    19.6495 </r>
       <r>    -6.8175    32.7742    21.4223 </r>
       <r>    -6.7634    35.5876    23.3472 </r>
       <r>    -6.7093    39.5657    25.4873 </r>
       <r>    -6.6552    44.0192    27.8683 </r>
       <r>    -6.6011    47.2015    30.4215 </r>
       <r>    -6.5470    48.3949    33.0391 </r>
       <r>    -6.4930    49.6550    35.7250 </r>
       <r>    -6.4389    53.7247    38.6309 </r>
       <r>    -6.3848    60.3983    41.8979 </r>
       <r>    -6.3307    67.4651    45.5471 </r>
       <r>    -6.2766    73.6947    49.5332 </r>
       <r>    -6.2225    78.1717    53.7615 </r>
       <r>    -6.1684    79.5949    58.0668 </r>
       <r>    -6.1143    78.7782    62.3279 </r>
       <r>    -6.0602    77.9981    66.5468 </r>
       <r>    -6.0061    76.2757    70.6726 </r>
       <r>    -5.9521    71.4030    74.5348 </r>
       <r>    -5.8980    66.2354    78.1174 </r>
       <r>    -5.8439    64.9049    81.6281 </r>
       <r>    -5.7898    66.3823    85.2188 </r>
       <r>    -5.7357    67.6674    88.8789 </r>
       <r>    -5.6816    67.7212    92.5419 </r>
       <r>    -5.6275    67.3956    96.1873 </r>
       <r>    -5.5734    67.9957    99.8652 </r>
       <r>    -5.5193    69.7499   103.6380 </r>
       <r>    -5.4652    72.2982   107.5486 </r>
       <r>    -5.4112    75.1905   111.6157 </r>
       <r>    -5.3571    77.8310   115.8255 </r>
       <r>    -5.3030    79.3595   120.1181 </r>
       <r>    -5.2489    79.8275   124.4359 </r>
       <r>    -5.1948    80.1173   128.7695 </r>
       <r>    -5.1407    80.7724   133.1385 </r>
       <r>    -5.0866    82.4641   137.5989 </r>
       <r>    -5.0325    84.6743   142.1790 </r>
       <r>    -4.9784    85.8661   146.8235 </r>
       <r>    -4.9243    86.1450   151.4830 </r>
       <r>    -4.8703    86.1619   156.1435 </r>
       <r>    -4.8162    86.1232   160.8019 </r>
       <r>    -4.7621    86.8391   165.4991 </r>
       <r>    -4.7080    88.4449   170.2830 </r>
       <r>    -4.6539    89.7417   175.1372 </r>
       <r>    -4.5998    89.3493   179.9701 </r>
       <r>    -4.5457    87.3777   184.6963 </r>
       <r>    -4.4916    85.7500   189.3345 </r>
       <r>    -4.4375    85.7586   193.9732 </r>
       <r>    -4.3834    86.6494   198.6601 </r>
       <r>    -4.3294    87.7201   203.4048 </r>
       <r>    -4.2753    90.2741   208.2878 </r>
       <r>    -4.2212    94.4734   213.3978 </r>
       <r>    -4.1671    97.6708   218.6808 </r>
       <r>    -4.1130    98.0713   223.9855 </r>
       <r>    -4.0589    96.7633   229.2194 </r>
       <r>    -4.0048    94.6242   234.3377 </r>
       <r>    -3.9507    90.8627   239.2524 </r>
       <r>    -3.8966    86.9322   243.9546 </r>
       <r>    -3.8425    86.0905   248.6112 </r>
       <r>    -3.7885    88.0321   253.3729 </r>
       <r>    -3.7344    90.7529   258.2817 </r>
       <r>    -3.6803    94.5858   263.3978 </r>
       <r>    -3.6262    98.7263   268.7379 </r>
       <r>    -3.5721   100.6193   274.1804 </r>
       <r>    -3.5180    99.7653   279.5767 </r>
       <r>    -3.4639    97.8535   284.8696 </r>
       <r>    -3.4098    96.9499   290.1136 </r>
       <r>    -3.3557    98.1305   295.4215 </r>
       <r>    -3.3016   100.5590   300.8607 </r>
       <r>    -3.2476   102.4717   306.4034 </r>
       <r>    -3.1935   102.1456   311.9285 </r>
       <r>    -3.1394    99.1397   317.2909 </r>
       <r>    -3.0853    95.0638   322.4329 </r>
       <r>    -3.0312    92.3856   327.4300 </r>
       <r>    -2.9771    92.3503   332.4253 </r>
       <r>    -2.9230    94.0630   337.5131 </r>
       <r>    -2.8689    96.0007   342.7058 </r>
       <r>    -2.8148    97.4487   347.9768 </r>
       <r>    -2.7607    98.6874   353.3148 </r>
       <r>    -2.7067    99.4740   358.6953 </r>
       <r>    -2.6526    98.6991   364.0340 </r>
       <r>    -2.5985    96.9981   369.2806 </r>
       <r>    -2.5444    96.0418   374.4755 </r>
       <r>    -2.4903    95.4001   379.6357 </r>
       <r>    -2.4362    94.8764   384.7675 </r>
       <r>    -2.3821    95.0659   389.9097 </r>
       <r>    -2.3280    94.8837   395.0419 </r>
       <r>    -2.2739    93.8799   400.1199 </r>
       <r>    -2.2198    92.9776   405.1490 </r>
       <r>    -2.1658    92.4048   410.1472 </r>
       <r>    -2.1117    91.9404   415.1203 </r>
       <r>    -2.0576    91.4855   420.0687 </r>
       <r>    -2.0035    90.9393   424.9876 </r>
       <r>    -1.9494    89.9696   429.8541 </r>
       <r>    -1.8953    88.8786   434.6615 </r>
       <r>    -1.8412    88.7563   439.4623 </r>
       <r>    -1.7871    89.3205   444.2937 </r>
       <r>    -1.7330    89.7024   449.1457 </r>
       <r>    -1.6789    89.9419   454.0106 </r>
       <r>    -1.6249    89.9160   458.8742 </r>
       <r>    -1.5708    89.7513   463.7288 </r>
       <r>    -1.5167    89.6565   468.5783 </r>
       <r>    -1.4626    90.8594   473.4929 </r>
       <r>    -1.4085    94.7276   478.6167 </r>
       <r>    -1.3544    98.9471   483.9688 </r>
       <r>    -1.3003    98.6200   489.3031 </r>
       <r>    -1.2462    91.1719   494.2346 </r>
       <r>    -1.1921    78.4688   498.4790 </r>
       <r>    -1.1380    64.7562   501.9816 </r>
       <r>    -1.0840    52.8805   504.8419 </r>
       <r>    -1.0299    41.3006   507.0759 </r>
       <r>    -0.9758    28.2490   508.6039 </r>
       <r>    -0.9217    15.9716   509.4678 </r>
       <r>    -0.8676     8.0382   509.9025 </r>
       <r>    -0.8135     6.2285   510.2395 </r>
       <r>    -0.7594     9.4980   510.7532 </r>
       <r>    -0.7053    14.2151   511.5221 </r>
       <r>    -0.6512    17.6829   512.4786 </r>
       <r>    -0.5971    20.1530   513.5686 </r>
       <r>    -0.5431    22.0082   514.7591 </r>
       <r>    -0.4890    22.0874   515.9538 </r>
       <r>    -0.4349    18.8245   516.9720 </r>
       <r>    -0.3808    13.7626   517.7164 </r>
       <r>    -0.3267    11.8968   518.3599 </r>
       <r>    -0.2726    15.4277   519.1944 </r>
       <r>    -0.2185    20.0529   520.2790 </r>
       <r>    -0.1644    20.5878   521.3926 </r>
       <r>    -0.1103    16.9655   522.3103 </r>
       <r>    -0.0562    12.7668   523.0008 </r>
       <r>    -0.0022    10.7172   523.5805 </r>
       <r>     0.0519    11.6185   524.2090 </r>
       <r>     0.1060    14.5090   524.9938 </r>
       <r>     0.1601    16.5921   525.8912 </r>
       <r>     0.2142    17.0824   526.8152 </r>
       <r>     0.2683    17.7127   527.7733 </r>
       <r>     0.3224    18.4816   528.7730 </r>
       <r>     0.3765    18.5812   529.7780 </r>
       <r>     0.4306    19.1864   530.8158 </r>
       <r>     0.4847    21.0211   531.9529 </r>
       <r>     0.5387    22.4495   533.1671 </r>
       <r>     0.5928    22.2439   534.3703 </r>
       <r>     0.6469    21.5408   535.5355 </r>
       <r>     0.7010    21.1386   536.6788 </r>
       <r>     0.7551    19.4468   537.7307 </r>
       <r>     0.8092    14.9156   538.5375 </r>
       <r>     0.8633    10.1138   539.0846 </r>
       <r>     0.9174     8.9515   539.5687 </r>
       <r>     0.9715    10.4966   540.1365 </r>
       <r>     1.0255    11.7446   540.7718 </r>
       <r>     1.0796    12.4697   541.4463 </r>
       <r>     1.1337    13.1416   542.1571 </r>
       <r>     1.1878    12.2756   542.8211 </r>
       <r>     1.2419     9.0478   543.3105 </r>
       <r>     1.2960     5.3579   543.6003 </r>
       <r>     1.3501     3.8719   543.8097 </r>
       <r>     1.4042     5.5987   544.1125 </r>
       <r>     1.4583     9.8428   544.6449 </r>
       <r>     1.5124    14.4484   545.4264 </r>
       <r>     1.5664    16.2725   546.3066 </r>
       <r>     1.6205    14.9677   547.1162 </r>
       <r>     1.6746    13.9003   547.8681 </r>
       <r>     1.7287    15.2136   548.6910 </r>
       <r>     1.7828    17.3955   549.6319 </r>
       <r>     1.8369    17.9276   550.6016 </r>
       <r>     1.8910    17.0641   551.5246 </r>
       <r>     1.9451    16.5218   552.4183 </r>
       <r>     1.9992    15.7089   553.2680 </r>
       <r>     2.0533    14.5587   554.0555 </r>
       <r>     2.1073    14.8344   554.8578 </r>
       <r>     2.1614    16.5436   555.7527 </r>
       <r>     2.2155    18.4756   556.7520 </r>
       <r>     2.2696    19.8089   557.8235 </r>
       <r>     2.3237    20.0116   558.9059 </r>
       <r>     2.3778    18.4958   559.9064 </r>
       <r>     2.4319    16.2683   560.7863 </r>
       <r>     2.4860    16.0522   561.6546 </r>
       <r>     2.5401    18.6614   562.6640 </r>
       <r>     2.5942    22.0554   563.8569 </r>
       <r>     2.6482    23.7181   565.1399 </r>
       <r>     2.7023    22.5942   566.3620 </r>
       <r>     2.7564    19.1719   567.3990 </r>
       <r>     2.8105    14.7830   568.1986 </r>
       <r>     2.8646    10.8915   568.7877 </r>
       <r>     2.9187     8.5215   569.2486 </r>
       <r>     2.9728     7.0985   569.6326 </r>
       <r>     3.0269     5.4698   569.9285 </r>
       <r>     3.0810     4.8934   570.1931 </r>
       <r>     3.1351     6.3810   570.5383 </r>
       <r>     3.1891     8.6072   571.0039 </r>
       <r>     3.2432    10.7973   571.5879 </r>
       <r>     3.2973    11.8138   572.2269 </r>
       <r>     3.3514    10.7251   572.8070 </r>
       <r>     3.4055    10.5303   573.3766 </r>
       <r>     3.4596    13.3089   574.0965 </r>
       <r>     3.5137    16.2611   574.9760 </r>
       <r>     3.5678    17.3174   575.9127 </r>
       <r>     3.6219    17.7273   576.8716 </r>
       <r>     3.6760    18.5931   577.8773 </r>
       <r>     3.7300    19.0799   578.9093 </r>
       <r>     3.7841    17.3312   579.8468 </r>
       <r>     3.8382    13.8070   580.5936 </r>
       <r>     3.8923    11.4814   581.2146 </r>
       <r>     3.9464    11.6275   581.8435 </r>
       <r>     4.0005    12.8707   582.5397 </r>
       <r>     4.0546    13.5938   583.2750 </r>
       <r>     4.1087    13.1061   583.9839 </r>
       <r>     4.1628    11.4253   584.6019 </r>
       <r>     4.2169     9.5127   585.1165 </r>
       <r>     4.2709     8.3184   585.5664 </r>
       <r>     4.3250     8.1371   586.0065 </r>
       <r>     4.3791    10.3871   586.5684 </r>
       <r>     4.4332    14.6164   587.3590 </r>
       <r>     4.4873    17.6427   588.3133 </r>
       <r>     4.5414    20.1002   589.4005 </r>
       <r>     4.5955    23.7886   590.6872 </r>
       <r>     4.6496    25.7467   592.0798 </r>
       <r>     4.7037    24.1241   593.3847 </r>
       <r>     4.7578    22.2804   594.5899 </r>
       <r>     4.8118    22.9021   595.8286 </r>
       <r>     4.8659    24.6409   597.1615 </r>
       <r>     4.9200    26.3153   598.5849 </r>
       <r>     4.9741    29.9571   600.2052 </r>
       <r>     5.0282    35.5097   602.1260 </r>
       <r>     5.0823    38.3919   604.2026 </r>
       <r>     5.1364    36.5014   606.1769 </r>
       <r>     5.1905    32.7606   607.9489 </r>
       <r>     5.2446    28.6623   609.4993 </r>
       <r>     5.2987    22.4795   610.7152 </r>
       <r>     5.3527    14.2864   611.4880 </r>
       <r>     5.4068     6.7638   611.8538 </r>
       <r>     5.4609     2.1906   611.9723 </r>
       <r>     5.5150     0.4514   611.9967 </r>
       <r>     5.5691     0.0564   611.9998 </r>
       <r>     5.6232     0.0042   612.0000 </r>
       <r>     5.6773     0.0002   612.0000 </r>
       <r>     5.7314     0.0000   612.0000 </r>
       <r>     5.7855     0.0000   612.0000 </r>
       <r>     5.8396     0.0000   612.0000 </r>
       <r>     5.8936     0.0000   612.0000 </r>
       <r>     5.9477     0.0000   612.0000 </r>
       <r>     6.0018     0.0000   612.0000 </r>
       <r>     6.0559     0.0000   612.0000 </r>
       <r>     6.1100     0.0000   612.0000 </r>
       <r>     6.1641     0.0000   612.0000 </r>
       <r>     6.2182     0.0000   612.0000 </r>
       <r>     6.2723     0.0000   612.0000 </r>
       <r>     6.3264     0.0000   612.0000 </r>
      </set>
     </set>
    </array>
   </total>
  </dos>
 </calculation>
 <structure name="finalpos" >
  <crystal>
   <varray name="basis" >
    <v>      11.00258152       0.00000000       0.00000000 </v>
    <v>       5.50129076       9.52851510       0.00000000 </v>
    <v>       0.00000000       0.00000000      24.49178509 </v>
   </varray>
   <i name="volume">   2567.67623402 </i>
   <varray name="rec_basis" >
    <v>       0.09088776      -0.05247407       0.00000000 </v>
    <v>       0.00000000       0.10494815       0.00000000 </v>
    <v>       0.00000000       0.00000000       0.04083002 </v>
   </varray>
  </crystal>
  <varray name="positions" >
   <v>       0.08366758       0.08403702       0.39535280 </v>
   <v>       0.16645075       0.91598762       0.49940189 </v>
   <v>       0.66664237       0.91740276       0.50142214 </v>
   <v>       0.58304665       0.08432573       0.39568210 </v>
   <v>       0.41552893       0.16726749       0.50059070 </v>
   <v>       0.58294502       0.33725701       0.39811885 </v>
   <v>       0.41798520       0.41854726       0.50196055 </v>
   <v>       0.33672403       0.82843473       0.39560639 </v>
   <v>       0.49994925       0.24997716       0.60456073 </v>
   <v>       0.49692407       0.74996736       0.60498495 </v>
   <v>       0.83469569       0.08411948       0.39666827 </v>
   <v>       0.75006077       0.00197987       0.60461178 </v>
   <v>       0.83362581       0.58115607       0.39598685 </v>
   <v>       0.66713525       0.66313264       0.50159710 </v>
   <v>       0.83457424       0.83219553       0.39386602 </v>
   <v>       0.41480085       0.91666383       0.50009544 </v>
   <v>       0.24920896       0.50018762       0.60609902 </v>
   <v>       0.74919095       0.74783765       0.60966723 </v>
   <v>       0.91682134       0.66516974       0.50164905 </v>
   <v>       0.16456282       0.41607494       0.50125502 </v>
   <v>       0.33347074       0.08443654       0.39391677 </v>
   <v>       0.00110144       0.75062527       0.60598992 </v>
   <v>       0.08757299       0.58230264       0.39773532 </v>
   <v>       0.91676117       0.91775061       0.50055758 </v>
   <v>      -0.00110489       0.25079507       0.59387317 </v>
   <v>       0.66814362       0.16782078       0.49947532 </v>
   <v>       0.91525451       0.41531381       0.49921501 </v>
   <v>       0.83489483       0.33414987       0.40315316 </v>
   <v>       0.33385685       0.58391498       0.40553460 </v>
   <v>       0.08385529       0.33336254       0.40258416 </v>
   <v>       0.00009337       0.00406166       0.59698758 </v>
   <v>       0.75068077       0.49775571       0.59740167 </v>
   <v>       0.91551188       0.16873566       0.49784783 </v>
   <v>       0.66778624       0.41513767       0.49963316 </v>
   <v>       0.75060960       0.25119276       0.59434613 </v>
   <v>       0.50214536       0.49917509       0.59848639 </v>
   <v>       0.24770189       0.24859695       0.59751967 </v>
   <v>       0.41701925       0.66600056       0.50141598 </v>
   <v>       0.58459174       0.58311463       0.40430591 </v>
   <v>      -0.00134526       0.49719891       0.59869825 </v>
   <v>       0.08508314       0.83189608       0.40283819 </v>
   <v>       0.49734420       0.00082602       0.59928873 </v>
   <v>       0.16292450       0.16738331       0.49759922 </v>
   <v>       0.24736736       0.00281904       0.59612433 </v>
   <v>       0.33366358       0.33392720       0.40345938 </v>
   <v>       0.16655375       0.66614041       0.50228985 </v>
   <v>       0.58437391       0.83270969       0.40318409 </v>
   <v>       0.24954764       0.75113504       0.59736176 </v>
  </varray>
 </structure>
</modeling>
