unknown system                          
           1
    11.002582    0.000000    0.000000
     5.501291    9.528515    0.000000
     0.000000    0.000000   24.491785
   Au   Pd
  24  24
Direct configuration=     1
   0.08333333  0.08333333  0.40830017
   0.16666667  0.91666667  0.50000000
   0.66666667  0.91666667  0.50000000
   0.58333333  0.08333333  0.40830017
   0.41666667  0.16666667  0.50000000
   0.58333333  0.33333333  0.40830017
   0.41666667  0.41666667  0.50000000
   0.33333333  0.83333333  0.40830017
   0.50000000  0.25000000  0.59169983
   0.50000000  0.75000000  0.59169983
   0.83333333  0.08333333  0.40830017
   0.75000000  0.00000000  0.59169983
   0.83333333  0.58333333  0.40830017
   0.66666667  0.66666667  0.50000000
   0.83333333  0.83333333  0.40830017
   0.41666667  0.91666667  0.50000000
   0.25000000  0.50000000  0.59169983
   0.75000000  0.75000000  0.59169983
   0.91666667  0.66666667  0.50000000
   0.16666667  0.41666667  0.50000000
   0.33333333  0.08333333  0.40830017
   0.00000000  0.75000000  0.59169983
   0.08333333  0.58333333  0.40830017
   0.91666667  0.91666667  0.50000000
   0.00000000  0.25000000  0.59169983
   0.66666667  0.16666667  0.50000000
   0.91666667  0.41666667  0.50000000
   0.83333333  0.33333333  0.40830017
   0.33333333  0.58333333  0.40830017
   0.08333333  0.33333333  0.40830017
   0.00000000  0.00000000  0.59169983
   0.75000000  0.50000000  0.59169983
   0.91666667  0.16666667  0.50000000
   0.66666667  0.41666667  0.50000000
   0.75000000  0.25000000  0.59169983
   0.50000000  0.50000000  0.59169983
   0.25000000  0.25000000  0.59169983
   0.41666667  0.66666667  0.50000000
   0.58333333  0.58333333  0.40830017
   0.00000000  0.50000000  0.59169983
   0.08333333  0.83333333  0.40830017
   0.50000000  0.00000000  0.59169983
   0.16666667  0.16666667  0.50000000
   0.25000000  0.00000000  0.59169983
   0.33333333  0.33333333  0.40830017
   0.16666667  0.66666667  0.50000000
   0.58333333  0.83333333  0.40830017
   0.25000000  0.75000000  0.59169983
Direct configuration=     2
   0.08232837  0.08467548  0.40641863
   0.16632546  0.91625657  0.50076780
   0.66537213  0.91759061  0.50000004
   0.58284125  0.08372983  0.40599439
   0.41560338  0.16709271  0.50037027
   0.58314084  0.33465967  0.40652028
   0.41724262  0.41854051  0.49966750
   0.33435335  0.83118166  0.40611881
   0.50055969  0.24975095  0.59390616
   0.49898584  0.74966899  0.59384592
   0.83375925  0.08398766  0.40640009
   0.74978612  0.00138659  0.59393060
   0.83283557  0.58201273  0.40614058
   0.66643224  0.66413444  0.49966458
   0.83343906  0.83325986  0.40574305
   0.41593758  0.91697623  0.50044155
   0.24975674  0.50057707  0.59391244
   0.75002635  0.74907191  0.59431061
   0.91811483  0.66460451  0.50034346
   0.16569250  0.41554709  0.50001912
   0.33276191  0.08435473  0.40602039
   0.00129542  0.74971368  0.59394994
   0.08514080  0.58293809  0.40610991
   0.91812123  0.91763859  0.50006541
  -0.00017070  0.25012695  0.59229213
   0.66770258  0.16772060  0.50030369
   0.91682727  0.41494205  0.50028376
   0.83351106  0.33371959  0.40768272
   0.33318785  0.58370499  0.40737155
   0.08302129  0.33306207  0.40735379
   0.00025995  0.00113358  0.59278770
   0.75069582  0.49863729  0.59259572
   0.91587646  0.16852941  0.50052865
   0.66754042  0.41631989  0.50023287
   0.75045341  0.25061586  0.59237968
   0.50087128  0.49998195  0.59267984
   0.24932003  0.24931502  0.59286283
   0.41677666  0.66523416  0.49999375
   0.58323219  0.58307422  0.40739911
  -0.00016528  0.49866773  0.59290308
   0.08397275  0.83249625  0.40703531
   0.49889842  0.00067018  0.59317541
   0.16484430  0.16793855  0.50055080
   0.24923077  0.00093182  0.59276323
   0.33288883  0.33371639  0.40685674
   0.16780654  0.66714116  0.49981964
   0.58334574  0.83285997  0.40682412
   0.25021983  0.75011015  0.59266238
Direct configuration=     3
   0.07946519  0.08849929  0.40105804
   0.16535334  0.91508821  0.50295529
   0.66168394  0.92022296  0.50000017
   0.58143929  0.08485947  0.39942514
   0.41257404  0.16830653  0.50142519
   0.58259242  0.33843846  0.40144929
   0.41888352  0.42387916  0.49872019
   0.33725942  0.82505147  0.39990404
   0.50215425  0.24904139  0.60019206
   0.49609647  0.74872594  0.59996022
   0.83497269  0.08585185  0.40098668
   0.74917678  0.00533704  0.60028616
   0.83141744  0.57825028  0.39998781
   0.66576435  0.65692001  0.49870896
   0.83374029  0.83305054  0.39845770
   0.41386037  0.91785819  0.50169955
   0.24906369  0.50222118  0.60021625
   0.75010141  0.74642774  0.60174882
   0.92224070  0.65872935  0.50132198
   0.16291705  0.41235737  0.50007359
   0.33113389  0.08726474  0.39952523
   0.00498611  0.74889793  0.60036058
   0.09029034  0.58181203  0.39986976
   0.92226532  0.92040765  0.50025176
  -0.00065704  0.25048863  0.59397960
   0.67065393  0.17072329  0.50116890
   0.91728485  0.41002856  0.50109220
   0.83401741  0.33482005  0.40592357
   0.33277338  0.58476384  0.40472587
   0.08213225  0.33228923  0.40465754
   0.00100057  0.00436319  0.59588708
   0.75267825  0.49475487  0.59514814
   0.91362514  0.17383643  0.50203481
   0.67002979  0.41533191  0.50089632
   0.75174519  0.25237047  0.59431661
   0.50335361  0.49993052  0.59547191
   0.24738277  0.24736347  0.59617626
   0.41709003  0.66115288  0.49997594
   0.58294403  0.58233601  0.40483196
  -0.00063615  0.49487206  0.59633117
   0.08579446  0.83011137  0.40343166
   0.49575998  0.00257955  0.59737940
   0.15965230  0.17156220  0.50212005
   0.24703919  0.00358661  0.59579288
   0.33162243  0.33480774  0.40274437
   0.17105409  0.66849302  0.49930580
   0.58338109  0.83151133  0.40261880
   0.25084615  0.75042397  0.59540472
Direct configuration=     4
   0.08162107  0.08611709  0.39990158
   0.16782756  0.91669967  0.50201555
   0.66505999  0.91810363  0.50006438
   0.58168202  0.08545702  0.39795556
   0.41329895  0.17016235  0.50118221
   0.58276316  0.33764899  0.39985140
   0.41854823  0.41962082  0.49914806
   0.33616563  0.82745518  0.39852183
   0.50031999  0.25100651  0.60172085
   0.49679402  0.74901012  0.60162119
   0.83428555  0.08566728  0.39959647
   0.75062506  0.00324354  0.60176851
   0.83268987  0.57919860  0.39833602
   0.66646039  0.65970117  0.49908762
   0.83412719  0.83205181  0.39715183
   0.41308970  0.91647782  0.50119783
   0.25032957  0.50025260  0.60161059
   0.74977311  0.74692396  0.60333284
   0.91984745  0.66184167  0.50114131
   0.16518241  0.41383685  0.50007329
   0.33107397  0.08583731  0.39799905
   0.00314958  0.75018675  0.60192747
   0.08862792  0.58174678  0.39831838
   0.91872870  0.91950900  0.50013776
  -0.00063642  0.25036142  0.59564356
   0.66950727  0.17019357  0.50085388
   0.91601325  0.41231559  0.50067111
   0.83338922  0.33475711  0.40527401
   0.33328198  0.58403279  0.40332927
   0.08194886  0.33351432  0.40371398
   0.00048526  0.00486952  0.59743556
   0.75215945  0.49584180  0.59635452
   0.91456495  0.17211021  0.50135486
   0.66958924  0.41415682  0.50062487
   0.75141187  0.25254581  0.59560606
   0.50359544  0.49900241  0.59657499
   0.24765157  0.24825179  0.59762365
   0.41732426  0.66473232  0.50010135
   0.58303264  0.58197076  0.40360692
  -0.00038197  0.49478620  0.59765467
   0.08533499  0.83171994  0.40244765
   0.49639761  0.00175629  0.59870909
   0.16059120  0.16821836  0.50134624
   0.24710111  0.00344160  0.59717421
   0.33233193  0.33453040  0.40203741
   0.16913891  0.66682174  0.49959438
   0.58304962  0.83198592  0.40193928
   0.25104667  0.75032680  0.59666690
Direct configuration=     5
   0.08255328  0.08508702  0.39940153
   0.16889743  0.91739647  0.50160920
   0.66651981  0.91718722  0.50009214
   0.58178698  0.08571540  0.39732011
   0.41361240  0.17096481  0.50107714
   0.58283698  0.33730762  0.39916047
   0.41840324  0.41777949  0.49933307
   0.33569267  0.82849455  0.39792416
   0.49952685  0.25185624  0.60238191
   0.49709565  0.74913299  0.60233941
   0.83398842  0.08558747  0.39899534
   0.75125131  0.00233830  0.60240948
   0.83324008  0.57960866  0.39762178
   0.66676136  0.66090376  0.49925135
   0.83429448  0.83161995  0.39658716
   0.41275646  0.91588094  0.50098089
   0.25087694  0.49940137  0.60221350
   0.74963115  0.74713853  0.60401777
   0.91881260  0.66318745  0.50106319
   0.16616196  0.41447658  0.50007316
   0.33104806  0.08522009  0.39733913
   0.00235546  0.75074404  0.60260500
   0.08790908  0.58171856  0.39764755
   0.91719944  0.91912041  0.50008847
  -0.00062750  0.25030641  0.59636307
   0.66901144  0.16996451  0.50071767
   0.91546341  0.41330451  0.50048904
   0.83311758  0.33472989  0.40499314
   0.33350190  0.58371669  0.40272537
   0.08186956  0.33404405  0.40330598
   0.00026244  0.00508847  0.59810513
   0.75193513  0.49631179  0.59687617
   0.91497134  0.17136379  0.50106085
   0.66939875  0.41364870  0.50050749
   0.75126774  0.25262162  0.59616362
   0.50370001  0.49860110  0.59705196
   0.24776780  0.24863590  0.59824950
   0.41742554  0.66628008  0.50015559
   0.58307095  0.58181283  0.40307721
  -0.00027206  0.49474908  0.59822696
   0.08513632  0.83241550  0.40202216
   0.49667332  0.00140032  0.59928405
   0.16099718  0.16677247  0.50101164
   0.24712789  0.00337890  0.59777150
   0.33263872  0.33441048  0.40173171
   0.16831078  0.66609907  0.49971917
   0.58290629  0.83219114  0.40164545
   0.25113337  0.75028478  0.59721267
Direct configuration=     6
   0.08285965  0.08438816  0.39889451
   0.16653371  0.91661389  0.50108715
   0.66604452  0.91733074  0.50019289
   0.58197064  0.08518020  0.39690211
   0.41533070  0.16805564  0.50097139
   0.58273606  0.33675936  0.39847757
   0.41828776  0.41844892  0.49956412
   0.33538785  0.82927916  0.39731648
   0.49996936  0.25106246  0.60302310
   0.49772111  0.74931222  0.60302225
   0.83391822  0.08490962  0.39851242
   0.75080082  0.00207316  0.60291354
   0.83336080  0.58059052  0.39698245
   0.66724247  0.66246422  0.49948943
   0.83427030  0.83158949  0.39613474
   0.41529889  0.91676332  0.50074916
   0.25028810  0.49979926  0.60273816
   0.74957000  0.74757946  0.60468469
   0.91804685  0.66408372  0.50102616
   0.16516351  0.41565971  0.50022892
   0.33177575  0.08475481  0.39684683
   0.00209617  0.75056004  0.60313519
   0.08692862  0.58214298  0.39710106
   0.91748067  0.91839506  0.50007813
  -0.00054140  0.25041299  0.59694622
   0.66850363  0.16870180  0.50058263
   0.91590327  0.41470333  0.50031553
   0.83338007  0.33443474  0.40473859
   0.33349269  0.58365560  0.40252416
   0.08226697  0.33404203  0.40315755
   0.00029172  0.00459978  0.59844971
   0.75134622  0.49742681  0.59728430
   0.91560293  0.16926677  0.50064030
   0.66793349  0.41445347  0.50028819
   0.75097672  0.25205659  0.59664942
   0.50332693  0.49867661  0.59732919
   0.24806140  0.24881907  0.59858815
   0.41737716  0.66560145  0.50018825
   0.58325337  0.58223858  0.40276165
  -0.00007468  0.49554904  0.59853325
   0.08466878  0.83292493  0.40199240
   0.49739289  0.00114638  0.59939165
   0.16212220  0.16735487  0.50047690
   0.24757878  0.00301616  0.59839360
   0.33289702  0.33393258  0.40156251
   0.16754930  0.66628237  0.49997437
   0.58290625  0.83267916  0.40171076
   0.25070175  0.75022877  0.59744826
Direct configuration=     7
   0.08291108  0.08427085  0.39880940
   0.16613694  0.91648253  0.50099952
   0.66596473  0.91735483  0.50020981
   0.58200147  0.08509036  0.39683194
   0.41561913  0.16756731  0.50095364
   0.58271911  0.33666733  0.39836294
   0.41826838  0.41856128  0.49960291
   0.33533669  0.82941086  0.39721447
   0.50004364  0.25092921  0.60313073
   0.49782610  0.74934231  0.60313687
   0.83390644  0.08479583  0.39843136
   0.75072520  0.00202866  0.60299815
   0.83338107  0.58075533  0.39687513
   0.66732323  0.66272617  0.49952939
   0.83426624  0.83158437  0.39605880
   0.41572567  0.91691143  0.50071026
   0.25018925  0.49986605  0.60282622
   0.74955973  0.74765347  0.60479664
   0.91791832  0.66423416  0.50101995
   0.16499590  0.41585831  0.50025506
   0.33189790  0.08467671  0.39676420
   0.00205264  0.75052916  0.60322419
   0.08676404  0.58221422  0.39700933
   0.91752788  0.91827331  0.50007640
  -0.00052695  0.25043088  0.59704411
   0.66841839  0.16848984  0.50055996
   0.91597711  0.41493814  0.50028641
   0.83342414  0.33438520  0.40469586
   0.33349114  0.58364534  0.40249038
   0.08233368  0.33404169  0.40313263
   0.00029663  0.00451775  0.59850755
   0.75124736  0.49761398  0.59735281
   0.91570895  0.16891476  0.50056971
   0.66768753  0.41458856  0.50025137
   0.75092787  0.25196175  0.59673096
   0.50326430  0.49868929  0.59737573
   0.24811068  0.24884981  0.59864499
   0.41736904  0.66548753  0.50019373
   0.58328399  0.58231005  0.40270868
  -0.00004155  0.49568333  0.59858467
   0.08459030  0.83301045  0.40198740
   0.49751367  0.00110375  0.59940972
   0.16231105  0.16745263  0.50038714
   0.24765447  0.00295527  0.59849803
   0.33294038  0.33385236  0.40153411
   0.16742148  0.66631314  0.50001720
   0.58290624  0.83276108  0.40172172
   0.25062929  0.75021936  0.59748780
Direct configuration=     8
   0.08263773  0.08459990  0.39853737
   0.16648793  0.91589207  0.50093447
   0.66642163  0.91753299  0.50030682
   0.58220526  0.08459459  0.39662292
   0.41549485  0.16753264  0.50092612
   0.58264996  0.33661713  0.39808766
   0.41791786  0.41892994  0.49970294
   0.33555316  0.82914729  0.39701521
   0.50032690  0.25035167  0.60340421
   0.49768383  0.74951715  0.60338344
   0.83388490  0.08452756  0.39822490
   0.75040642  0.00209932  0.60320880
   0.83302661  0.58094868  0.39656906
   0.66725604  0.66250335  0.49965319
   0.83409543  0.83195776  0.39579684
   0.41527367  0.91692134  0.50074660
   0.24987241  0.50022226  0.60309696
   0.74978387  0.74782261  0.60525063
   0.91781502  0.66464514  0.50103472
   0.16517023  0.41563565  0.50038223
   0.33217120  0.08480868  0.39648103
   0.00198582  0.75034962  0.60348558
   0.08691573  0.58238282  0.39681328
   0.91736897  0.91789752  0.50017017
  -0.00059280  0.25058395  0.59693766
   0.66832804  0.16804924  0.50052404
   0.91596366  0.41483912  0.50030517
   0.83377258  0.33431941  0.40471187
   0.33322974  0.58385963  0.40265641
   0.08266249  0.33367589  0.40316599
   0.00043707  0.00416894  0.59848966
   0.75113593  0.49779451  0.59733234
   0.91553941  0.16900206  0.50046533
   0.66776728  0.41499530  0.50016754
   0.75094557  0.25168405  0.59668534
   0.50287518  0.49895801  0.59743866
   0.24827943  0.24870273  0.59854813
   0.41711697  0.66562351  0.50018976
   0.58344856  0.58268274  0.40276717
  -0.00012252  0.49622161  0.59861508
   0.08457648  0.83260369  0.40206023
   0.49769623  0.00114881  0.59940332
   0.16274827  0.16778121  0.50024326
   0.24793844  0.00262015  0.59838573
   0.33280674  0.33378725  0.40171046
   0.16746459  0.66627467  0.50016019
   0.58305731  0.83280655  0.40181180
   0.25051991  0.75037929  0.59738970
Direct configuration=     9
   0.08242688  0.08485371  0.39832753
   0.16675868  0.91543661  0.50088429
   0.66677407  0.91767041  0.50038165
   0.58236247  0.08421217  0.39646169
   0.41539898  0.16750590  0.50090490
   0.58259661  0.33657842  0.39787532
   0.41764747  0.41921432  0.49978011
   0.33572014  0.82894397  0.39686149
   0.50054541  0.24990617  0.60361516
   0.49757409  0.74965201  0.60357364
   0.83386828  0.08432062  0.39806565
   0.75016052  0.00215383  0.60337128
   0.83275319  0.58109782  0.39633296
   0.66720421  0.66233148  0.49974869
   0.83396367  0.83224578  0.39559477
   0.41492501  0.91692899  0.50077462
   0.24962800  0.50049703  0.60330580
   0.74995676  0.74795309  0.60560083
   0.91773534  0.66496216  0.50104611
   0.16530471  0.41546390  0.50048033
   0.33238202  0.08491047  0.39626261
   0.00193428  0.75021113  0.60368721
   0.08703274  0.58251288  0.39666206
   0.91724640  0.91760764  0.50024251
  -0.00064360  0.25070203  0.59685554
   0.66825835  0.16770937  0.50049633
   0.91595329  0.41476274  0.50031964
   0.83404137  0.33426867  0.40472423
   0.33302810  0.58402493  0.40278448
   0.08291613  0.33339373  0.40319173
   0.00054541  0.00389987  0.59847587
   0.75104997  0.49793376  0.59731655
   0.91540863  0.16906940  0.50038481
   0.66782879  0.41530905  0.50010286
   0.75095922  0.25146984  0.59665014
   0.50257503  0.49916529  0.59748720
   0.24840960  0.24858927  0.59847341
   0.41692252  0.66572841  0.50018670
   0.58357550  0.58297023  0.40281229
  -0.00018498  0.49663683  0.59863854
   0.08456582  0.83228992  0.40211641
   0.49783705  0.00118357  0.59939838
   0.16308554  0.16803467  0.50013227
   0.24815748  0.00236164  0.59829910
   0.33270365  0.33373702  0.40184649
   0.16749784  0.66624499  0.50027048
   0.58317384  0.83284162  0.40188129
   0.25043553  0.75050265  0.59731403
Direct configuration=    10
   0.08248197  0.08478834  0.39804213
   0.16673080  0.91573390  0.50075665
   0.66662210  0.91754961  0.50050621
   0.58240764  0.08410022  0.39618913
   0.41546553  0.16767492  0.50085788
   0.58253190  0.33675910  0.39766435
   0.41786680  0.41901766  0.49995425
   0.33575219  0.82896633  0.39663056
   0.50035697  0.25002830  0.60390311
   0.49759896  0.74972837  0.60384673
   0.83390216  0.08434143  0.39785898
   0.75033504  0.00198233  0.60367142
   0.83285404  0.58110164  0.39601157
   0.66706131  0.66249051  0.49995559
   0.83397855  0.83224400  0.39518307
   0.41463857  0.91671428  0.50080490
   0.24978273  0.50039179  0.60367662
   0.74991267  0.74802186  0.60621541
   0.91781530  0.66467776  0.50100270
   0.16512882  0.41572258  0.50063294
   0.33254427  0.08474142  0.39588247
   0.00174085  0.75036938  0.60406350
   0.08697236  0.58242175  0.39650404
   0.91749235  0.91765547  0.50039475
  -0.00064941  0.25077580  0.59653957
   0.66800725  0.16809109  0.50042091
   0.91603291  0.41467395  0.50034827
   0.83418555  0.33428572  0.40475940
   0.33306731  0.58402921  0.40307292
   0.08301864  0.33345669  0.40325367
   0.00065513  0.00366360  0.59832982
   0.75093537  0.49804252  0.59724905
   0.91542092  0.16904046  0.50028527
   0.66782880  0.41516610  0.50001380
   0.75095165  0.25138624  0.59641071
   0.50225775  0.49923551  0.59751548
   0.24847210  0.24851149  0.59832614
   0.41692175  0.66583025  0.50019588
   0.58372841  0.58301924  0.40295668
  -0.00032117  0.49692414  0.59862621
   0.08460426  0.83208423  0.40225140
   0.49788693  0.00104395  0.59935079
   0.16309523  0.16784862  0.49995895
   0.24816794  0.00230844  0.59801900
   0.33273516  0.33380184  0.40213205
   0.16742280  0.66602939  0.50048804
   0.58327780  0.83285586  0.40209111
   0.25032305  0.75067270  0.59719596
Direct configuration=    11
   0.08256401  0.08469097  0.39761708
   0.16668927  0.91617665  0.50056656
   0.66639579  0.91736971  0.50069171
   0.58247491  0.08393349  0.39578321
   0.41556464  0.16792663  0.50078785
   0.58243553  0.33702818  0.39735016
   0.41819345  0.41872479  0.50021359
   0.33579991  0.82899962  0.39628663
   0.50007634  0.25021019  0.60433195
   0.49763600  0.74984210  0.60425343
   0.83395260  0.08437242  0.39755119
   0.75059495  0.00172692  0.60411841
   0.83300422  0.58110734  0.39553292
   0.66684850  0.66272734  0.50026372
   0.83400070  0.83224136  0.39456993
   0.41421198  0.91639452  0.50084999
   0.25001317  0.50023505  0.60422886
   0.74984702  0.74812428  0.60713068
   0.91793439  0.66425421  0.50093804
   0.16486689  0.41610783  0.50086021
   0.33278589  0.08448965  0.39531635
   0.00145276  0.75060505  0.60462389
   0.08688243  0.58228603  0.39626871
   0.91785864  0.91772669  0.50062146
  -0.00065807  0.25088568  0.59606901
   0.66763329  0.16865958  0.50030858
   0.91615149  0.41454172  0.50039090
   0.83440029  0.33431112  0.40481178
   0.33312571  0.58403558  0.40350248
   0.08317131  0.33355047  0.40334593
   0.00081853  0.00331173  0.59811231
   0.75076469  0.49820449  0.59714851
   0.91543921  0.16899736  0.50013703
   0.66782880  0.41495322  0.49988117
   0.75094037  0.25126173  0.59605414
   0.50178525  0.49934008  0.59755760
   0.24856517  0.24839566  0.59810682
   0.41692062  0.66598191  0.50020955
   0.58395613  0.58309222  0.40317171
  -0.00052399  0.49735203  0.59860785
   0.08466151  0.83177791  0.40245243
   0.49796120  0.00083602  0.59927991
   0.16310967  0.16757154  0.49970082
   0.24818352  0.00222920  0.59760184
   0.33278210  0.33389836  0.40255732
   0.16731104  0.66570830  0.50081205
   0.58343263  0.83287707  0.40240360
   0.25015553  0.75092597  0.59702012
Direct configuration=    12
   0.08286006  0.08435302  0.39736168
   0.16620976  0.91636167  0.50024380
   0.66646926  0.91726357  0.50082789
   0.58246181  0.08436776  0.39560786
   0.41569492  0.16743882  0.50072769
   0.58258616  0.33710940  0.39728258
   0.41830815  0.41875159  0.50046083
   0.33575809  0.82905619  0.39606791
   0.50017446  0.25014965  0.60453548
   0.49777049  0.74959686  0.60449810
   0.83391489  0.08451224  0.39746104
   0.75045385  0.00197463  0.60434635
   0.83328059  0.58101335  0.39537084
   0.66724939  0.66269183  0.50046750
   0.83419010  0.83206120  0.39419502
   0.41476409  0.91668625  0.50072494
   0.24983984  0.50026728  0.60460563
   0.74967411  0.74799227  0.60772756
   0.91729818  0.66467419  0.50085626
   0.16501840  0.41598069  0.50098833
   0.33265520  0.08441923  0.39502044
   0.00169049  0.75044377  0.60497123
   0.08681539  0.58214075  0.39623609
   0.91725340  0.91787161  0.50065952
  -0.00064141  0.25083026  0.59576605
   0.66807280  0.16829396  0.50017345
   0.91588418  0.41480302  0.50027989
   0.83428997  0.33439415  0.40478602
   0.33328103  0.58395064  0.40383993
   0.08320013  0.33364120  0.40341024
   0.00073189  0.00365327  0.59798237
   0.75061518  0.49817699  0.59710660
   0.91545408  0.16892391  0.49989055
   0.66776081  0.41490814  0.49981063
   0.75080044  0.25137096  0.59573744
   0.50201224  0.49932542  0.59755922
   0.24836047  0.24849546  0.59798995
   0.41697249  0.66567605  0.50029699
   0.58404639  0.58291224  0.40335814
  -0.00056361  0.49725287  0.59864333
   0.08458685  0.83198534  0.40265120
   0.49795819  0.00083904  0.59921089
   0.16304718  0.16753043  0.49935376
   0.24787155  0.00260767  0.59739855
   0.33299437  0.33386921  0.40279335
   0.16715086  0.66585146  0.50110081
   0.58354897  0.83273318  0.40266273
   0.25017388  0.75079730  0.59695338
Direct configuration=    13
   0.08297202  0.08422521  0.39726509
   0.16602842  0.91643164  0.50012174
   0.66649705  0.91722343  0.50087939
   0.58245685  0.08453199  0.39554155
   0.41574418  0.16725434  0.50070494
   0.58264312  0.33714011  0.39725702
   0.41835153  0.41876173  0.50055433
   0.33574228  0.82907758  0.39598520
   0.50021157  0.25012676  0.60461246
   0.49782135  0.74950411  0.60459064
   0.83390063  0.08456512  0.39742695
   0.75040049  0.00206831  0.60443255
   0.83338511  0.58097781  0.39530954
   0.66740099  0.66267839  0.50054457
   0.83426172  0.83199307  0.39405323
   0.41497288  0.91679658  0.50067764
   0.24977429  0.50027946  0.60474812
   0.74960872  0.74794234  0.60795328
   0.91705757  0.66483302  0.50082532
   0.16507570  0.41593261  0.50103679
   0.33260577  0.08439260  0.39490853
   0.00178040  0.75038278  0.60510259
   0.08679003  0.58208581  0.39622375
   0.91702451  0.91792641  0.50067391
  -0.00063511  0.25080929  0.59565147
   0.66823902  0.16815569  0.50012234
   0.91578309  0.41490184  0.50023791
   0.83424824  0.33442555  0.40477628
   0.33333976  0.58391852  0.40396754
   0.08321102  0.33367551  0.40343456
   0.00069912  0.00378244  0.59793322
   0.75055864  0.49816660  0.59709074
   0.91545971  0.16889614  0.49979734
   0.66773510  0.41489110  0.49978395
   0.75074752  0.25141227  0.59561767
   0.50209808  0.49931988  0.59755984
   0.24828305  0.24853320  0.59794575
   0.41699211  0.66556038  0.50033005
   0.58408052  0.58284418  0.40342864
  -0.00057859  0.49721538  0.59865675
   0.08455861  0.83206379  0.40272637
   0.49795704  0.00084018  0.59918479
   0.16302355  0.16751488  0.49922251
   0.24775356  0.00275079  0.59732167
   0.33307465  0.33385818  0.40288261
   0.16709028  0.66590560  0.50121001
   0.58359297  0.83267877  0.40276073
   0.25018082  0.75074864  0.59692814
Direct configuration=    14
   0.08298309  0.08424960  0.39697825
   0.16630472  0.91615070  0.49987857
   0.66684526  0.91735868  0.50098647
   0.58248677  0.08466344  0.39548106
   0.41592815  0.16720540  0.50064355
   0.58275535  0.33717597  0.39731115
   0.41834140  0.41834707  0.50085930
   0.33600748  0.82874379  0.39583770
   0.50018367  0.25016077  0.60467261
   0.49749782  0.74956001  0.60471696
   0.83399020  0.08451874  0.39737935
   0.75043545  0.00205975  0.60457695
   0.83337064  0.58090300  0.39527447
   0.66731149  0.66261992  0.50073495
   0.83422378  0.83215445  0.39379345
   0.41507327  0.91656003  0.50053162
   0.24972689  0.50014459  0.60506727
   0.74966558  0.74784255  0.60847937
   0.91705856  0.66511100  0.50082820
   0.16503639  0.41604338  0.50113031
   0.33267446  0.08449419  0.39469070
   0.00170746  0.75041430  0.60535386
   0.08708670  0.58207391  0.39635610
   0.91644622  0.91774492  0.50069200
  -0.00077669  0.25086891  0.59535823
   0.66836396  0.16779655  0.49994179
   0.91566250  0.41516367  0.50004173
   0.83436435  0.33438257  0.40466115
   0.33325608  0.58393806  0.40426130
   0.08326875  0.33353931  0.40345376
   0.00049253  0.00414130  0.59779885
   0.75066981  0.49794859  0.59711760
   0.91550537  0.16888515  0.49946730
   0.66773491  0.41497866  0.49971903
   0.75061229  0.25154631  0.59534313
   0.50236678  0.49920402  0.59762735
   0.24814766  0.24865741  0.59786753
   0.41698902  0.66603991  0.50047465
   0.58414061  0.58285698  0.40362803
  -0.00076739  0.49710846  0.59867032
   0.08445109  0.83208599  0.40287107
   0.49787872  0.00087009  0.59919082
   0.16297382  0.16746289  0.49882120
   0.24763931  0.00284923  0.59707982
   0.33322804  0.33384143  0.40304899
   0.16661460  0.66616713  0.50144608
   0.58377004  0.83260360  0.40296206
   0.25027303  0.75076361  0.59689397
Direct configuration=    15
   0.08298447  0.08425263  0.39694261
   0.16633906  0.91611579  0.49984836
   0.66688852  0.91737549  0.50099978
   0.58249049  0.08467978  0.39547355
   0.41595101  0.16719931  0.50063592
   0.58276930  0.33718042  0.39731788
   0.41834014  0.41829555  0.50089719
   0.33604044  0.82870231  0.39581937
   0.50018020  0.25016500  0.60468009
   0.49745763  0.74956696  0.60473266
   0.83400133  0.08451298  0.39737343
   0.75043980  0.00205868  0.60459489
   0.83336884  0.58089371  0.39527012
   0.66730037  0.66261265  0.50075860
   0.83421906  0.83217451  0.39376117
   0.41508575  0.91653064  0.50051348
   0.24972099  0.50012783  0.60510692
   0.74967265  0.74783015  0.60854474
   0.91705868  0.66514554  0.50082856
   0.16503150  0.41605714  0.50114193
   0.33268300  0.08450682  0.39466364
   0.00169840  0.75041821  0.60538508
   0.08712356  0.58207243  0.39637255
   0.91637437  0.91772237  0.50069424
  -0.00079428  0.25087631  0.59532179
   0.66837949  0.16775193  0.49991936
   0.91564752  0.41519620  0.50001736
   0.83437877  0.33437723  0.40464684
   0.33324568  0.58394049  0.40429780
   0.08327592  0.33352238  0.40345615
   0.00046686  0.00418589  0.59778215
   0.75068363  0.49792150  0.59712094
   0.91551105  0.16888379  0.49942629
   0.66773488  0.41498954  0.49971096
   0.75059548  0.25156296  0.59530902
   0.50240017  0.49918962  0.59763574
   0.24813083  0.24867284  0.59785781
   0.41698863  0.66609949  0.50049262
   0.58414808  0.58285857  0.40365280
  -0.00079085  0.49709518  0.59867201
   0.08443773  0.83208875  0.40288905
   0.49786899  0.00087380  0.59919157
   0.16296765  0.16745643  0.49877133
   0.24762511  0.00286146  0.59704977
   0.33324710  0.33383935  0.40306966
   0.16655550  0.66619963  0.50147541
   0.58379204  0.83259426  0.40298707
   0.25028449  0.75076547  0.59688973
Direct configuration=    16
   0.08300466  0.08426528  0.39664011
   0.16635439  0.91595762  0.49976026
   0.66665873  0.91735241  0.50110418
   0.58256809  0.08444777  0.39547875
   0.41592068  0.16718587  0.50063439
   0.58271889  0.33730495  0.39746006
   0.41820846  0.41839540  0.50116246
   0.33628215  0.82847804  0.39572260
   0.50014085  0.25012506  0.60464959
   0.49723108  0.74984330  0.60476952
   0.83416151  0.08436625  0.39731521
   0.75050721  0.00194084  0.60466937
   0.83331900  0.58098446  0.39533661
   0.66720768  0.66280749  0.50096214
   0.83408101  0.83231163  0.39361411
   0.41499071  0.91646639  0.50042190
   0.24970025  0.50011814  0.60532294
   0.74968579  0.74782114  0.60886134
   0.91725981  0.66489148  0.50091105
   0.16478446  0.41622159  0.50119771
   0.33294624  0.08449034  0.39452661
   0.00153904  0.75055032  0.60552110
   0.08728461  0.58217222  0.39660780
   0.91680588  0.91766338  0.50073242
  -0.00086416  0.25093351  0.59506471
   0.66819159  0.16791276  0.49978831
   0.91571049  0.41540805  0.49986104
   0.83457493  0.33429521  0.40443526
   0.33322398  0.58390173  0.40458243
   0.08336849  0.33345640  0.40338264
   0.00033961  0.00423650  0.59759762
   0.75083643  0.49785192  0.59719282
   0.91564667  0.16861691  0.49913630
   0.66761187  0.41501378  0.49965964
   0.75052206  0.25151823  0.59510231
   0.50243423  0.49910371  0.59773610
   0.24811163  0.24865581  0.59778509
   0.41688569  0.66620605  0.50065494
   0.58418295  0.58295596  0.40379248
  -0.00102329  0.49713927  0.59864682
   0.08441965  0.83198331  0.40294550
   0.49780114  0.00083357  0.59921093
   0.16307944  0.16735891  0.49850045
   0.24764594  0.00276947  0.59680304
   0.33329164  0.33384588  0.40313567
   0.16654404  0.66623985  0.50164316
   0.58395134  0.83271244  0.40306629
   0.25015248  0.75088939  0.59689421
Direct configuration=    17
   0.08301338  0.08427074  0.39650946
   0.16636102  0.91588930  0.49972221
   0.66655948  0.91734244  0.50114927
   0.58260161  0.08434755  0.39548100