 vasp.5.4.1 24Jun15 (build Mar 14 2019 10:18:33) complex                        
  
 executed on INTEL-19.0.2+OPENMPI date 2022.07.11  21:03:48
 running on   36 total cores
 distrk:  each k-point on   36 cores,    1 groups
 distr:  one band on NCORES_PER_BAND=   6 cores,    6 groups


--------------------------------------------------------------------------------------------------------


 INCAR:
 POTCAR:    PAW_PBE Au 04Oct2007                  
 POTCAR:    PAW_PBE Pd 04Jan2005                  
 POTCAR:    PAW_PBE Au 04Oct2007                  
  local pseudopotential read in
  partial core-charges read in
  partial kinetic energy density read in
  atomic valenz-charges read in
  non local Contribution for L=           2  read in
    real space projection operators read in
  non local Contribution for L=           2  read in
    real space projection operators read in
  non local Contribution for L=           0  read in
    real space projection operators read in
  non local Contribution for L=           0  read in
    real space projection operators read in
  non local Contribution for L=           1  read in
    real space projection operators read in
  non local Contribution for L=           1  read in
    real space projection operators read in
    PAW grid and wavefunctions read in
 
   number of l-projection  operators is LMAX  =           6
   number of lm-projection operators is LMMAX =          18
 
 POTCAR:    PAW_PBE Pd 04Jan2005                  
  local pseudopotential read in
  partial core-charges read in
  partial kinetic energy density read in
  atomic valenz-charges read in
  non local Contribution for L=           2  read in
    real space projection operators read in
  non local Contribution for L=           2  read in
    real space projection operators read in
  non local Contribution for L=           0  read in
    real space projection operators read in
  non local Contribution for L=           0  read in
    real space projection operators read in
  non local Contribution for L=           1  read in
    real space projection operators read in
  non local Contribution for L=           1  read in
    real space projection operators read in
    PAW grid and wavefunctions read in
 
   number of l-projection  operators is LMAX  =           6
   number of lm-projection operators is LMMAX =          18
 
 Optimization of the real space projectors (new method)

 maximal supplied QI-value         = 15.12
 optimisation between [QCUT,QGAM] = [ 10.13, 20.41] = [ 28.73,116.64] Ry 
 Optimized for a Real-space Cutoff    1.51 Angstroem

   l    n(q)    QCUT    max X(q) W(low)/X(q) W(high)/X(q)  e(spline) 
   2      8    10.129    60.898    0.46E-03    0.46E-03    0.14E-06
   2      8    10.129    58.894    0.47E-03    0.47E-03    0.14E-06
   0      9    10.129   109.617    0.16E-03    0.11E-03    0.54E-07
   0      9    10.129    75.026    0.15E-03    0.11E-03    0.52E-07
   1      9    10.129    16.344    0.96E-04    0.15E-03    0.14E-06
   1      9    10.129    10.160    0.81E-04    0.12E-03    0.11E-06
 Optimization of the real space projectors (new method)

 maximal supplied QI-value         = 14.36
 optimisation between [QCUT,QGAM] = [ 10.20, 20.39] = [ 29.12,116.47] Ry 
 Optimized for a Real-space Cutoff    1.51 Angstroem

   l    n(q)    QCUT    max X(q) W(low)/X(q) W(high)/X(q)  e(spline) 
   2      8    10.197    59.108    0.26E-03    0.14E-03    0.96E-07
   2      8    10.197    58.101    0.27E-03    0.14E-03    0.98E-07
   0      9    10.197   102.235    0.54E-04    0.60E-05    0.72E-07
   0      9    10.197    58.388    0.52E-04    0.60E-05    0.68E-07
   1      9    10.197    22.191    0.18E-03    0.25E-03    0.79E-07
   1      9    10.197    15.590    0.15E-03    0.21E-03    0.69E-07
  PAW_PBE Au 04Oct2007                  :
 energy of atom  1       EATOM= -926.0867
 kinetic energy error for atom=    0.0062 (will be added to EATOM!!)
  PAW_PBE Pd 04Jan2005                  :
 energy of atom  2       EATOM= -809.7530
 kinetic energy error for atom=    0.0091 (will be added to EATOM!!)
 
 
 POSCAR: Au Pd                                   
  positions in cartesian coordinates
  No initial velocities read in
 exchange correlation table for  LEXCH =        8
   RHO(1)=    0.500       N(1)  =     2000
   RHO(2)=  100.500       N(2)  =     4000

 VTST: version 3.2, (02/03/18)

 CHAIN: initializing optimizer
 
 OPT: Using VASP Conjugate-Gradient optimizer
 CHAIN: Read ICHAIN            0
 
 POSCAR: Au Pd                                   
  positions in cartesian coordinates
  No initial velocities read in
 


--------------------------------------------------------------------------------------------------------


 ion  position               nearest neighbor table
   1  0.083  0.083  0.408-  46 2.75  28 2.75  42 2.75  43 2.75  20 2.75  31 2.75  24 2.75  11 2.75
                            21 2.75
   2  0.750  0.250  0.592-  27 2.75  21 2.75  26 2.75  18 2.75  29 2.75  47 2.75  38 2.75  37 2.75
                            30 2.75
   3  0.500  0.750  0.592-   4 2.75  25 2.75  26 2.75  36 2.75  40 2.75  47 2.75  16 2.75  48 2.75
                            35 2.75
   4  0.417  0.917  0.500-  43 2.75   3 2.75  36 2.75  25 2.75  41 2.75  35 2.75  46 2.75  10 2.75
                            11 2.75  24 2.75  40 2.75   5 2.75
   5  0.583  0.833  0.408-  10 2.75   9 2.75   6 2.75  24 2.75  33 2.75  32 2.75  43 2.75  25 2.75
                             4 2.75
   6  0.583  0.583  0.408-  25 2.75   8 2.75   5 2.75  28 2.75  43 2.75  33 2.75  13 2.75  27 2.75
                            35 2.75
   7  0.417  0.417  0.500-  15 2.75  38 2.75  12 2.75  35 2.75  30 2.75  41 2.75  45 2.75  27 2.75
                            34 2.75  13 2.75   8 2.75  47 2.75
   8  0.583  0.333  0.408-  27 2.75   9 2.75  13 2.75   6 2.75  31 2.75  28 2.75  15 2.75  30 2.75
                             7 2.75
   9  0.583  0.083  0.408-  30 2.75   8 2.75  15 2.75   5 2.75  32 2.75  31 2.75  24 2.75  10 2.75
                            41 2.75
  10  0.667  0.917  0.500-   5 2.75  16 2.75  40 2.75  30 2.75  39 2.75  25 2.75  41 2.75  22 2.75
                             4 2.75   9 2.75  32 2.75  29 2.75
  11  0.167  0.917  0.500-  42 2.75  48 2.75  18 2.75  21 2.75  45 2.75  46 2.75  35 2.75  22 2.75
                             4 2.75   1 2.75  43 2.75  36 2.75
  12  0.250  0.500  0.592-  45 2.75   7 2.75  38 2.75  44 2.75  14 2.75  48 2.75  47 2.75  17 2.75
                            34 2.75
  13  0.333  0.583  0.408-  35 2.75  15 2.75   8 2.75  42 2.75  43 2.75  19 2.75   6 2.75   7 2.75
                            45 2.75
  14  0.250  0.250  0.592-  34 2.75  41 2.75  12 2.75  36 2.75  40 2.75  17 2.75  37 2.75  38 2.75
                            46 2.75
  15  0.333  0.333  0.408-   7 2.75   9 2.75  13 2.75  19 2.75  24 2.75  20 2.75   8 2.75  41 2.75
                            34 2.75
  16  0.750  0.750  0.592-  10 2.75  39 2.75  26 2.75  29 2.75  17 2.75  40 2.75   3 2.75  44 2.75
                            25 2.75
  17  0.000  0.500  0.592-  39 2.75  34 2.75  14 2.75  37 2.75  16 2.75  44 2.75  12 2.75  26 2.75
                            23 2.75
  18  0.000  0.000  0.592-  21 2.75  11 2.75   2 2.75  37 2.75  44 2.75  48 2.75  36 2.75  29 2.75
                            22 2.75
  19  0.083  0.583  0.408-  45 2.75  20 2.75  32 2.75  42 2.75  15 2.75  13 2.75  33 2.75  34 2.75
                            39 2.75
  20  0.083  0.333  0.408-  34 2.75  19 2.75  24 2.75  33 2.75   1 2.75  15 2.75  28 2.75  46 2.75
                            23 2.75
  21  0.917  0.167  0.500-  31 2.75  18 2.75   2 2.75  22 2.75  23 2.75  27 2.75  11 2.75  30 2.75
                            46 2.75  28 2.75  37 2.75   1 2.75
  22  0.917  0.917  0.500-  32 2.75  44 2.75  29 2.75  21 2.75  39 2.75  30 2.75  45 2.75  11 2.75
                            10 2.75  31 2.75  18 2.75  42 2.75
  23  0.917  0.417  0.500-  28 2.75  37 2.75  26 2.75  25 2.75  21 2.75  39 2.75  46 2.75  34 2.75
                            27 2.75  33 2.75  17 2.75  20 2.75
  24  0.333  0.083  0.408-  41 2.75  15 2.75  20 2.75   5 2.75  43 2.75   1 2.75   9 2.75   4 2.75
                            46 2.75
  25  0.667  0.667  0.500-   6 2.75  26 2.75   3 2.75  10 2.75  23 2.75   4 2.75  27 2.75  35 2.75
                            39 2.75   5 2.75  16 2.75  33 2.75
  26  0.750  0.500  0.592-  25 2.75  23 2.75  16 2.75   2 2.75   3 2.75  37 2.75  17 2.75  47 2.75
                            27 2.75
  27  0.667  0.417  0.500-   8 2.75   2 2.75  47 2.75  25 2.75  30 2.75  35 2.75  21 2.75   7 2.75
                            23 2.75   6 2.75  28 2.75  26 2.75
  28  0.833  0.333  0.408-  23 2.75   6 2.75   1 2.75  31 2.75  33 2.75  20 2.75   8 2.75  21 2.75
                            27 2.75
  29  0.750  0.000  0.592-  30 2.75  22 2.75   2 2.75  16 2.75  38 2.75  44 2.75  40 2.75  18 2.75
                            10 2.75
  30  0.667  0.167  0.500-   9 2.75  29 2.75  38 2.75  22 2.75  27 2.75   7 2.75  10 2.75  21 2.75
                            41 2.75   8 2.75   2 2.75  31 2.75
  31  0.833  0.083  0.408-  21 2.75   8 2.75  28 2.75  32 2.75  42 2.75   1 2.75   9 2.75  22 2.75
                            30 2.75
  32  0.833  0.833  0.408-  22 2.75  19 2.75   9 2.75  31 2.75  33 2.75   5 2.75  42 2.75  39 2.75
                            10 2.75
  33  0.833  0.583  0.408-  39 2.75  20 2.75  28 2.75  32 2.75   5 2.75   6 2.75  19 2.75  23 2.75
                            25 2.75
  34  0.167  0.417  0.500-  20 2.75  14 2.75  17 2.75  39 2.75  41 2.75  45 2.75  46 2.75   7 2.75
                            23 2.75  19 2.75  12 2.75  15 2.75
  35  0.417  0.667  0.500-  13 2.75  47 2.75  48 2.75   4 2.75  27 2.75   7 2.75  11 2.75  25 2.75
                            45 2.75  43 2.75   6 2.75   3 2.75
  36  0.250  0.000  0.592-  46 2.75   4 2.75  14 2.75  37 2.75   3 2.75  48 2.75  18 2.75  40 2.75
                            11 2.75
  37  0.000  0.250  0.592-  23 2.75  46 2.75  17 2.75  26 2.75  36 2.75  18 2.75   2 2.75  14 2.75
                            21 2.75
  38  0.500  0.250  0.592-   7 2.75  30 2.75  29 2.75  12 2.75  40 2.75  47 2.75   2 2.75  14 2.75
                            41 2.75
  39  0.917  0.667  0.500-  33 2.75  17 2.75  16 2.75  22 2.75  23 2.75  10 2.75  34 2.75  25 2.75
                            45 2.75  32 2.75  44 2.75  19 2.75
  40  0.500  0.000  0.592-  41 2.75  10 2.75  14 2.75  16 2.75  38 2.75   3 2.75  29 2.75  36 2.75
                             4 2.75
  41  0.417  0.167  0.500-  24 2.75  40 2.75  14 2.75   4 2.75   7 2.75  34 2.75  10 2.75  30 2.75
                            46 2.75  15 2.75   9 2.75  38 2.75
  42  0.083  0.833  0.408-  11 2.75   1 2.75  13 2.75  19 2.75  31 2.75  32 2.75  43 2.75  45 2.75
                            22 2.75
  43  0.333  0.833  0.408-   4 2.75   1 2.75   6 2.75  13 2.75  24 2.75   5 2.75  42 2.75  35 2.75
                            11 2.75
  44  0.000  0.750  0.592-  22 2.75  45 2.75  18 2.75  12 2.75  29 2.75  17 2.75  16 2.75  48 2.75
                            39 2.75
  45  0.167  0.667  0.500-  19 2.75  12 2.75  44 2.75  11 2.75  22 2.75  34 2.75   7 2.75  39 2.75
                            35 2.75  42 2.75  13 2.75  48 2.75
  46  0.167  0.167  0.500-   1 2.75  36 2.75  37 2.75  23 2.75  34 2.75   4 2.75  11 2.75  21 2.75
                            41 2.75  20 2.75  14 2.75  24 2.75
  47  0.500  0.500  0.592-  35 2.75  27 2.75   2 2.75   3 2.75  38 2.75  48 2.75  12 2.75  26 2.75
                             7 2.75
  48  0.250  0.750  0.592-  11 2.75  35 2.75  18 2.75  12 2.75  36 2.75  47 2.75  44 2.75   3 2.75
                            45 2.75
 
  LATTYP: Found a hexagonal cell.
 ALAT       =    11.0025815153
 C/A-ratio  =     2.2260035120
  
  Lattice vectors:
  
 A1 = (   5.5012907576,  -9.5285150994,   0.0000000000)
 A2 = ( -11.0025815153,   0.0000000000,   0.0000000000)
 A3 = (   0.0000000000,   0.0000000000, -24.4917850943)


Analysis of symmetry for initial positions (statically):
=====================================================================
 Subroutine PRICEL returns:
 Original cell was already a primitive cell.
 

 Routine SETGRP: Setting up the symmetry group for a 
 hexagonal supercell.


 Subroutine GETGRP returns: Found  1 space group operations
 (whereof  1 operations were pure point group operations)
 out of a pool of 24 trial point group operations.


The static configuration has the point symmetry C_1 .


Analysis of symmetry for dynamics (positions and initial velocities):
=====================================================================
 Subroutine PRICEL returns:
 Original cell was already a primitive cell.
 

 Routine SETGRP: Setting up the symmetry group for a 
 hexagonal supercell.


 Subroutine GETGRP returns: Found  1 space group operations
 (whereof  1 operations were pure point group operations)
 out of a pool of 24 trial point group operations.


The dynamic configuration has the point symmetry C_1 .
 
 
 KPOINTS: Automatic mesh                          

Automatic generation of k-mesh.
Space group operators:
 irot       det(A)        alpha          n_x          n_y          n_z        tau_x        tau_y        tau_z
    1     1.000000     0.000000     1.000000     0.000000     0.000000     0.000000     0.000000     0.000000
 
 Subroutine IBZKPT returns following result:
 ===========================================
 
 Found      6 irreducible k-points:
 
 Following reciprocal coordinates:
            Coordinates               Weight
  0.250000  0.250000  0.000000     16.000000
  0.000000  0.250000  0.000000     16.000000
 -0.250000  0.000000  0.000000     16.000000
 -0.250000  0.250000  0.000000     16.000000
  0.500000 -0.250000  0.000000     16.000000
 -0.250000  0.500000  0.000000     16.000000
 
 Following cartesian coordinates:
            Coordinates               Weight
  0.022722  0.013119  0.000000     16.000000
  0.000000  0.026237  0.000000     16.000000
 -0.022722  0.013119  0.000000     16.000000
 -0.022722  0.039356  0.000000     16.000000
  0.045444 -0.052474  0.000000     16.000000
 -0.022722  0.065593  0.000000     16.000000
 


--------------------------------------------------------------------------------------------------------




 Dimension of arrays:
   k-points           NKPTS =      6   k-points in BZ     NKDIM =      6   number of bands    NBANDS=    306
   number of dos      NEDOS =    301   number of ions     NIONS =     48
   non local maximal  LDIM  =      6   non local SUM 2l+1 LMDIM =     18
   total plane-waves  NPLWV = 349920
   max r-space proj   IRMAX =   2009   max aug-charges    IRDMAX=   8532
   dimension x,y,z NGX =    54 NGY =   54 NGZ =  120
   dimension x,y,z NGXF=   108 NGYF=  108 NGZF=  240
   support grid    NGXF=   108 NGYF=  108 NGZF=  240
   ions per type =              24  24
 NGX,Y,Z   is equivalent  to a cutoff of   8.16,  8.16,  8.15 a.u.
 NGXF,Y,Z  is equivalent  to a cutoff of  16.32, 16.32, 16.29 a.u.


 I would recommend the setting:
   dimension x,y,z NGX =    54 NGY =   54 NGZ =  120
 SYSTEM =  unknown system                          
 POSCAR =  Au Pd                                   

 Startparameter for this run:
   NWRITE =      1    write-flag & timer
   PREC   = normal    normal or accurate (medium, high low for compatibility)
   ISTART =      0    job   : 0-new  1-cont  2-samecut
   ICHARG =      2    charge: 1-file 2-atom 10-const
   ISPIN  =      1    spin polarized calculation?
   LNONCOLLINEAR =      F non collinear calculations
   LSORBIT =      F    spin-orbit coupling
   INIWAV =      1    electr: 0-lowe 1-rand  2-diag
   LASPH  =      F    aspherical Exc in radial PAW
   METAGGA=      F    non-selfconsistent MetaGGA calc.

 Electronic Relaxation 1
   ENCUT  =  400.0 eV  29.40 Ry    5.42 a.u.  17.94 17.94 39.94*2*pi/ulx,y,z
   ENINI  =  400.0     initial cutoff
   ENAUG  =  416.2 eV  augmentation charge cutoff
   NELM   =    500;   NELMIN=  2; NELMDL= -5     # of ELM steps 
   EDIFF  = 0.1E-05   stopping-criterion for ELM
   LREAL  =      T    real-space projection
   NLSPLINE    = F    spline interpolate recip. space projectors
   LCOMPAT=      F    compatible to vasp.4.4
   GGA_COMPAT  = T    GGA compatible to vasp.4.4-vasp.4.6
   LMAXPAW     = -100 max onsite density
   LMAXMIX     =    2 max onsite mixed and CHGCAR
   VOSKOWN=      1    Vosko Wilk Nusair interpolation
   ROPT   =   -0.00050  -0.00050
 Ionic relaxation
   EDIFFG = -.2E-01   stopping-criterion for IOM
   NSW    =    500    number of steps for IOM
   NBLOCK =      1;   KBLOCK =    500    inner block; outer block 
   IBRION =      2    ionic relax: 0-MD 1-quasi-New 2-CG
   NFREE  =      2    steps in history (QN), initial steepest desc. (CG)
   ISIF   =      0    stress and relaxation
   IWAVPR =     11    prediction:  0-non 1-charg 2-wave 3-comb
   ISYM   =      2    0-nonsym 1-usesym 2-fastsym
   LCORR  =      T    Harris-Foulkes like correction to forces

   POTIM  = 0.3500    time-step for ionic-motion
   TEIN   =    0.0    initial temperature
   TEBEG  =    0.0;   TEEND  =   0.0 temperature during run
   SMASS  =  -3.00    Nose mass-parameter (am)
   estimated Nose-frequenzy (Omega)   =  0.10E-29 period in steps =****** mass=  -0.277E-26a.u.
   SCALEE = 1.0000    scale energy and forces
   NPACO  =    256;   APACO  = 16.0  distance and # of slots for P.C.
   PSTRESS=    0.0 pullay stress

  Mass of Ions in am
   POMASS = 196.97106.42
  Ionic Valenz
   ZVAL   =  11.00 10.00
  Atomic Wigner-Seitz radii
   RWIGS  =  -1.00 -1.00
  virtual crystal weights 
   VCA    =   1.00  1.00
   NELECT =     504.0000    total number of electrons
   NUPDOWN=      -1.0000    fix difference up-down

 DOS related values:
   EMIN   =  10.00;   EMAX   =-10.00  energy-range for DOS
   EFERMI =   0.00
   ISMEAR =     0;   SIGMA  =   0.10  broadening in eV -4-tet -1-fermi 0-gaus

 Electronic relaxation 2 (details)
   IALGO  =     68    algorithm
   LDIAG  =      T    sub-space diagonalisation (order eigenvalues)
   LSUBROT=      F    optimize rotation matrix (better conditioning)
   TURBO    =      0    0=normal 1=particle mesh
   IRESTART =      0    0=no restart 2=restart with 2 vectors
   NREBOOT  =      0    no. of reboots
   NMIN     =      0    reboot dimension
   EREF     =   0.00    reference energy to select bands
   IMIX   =      4    mixing-type and parameters
     AMIX     =   0.40;   BMIX     =  1.00
     AMIX_MAG =   1.60;   BMIX_MAG =  1.00
     AMIN     =   0.10
     WC   =   100.;   INIMIX=   1;  MIXPRE=   1;  MAXMIX= -45

 Intra band minimization:
   WEIMIN = 0.0010     energy-eigenvalue tresh-hold
   EBREAK =  0.82E-09  absolut break condition
   DEPER  =   0.30     relativ break condition  

   TIME   =   0.40     timestep for ELM

  volume/ion in A,a.u.               =      53.49       360.99
  Fermi-wavevector in a.u.,A,eV,Ry     =   0.951418  1.797920 12.315955  0.905197
  Thomas-Fermi vector in A             =   2.079887
 
 Write flags
   LWAVE  =      F    write WAVECAR
   LCHARG =      F    write CHGCAR
   LVTOT  =      F    write LOCPOT, total local potential
   LVHAR  =      F    write LOCPOT, Hartree potential only
   LELF   =      F    write electronic localiz. function (ELF)
   LORBIT =      0    0 simple, 1 ext, 2 COOP (PROOUT)


 Dipole corrections
   LMONO  =      F    monopole corrections only (constant potential shift)
   LDIPOL =      T    correct potential (dipole corrections)
   IDIPOL =      3    1-x, 2-y, 3-z, 4-all directions 
   EPSILON=  1.0000000 bulk dielectric constant

 Exchange correlation treatment:
   GGA     =    PE    GGA type
   LEXCH   =     8    internal setting for exchange type
   VOSKOWN=      1    Vosko Wilk Nusair interpolation
   LHFCALC =     F    Hartree Fock is set to
   LHFONE  =     F    Hartree Fock one center treatment
   AEXX    =    0.0000 exact exchange contribution

 Linear response parameters
   LEPSILON=     F    determine dielectric tensor
   LRPA    =     F    only Hartree local field effects (RPA)
   LNABLA  =     F    use nabla operator in PAW spheres
   LVEL    =     F    velocity operator in full k-point grid
   LINTERFAST=   F  fast interpolation
   KINTER  =     0    interpolate to denser k-point grid
   CSHIFT  =0.1000    complex shift for real part using Kramers Kronig
   OMEGAMAX=  -1.0    maximum frequency
   DEG_THRESHOLD= 0.2000000E-02 threshold for treating states as degnerate
   RTIME   =    0.100 relaxation time in fs

 Orbital magnetization related:
   ORBITALMAG=     F  switch on orbital magnetization
   LCHIMAG   =     F  perturbation theory with respect to B field
   DQ        =  0.001000  dq finite difference perturbation B field



--------------------------------------------------------------------------------------------------------


 conjugate gradient relaxation of ions
 charge density and potential will be updated during run
 non-spin polarized calculation
 RMM-DIIS sequential band-by-band and
  variant of blocked Davidson during initial phase
 perform sub-space diagonalisation
    before iterative eigenvector-optimisation
 modified Broyden-mixing scheme, WC =      100.0
 initial mixing is a Kerker type mixing with AMIX =  0.4000 and BMIX =      1.0000
 Hartree-type preconditioning will be used
 using additional bands           54
 real space projection scheme for non local part
 use partial core corrections
 calculate Harris-corrections to forces 
   (improved forces if not selfconsistent)
 use gradient corrections 
 use of overlap-Matrix (Vanderbilt PP)
 Gauss-broadening in eV      SIGMA  =   0.10


--------------------------------------------------------------------------------------------------------


  energy-cutoff  :      400.00
  volume of cell :     2567.68
      direct lattice vectors                 reciprocal lattice vectors
    11.002581515  0.000000000  0.000000000     0.090887761 -0.052474073  0.000000000
     5.501290758  9.528515099  0.000000000     0.000000000  0.104948147  0.000000000
     0.000000000  0.000000000 24.491785094     0.000000000  0.000000000  0.040830017

  length of vectors
    11.002581515 11.002581515 24.491785094     0.104948147  0.104948147  0.040830017


 
 k-points in units of 2pi/SCALE and weight: Automatic mesh                          
   0.02272194  0.01311852  0.00000000       0.167
   0.00000000  0.02623704  0.00000000       0.167
  -0.02272194  0.01311852  0.00000000       0.167
  -0.02272194  0.03935555  0.00000000       0.167
   0.04544388 -0.05247407  0.00000000       0.167
  -0.02272194  0.06559259  0.00000000       0.167
 
 k-points in reciprocal lattice and weights: Automatic mesh                          
   0.25000000  0.25000000  0.00000000       0.167
   0.00000000  0.25000000  0.00000000       0.167
  -0.25000000  0.00000000  0.00000000       0.167
  -0.25000000  0.25000000  0.00000000       0.167
   0.50000000 -0.25000000  0.00000000       0.167
  -0.25000000  0.50000000  0.00000000       0.167
 
 position of ions in fractional coordinates (direct lattice) 
   0.08333333  0.08333333  0.40830017
   0.75000000  0.25000000  0.59169983
   0.50000000  0.75000000  0.59169983
   0.41666667  0.91666667  0.50000000
   0.58333333  0.83333333  0.40830017
   0.58333333  0.58333333  0.40830017
   0.41666667  0.41666667  0.50000000
   0.58333333  0.33333333  0.40830017
   0.58333333  0.08333333  0.40830017
   0.66666667  0.91666667  0.50000000
   0.16666667  0.91666667  0.50000000
   0.25000000  0.50000000  0.59169983
   0.33333333  0.58333333  0.40830017
   0.25000000  0.25000000  0.59169983
   0.33333333  0.33333333  0.40830017
   0.75000000  0.75000000  0.59169983
   0.00000000  0.50000000  0.59169983
   0.00000000  0.00000000  0.59169983
   0.08333333  0.58333333  0.40830017
   0.08333333  0.33333333  0.40830017
   0.91666667  0.16666667  0.50000000
   0.91666667  0.91666667  0.50000000
   0.91666667  0.41666667  0.50000000
   0.33333333  0.08333333  0.40830017
   0.66666667  0.66666667  0.50000000
   0.75000000  0.50000000  0.59169983
   0.66666667  0.41666667  0.50000000
   0.83333333  0.33333333  0.40830017
   0.75000000  0.00000000  0.59169983
   0.66666667  0.16666667  0.50000000
   0.83333333  0.08333333  0.40830017
   0.83333333  0.83333333  0.40830017
   0.83333333  0.58333333  0.40830017
   0.16666667  0.41666667  0.50000000
   0.41666667  0.66666667  0.50000000
   0.25000000  0.00000000  0.59169983
   0.00000000  0.25000000  0.59169983
   0.50000000  0.25000000  0.59169983
   0.91666667  0.66666667  0.50000000
   0.50000000  0.00000000  0.59169983
   0.41666667  0.16666667  0.50000000
   0.08333333  0.83333333  0.40830017
   0.33333333  0.83333333  0.40830017
   0.00000000  0.75000000  0.59169983
   0.16666667  0.66666667  0.50000000
   0.16666667  0.16666667  0.50000000
   0.50000000  0.50000000  0.59169983
   0.25000000  0.75000000  0.59169983
 
 position of ions in cartesian coordinates  (Angst):
   1.37532269  0.79404292 10.00000000
   9.62725883  2.38212877 14.49178509
   9.62725883  7.14638632 14.49178509
   9.62725883  8.73447217 12.24589255
  11.00258152  7.94042925 10.00000000
   9.62725883  5.55830047 10.00000000
   6.87661345  3.97021462 12.24589255
   8.25193614  3.17617170 10.00000000
   6.87661345  0.79404292 10.00000000
  12.37790420  8.73447217 12.24589255
   6.87661345  8.73447217 12.24589255
   5.50129076  4.76425755 14.49178509
   6.87661345  5.55830047 10.00000000
   4.12596807  2.38212877 14.49178509
   5.50129076  3.17617170 10.00000000
  12.37790420  7.14638632 14.49178509
   2.75064538  4.76425755 14.49178509
   0.00000000  0.00000000 14.49178509
   4.12596807  5.55830047 10.00000000
   2.75064538  3.17617170 10.00000000
  11.00258152  1.58808585 12.24589255
  15.12854958  8.73447217 12.24589255
  12.37790420  3.97021462 12.24589255
   4.12596807  0.79404292 10.00000000
  11.00258152  6.35234340 12.24589255
  11.00258152  4.76425755 14.49178509
   9.62725883  3.97021462 12.24589255
  11.00258152  3.17617170 10.00000000
   8.25193614  0.00000000 14.49178509
   8.25193614  1.58808585 12.24589255
   9.62725883  0.79404292 10.00000000
  13.75322689  7.94042925 10.00000000
  12.37790420  5.55830047 10.00000000
   4.12596807  3.97021462 12.24589255
   8.25193614  6.35234340 12.24589255
   2.75064538  0.00000000 14.49178509
   1.37532269  2.38212877 14.49178509
   6.87661345  2.38212877 14.49178509
  13.75322689  6.35234340 12.24589255
   5.50129076  0.00000000 14.49178509
   5.50129076  1.58808585 12.24589255
   5.50129076  7.94042925 10.00000000
   8.25193614  7.94042925 10.00000000
   4.12596807  7.14638632 14.49178509
   5.50129076  6.35234340 12.24589255
   2.75064538  1.58808585 12.24589255
   8.25193614  4.76425755 14.49178509
   6.87661345  7.14638632 14.49178509
 


--------------------------------------------------------------------------------------------------------


 k-point  1 :   0.2500 0.2500 0.0000  plane waves:   46635
 k-point  2 :   0.0000 0.2500 0.0000  plane waves:   46635
 k-point  3 :  -0.2500 0.0000 0.0000  plane waves:   46635
 k-point  4 :  -0.2500 0.2500 0.0000  plane waves:   46644
 k-point  5 :   0.5000-0.2500 0.0000  plane waves:   46644
 k-point  6 :  -0.2500 0.5000 0.0000  plane waves:   46644

 maximum and minimum number of plane-waves per node :      7818     7732

 maximum number of plane-waves:     46644
 maximum index in each direction: 
   IXMAX=   18   IYMAX=   18   IZMAX=   39
   IXMIN=  -18   IYMIN=  -18   IZMIN=  -39

 WARNING: aliasing errors must be expected set NGX to  74 to avoid them
 WARNING: aliasing errors must be expected set NGY to  74 to avoid them
 WARNING: aliasing errors must be expected set NGZ to 158 to avoid them
 aliasing errors are usually negligible using standard VASP settings
 and one can safely disregard these warnings

 real space projection operators:
  total allocation   :      12803.06 KBytes
  max/ min on nodes  :       2145.66       2127.94


 parallel 3D FFT for wavefunctions:
    minimum data exchange during FFTs selected (reduces bandwidth)
 parallel 3D FFT for charge:
    minimum data exchange during FFTs selected (reduces bandwidth)


 total amount of memory used by VASP on root node    84353. kBytes
========================================================================

   base      :      30000. kBytes
   nonlr-proj:       4285. kBytes
   fftplans  :       4447. kBytes
   grid      :       6721. kBytes
   one-center:        124. kBytes
   wavefun   :      38776. kBytes
 
     INWAV:  cpu time    0.0000: real time    0.0000
 Broyden mixing: mesh for mixing (old mesh)
   NGX = 35   NGY = 35   NGZ = 79
  (NGX  =108   NGY  =108   NGZ  =240)
  gives a total of  96775 points

 initial charge density was supplied:
 charge density of overlapping atoms calculated
 number of electron     504.0000000 magnetization 
 keeping initial charge density in first step


--------------------------------------------------------------------------------------------------------


 Maximum index for non-local projection operator          355
 Maximum index for augmentation-charges          437 (set IRDMAX)


--------------------------------------------------------------------------------------------------------


 First call to EWALD:  gamma=   0.129
 Maximum number of real-space cells 4x 4x 2
 Maximum number of reciprocal cells 2x 2x 5

 FEWALD executed in parallel
    FEWALD:  cpu time    0.0025: real time    0.0025


----------------------------------------- Iteration    1(   1)  ---------------------------------------


    POTLOK:  cpu time    0.0552: real time    0.0554
    SETDIJ:  cpu time    0.0067: real time    0.0067
     EDDAV:  cpu time    9.4951: real time    9.5026
       DOS:  cpu time    0.0015: real time    0.0015
    --------------------------------------------
      LOOP:  cpu time    9.5624: real time    9.5734

 eigenvalue-minimisations  :  3672
 total energy-change (2. order) : 0.3201914E+04  (-0.1898381E+05)
 number of electron     504.0000000 magnetization 
 augmentation part      504.0000000 magnetization 

 DIPCOR: dipole corrections for dipol
 direction  3 min pos     1,
 dipolmoment           0.000000      0.000000      0.000002 electrons x Angstroem
 Tr[quadrupol]    -10278.162794

 energy correction for charged system         0.000000 eV
 dipol+quadrupol energy correction           -0.000000 eV
 added-field ion interaction          0.000001 eV  (added to PSCEN)


 Free energy of the ion-electron system (eV)
  ---------------------------------------------------
  alpha Z        PSCENC =       805.86936534
  Ewald energy   TEWEN  =    199922.16181888
  -Hartree energ DENC   =   -242334.92198061
  -exchange      EXHF   =         0.00000000
  -V(xc)+E(xc)   XCENC  =      -327.70015881
  PAW double counting   =     40340.05962942   -38292.62782345
  entropy T*S    EENTRO =        -0.11132205
  eigenvalues    EBANDS =      1429.39891597
  atomic energy  EATOM  =     41659.78587232
  Solvation  Ediel_sol  =         0.00000000
  ---------------------------------------------------
  free energy    TOTEN  =      3201.91431700 eV

  energy without entropy =     3202.02563906  energy(sigma->0) =     3201.96997803


--------------------------------------------------------------------------------------------------------




----------------------------------------- Iteration    1(   2)  ---------------------------------------


     EDDAV:  cpu time   11.0581: real time   11.7533
       DOS:  cpu time    0.0017: real time    0.0017
    --------------------------------------------
      LOOP:  cpu time   11.0610: real time   11.7575

 eigenvalue-minimisations  :  4380
 total energy-change (2. order) :-0.3187222E+04  (-0.2932027E+04)
 number of electron     504.0000000 magnetization 
 augmentation part      504.0000000 magnetization 

 DIPCOR: dipole corrections for dipol
 direction  3 min pos     1,
 dipolmoment           0.000000      0.000000      0.000002 electrons x Angstroem
 Tr[quadrupol]    -10278.162794

 energy correction for charged system         0.000000 eV
 dipol+quadrupol energy correction           -0.000000 eV
 added-field ion interaction          0.000001 eV  (added to PSCEN)


 Free energy of the ion-electron system (eV)
  ---------------------------------------------------
  alpha Z        PSCENC =       805.86936534
  Ewald energy   TEWEN  =    199922.16181888
  -Hartree energ DENC   =   -242334.92198061
  -exchange      EXHF   =         0.00000000
  -V(xc)+E(xc)   XCENC  =      -327.70015881
  PAW double counting   =     40340.05962942   -38292.62782345
  entropy T*S    EENTRO =        -0.13200072
  eigenvalues    EBANDS =     -1757.80193157
  atomic energy  EATOM  =     41659.78587232
  Solvation  Ediel_sol  =         0.00000000
  ---------------------------------------------------
  free energy    TOTEN  =        14.69279080 eV

  energy without entropy =       14.82479152  energy(sigma->0) =       14.75879116


--------------------------------------------------------------------------------------------------------




----------------------------------------- Iteration    1(   3)  ---------------------------------------


     EDDAV:  cpu time   11.0250: real time   11.0989
       DOS:  cpu time    0.0016: real time    0.0016
    --------------------------------------------
      LOOP:  cpu time   11.0291: real time   11.1065

 eigenvalue-minimisations  :  4140
 total energy-change (2. order) :-0.2156151E+03  (-0.2006895E+03)
 number of electron     504.0000000 magnetization 
 augmentation part      504.0000000 magnetization 

 DIPCOR: dipole corrections for dipol
 direction  3 min pos     1,
 dipolmoment           0.000000      0.000000      0.000002 electrons x Angstroem
 Tr[quadrupol]    -10278.162794

 energy correction for charged system         0.000000 eV
 dipol+quadrupol energy correction           -0.000000 eV
 added-field ion interaction          0.000001 eV  (added to PSCEN)


 Free energy of the ion-electron system (eV)
  ---------------------------------------------------
  alpha Z        PSCENC =       805.86936534
  Ewald energy   TEWEN  =    199922.16181888
  -Hartree energ DENC   =   -242334.92198061
  -exchange      EXHF   =         0.00000000
  -V(xc)+E(xc)   XCENC  =      -327.70015881
  PAW double counting   =     40340.05962942   -38292.62782345
  entropy T*S    EENTRO =        -0.18452580
  eigenvalues    EBANDS =     -1973.36446497
  atomic energy  EATOM  =     41659.78587232
  Solvation  Ediel_sol  =         0.00000000
  ---------------------------------------------------
  free energy    TOTEN  =      -200.92226769 eV

  energy without entropy =     -200.73774189  energy(sigma->0) =     -200.83000479


--------------------------------------------------------------------------------------------------------




----------------------------------------- Iteration    1(   4)  ---------------------------------------


     EDDAV:  cpu time   11.2081: real time   11.2156
       DOS:  cpu time    0.0017: real time    0.0017
    --------------------------------------------
      LOOP:  cpu time   11.2113: real time   11.2213

 eigenvalue-minimisations  :  4248
 total energy-change (2. order) :-0.5733838E+01  (-0.5675319E+01)
 number of electron     504.0000000 magnetization 
 augmentation part      504.0000000 magnetization 

 DIPCOR: dipole corrections for dipol
 direction  3 min pos     1,
 dipolmoment           0.000000      0.000000      0.000002 electrons x Angstroem
 Tr[quadrupol]    -10278.162794

 energy correction for charged system         0.000000 eV
 dipol+quadrupol energy correction           -0.000000 eV
 added-field ion interaction          0.000001 eV  (added to PSCEN)


 Free energy of the ion-electron system (eV)
  ---------------------------------------------------
  alpha Z        PSCENC =       805.86936534
  Ewald energy   TEWEN  =    199922.16181888
  -Hartree energ DENC   =   -242334.92198061
  -exchange      EXHF   =         0.00000000
  -V(xc)+E(xc)   XCENC  =      -327.70015881
  PAW double counting   =     40340.05962942   -38292.62782345
  entropy T*S    EENTRO =        -0.19161163
  eigenvalues    EBANDS =     -1979.09121722
  atomic energy  EATOM  =     41659.78587232
  Solvation  Ediel_sol  =         0.00000000
  ---------------------------------------------------
  free energy    TOTEN  =      -206.65610576 eV

  energy without entropy =     -206.46449413  energy(sigma->0) =     -206.56029995


--------------------------------------------------------------------------------------------------------




----------------------------------------- Iteration    1(   5)  ---------------------------------------


     EDDAV:  cpu time   11.5329: real time   11.5427
       DOS:  cpu time    0.0017: real time    0.0017
    CHARGE:  cpu time    0.3151: real time    0.3154
    MIXING:  cpu time    0.0023: real time    0.0023
    --------------------------------------------
      LOOP:  cpu time   11.8543: real time   11.8668

 eigenvalue-minimisations  :  4416
 total energy-change (2. order) :-0.1797600E+00  (-0.1792117E+00)
 number of electron     503.9998405 magnetization 
 augmentation part      191.2305276 magnetization 

 DIPCOR: dipole corrections for dipol
 direction  3 min pos     1,
 dipolmoment           0.000000      0.000000      0.000002 electrons x Angstroem
 Tr[quadrupol]    -10278.162794

 energy correction for charged system         0.000000 eV
 dipol+quadrupol energy correction           -0.000000 eV
 added-field ion interaction          0.000001 eV  (added to PSCEN)


 Broyden mixing:
  rms(total) = 0.62069E+01    rms(broyden)= 0.62069E+01
  rms(prec ) = 0.63242E+01
  weight for this iteration     100.00

 Free energy of the ion-electron system (eV)
  ---------------------------------------------------
  alpha Z        PSCENC =       805.86936534
  Ewald energy   TEWEN  =    199922.16181888
  -Hartree energ DENC   =   -242334.92198061
  -exchange      EXHF   =         0.00000000
  -V(xc)+E(xc)   XCENC  =      -327.70015881
  PAW double counting   =     40340.05962942   -38292.62782345
  entropy T*S    EENTRO =        -0.19185452
  eigenvalues    EBANDS =     -1979.27073438
  atomic energy  EATOM  =     41659.78587232
  Solvation  Ediel_sol  =         0.00000000
  ---------------------------------------------------
  free energy    TOTEN  =      -206.83586581 eV

  energy without entropy =     -206.64401129  energy(sigma->0) =     -206.73993855


--------------------------------------------------------------------------------------------------------




----------------------------------------- Iteration    1(   6)  ---------------------------------------


    POTLOK:  cpu time    0.0512: real time    0.0512
    SETDIJ:  cpu time    0.0062: real time    0.0062
    EDDIAG:  cpu time    1.6661: real time    1.6682
  RMM-DIIS:  cpu time    4.5693: real time    4.5722
    ORTHCH:  cpu time    0.4091: real time    0.4092
       DOS:  cpu time    0.0017: real time    0.0017
    CHARGE:  cpu time    0.3039: real time    0.3042
    MIXING:  cpu time    0.0022: real time    0.0022
    --------------------------------------------
      LOOP:  cpu time    7.0105: real time    7.0195

 eigenvalue-minimisations  :  3675
 total energy-change (2. order) : 0.4754022E+01  (-0.9475430E+01)
 number of electron     503.9998430 magnetization 
 augmentation part      191.6192959 magnetization 

 DIPCOR: dipole corrections for dipol
 direction  3 min pos     1,
 dipolmoment           0.000000      0.000000      1.023595 electrons x Angstroem
 Tr[quadrupol]    -10280.289533

 energy correction for charged system         0.000000 eV
 dipol+quadrupol energy correction           -0.036920 eV
 added-field ion interaction          0.486039 eV  (added to PSCEN)


 Broyden mixing:
  rms(total) = 0.52538E+01    rms(broyden)= 0.52537E+01
  rms(prec ) = 0.55195E+01
  weight for this iteration     100.00

 eigenvalues of (default mixing * dielectric matrix)
  average eigenvalue GAMMA=   0.7983
  0.7983

 Free energy of the ion-electron system (eV)
  ---------------------------------------------------
  alpha Z        PSCENC =       806.31848367
  Ewald energy   TEWEN  =    199922.16181888
  -Hartree energ DENC   =   -242110.91814363
  -exchange      EXHF   =         0.00000000
  -V(xc)+E(xc)   XCENC  =      -340.43088804
  PAW double counting   =     43904.25964469   -41916.26471174
  entropy T*S    EENTRO =        -0.27349154
  eigenvalues    EBANDS =     -2126.72042821
  atomic energy  EATOM  =     41659.78587232
  Solvation  Ediel_sol  =         0.00000000
  ---------------------------------------------------
  free energy    TOTEN  =      -202.08184361 eV

  energy without entropy =     -201.80835207  energy(sigma->0) =     -201.94509784


--------------------------------------------------------------------------------------------------------




----------------------------------------- Iteration    1(   7)  ---------------------------------------


    POTLOK:  cpu time    0.0504: real time    0.0504
    SETDIJ:  cpu time    0.0060: real time    0.0060
    EDDIAG:  cpu time    1.6747: real time    1.6754
  RMM-DIIS:  cpu time    4.4291: real time    4.5144
    ORTHCH:  cpu time    0.4093: real time    0.4095
       DOS:  cpu time    0.0016: real time    0.0016
    CHARGE:  cpu time    0.3027: real time    0.3028
    MIXING:  cpu time    0.0021: real time    0.0021
    --------------------------------------------
      LOOP:  cpu time    6.8767: real time    6.9659

 eigenvalue-minimisations  :  3680
 total energy-change (2. order) :-0.1914866E+02  (-0.6157808E+01)
 number of electron     503.9998374 magnetization 
 augmentation part      194.4479236 magnetization 

 DIPCOR: dipole corrections for dipol
 direction  3 min pos     1,
 dipolmoment           0.000000      0.000000     -1.575441 electrons x Angstroem
 Tr[quadrupol]    -10278.513187

 energy correction for charged system         0.000000 eV
 dipol+quadrupol energy correction           -0.087460 eV
 added-field ion interaction         -0.748075 eV  (added to PSCEN)


 Broyden mixing:
  rms(total) = 0.52569E+01    rms(broyden)= 0.52566E+01
  rms(prec ) = 0.63995E+01
  weight for this iteration     100.00

 eigenvalues of (default mixing * dielectric matrix)
  average eigenvalue GAMMA=   0.8369
  1.3594  0.3144

 Free energy of the ion-electron system (eV)
  ---------------------------------------------------
  alpha Z        PSCENC =       805.03382935
  Ewald energy   TEWEN  =    199922.16181888
  -Hartree energ DENC   =   -241941.07822925
  -exchange      EXHF   =         0.00000000
  -V(xc)+E(xc)   XCENC  =      -342.84253708
  PAW double counting   =     45380.04029057   -43419.15869212
  entropy T*S    EENTRO =        -0.21182230
  eigenvalues    EBANDS =     -2284.96103470
  atomic energy  EATOM  =     41659.78587232
  Solvation  Ediel_sol  =         0.00000000
  ---------------------------------------------------
  free energy    TOTEN  =      -221.23050434 eV

  energy without entropy =     -221.01868204  energy(sigma->0) =     -221.12459319


--------------------------------------------------------------------------------------------------------




----------------------------------------- Iteration    1(   8)  ---------------------------------------


    POTLOK:  cpu time    0.0500: real time    0.0500
    SETDIJ:  cpu time    0.0060: real time    0.0060
    EDDIAG:  cpu time    1.6944: real time    1.6949
  RMM-DIIS:  cpu time    4.2075: real time    4.8630
    ORTHCH:  cpu time    0.3517: real time    0.5424
       DOS:  cpu time    0.0015: real time    0.0015
    CHARGE:  cpu time    0.3040: real time    0.3675
    MIXING:  cpu time    0.0023: real time    0.0023
    --------------------------------------------
      LOOP:  cpu time    6.6183: real time    7.5298

 eigenvalue-minimisations  :  3678
 total energy-change (2. order) : 0.5845098E+01  (-0.8847535E+01)
 number of electron     503.9998348 magnetization 
 augmentation part      197.7396269 magnetization 

 DIPCOR: dipole corrections for dipol
 direction  3 min pos     1,
 dipolmoment           0.000000      0.000000      1.371439 electrons x Angstroem
 Tr[quadrupol]    -10279.419915

 energy correction for charged system         0.000000 eV
 dipol+quadrupol energy correction           -0.066276 eV
 added-field ion interaction          0.651208 eV  (added to PSCEN)


 Broyden mixing:
  rms(total) = 0.38137E+01    rms(broyden)= 0.38133E+01
  rms(prec ) = 0.44177E+01
  weight for this iteration     100.00

 eigenvalues of (default mixing * dielectric matrix)
  average eigenvalue GAMMA=   0.9272
  2.0887  0.4725  0.2203

 Free energy of the ion-electron system (eV)
  ---------------------------------------------------
  alpha Z        PSCENC =       806.45429617
  Ewald energy   TEWEN  =    199922.16181888
  -Hartree energ DENC   =   -241894.71453881
  -exchange      EXHF   =         0.00000000
  -V(xc)+E(xc)   XCENC  =      -345.00284250
  PAW double counting   =     46752.79692607   -44816.01177926
  entropy T*S    EENTRO =        -0.18076639
  eigenvalues    EBANDS =     -2300.67439304
  atomic energy  EATOM  =     41659.78587232
  Solvation  Ediel_sol  =         0.00000000
  ---------------------------------------------------
  free energy    TOTEN  =      -215.38540657 eV

  energy without entropy =     -215.20464018  energy(sigma->0) =     -215.29502337


--------------------------------------------------------------------------------------------------------




----------------------------------------- Iteration    1(   9)  ---------------------------------------


    POTLOK:  cpu time    0.0495: real time    0.0495
    SETDIJ:  cpu time    0.0060: real time    0.0060
    EDDIAG:  cpu time    1.6899: real time    1.6905
  RMM-DIIS:  cpu time    4.4942: real time    4.4955
    ORTHCH:  cpu time    0.4125: real time    0.4125
       DOS:  cpu time    0.0017: real time    0.0017
    CHARGE:  cpu time    0.3060: real time    0.3060
    MIXING:  cpu time    0.0025: real time    0.0025
    --------------------------------------------
      LOOP:  cpu time    6.9630: real time    6.9674

 eigenvalue-minimisations  :  3680
 total energy-change (2. order) : 0.4017175E+01  (-0.3639732E+01)
 number of electron     503.9998339 magnetization 
 augmentation part      198.2401502 magnetization 

 DIPCOR: dipole corrections for dipol
 direction  3 min pos     1,
 dipolmoment           0.000000      0.000000     -0.039198 electrons x Angstroem
 Tr[quadrupol]    -10280.689480

 energy correction for charged system         0.000000 eV
 dipol+quadrupol energy correction           -0.000054 eV
 added-field ion interaction         -0.018613 eV  (added to PSCEN)


 Broyden mixing:
  rms(total) = 0.34272E+01    rms(broyden)= 0.34269E+01
  rms(prec ) = 0.37986E+01
  weight for this iteration     100.00

 eigenvalues of (default mixing * dielectric matrix)
  average eigenvalue GAMMA=   0.8182
  2.2480  0.4593  0.2828  0.2828

 Free energy of the ion-electron system (eV)
  ---------------------------------------------------
  alpha Z        PSCENC =       805.85069764
  Ewald energy   TEWEN  =    199922.16181888
  -Hartree energ DENC   =   -241905.89436723
  -exchange      EXHF   =         0.00000000
  -V(xc)+E(xc)   XCENC  =      -346.70078188
  PAW double counting   =     48537.02346651   -46625.36485549
  entropy T*S    EENTRO =        -0.20832461
  eigenvalues    EBANDS =     -2258.02175750
  atomic energy  EATOM  =     41659.78587232
  Solvation  Ediel_sol  =         0.00000000
  ---------------------------------------------------
  free energy    TOTEN  =      -211.36823137 eV

  energy without entropy =     -211.15990676  energy(sigma->0) =     -211.26406907


--------------------------------------------------------------------------------------------------------




----------------------------------------- Iteration    1(  10)  ---------------------------------------


    POTLOK:  cpu time    0.0507: real time    0.0509
    SETDIJ:  cpu time    0.0060: real time    0.0060
    EDDIAG:  cpu time    1.6681: real time    1.6704
  RMM-DIIS:  cpu time    4.5538: real time    4.5564
    ORTHCH:  cpu time    0.4063: real time    0.4066
       DOS:  cpu time    0.0017: real time    0.0017
    CHARGE:  cpu time    0.3042: real time    0.3042
    MIXING:  cpu time    0.0026: real time    0.0026
    --------------------------------------------
      LOOP:  cpu time    6.9944: real time    7.0031

 eigenvalue-minimisations  :  3680
 total energy-change (2. order) : 0.1220520E+02  (-0.1501669E+01)
 number of electron     503.9998341 magnetization 
 augmentation part      198.9361966 magnetization 

 DIPCOR: dipole corrections for dipol
 direction  3 min pos     1,
 dipolmoment           0.000000      0.000000      0.537747 electrons x Angstroem
 Tr[quadrupol]    -10279.769344

 energy correction for charged system         0.000000 eV
 dipol+quadrupol energy correction           -0.010190 eV
 added-field ion interaction          0.255341 eV  (added to PSCEN)


 Broyden mixing:
  rms(total) = 0.19753E+01    rms(broyden)= 0.19751E+01
  rms(prec ) = 0.23526E+01
  weight for this iteration     100.00

 eigenvalues of (default mixing * dielectric matrix)
  average eigenvalue GAMMA=   0.7746
  2.2868  0.5098  0.5098  0.3426  0.2243

 Free energy of the ion-electron system (eV)
  ---------------------------------------------------
  alpha Z        PSCENC =       806.11451591
  Ewald energy   TEWEN  =    199922.16181888
  -Hartree energ DENC   =   -241884.60411984
  -exchange      EXHF   =         0.00000000
  -V(xc)+E(xc)   XCENC  =      -346.50586938
  PAW double counting   =     49001.91411725   -47095.15342727
  entropy T*S    EENTRO =        -0.17061935
  eigenvalues    EBANDS =     -2262.70532252
  atomic energy  EATOM  =     41659.78587232
  Solvation  Ediel_sol  =         0.00000000
  ---------------------------------------------------
  free energy    TOTEN  =      -199.16303401 eV

  energy without entropy =     -198.99241466  energy(sigma->0) =     -199.07772433


--------------------------------------------------------------------------------------------------------




----------------------------------------- Iteration    1(  11)  ---------------------------------------


    POTLOK:  cpu time    0.0498: real time    0.0500
    SETDIJ:  cpu time    0.0061: real time    0.0061
    EDDIAG:  cpu time    1.6647: real time    1.6663
  RMM-DIIS:  cpu time    4.5280: real time    4.5388
    ORTHCH:  cpu time    0.3955: real time    0.3958
       DOS:  cpu time    0.0018: real time    0.0018
    CHARGE:  cpu time    0.2984: real time    0.2984
    MIXING:  cpu time    0.0027: real time    0.0027
    --------------------------------------------
      LOOP:  cpu time    6.9478: real time    6.9629

 eigenvalue-minimisations  :  3681
 total energy-change (2. order) : 0.4934028E+01  (-0.1031408E+01)
 number of electron     503.9998344 magnetization 
 augmentation part      198.5690288 magnetization 

 DIPCOR: dipole corrections for dipol
 direction  3 min pos     1,
 dipolmoment           0.000000      0.000000      0.273332 electrons x Angstroem
 Tr[quadrupol]    -10280.641090

 energy correction for charged system         0.000000 eV
 dipol+quadrupol energy correction           -0.002633 eV
 added-field ion interaction          0.129788 eV  (added to PSCEN)


 Broyden mixing:
  rms(total) = 0.14962E+01    rms(broyden)= 0.14959E+01
  rms(prec ) = 0.17332E+01
  weight for this iteration     100.00

 eigenvalues of (default mixing * dielectric matrix)
  average eigenvalue GAMMA=   0.7287
  2.2450  0.6389  0.6389  0.3533  0.2481  0.2481

 Free energy of the ion-electron system (eV)
  ---------------------------------------------------
  alpha Z        PSCENC =       805.99651940
  Ewald energy   TEWEN  =    199922.16181888
  -Hartree energ DENC   =   -241936.46500726
  -exchange      EXHF   =         0.00000000
  -V(xc)+E(xc)   XCENC  =      -346.00201200
  PAW double counting   =     49142.55764595   -47234.33292424
  entropy T*S    EENTRO =        -0.19844472
  eigenvalues    EBANDS =     -2207.73247437
  atomic energy  EATOM  =     41659.78587232
  Solvation  Ediel_sol  =         0.00000000
  ---------------------------------------------------
  free energy    TOTEN  =      -194.22900604 eV

  energy without entropy =     -194.03056132  energy(sigma->0) =     -194.12978368


--------------------------------------------------------------------------------------------------------




----------------------------------------- Iteration    1(  12)  ---------------------------------------


    POTLOK:  cpu time    0.0499: real time    0.0500
    SETDIJ:  cpu time    0.0061: real time    0.0061
    EDDIAG:  cpu time    1.6704: real time    1.6717
  RMM-DIIS:  cpu time    4.4790: real time    4.4804
    ORTHCH:  cpu time    0.3947: real time    0.3949
       DOS:  cpu time    0.0016: real time    0.0016
    CHARGE:  cpu time    0.3097: real time    0.3099
    MIXING:  cpu time    0.0027: real time    0.0027
    --------------------------------------------
      LOOP:  cpu time    6.9150: real time    6.9207

 eigenvalue-minimisations  :  3679
 total energy-change (2. order) : 0.3975750E+01  (-0.4874196E+00)
 number of electron     503.9998356 magnetization 
 augmentation part      197.8365929 magnetization 

 DIPCOR: dipole corrections for dipol
 direction  3 min pos     1,
 dipolmoment           0.000000      0.000000      0.253472 electrons x Angstroem
 Tr[quadrupol]    -10280.777178

 energy correction for charged system         0.000000 eV
 dipol+quadrupol energy correction           -0.002264 eV
 added-field ion interaction          0.120357 eV  (added to PSCEN)


 Broyden mixing:
  rms(total) = 0.79278E+00    rms(broyden)= 0.79264E+00
  rms(prec ) = 0.89061E+00
  weight for this iteration     100.00

 eigenvalues of (default mixing * dielectric matrix)
  average eigenvalue GAMMA=   0.6921
  2.2583  0.5933  0.5933  0.5818  0.2260  0.2961  0.2961

 Free energy of the ion-electron system (eV)
  ---------------------------------------------------
  alpha Z        PSCENC =       805.98745778
  Ewald energy   TEWEN  =    199922.16181888
  -Hartree energ DENC   =   -241975.31501421
  -exchange      EXHF   =         0.00000000
  -V(xc)+E(xc)   XCENC  =      -345.07151229
  PAW double counting   =     49186.20298821   -47273.92417799
  entropy T*S    EENTRO =        -0.21935989
  eigenvalues    EBANDS =     -2169.86132869
  atomic energy  EATOM  =     41659.78587232
  Solvation  Ediel_sol  =         0.00000000
  ---------------------------------------------------
  free energy    TOTEN  =      -190.25325588 eV

  energy without entropy =     -190.03389599  energy(sigma->0) =     -190.14357593


--------------------------------------------------------------------------------------------------------




----------------------------------------- Iteration    1(  13)  ---------------------------------------


    POTLOK:  cpu time    0.0499: real time    0.0506
    SETDIJ:  cpu time    0.0060: real time    0.0060
    EDDIAG:  cpu time    1.6619: real time    1.6622
  RMM-DIIS:  cpu time    4.4422: real time    4.5202
    ORTHCH:  cpu time    0.3948: real time    0.3949
       DOS:  cpu time    0.0017: real time    0.0017
    CHARGE:  cpu time    0.3025: real time    0.3025
    MIXING:  cpu time    0.0028: real time    0.0028
    --------------------------------------------
      LOOP:  cpu time    6.8626: real time    6.9442

 eigenvalue-minimisations  :  3680
 total energy-change (2. order) : 0.3335467E+00  (-0.1165957E+00)
 number of electron     503.9998357 magnetization 
 augmentation part      197.5960991 magnetization 

 DIPCOR: dipole corrections for dipol
 direction  3 min pos     1,
 dipolmoment           0.000000      0.000000      0.163017 electrons x Angstroem
 Tr[quadrupol]    -10281.119991

 energy correction for charged system         0.000000 eV
 dipol+quadrupol energy correction           -0.000936 eV
 added-field ion interaction          0.077406 eV  (added to PSCEN)


 Broyden mixing:
  rms(total) = 0.62358E+00    rms(broyden)= 0.62347E+00
  rms(prec ) = 0.68841E+00
  weight for this iteration     100.00

 eigenvalues of (default mixing * dielectric matrix)
  average eigenvalue GAMMA=   0.7164
  2.2408  0.8407  0.8407  0.6989  0.3097  0.3097  0.2331  0.2573

 Free energy of the ion-electron system (eV)
  ---------------------------------------------------
  alpha Z        PSCENC =       805.94583428
  Ewald energy   TEWEN  =    199922.16181888
  -Hartree energ DENC   =   -241994.76872275
  -exchange      EXHF   =         0.00000000
  -V(xc)+E(xc)   XCENC  =      -344.85855021
  PAW double counting   =     49217.37624840   -47303.75385424
  entropy T*S    EENTRO =        -0.21624881
  eigenvalues    EBANDS =     -2151.59210707
  atomic energy  EATOM  =     41659.78587232
  Solvation  Ediel_sol  =         0.00000000
  ---------------------------------------------------
  free energy    TOTEN  =      -189.91970922 eV

  energy without entropy =     -189.70346041  energy(sigma->0) =     -189.81158481


--------------------------------------------------------------------------------------------------------




----------------------------------------- Iteration    1(  14)  ---------------------------------------


    POTLOK:  cpu time    0.0496: real time    0.0496
    SETDIJ:  cpu time    0.0061: real time    0.0061
    EDDIAG:  cpu time    1.6476: real time    1.6482
  RMM-DIIS:  cpu time    4.5458: real time    4.5472
    ORTHCH:  cpu time    0.3944: real time    0.3946
       DOS:  cpu time    0.0017: real time    0.0017
    CHARGE:  cpu time    0.3002: real time    0.3002
    MIXING:  cpu time    0.0029: real time    0.0029
    --------------------------------------------
      LOOP:  cpu time    6.9492: real time    6.9527

 eigenvalue-minimisations  :  3682
 total energy-change (2. order) : 0.5760791E-01  (-0.5079817E-01)
 number of electron     503.9998360 magnetization 
 augmentation part      197.4062947 magnetization 

 DIPCOR: dipole corrections for dipol
 direction  3 min pos     1,
 dipolmoment           0.000000      0.000000      0.142473 electrons x Angstroem
 Tr[quadrupol]    -10281.282293

 energy correction for charged system         0.000000 eV
 dipol+quadrupol energy correction           -0.000715 eV
 added-field ion interaction          0.067651 eV  (added to PSCEN)


 Broyden mixing:
  rms(total) = 0.58639E+00    rms(broyden)= 0.58630E+00
  rms(prec ) = 0.67399E+00
  weight for this iteration     100.00

 eigenvalues of (default mixing * dielectric matrix)
  average eigenvalue GAMMA=   0.7397
  2.2525  1.1093  1.1093  0.6976  0.3715  0.3715  0.2644  0.2644  0.2172

 Free energy of the ion-electron system (eV)
  ---------------------------------------------------
  alpha Z        PSCENC =       805.93630019
  Ewald energy   TEWEN  =    199922.16181888
  -Hartree energ DENC   =   -242009.49833282
  -exchange      EXHF   =         0.00000000
  -V(xc)+E(xc)   XCENC  =      -344.53229528
  PAW double counting   =     49226.33812318   -47310.51379511
  entropy T*S    EENTRO =        -0.22237633
  eigenvalues    EBANDS =     -2139.31741633
  atomic energy  EATOM  =     41659.78587232
  Solvation  Ediel_sol  =         0.00000000
  ---------------------------------------------------
  free energy    TOTEN  =      -189.86210131 eV

  energy without entropy =     -189.63972498  energy(sigma->0) =     -189.75091314


--------------------------------------------------------------------------------------------------------




----------------------------------------- Iteration    1(  15)  ---------------------------------------


    POTLOK:  cpu time    0.0495: real time    0.0496
    SETDIJ:  cpu time    0.0060: real time    0.0060
    EDDIAG:  cpu time    1.6591: real time    1.6596
  RMM-DIIS:  cpu time    4.5895: real time    4.5915
    ORTHCH:  cpu time    0.3945: real time    0.3949
       DOS:  cpu time    0.0017: real time    0.0017
    CHARGE:  cpu time    0.2980: real time    0.2980
    MIXING:  cpu time    0.0032: real time    0.0032
    --------------------------------------------
      LOOP:  cpu time    7.0024: real time    7.0100

 eigenvalue-minimisations  :  3680
 total energy-change (2. order) : 0.1962008E-01  (-0.3740691E-01)
 number of electron     503.9998360 magnetization 
 augmentation part      197.3073916 magnetization 

 DIPCOR: dipole corrections for dipol
 direction  3 min pos     1,
 dipolmoment           0.000000      0.000000      0.101098 electrons x Angstroem
 Tr[quadrupol]    -10281.749135

 energy correction for charged system         0.000000 eV
 dipol+quadrupol energy correction           -0.000360 eV
 added-field ion interaction          0.048005 eV  (added to PSCEN)


 Broyden mixing:
  rms(total) = 0.51070E+00    rms(broyden)= 0.51064E+00
  rms(prec ) = 0.59229E+00
  weight for this iteration     100.00

 eigenvalues of (default mixing * dielectric matrix)
  average eigenvalue GAMMA=   0.7526
  2.1910  1.3552  1.3552  0.6622  0.4733  0.4733  0.2809  0.2809  0.2344  0.2198

 Free energy of the ion-electron system (eV)
  ---------------------------------------------------
  alpha Z        PSCENC =       805.91700906
  Ewald energy   TEWEN  =    199922.16181888
  -Hartree energ DENC   =   -242031.43865473
  -exchange      EXHF   =         0.00000000
  -V(xc)+E(xc)   XCENC  =      -344.29716753
  PAW double counting   =     49249.94102983   -47332.22385105
  entropy T*S    EENTRO =        -0.20915445
  eigenvalues    EBANDS =     -2119.47938355
  atomic energy  EATOM  =     41659.78587232
  Solvation  Ediel_sol  =         0.00000000
  ---------------------------------------------------
  free energy    TOTEN  =      -189.84248123 eV

  energy without entropy =     -189.63332678  energy(sigma->0) =     -189.73790400


--------------------------------------------------------------------------------------------------------




----------------------------------------- Iteration    1(  16)  ---------------------------------------


    POTLOK:  cpu time    0.0498: real time    0.0499
    SETDIJ:  cpu time    0.0061: real time    0.0061
    EDDIAG:  cpu time    1.6900: real time    1.6920
  RMM-DIIS:  cpu time    4.5360: real time    4.5388
    ORTHCH:  cpu time    0.3948: real time    0.3949
       DOS:  cpu time    0.0016: real time    0.0016
    CHARGE:  cpu time    0.3083: real time    0.3085
    MIXING:  cpu time    0.0034: real time    0.0034
    --------------------------------------------
      LOOP:  cpu time    6.9908: real time    6.9983

 eigenvalue-minimisations  :  3679
 total energy-change (2. order) : 0.2721311E+00  (-0.2075464E-01)
 number of electron     503.9998361 magnetization 
 augmentation part      197.2129475 magnetization 

 DIPCOR: dipole corrections for dipol
 direction  3 min pos     1,
 dipolmoment           0.000000      0.000000      0.115893 electrons x Angstroem
 Tr[quadrupol]    -10282.018175

 energy correction for charged system         0.000000 eV
 dipol+quadrupol energy correction           -0.000473 eV
 added-field ion interaction          0.055030 eV  (added to PSCEN)


 Broyden mixing:
  rms(total) = 0.26555E+00    rms(broyden)= 0.26546E+00
  rms(prec ) = 0.30554E+00
  weight for this iteration     100.00

 eigenvalues of (default mixing * dielectric matrix)
  average eigenvalue GAMMA=   0.7545
  2.2119  1.5203  1.5203  0.5921  0.5921  0.5058  0.3231  0.3231  0.2468  0.2468
  0.2173

 Free energy of the ion-electron system (eV)
  ---------------------------------------------------
  alpha Z        PSCENC =       805.92392107
  Ewald energy   TEWEN  =    199922.16181888
  -Hartree energ DENC   =   -242048.83860889
  -exchange      EXHF   =         0.00000000
  -V(xc)+E(xc)   XCENC  =      -343.99874442
  PAW double counting   =     49252.71418234   -47332.86062475
  entropy T*S    EENTRO =        -0.22531066
  eigenvalues    EBANDS =     -2104.23285604
  atomic energy  EATOM  =     41659.78587232
  Solvation  Ediel_sol  =         0.00000000
  ---------------------------------------------------
  free energy    TOTEN  =      -189.57035016 eV

  energy without entropy =     -189.34503950  energy(sigma->0) =     -189.45769483


--------------------------------------------------------------------------------------------------------




----------------------------------------- Iteration    1(  17)  ---------------------------------------


    POTLOK:  cpu time    0.0499: real time    0.0499
    SETDIJ:  cpu time    0.0060: real time    0.0060
    EDDIAG:  cpu time    1.6244: real time    1.7345
  RMM-DIIS:  cpu time    4.1607: real time    4.7328
    ORTHCH:  cpu time    0.3958: real time    0.3961
       DOS:  cpu time    0.0016: real time    0.0016
    CHARGE:  cpu time    0.3011: real time    0.3013
    MIXING:  cpu time    0.0037: real time    0.0037
    --------------------------------------------
      LOOP:  cpu time    6.5439: real time    7.2292

 eigenvalue-minimisations  :  3681
 total energy-change (2. order) : 0.5162874E-01  (-0.1207707E-01)
 number of electron     503.9998362 magnetization 
 augmentation part      197.1609007 magnetization 

 DIPCOR: dipole corrections for dipol
 direction  3 min pos     1,
 dipolmoment           0.000000      0.000000      0.081611 electrons x Angstroem
 Tr[quadrupol]    -10282.308763

 energy correction for charged system         0.000000 eV
 dipol+quadrupol energy correction           -0.000235 eV
 added-field ion interaction          0.038752 eV  (added to PSCEN)


 Broyden mixing:
  rms(total) = 0.18351E+00    rms(broyden)= 0.18344E+00
  rms(prec ) = 0.20953E+00
  weight for this iteration     100.00

 eigenvalues of (default mixing * dielectric matrix)
  average eigenvalue GAMMA=   0.7519
  2.1926  1.6369  1.6369  0.6861  0.6861  0.5163  0.3449  0.3449  0.2689  0.2689
  0.2267  0.2140

 Free energy of the ion-electron system (eV)
  ---------------------------------------------------
  alpha Z        PSCENC =       805.90788127
  Ewald energy   TEWEN  =    199922.16181888
  -Hartree energ DENC   =   -242062.51997964
  -exchange      EXHF   =         0.00000000
  -V(xc)+E(xc)   XCENC  =      -343.87843510
  PAW double counting   =     49267.60894039   -47346.80440297
  entropy T*S    EENTRO =        -0.22861818
  eigenvalues    EBANDS =     -2091.55179839
  atomic energy  EATOM  =     41659.78587232
  Solvation  Ediel_sol  =         0.00000000
  ---------------------------------------------------
  free energy    TOTEN  =      -189.51872142 eV

  energy without entropy =     -189.29010324  energy(sigma->0) =     -189.40441233


--------------------------------------------------------------------------------------------------------




----------------------------------------- Iteration    1(  18)  ---------------------------------------


    POTLOK:  cpu time    0.0501: real time    0.0509
    SETDIJ:  cpu time    0.0062: real time    0.0062
    EDDIAG:  cpu time    1.6525: real time    1.6544
  RMM-DIIS:  cpu time    4.5768: real time    4.5794
    ORTHCH:  cpu time    0.3937: real time    0.3938
       DOS:  cpu time    0.0015: real time    0.0015
    CHARGE:  cpu time    0.2990: real time    0.3167
    MIXING:  cpu time    0.0037: real time    0.0038
    --------------------------------------------
      LOOP:  cpu time    6.9844: real time    7.0091

 eigenvalue-minimisations  :  3678
 total energy-change (2. order) : 0.3661099E-01  (-0.4417985E-02)
 number of electron     503.9998363 magnetization 
 augmentation part      197.0823088 magnetization 

 DIPCOR: dipole corrections for dipol
 direction  3 min pos     1,
 dipolmoment           0.000000      0.000000      0.072669 electrons x Angstroem
 Tr[quadrupol]    -10282.495563

 energy correction for charged system         0.000000 eV
 dipol+quadrupol energy correction           -0.000186 eV
 added-field ion interaction          0.034506 eV  (added to PSCEN)


 Broyden mixing:
  rms(total) = 0.83931E-01    rms(broyden)= 0.83868E-01
  rms(prec ) = 0.92561E-01
  weight for this iteration     100.00

 eigenvalues of (default mixing * dielectric matrix)
  average eigenvalue GAMMA=   0.7261
  2.2131  1.6433  1.6433  0.6978  0.6978  0.4954  0.3926  0.3926  0.2954  0.2954
  0.2388  0.2232  0.2101

 Free energy of the ion-electron system (eV)
  ---------------------------------------------------
  alpha Z        PSCENC =       805.90368399
  Ewald energy   TEWEN  =    199922.16181888
  -Hartree energ DENC   =   -242072.89553108
  -exchange      EXHF   =         0.00000000
  -V(xc)+E(xc)   XCENC  =      -343.74614197
  PAW double counting   =     49278.54010380   -47356.88243343
  entropy T*S    EENTRO =        -0.22640218
  eigenvalues    EBANDS =     -2082.12308074
  atomic energy  EATOM  =     41659.78587232
  Solvation  Ediel_sol  =         0.00000000
  ---------------------------------------------------
  free energy    TOTEN  =      -189.48211044 eV

  energy without entropy =     -189.25570825  energy(sigma->0) =     -189.36890934


--------------------------------------------------------------------------------------------------------




----------------------------------------- Iteration    1(  19)  ---------------------------------------


    POTLOK:  cpu time    0.0498: real time    0.0513
    SETDIJ:  cpu time    0.0061: real time    0.0062
    EDDIAG:  cpu time    1.6180: real time    1.6654
  RMM-DIIS:  cpu time    4.5906: real time    4.5943
    ORTHCH:  cpu time    0.3948: real time    0.3950
       DOS:  cpu time    0.0016: real time    0.0016
    CHARGE:  cpu time    0.2960: real time    0.2960
    MIXING:  cpu time    0.0038: real time    0.0038
    --------------------------------------------
      LOOP:  cpu time    6.9615: real time    7.0178

 eigenvalue-minimisations  :  3680
 total energy-change (2. order) : 0.6300107E-02  (-0.7685483E-03)
 number of electron     503.9998363 magnetization 
 augmentation part      197.0661886 magnetization 

 DIPCOR: dipole corrections for dipol
 direction  3 min pos     1,
 dipolmoment           0.000000      0.000000      0.071840 electrons x Angstroem
 Tr[quadrupol]    -10282.564163

 energy correction for charged system         0.000000 eV
 dipol+quadrupol energy correction           -0.000182 eV
 added-field ion interaction          0.034112 eV  (added to PSCEN)


 Broyden mixing:
  rms(total) = 0.54605E-01    rms(broyden)= 0.54590E-01
  rms(prec ) = 0.58445E-01
  weight for this iteration     100.00

 eigenvalues of (default mixing * dielectric matrix)
  average eigenvalue GAMMA=   0.7335
  2.2646  1.6532  1.6532  0.7968  0.7968  0.5486  0.5486  0.4590  0.3066  0.3066
  0.2511  0.2511  0.2223  0.2107

 Free energy of the ion-electron system (eV)
  ---------------------------------------------------
  alpha Z        PSCENC =       805.90329473
  Ewald energy   TEWEN  =    199922.16181888
  -Hartree energ DENC   =   -242075.72893164
  -exchange      EXHF   =         0.00000000
  -V(xc)+E(xc)   XCENC  =      -343.72399600
  PAW double counting   =     49282.52252750   -47360.76918091
  entropy T*S    EENTRO =        -0.22780121
  eigenvalues    EBANDS =     -2079.39941399
  atomic energy  EATOM  =     41659.78587232
  Solvation  Ediel_sol  =         0.00000000
  ---------------------------------------------------
  free energy    TOTEN  =      -189.47581033 eV

  energy without entropy =     -189.24800912  energy(sigma->0) =     -189.36190972


--------------------------------------------------------------------------------------------------------




----------------------------------------- Iteration    1(  20)  ---------------------------------------


    POTLOK:  cpu time    0.0503: real time    0.0507
    SETDIJ:  cpu time    0.0060: real time    0.0060
    EDDIAG:  cpu time    1.6693: real time    1.6705
  RMM-DIIS:  cpu time    4.5825: real time    4.5839
    ORTHCH:  cpu time    0.3940: real time    0.3942
       DOS:  cpu time    0.0016: real time    0.0016
    CHARGE:  cpu time    0.3086: real time    0.3086
    MIXING:  cpu time    0.0042: real time    0.0042
    --------------------------------------------
      LOOP:  cpu time    7.0174: real time    7.0232

 eigenvalue-minimisations  :  3681
 total energy-change (2. order) :-0.1524977E-03  (-0.3535741E-03)
 number of electron     503.9998363 magnetization 
 augmentation part      197.0632003 magnetization 

 DIPCOR: dipole corrections for dipol
 direction  3 min pos     1,
 dipolmoment           0.000000      0.000000      0.067937 electrons x Angstroem
 Tr[quadrupol]    -10282.663569

 energy correction for charged system         0.000000 eV
 dipol+quadrupol energy correction           -0.000163 eV
 added-field ion interaction          0.032259 eV  (added to PSCEN)


 Broyden mixing:
  rms(total) = 0.55001E-01    rms(broyden)= 0.54993E-01
  rms(prec ) = 0.60568E-01
  weight for this iteration     100.00

 eigenvalues of (default mixing * dielectric matrix)
  average eigenvalue GAMMA=   0.7618
  2.2573  1.7784  1.7784  0.9212  0.9212  0.8954  0.5178  0.5178  0.3239  0.3239
  0.2600  0.2600  0.2452  0.2193  0.2068

 Free energy of the ion-electron system (eV)
  ---------------------------------------------------
  alpha Z        PSCENC =       805.90146041
  Ewald energy   TEWEN  =    199922.16181888
  -Hartree energ DENC   =   -242079.47725216
  -exchange      EXHF   =         0.00000000
  -V(xc)+E(xc)   XCENC  =      -343.71415058
  PAW double counting   =     49287.46886432   -47365.72506610
  entropy T*S    EENTRO =        -0.22855015
  eigenvalues    EBANDS =     -2075.64895976
  atomic energy  EATOM  =     41659.78587232
  Solvation  Ediel_sol  =         0.00000000
  ---------------------------------------------------
  free energy    TOTEN  =      -189.47596283 eV

  energy without entropy =     -189.24741268  energy(sigma->0) =     -189.36168775


--------------------------------------------------------------------------------------------------------




----------------------------------------- Iteration    1(  21)  ---------------------------------------


    POTLOK:  cpu time    0.0502: real time    0.0501
    SETDIJ:  cpu time    0.0061: real time    0.0061
    EDDIAG:  cpu time    1.6550: real time    1.6555
  RMM-DIIS:  cpu time    4.5911: real time    4.5926
    ORTHCH:  cpu time    0.3936: real time    0.3938
       DOS:  cpu time    0.0016: real time    0.0016
    CHARGE:  cpu time    0.3007: real time    0.3007
    MIXING:  cpu time    0.0041: real time    0.0041
    --------------------------------------------
      LOOP:  cpu time    7.0030: real time    7.0077

 eigenvalue-minimisations  :  3681
 total energy-change (2. order) : 0.8728867E-03  (-0.4297404E-03)
 number of electron     503.9998363 magnetization 
 augmentation part      197.0479374 magnetization 

 DIPCOR: dipole corrections for dipol
 direction  3 min pos     1,
 dipolmoment           0.000000      0.000000      0.064074 electrons x Angstroem
 Tr[quadrupol]    -10282.817619

 energy correction for charged system         0.000000 eV
 dipol+quadrupol energy correction           -0.000145 eV
 added-field ion interaction          0.030425 eV  (added to PSCEN)


 Broyden mixing:
  rms(total) = 0.47857E-01    rms(broyden)= 0.47846E-01
  rms(prec ) = 0.54172E-01
  weight for this iteration     100.00

 eigenvalues of (default mixing * dielectric matrix)
  average eigenvalue GAMMA=   0.7875
  2.3182  2.0438  2.0438  1.2337  0.8175  0.8175  0.5761  0.5761  0.3494  0.3494
  0.2929  0.2929  0.2427  0.2280  0.2148  0.2032

 Free energy of the ion-electron system (eV)
  ---------------------------------------------------
  alpha Z        PSCENC =       805.89964421
  Ewald energy   TEWEN  =    199922.16181888
  -Hartree energ DENC   =   -242085.97120357
  -exchange      EXHF   =         0.00000000
  -V(xc)+E(xc)   XCENC  =      -343.67593417
  PAW double counting   =     49291.75938708   -47369.91269296
  entropy T*S    EENTRO =        -0.22589224
  eigenvalues    EBANDS =     -2069.29608949
  atomic energy  EATOM  =     41659.78587232
  Solvation  Ediel_sol  =         0.00000000
  ---------------------------------------------------
  free energy    TOTEN  =      -189.47508994 eV

  energy without entropy =     -189.24919770  energy(sigma->0) =     -189.36214382


--------------------------------------------------------------------------------------------------------




----------------------------------------- Iteration    1(  22)  ---------------------------------------


    POTLOK:  cpu time    0.0502: real time    0.0502
    SETDIJ:  cpu time    0.0060: real time    0.0060
    EDDIAG:  cpu time    1.6435: real time    1.6440
  RMM-DIIS:  cpu time    4.5905: real time    4.5922
    ORTHCH:  cpu time    0.3944: real time    0.3946
       DOS:  cpu time    0.0017: real time    0.0017
    CHARGE:  cpu time    0.2983: real time    0.2983
    MIXING:  cpu time    0.0042: real time    0.0042
    --------------------------------------------
      LOOP:  cpu time    6.9896: real time    6.9935

 eigenvalue-minimisations  :  3679
 total energy-change (2. order) : 0.1891789E-02  (-0.2926963E-03)
 number of electron     503.9998363 magnetization 
 augmentation part      197.0404226 magnetization 

 DIPCOR: dipole corrections for dipol
 direction  3 min pos     1,
 dipolmoment           0.000000      0.000000      0.055789 electrons x Angstroem
 Tr[quadrupol]    -10282.981147

 energy correction for charged system         0.000000 eV
 dipol+quadrupol energy correction           -0.000110 eV
 added-field ion interaction          0.026491 eV  (added to PSCEN)


 Broyden mixing:
  rms(total) = 0.22847E-01    rms(broyden)= 0.22836E-01
  rms(prec ) = 0.26240E-01
  weight for this iteration     100.00

 eigenvalues of (default mixing * dielectric matrix)
  average eigenvalue GAMMA=   0.7782
  2.2732  1.9919  1.9919  1.4849  0.7904  0.7904  0.6539  0.6539  0.4606  0.3412
  0.3208  0.3208  0.2597  0.2529  0.2272  0.2143  0.2007

 Free energy of the ion-electron system (eV)
  ---------------------------------------------------
  alpha Z        PSCENC =       805.89574537
  Ewald energy   TEWEN  =    199922.16181888
  -Hartree energ DENC   =   -242092.46987896
  -exchange      EXHF   =         0.00000000
  -V(xc)+E(xc)   XCENC  =      -343.65025973
  PAW double counting   =     49294.89063748   -47372.99431376
  entropy T*S    EENTRO =        -0.22849632
  eigenvalues    EBANDS =     -2062.86432342
  atomic energy  EATOM  =     41659.78587232
  Solvation  Ediel_sol  =         0.00000000
  ---------------------------------------------------
  free energy    TOTEN  =      -189.47319815 eV

  energy without entropy =     -189.24470183  energy(sigma->0) =     -189.35894999


--------------------------------------------------------------------------------------------------------




----------------------------------------- Iteration    1(  23)  ---------------------------------------


    POTLOK:  cpu time    0.0503: real time    0.0503
    SETDIJ:  cpu time    0.0060: real time    0.0060
    EDDIAG:  cpu time    1.6469: real time    1.6475
  RMM-DIIS:  cpu time    4.5946: real time    4.5962
    ORTHCH:  cpu time    0.3931: real time    0.3934
       DOS:  cpu time    0.0016: real time    0.0016
    CHARGE:  cpu time    0.2962: real time    0.2964
    MIXING:  cpu time    0.0045: real time    0.0045
    --------------------------------------------
      LOOP:  cpu time    6.9942: real time    6.9981

 eigenvalue-minimisations  :  3678
 total energy-change (2. order) : 0.3717187E-03  (-0.1142921E-03)
 number of electron     503.9998363 magnetization 
 augmentation part      197.0352792 magnetization 

 DIPCOR: dipole corrections for dipol
 direction  3 min pos     1,
 dipolmoment           0.000000      0.000000      0.055707 electrons x Angstroem
 Tr[quadrupol]    -10283.050115

 energy correction for charged system         0.000000 eV
 dipol+quadrupol energy correction           -0.000109 eV
[...]
   0.995E+01 -.840E+01 -.227E+04   -.105E+02 0.899E+01 0.227E+04   0.517E+00 -.606E+00 0.933E-01   0.322E-02 -.655E-02 0.393E-02
   0.721E+01 -.204E+01 -.229E+04   -.768E+01 0.157E+01 0.229E+04   0.460E+00 0.472E+00 0.343E+00   -.375E-02 0.156E-02 -.135E-02
   -.715E+01 0.394E+01 -.191E+02   0.697E+01 -.370E+01 0.195E+02   0.174E+00 -.248E+00 -.453E+00   -.555E-02 -.583E-02 -.427E-02
   -.897E+01 0.157E+02 0.226E+04   0.925E+01 -.164E+02 -.226E+04   -.259E+00 0.673E+00 -.846E-01   0.281E-02 -.385E-02 -.666E-02
   -.106E+02 -.143E+01 0.221E+04   0.110E+02 0.147E+01 -.221E+04   -.410E+00 -.404E-01 -.436E+00   -.233E-02 0.328E-02 -.997E-02
   0.582E+01 -.195E+01 -.891E+01   -.556E+01 0.175E+01 0.992E+01   -.258E+00 0.188E+00 -.101E+01   -.638E-02 0.124E-01 -.167E-02
   -.129E+02 0.220E+01 0.225E+04   0.140E+02 -.288E+01 -.225E+04   -.110E+01 0.682E+00 -.313E+00   -.444E-04 0.104E-02 -.619E-02
   -.139E+02 0.994E+01 0.225E+04   0.146E+02 -.101E+02 -.225E+04   -.800E+00 0.170E+00 0.401E-01   0.143E-02 -.323E-02 -.497E-02
   0.967E+01 0.480E+01 -.186E+02   -.952E+01 -.456E+01 0.192E+02   -.145E+00 -.258E+00 -.590E+00   0.476E-02 -.104E-01 -.876E-02
   0.125E+01 -.913E+01 -.310E+02   -.722E+00 0.835E+01 0.310E+02   -.505E+00 0.781E+00 -.758E-02   -.603E-02 -.855E-02 -.728E-02
   -.102E+02 0.710E+01 -.227E+04   0.107E+02 -.621E+01 0.227E+04   -.484E+00 -.916E+00 0.430E+00   -.375E-02 0.782E-02 -.328E-03
   0.892E+00 -.137E+02 0.224E+04   -.102E+01 0.149E+02 -.224E+04   0.152E+00 -.114E+01 -.243E+00   -.264E-02 0.724E-02 -.262E-03
   -.734E+01 0.716E+01 -.222E+04   0.729E+01 -.822E+01 0.222E+04   0.543E-01 0.104E+01 0.484E+00   -.298E-02 0.668E-02 0.113E-01
   0.428E+01 -.685E+01 0.221E+04   -.440E+01 0.653E+01 -.221E+04   0.100E+00 0.295E+00 -.401E+00   -.319E-02 0.321E-02 -.601E-02
   0.319E+01 -.546E+01 -.228E+04   -.288E+01 0.563E+01 0.228E+04   -.323E+00 -.159E+00 0.138E+00   0.759E-02 -.226E-02 -.513E-02
   -.147E+01 0.681E+01 -.226E+04   0.109E+01 -.655E+01 0.226E+04   0.385E+00 -.277E+00 0.467E+00   0.481E-02 0.424E-02 -.368E-02
   -.443E+01 0.182E+01 -.235E+04   0.474E+01 -.230E+01 0.235E+04   -.316E+00 0.475E+00 -.156E-01   -.204E-02 -.566E-02 -.112E-01
   0.106E+02 -.149E+02 0.221E+04   -.111E+02 0.158E+02 -.221E+04   0.453E+00 -.900E+00 -.510E+00   0.629E-03 0.692E-02 -.575E-02
   0.978E+01 -.114E+02 0.223E+04   -.104E+02 0.117E+02 -.223E+04   0.644E+00 -.274E+00 -.368E+00   0.272E-02 0.184E-02 -.611E-02
   -.151E+01 0.706E+01 -.400E+02   0.131E+01 -.634E+01 0.394E+02   0.182E+00 -.707E+00 0.564E+00   0.248E-02 -.753E-02 -.847E-02
   -.354E+01 -.378E+01 -.545E+02   0.308E+01 0.320E+01 0.541E+02   0.445E+00 0.594E+00 0.448E+00   0.531E-02 -.108E-01 -.128E-01
   -.952E+01 -.113E+01 -.290E+02   0.936E+01 0.157E+01 0.290E+02   0.148E+00 -.434E+00 -.265E-01   0.645E-02 0.460E-02 -.781E-02
   0.464E+01 0.432E+01 0.224E+04   -.488E+01 -.441E+01 -.224E+04   0.251E+00 0.132E+00 -.294E+00   -.126E-02 0.113E-02 -.734E-03
   0.188E+01 -.110E+02 -.368E+02   -.190E+01 0.103E+02 0.368E+02   0.237E-01 0.745E+00 0.574E-01   0.380E-02 0.372E-02 -.906E-02
   0.746E+01 0.323E+01 -.199E+04   -.786E+01 -.336E+01 0.198E+04   0.404E+00 0.134E+00 0.164E+01   0.567E-02 0.176E-02 0.223E-03
   0.635E+01 -.903E+00 -.361E+01   -.633E+01 0.127E+01 0.398E+01   -.198E-01 -.380E+00 -.369E+00   -.102E-02 0.318E-02 -.696E-02
   -.142E+01 -.166E+00 0.197E+04   0.105E+01 0.367E+00 -.197E+04   0.361E+00 -.211E+00 -.144E+01   0.562E-03 -.200E-02 -.103E-01
   0.106E+02 -.953E+01 -.201E+04   -.108E+02 0.967E+01 0.201E+04   0.240E+00 -.123E+00 0.144E+01   0.720E-02 -.542E-02 -.156E-03
   0.276E+01 -.472E+01 -.395E+01   -.297E+01 0.486E+01 0.435E+01   0.217E+00 -.130E+00 -.390E+00   0.464E-02 -.371E-02 -.441E-02
   -.541E+01 0.767E+01 0.196E+04   0.533E+01 -.764E+01 -.196E+04   0.934E-01 0.469E-02 -.158E+01   0.220E-02 -.697E-02 -.111E-01
   -.780E+01 0.853E+01 0.197E+04   0.787E+01 -.870E+01 -.197E+04   -.722E-01 0.162E+00 -.144E+01   0.379E-02 -.412E-02 -.841E-02
   -.107E+01 -.677E+01 0.195E+04   0.119E+01 0.691E+01 -.194E+04   -.114E+00 -.115E+00 -.171E+01   0.381E-02 0.371E-02 -.950E-02
   -.343E+01 0.102E+01 -.242E+02   0.342E+01 -.109E+01 0.241E+02   0.201E-01 0.489E-01 0.287E-01   0.509E-03 0.105E-01 -.371E-02
   -.441E+01 0.301E+01 -.135E+02   0.437E+01 -.323E+01 0.139E+02   0.529E-01 0.229E+00 -.411E+00   -.896E-02 0.453E-02 -.562E-02
   -.763E+01 -.282E+01 -.200E+04   0.749E+01 0.307E+01 0.200E+04   0.167E+00 -.257E+00 0.151E+01   -.402E-02 -.299E-02 0.165E-02
   -.728E+01 -.253E+00 -.199E+04   0.742E+01 0.134E+00 0.199E+04   -.133E+00 0.132E+00 0.160E+01   0.123E-02 -.292E-03 0.723E-03
   0.507E+01 0.961E+00 -.198E+04   -.475E+01 -.155E+01 0.198E+04   -.330E+00 0.596E+00 0.184E+01   -.350E-03 0.395E-02 0.869E-02
   0.344E+01 0.437E+01 -.377E+02   -.322E+01 -.447E+01 0.373E+02   -.227E+00 0.115E+00 0.469E+00   0.727E-02 0.137E-02 -.100E-01
   0.791E+00 -.117E+02 -.200E+04   -.615E+00 0.121E+02 0.200E+04   -.187E+00 -.452E+00 0.176E+01   -.807E-03 -.341E-02 0.433E-02
   0.299E+01 -.287E+01 0.152E+02   -.297E+01 0.307E+01 -.143E+02   -.291E-01 -.181E+00 -.950E+00   -.282E-02 0.312E-02 -.173E-02
   0.711E+01 -.232E+01 0.197E+04   -.715E+01 0.238E+01 -.197E+04   0.420E-01 -.665E-01 -.145E+01   -.196E-02 -.326E-02 -.450E-02
   0.895E+01 0.495E+01 0.196E+04   -.915E+01 -.521E+01 -.196E+04   0.176E+00 0.242E+00 -.144E+01   -.627E-02 -.373E-02 -.357E-02
   -.503E+01 0.442E+01 -.199E+04   0.509E+01 -.431E+01 0.199E+04   -.539E-01 -.121E+00 0.168E+01   0.380E-02 -.141E-02 -.103E-01
   -.775E+00 0.121E+02 -.109E+02   0.641E+00 -.120E+02 0.113E+02   0.144E+00 -.158E+00 -.366E+00   -.142E-02 0.325E-02 -.757E-02
   -.472E+01 -.185E+01 0.189E+02   0.508E+01 0.203E+01 -.179E+02   -.345E+00 -.187E+00 -.951E+00   -.239E-02 0.233E-03 -.156E-02
   0.370E+01 0.111E+01 -.198E+04   -.333E+01 -.984E+00 0.198E+04   -.384E+00 -.131E+00 0.191E+01   -.626E-02 0.484E-02 0.272E-02
   -.484E+01 0.792E+01 -.198E+04   0.481E+01 -.808E+01 0.198E+04   0.374E-01 0.154E+00 0.150E+01   -.621E-02 0.635E-03 -.629E-02
 -----------------------------------------------------------------------------------------------
   0.109E+00 -.204E-01 -.116E+01   0.666E-13 0.135E-12 0.296E-11   -.113E+00 0.371E-01 0.133E+01   0.399E-03 -.822E-03 -.206E+00
 
 
 POSITION                                       TOTAL-FORCE (eV/Angst)
 -----------------------------------------------------------------------------------
      1.35446      0.77914      9.69569        -0.016539      0.015900      0.023065
      9.61294      2.39586     14.75959        -0.006653     -0.017899     -0.012904
      9.60450      7.13430     14.77861        -0.010528      0.006367     -0.033399
      9.62943      8.73609     12.25730        -0.013315     -0.016534      0.010073
     11.01961      7.92264      9.71302         0.023227     -0.033956      0.014168
      9.64300      5.55846      9.78494        -0.000836      0.001706      0.008876
      6.87589      3.96880     12.24955        -0.001935      0.003495      0.007947
      8.28380      3.16353      9.72301         0.030707      0.007011      0.001315
      6.90383      0.78415      9.71627        -0.001319     -0.004837     -0.007417
     12.37887      8.73794     12.26018         0.014561     -0.027665      0.009532
      6.88044      8.71981     12.26583         0.016325     -0.007373      0.001984
      5.52350      4.78597     14.74992         0.012481     -0.018699     -0.035425
      6.87601      5.59776      9.73750         0.024953      0.031552      0.010905
      4.12886      2.35532     14.68257         0.007404     -0.006610     -0.034699
      5.50182      3.18461      9.74857        -0.025387     -0.022561     -0.019784
     12.37877      7.15535     14.77871        -0.008142      0.001180     -0.002132
      2.74379      4.76461     14.75649         0.000904     -0.012049     -0.001910
      0.00734     -0.01354     14.87908        -0.009307     -0.004385     -0.017112
      4.10993      5.59046      9.79568        -0.019941      0.023129      0.019806
      2.72497      3.19034      9.75022         0.009701     -0.010704      0.005162
     10.99700      1.60091     12.26935        -0.017661     -0.002534     -0.008769
     15.12639      8.72371     12.28609        -0.009945     -0.000587      0.001388
     12.38231      3.98260     12.26423        -0.005924      0.009713      0.011349
      4.11869      0.78204      9.70991         0.001297      0.043404     -0.018893
     10.98929      6.33975     12.27674         0.004920      0.012061     -0.001968
     10.99113      4.75688     14.62868         0.008244      0.007033      0.013536
      9.61859      3.97706     12.23479        -0.000588     -0.006019      0.002653
     11.00104      3.17769      9.86884        -0.007104     -0.012403      0.001322
      8.24578      0.00668     14.65634        -0.005696      0.011630      0.018111
      8.24136      1.60348     12.23591         0.011193      0.008772     -0.000718
      9.63447      0.78172      9.88892         0.008741      0.019453     -0.004819
     13.76769      7.94730      9.88477         0.007517     -0.013648      0.015367
     12.38096      5.56577      9.90620         0.000577      0.022676      0.004729
      4.12362      3.96890     12.26103         0.010036     -0.009721     -0.013887
      8.25807      6.33671     12.24964        -0.002608      0.012845      0.002093
      2.74558      0.00538     14.63731         0.020317     -0.012300     -0.003747
      1.37189      2.36943     14.64140         0.001848      0.012091      0.013678
      6.88487      2.35804     14.59954        -0.014603      0.012694     -0.017551
     13.76127      6.33886     12.27564        -0.003181      0.016749      0.002998
      5.50543      0.00283     14.63401        -0.010957      0.012171     -0.002518
      5.49127      1.59867     12.22033        -0.008477      0.018375     -0.009500
      5.49471      7.95495      9.88751         0.005383     -0.010215     -0.001180
      8.25365      7.94133      9.86645        -0.034077     -0.023415     -0.016287
      4.12774      7.15908     14.64202         0.010387     -0.010875      0.034209
      5.49306      6.33081     12.24564         0.008508     -0.018988      0.023215
      2.76421      1.59763     12.21651         0.010793     -0.006240      0.001385
      8.25939      4.76052     14.61376        -0.021716      0.003253     -0.012434
      6.87396      7.14698     14.61855         0.006416     -0.003046      0.018185
 -----------------------------------------------------------------------------------
    total drift:                               -0.003470      0.015935     -0.034537


--------------------------------------------------------------------------------------------------------



  FREE ENERGIE OF THE ION-ELECTRON SYSTEM (eV)
  ---------------------------------------------------
  free  energy   TOTEN  =      -192.87592672 eV

  energy  without entropy=     -192.65438810  energy(sigma->0) =     -192.76515741
 
 d Force = 0.4409918E-03[ 0.480E-04, 0.834E-03]  d Energy = 0.4708911E-03-0.299E-04
 d Force =-0.1919595E+02[-0.191E+02,-0.193E+02]  d Ewald  =-0.1919596E+02 0.555E-05


--------------------------------------------------------------------------------------------------------


    POTLOK:  cpu time    0.0581: real time    0.0590


--------------------------------------------------------------------------------------------------------


 stress matrix after NEB project (eV)
      0.00000      0.00000      0.00000
      0.00000      0.00000      0.00000
      0.00000      0.00000      0.00000
  FORCES: max atom, RMS     0.047356    0.025519
  FORCE total and by dimension    0.176798    0.043404
  Stress total and by dimension    0.000000    0.000000


--------------------------------------------------------------------------------------------------------


    WAVPRE:  cpu time    0.0215: real time    0.0215
 FEWALD executed in parallel
    FEWALD:  cpu time    0.0011: real time    0.0011

 real space projection operators:
  total allocation   :      12826.69 KBytes
  max/ min on nodes  :       2144.39       2132.72

    ORTHCH:  cpu time    0.9324: real time    0.9326
     LOOP+:  cpu time   79.3957: real time   79.6013


----------------------------------------- Iteration   19(   1)  ---------------------------------------


    POTLOK:  cpu time    0.0507: real time    0.0507
    SETDIJ:  cpu time    0.0061: real time    0.0061
     EDDAV:  cpu time    9.7888: real time    9.7972
       DOS:  cpu time    0.0017: real time    0.0017
    CHARGE:  cpu time    0.2967: real time    0.2967
    MIXING:  cpu time    0.0017: real time    0.0017
    --------------------------------------------
      LOOP:  cpu time   10.1484: real time   10.1671

 eigenvalue-minimisations  :  3672
 total energy-change (2. order) : 0.2520785E-02  (-0.4529385E+00)
 number of electron     503.9999257 magnetization 
 augmentation part      197.2951342 magnetization 

 DIPCOR: dipole corrections for dipol
 direction  3 min pos     1,
 dipolmoment           0.000000      0.000000      0.025478 electrons x Angstroem
 Tr[quadrupol]    -10260.071636

 energy correction for charged system         0.000000 eV
 dipol+quadrupol energy correction           -0.000023 eV
 added-field ion interaction          0.013108 eV  (added to PSCEN)


  free energy =  -0.192873406933E+03  energy without entropy=  -0.192651684845E+03


--------------------------------------------------------------------------------------------------------




----------------------------------------- Iteration   19(   2)  ---------------------------------------


    POTLOK:  cpu time    0.0517: real time    0.0517
    SETDIJ:  cpu time    0.0061: real time    0.0061
    EDDIAG:  cpu time    1.6598: real time    1.6603
  RMM-DIIS:  cpu time    4.5109: real time    4.5174
    ORTHCH:  cpu time    0.4013: real time    0.4013
       DOS:  cpu time    0.0017: real time    0.0017
    CHARGE:  cpu time    0.3057: real time    0.3059
    MIXING:  cpu time    0.0018: real time    0.0018
    --------------------------------------------
      LOOP:  cpu time    6.9399: real time    6.9500

 eigenvalue-minimisations  :  3680
 total energy-change (2. order) :-0.5282677E-02  (-0.5127412E-02)
 number of electron     503.9999257 magnetization 
 augmentation part      197.2977489 magnetization 

 DIPCOR: dipole corrections for dipol
 direction  3 min pos     1,
 dipolmoment           0.000000      0.000000      0.028859 electrons x Angstroem
 Tr[quadrupol]    -10260.081627

 energy correction for charged system         0.000000 eV
 dipol+quadrupol energy correction           -0.000029 eV
 added-field ion interaction          0.014847 eV  (added to PSCEN)


 eigenvalues of (default mixing * dielectric matrix)
  average eigenvalue GAMMA=   0.3290
  0.3290

  free energy =  -0.192878689609E+03  energy without entropy=  -0.192656789887E+03


--------------------------------------------------------------------------------------------------------




----------------------------------------- Iteration   19(   3)  ---------------------------------------


    POTLOK:  cpu time    0.0508: real time    0.0508
    SETDIJ:  cpu time    0.0060: real time    0.0060
    EDDIAG:  cpu time    1.6736: real time    1.6742
  RMM-DIIS:  cpu time    4.4727: real time    4.4745
    ORTHCH:  cpu time    0.4049: real time    0.4049
       DOS:  cpu time    0.0016: real time    0.0016
    CHARGE:  cpu time    0.2997: real time    0.2997
    MIXING:  cpu time    0.0020: real time    0.0020
    --------------------------------------------
      LOOP:  cpu time    6.9121: real time    6.9160

 eigenvalue-minimisations  :  3744
 total energy-change (2. order) : 0.2176843E-03  (-0.3534843E-03)
 number of electron     503.9999257 magnetization 
 augmentation part      197.2990157 magnetization 

 DIPCOR: dipole corrections for dipol
 direction  3 min pos     1,
 dipolmoment           0.000000      0.000000      0.021998 electrons x Angstroem
 Tr[quadrupol]    -10260.075725

 energy correction for charged system         0.000000 eV
 dipol+quadrupol energy correction           -0.000017 eV
 added-field ion interaction          0.011318 eV  (added to PSCEN)


 eigenvalues of (default mixing * dielectric matrix)
  average eigenvalue GAMMA=   0.3264
  0.4483  0.2045

  free energy =  -0.192878471925E+03  energy without entropy=  -0.192656587410E+03


--------------------------------------------------------------------------------------------------------




----------------------------------------- Iteration   19(   4)  ---------------------------------------


    POTLOK:  cpu time    0.0509: real time    0.0509
    SETDIJ:  cpu time    0.0061: real time    0.0061
    EDDIAG:  cpu time    1.6655: real time    1.6667
  RMM-DIIS:  cpu time    4.3804: real time    4.4558
    ORTHCH:  cpu time    0.4025: real time    0.4030
       DOS:  cpu time    0.0016: real time    0.0016
    CHARGE:  cpu time    0.3000: real time    0.3000
    MIXING:  cpu time    0.0022: real time    0.0022
    --------------------------------------------
      LOOP:  cpu time    6.8100: real time    6.8901

 eigenvalue-minimisations  :  3676
 total energy-change (2. order) : 0.2194250E-03  (-0.3833424E-04)
 number of electron     503.9999257 magnetization 
 augmentation part      197.2966009 magnetization 

 DIPCOR: dipole corrections for dipol
 direction  3 min pos     1,
 dipolmoment           0.000000      0.000000      0.028291 electrons x Angstroem
 Tr[quadrupol]    -10260.073434

 energy correction for charged system         0.000000 eV
 dipol+quadrupol energy correction           -0.000028 eV
 added-field ion interaction          0.014555 eV  (added to PSCEN)


 eigenvalues of (default mixing * dielectric matrix)
  average eigenvalue GAMMA=   0.3162
  0.4018  0.4018  0.1449

  free energy =  -0.192878252500E+03  energy without entropy=  -0.192656575614E+03


--------------------------------------------------------------------------------------------------------




----------------------------------------- Iteration   19(   5)  ---------------------------------------


    POTLOK:  cpu time    0.0510: real time    0.0511
    SETDIJ:  cpu time    0.0067: real time    0.0067
    EDDIAG:  cpu time    1.6525: real time    1.6531
  RMM-DIIS:  cpu time    4.9664: real time    5.0006
    ORTHCH:  cpu time    0.4072: real time    0.4072
       DOS:  cpu time    0.0017: real time    0.0017
    CHARGE:  cpu time    0.2957: real time    0.2957
    MIXING:  cpu time    0.0023: real time    0.0023
    --------------------------------------------
      LOOP:  cpu time    7.3843: real time    7.4205

 eigenvalue-minimisations  :  3687
 total energy-change (2. order) : 0.1420734E-03  (-0.1134063E-04)
 number of electron     503.9999257 magnetization 
 augmentation part      197.2976715 magnetization 

 DIPCOR: dipole corrections for dipol
 direction  3 min pos     1,
 dipolmoment           0.000000      0.000000      0.025358 electrons x Angstroem
 Tr[quadrupol]    -10260.075956

 energy correction for charged system         0.000000 eV
 dipol+quadrupol energy correction           -0.000023 eV
 added-field ion interaction          0.013046 eV  (added to PSCEN)


 eigenvalues of (default mixing * dielectric matrix)
  average eigenvalue GAMMA=   0.6274
  1.0663  1.0663  0.2430  0.1340

  free energy =  -0.192878110427E+03  energy without entropy=  -0.192656215782E+03


--------------------------------------------------------------------------------------------------------




----------------------------------------- Iteration   19(   6)  ---------------------------------------


    POTLOK:  cpu time    0.0508: real time    0.0509
    SETDIJ:  cpu time    0.0062: real time    0.0063
    EDDIAG:  cpu time    1.6667: real time    1.6676
