       N       E                     dE             d eps       ncg     rms          rms(c)
DAV:   1     0.320066137740E+04    0.32007E+04   -0.18977E+05  3672   0.112E+03
DAV:   2     0.160856247154E+02   -0.31846E+04   -0.29347E+04  4392   0.263E+02
DAV:   3    -0.200317411287E+03   -0.21640E+03   -0.20090E+03  4128   0.651E+01
DAV:   4    -0.206107193652E+03   -0.57898E+01   -0.57243E+01  4248   0.108E+01
DAV:   5    -0.206294417279E+03   -0.18722E+00   -0.18668E+00  4380   0.198E+00    0.622E+01
RMM:   6    -0.196703188555E+03    0.95912E+01   -0.88540E+01  3678   0.149E+01    0.499E+01
RMM:   7    -0.197751453735E+03   -0.10483E+01   -0.46491E+01  3684   0.119E+01    0.322E+01
RMM:   8    -0.208477231785E+03   -0.10726E+02   -0.49013E+01  3678   0.110E+01    0.325E+01
RMM:   9    -0.201679700883E+03    0.67975E+01   -0.23988E+01  3678   0.729E+00    0.273E+01
RMM:  10    -0.192068485976E+03    0.96112E+01   -0.10765E+01  3679   0.524E+00    0.130E+01
RMM:  11    -0.189450707706E+03    0.26178E+01   -0.49895E+00  3678   0.349E+00    0.644E+00
RMM:  12    -0.189172342942E+03    0.27836E+00   -0.15849E+00  3684   0.197E+00    0.501E+00
RMM:  13    -0.189088089520E+03    0.84253E-01   -0.46475E-01  3680   0.109E+00    0.377E+00
RMM:  14    -0.189070558344E+03    0.17531E-01   -0.30836E-01  3681   0.875E-01    0.299E+00
RMM:  15    -0.189006467783E+03    0.64091E-01   -0.10319E-01  3679   0.488E-01    0.201E+00
RMM:  16    -0.188971015834E+03    0.35452E-01   -0.39994E-02  3679   0.307E-01    0.130E+00
RMM:  17    -0.188966249913E+03    0.47659E-02   -0.33913E-02  3679   0.285E-01    0.108E+00
RMM:  18    -0.188954757165E+03    0.11493E-01   -0.87303E-03  3681   0.145E-01    0.488E-01
RMM:  19    -0.188953723889E+03    0.10333E-02   -0.30581E-03  3679   0.866E-02    0.378E-01
RMM:  20    -0.188952800474E+03    0.92341E-03   -0.17461E-03  3679   0.630E-02    0.267E-01
RMM:  21    -0.188952297427E+03    0.50305E-03   -0.96254E-04  3680   0.461E-02    0.209E-01
RMM:  22    -0.188952123882E+03    0.17354E-03   -0.39643E-04  3678   0.288E-02    0.132E-01
RMM:  23    -0.188952209611E+03   -0.85729E-04   -0.24613E-04  3684   0.228E-02    0.677E-02
RMM:  24    -0.188952550145E+03   -0.34053E-03   -0.13696E-04  3679   0.172E-02    0.427E-02
RMM:  25    -0.188952897434E+03   -0.34729E-03   -0.62403E-05  3678   0.114E-02    0.342E-02
RMM:  26    -0.188953493783E+03   -0.59635E-03   -0.53349E-05  3672   0.952E-03    0.374E-02
RMM:  27    -0.188954132256E+03   -0.63847E-03   -0.41632E-05  3672   0.904E-03    0.254E-02
RMM:  28    -0.188954689349E+03   -0.55709E-03   -0.30298E-05  3672   0.763E-03    0.164E-02
RMM:  29    -0.188955138141E+03   -0.44879E-03   -0.21576E-05  3322   0.617E-03    0.134E-02
RMM:  30    -0.188955511917E+03   -0.37378E-03   -0.21404E-05  3258   0.619E-03    0.932E-03
RMM:  31    -0.188955645211E+03   -0.13329E-03   -0.70838E-06  2745   0.335E-03    0.519E-03
RMM:  32    -0.188955727172E+03   -0.81961E-04   -0.31296E-06  2507   0.239E-03    0.440E-03
RMM:  33    -0.188955787034E+03   -0.59862E-04   -0.10932E-06  2183   0.152E-03    0.244E-03
RMM:  34    -0.188955823247E+03   -0.36213E-04   -0.59693E-07  2137   0.111E-03    0.202E-03
RMM:  35    -0.188955856484E+03   -0.33236E-04   -0.61372E-07  2152   0.117E-03    0.124E-03
RMM:  36    -0.188955863916E+03   -0.74320E-05   -0.17772E-07  1337   0.574E-04    0.839E-04
RMM:  37    -0.188955872220E+03   -0.83041E-05   -0.21728E-07  2042   0.703E-04    0.513E-04
RMM:  38    -0.188955873242E+03   -0.10223E-05   -0.46284E-08   813   0.328E-04    0.372E-04
RMM:  39    -0.188955873654E+03   -0.41226E-06   -0.13191E-08   569   0.322E-04
   1 F= -.18895587E+03 E0= -.18883276E+03  d E =-.188956E+03
       N       E                     dE             d eps       ncg     rms          rms(c)
DAV:   1    -0.189501231765E+03   -0.54536E+00   -0.18949E+02  3696   0.211E+01    0.227E+00
RMM:   2    -0.189707362408E+03   -0.20613E+00   -0.20360E+00  3681   0.306E+00    0.180E+00
RMM:   3    -0.189850667662E+03   -0.14331E+00   -0.20647E-01  3711   0.763E-01    0.364E+00
RMM:   4    -0.189702569575E+03    0.14810E+00   -0.92229E-02  3688   0.477E-01    0.154E+00
RMM:   5    -0.189688701758E+03    0.13868E-01   -0.44657E-02  3683   0.342E-01    0.861E-01
RMM:   6    -0.189685384222E+03    0.33175E-02   -0.15399E-02  3688   0.204E-01    0.545E-01
RMM:   7    -0.189683441363E+03    0.19429E-02   -0.57656E-03  3684   0.121E-01    0.406E-01
RMM:   8    -0.189681822537E+03    0.16188E-02   -0.19828E-03  3684   0.699E-02    0.183E-01
RMM:   9    -0.189681580567E+03    0.24197E-03   -0.87603E-04  3684   0.468E-02    0.132E-01
RMM:  10    -0.189681430381E+03    0.15019E-03   -0.39481E-04  3684   0.309E-02    0.793E-02
RMM:  11    -0.189681375606E+03    0.54774E-04   -0.99753E-05  3689   0.159E-02    0.380E-02
RMM:  12    -0.189681375564E+03    0.42113E-07   -0.24736E-05  3679   0.799E-03    0.292E-02
RMM:  13    -0.189681368069E+03    0.74948E-05   -0.11344E-05  3585   0.553E-03    0.108E-02
RMM:  14    -0.189681368157E+03   -0.88039E-07   -0.35394E-06  2635   0.307E-03
   2 F= -.18968137E+03 E0= -.18955885E+03  d E =-.725495E+00
       N       E                     dE             d eps       ncg     rms          rms(c)
DAV:   1    -0.189016316798E+03    0.66505E+00   -0.14960E+03  3672   0.600E+01    0.528E+00
RMM:   2    -0.190545452936E+03   -0.15291E+01   -0.15723E+01  3681   0.853E+00    0.348E+00
RMM:   3    -0.191075822373E+03   -0.53037E+00   -0.11447E+00  3709   0.183E+00    0.667E+00
RMM:   4    -0.190512005505E+03    0.56382E+00   -0.38056E-01  3688   0.988E-01    0.322E+00
RMM:   5    -0.190465598384E+03    0.46407E-01   -0.18812E-01  3684   0.688E-01    0.228E+00
RMM:   6    -0.190447032788E+03    0.18566E-01   -0.13909E-01  3684   0.593E-01    0.167E+00
RMM:   7    -0.190429594967E+03    0.17438E-01   -0.51097E-02  3684   0.359E-01    0.125E+00
RMM:   8    -0.190414582034E+03    0.15013E-01   -0.18389E-02  3683   0.214E-01    0.532E-01
RMM:   9    -0.190411797108E+03    0.27849E-02   -0.68309E-03  3682   0.130E-01    0.331E-01
RMM:  10    -0.190410936627E+03    0.86048E-03   -0.24786E-03  3683   0.763E-02    0.229E-01
RMM:  11    -0.190410536098E+03    0.40053E-03   -0.74011E-04  3686   0.427E-02    0.129E-01
RMM:  12    -0.190410468927E+03    0.67171E-04   -0.28007E-04  3688   0.268E-02    0.701E-02
RMM:  13    -0.190410438382E+03    0.30545E-04   -0.11035E-04  3681   0.170E-02    0.326E-02
RMM:  14    -0.190410437145E+03    0.12377E-05   -0.26639E-05  3678   0.841E-03    0.206E-02
RMM:  15    -0.190410436170E+03    0.97432E-06   -0.91993E-06  3405   0.493E-03
   3 F= -.19041044E+03 E0= -.19028968E+03  d E =-.145456E+01
       N       E                     dE             d eps       ncg     rms          rms(c)
DAV:   1    -0.190769808678E+03   -0.35937E+00   -0.30169E+02  3672   0.268E+01    0.195E+00
RMM:   2    -0.191098699696E+03   -0.32889E+00   -0.31464E+00  3683   0.385E+00    0.191E+00
RMM:   3    -0.191190810269E+03   -0.92111E-01   -0.23369E-01  3718   0.829E-01    0.348E+00
RMM:   4    -0.191064584797E+03    0.12623E+00   -0.45783E-02  3679   0.369E-01    0.116E+00
RMM:   5    -0.191062119439E+03    0.24654E-02   -0.28124E-02  3684   0.273E-01    0.108E+00
RMM:   6    -0.191054955194E+03    0.71642E-02   -0.35732E-02  3684   0.300E-01    0.613E-01
RMM:   7    -0.191052425462E+03    0.25297E-02   -0.10617E-02  3684   0.162E-01    0.447E-01
RMM:   8    -0.191050517390E+03    0.19081E-02   -0.25340E-03  3688   0.819E-02    0.233E-01
RMM:   9    -0.191050054553E+03    0.46284E-03   -0.94779E-04  3683   0.492E-02    0.143E-01
RMM:  10    -0.191049861230E+03    0.19332E-03   -0.35649E-04  3684   0.295E-02    0.875E-02
RMM:  11    -0.191049805681E+03    0.55550E-04   -0.14752E-04  3684   0.190E-02    0.637E-02
RMM:  12    -0.191049784632E+03    0.21049E-04   -0.11996E-04  3687   0.169E-02    0.392E-02
RMM:  13    -0.191049775510E+03    0.91221E-05   -0.39440E-05  3681   0.990E-03    0.175E-02
RMM:  14    -0.191049776264E+03   -0.75442E-06   -0.54565E-06  2910   0.390E-03
   4 F= -.19104978E+03 E0= -.19093072E+03  d E =-.639340E+00
       N       E                     dE             d eps       ncg     rms          rms(c)
DAV:   1    -0.189560528231E+03    0.14892E+01   -0.28183E+03  3672   0.838E+01    0.512E+00
RMM:   2    -0.192241487997E+03   -0.26810E+01   -0.27514E+01  3683   0.115E+01    0.374E+00
RMM:   3    -0.192817479444E+03   -0.57599E+00   -0.15175E+00  3709   0.213E+00    0.748E+00
RMM:   4    -0.192140677147E+03    0.67680E+00   -0.28057E-01  3676   0.892E-01    0.329E+00
RMM:   5    -0.192112274625E+03    0.28403E-01   -0.14021E-01  3684   0.601E-01    0.299E+00
RMM:   6    -0.192063615835E+03    0.48659E-01   -0.30311E-01  3684   0.860E-01    0.217E+00
RMM:   7    -0.192044293373E+03    0.19322E-01   -0.14518E-01  3684   0.598E-01    0.169E+00
RMM:   8    -0.192013585649E+03    0.30708E-01   -0.33865E-02  3687   0.298E-01    0.624E-01
RMM:   9    -0.192010712837E+03    0.28728E-02   -0.85952E-03  3683   0.148E-01    0.503E-01
RMM:  10    -0.192008301023E+03    0.24118E-02   -0.34119E-03  3681   0.932E-02    0.311E-01
RMM:  11    -0.192007418980E+03    0.88204E-03   -0.29198E-03  3684   0.826E-02    0.196E-01
RMM:  12    -0.192007140892E+03    0.27809E-03   -0.15447E-03  3682   0.609E-02    0.117E-01
RMM:  13    -0.192007114250E+03    0.26642E-04   -0.41413E-04  3685   0.323E-02    0.883E-02
RMM:  14    -0.192007039318E+03    0.74932E-04   -0.91893E-05  3688   0.158E-02    0.333E-02
RMM:  15    -0.192007032544E+03    0.67744E-05   -0.22324E-05  3674   0.760E-03    0.223E-02
RMM:  16    -0.192007031811E+03    0.73235E-06   -0.15395E-05  3676   0.616E-03    0.100E-02
RMM:  17    -0.192007038018E+03   -0.62069E-05   -0.43082E-06  2809   0.333E-03    0.632E-03
RMM:  18    -0.192007042881E+03   -0.48632E-05   -0.11928E-06  2094   0.202E-03    0.251E-03
RMM:  19    -0.192007047214E+03   -0.43330E-05   -0.34193E-07  2036   0.102E-03    0.227E-03
RMM:  20    -0.192007051052E+03   -0.38376E-05   -0.16465E-07  1965   0.669E-04    0.106E-03
RMM:  21    -0.192007055174E+03   -0.41220E-05   -0.90223E-08  1197   0.478E-04    0.118E-03
RMM:  22    -0.192007059094E+03   -0.39203E-05   -0.11464E-07  1529   0.513E-04    0.125E-03
RMM:  23    -0.192007064383E+03   -0.52883E-05   -0.18423E-07  1601   0.572E-04    0.977E-04
RMM:  24    -0.192007066587E+03   -0.22044E-05   -0.11620E-07  1348   0.464E-04    0.745E-04
RMM:  25    -0.192007068322E+03   -0.17355E-05   -0.10159E-07  1098   0.426E-04    0.431E-04
RMM:  26    -0.192007068924E+03   -0.60132E-06   -0.34337E-08   712   0.376E-04
   5 F= -.19200707E+03 E0= -.19189284E+03  d E =-.159663E+01
       N       E                     dE             d eps       ncg     rms          rms(c)
DAV:   1    -0.191901690912E+03    0.10538E+00   -0.15604E+02  3672   0.192E+01    0.114E+00
RMM:   2    -0.192071924151E+03   -0.17023E+00   -0.16524E+00  3683   0.280E+00    0.123E+00
RMM:   3    -0.192103367620E+03   -0.31443E-01   -0.10951E-01  3723   0.576E-01    0.214E+00
RMM:   4    -0.192057457723E+03    0.45910E-01   -0.16840E-02  3677   0.228E-01    0.750E-01
RMM:   5    -0.192055539309E+03    0.19184E-02   -0.69969E-03  3684   0.138E-01    0.689E-01
RMM:   6    -0.192052240338E+03    0.32990E-02   -0.19586E-02  3684   0.219E-01    0.468E-01
RMM:   7    -0.192051136698E+03    0.11036E-02   -0.82902E-03  3684   0.142E-01    0.328E-01
RMM:   8    -0.192050089215E+03    0.10475E-02   -0.14717E-03  3688   0.621E-02    0.163E-01
RMM:   9    -0.192049830658E+03    0.25856E-03   -0.50028E-04  3680   0.358E-02    0.103E-01
RMM:  10    -0.192049702744E+03    0.12791E-03   -0.21925E-04  3681   0.229E-02    0.577E-02
RMM:  11    -0.192049685003E+03    0.17741E-04   -0.90493E-05  3682   0.147E-02    0.461E-02
RMM:  12    -0.192049668647E+03    0.16357E-04   -0.87888E-05  3684   0.143E-02    0.246E-02
RMM:  13    -0.192049666448E+03    0.21989E-05   -0.21078E-05  3679   0.722E-03    0.142E-02
RMM:  14    -0.192049665296E+03    0.11520E-05   -0.26168E-06  2313   0.286E-03    0.805E-03
RMM:  15    -0.192049664981E+03    0.31445E-06   -0.97118E-07  2012   0.180E-03
   6 F= -.19204966E+03 E0= -.19193650E+03  d E =-.163923E+01
       N       E                     dE             d eps       ncg     rms          rms(c)
DAV:   1    -0.192052645605E+03   -0.29803E-02   -0.24113E+02  3672   0.241E+01    0.190E+00
RMM:   2    -0.192357979101E+03   -0.30533E+00   -0.27711E+00  3684   0.351E+00    0.236E+00
RMM:   3    -0.192422987758E+03   -0.65009E-01   -0.23162E-01  3701   0.789E-01    0.337E+00
RMM:   4    -0.192314373279E+03    0.10861E+00   -0.48431E-02  3686   0.367E-01    0.154E+00
RMM:   5    -0.192298921166E+03    0.15452E-01   -0.19335E-02  3684   0.228E-01    0.862E-01
RMM:   6    -0.192297514713E+03    0.14065E-02   -0.29513E-02  3684   0.267E-01    0.669E-01
RMM:   7    -0.192294003169E+03    0.35115E-02   -0.13250E-02  3684   0.181E-01    0.392E-01
RMM:   8    -0.192292226162E+03    0.17770E-02   -0.20579E-03  3687   0.729E-02    0.168E-01
RMM:   9    -0.192291954908E+03    0.27125E-03   -0.67196E-04  3682   0.415E-02    0.103E-01
RMM:  10    -0.192291863489E+03    0.91419E-04   -0.21083E-04  3682   0.223E-02    0.659E-02
RMM:  11    -0.192291830836E+03    0.32653E-04   -0.84103E-05  3686   0.143E-02    0.424E-02
RMM:  12    -0.192291817608E+03    0.13228E-04   -0.80872E-05  3683   0.137E-02    0.245E-02
RMM:  13    -0.192291814953E+03    0.26548E-05   -0.22057E-05  3678   0.737E-03    0.142E-02
RMM:  14    -0.192291814928E+03    0.25102E-07   -0.36555E-06  2676   0.323E-03
   7 F= -.19229181E+03 E0= -.19217869E+03  d E =-.242150E+00
       N       E                     dE             d eps       ncg     rms          rms(c)
DAV:   1    -0.192275383956E+03    0.16431E-01   -0.35185E+01  3720   0.918E+00    0.698E-01
RMM:   2    -0.192319579541E+03   -0.44196E-01   -0.40658E-01  3684   0.135E+00    0.884E-01
RMM:   3    -0.192328912587E+03   -0.93330E-02   -0.33258E-02  3703   0.300E-01    0.130E+00
RMM:   4    -0.192312915640E+03    0.15997E-01   -0.64429E-03  3685   0.135E-01    0.522E-01
RMM:   5    -0.192311468092E+03    0.14475E-02   -0.26165E-03  3684   0.840E-02    0.337E-01
RMM:   6    -0.192311199289E+03    0.26880E-03   -0.45090E-03  3684   0.105E-01    0.235E-01
RMM:   7    -0.192310752781E+03    0.44651E-03   -0.17205E-03  3684   0.652E-02    0.120E-01
RMM:   8    -0.192310581338E+03    0.17144E-03   -0.25250E-04  3687   0.255E-02    0.614E-02
RMM:   9    -0.192310544395E+03    0.36943E-04   -0.85455E-05  3681   0.148E-02    0.383E-02
RMM:  10    -0.192310532401E+03    0.11994E-04   -0.28325E-05  3678   0.814E-03    0.241E-02
RMM:  11    -0.192310527934E+03    0.44673E-05   -0.11294E-05  3664   0.522E-03    0.140E-02
RMM:  12    -0.192310527518E+03    0.41618E-06   -0.12360E-05  3676   0.533E-03    0.861E-03
RMM:  13    -0.192310527623E+03   -0.10558E-06   -0.28389E-06  2360   0.279E-03
   8 F= -.19231053E+03 E0= -.19219745E+03  d E =-.260863E+00
       N       E                     dE             d eps       ncg     rms          rms(c)
DAV:   1    -0.192309209918E+03    0.13176E-02   -0.29906E+01  3684   0.846E+00    0.609E-01
RMM:   2    -0.192347020937E+03   -0.37811E-01   -0.34520E-01  3684   0.124E+00    0.797E-01
RMM:   3    -0.192353071227E+03   -0.60503E-02   -0.26803E-02  3705   0.270E-01    0.111E+00
RMM:   4    -0.192341242020E+03    0.11829E-01   -0.49776E-03  3686   0.119E-01    0.420E-01
RMM:   5    -0.192340345679E+03    0.89634E-03   -0.18157E-03  3684   0.706E-02    0.285E-01
RMM:   6    -0.192340687568E+03   -0.34189E-03   -0.37657E-03  3684   0.960E-02    0.301E-01
RMM:   7    -0.192339870226E+03    0.81734E-03   -0.19728E-03  3684   0.697E-02    0.111E-01
RMM:   8    -0.192339777853E+03    0.92373E-04   -0.29406E-04  3687   0.273E-02    0.763E-02
RMM:   9    -0.192339706588E+03    0.71265E-04   -0.97725E-05  3681   0.158E-02    0.353E-02
RMM:  10    -0.192339696275E+03    0.10313E-04   -0.24349E-05  3678   0.762E-03    0.238E-02
RMM:  11    -0.192339690683E+03    0.55914E-05   -0.13752E-05  3672   0.565E-03    0.146E-02
RMM:  12    -0.192339689516E+03    0.11678E-05   -0.10960E-05  3672   0.500E-03    0.111E-02
RMM:  13    -0.192339688914E+03    0.60170E-06   -0.56554E-06  3174   0.370E-03
   9 F= -.19233969E+03 E0= -.19222698E+03  d E =-.291613E-01
       N       E                     dE             d eps       ncg     rms          rms(c)
DAV:   1    -0.192338143234E+03    0.15463E-02   -0.33004E+00  3744   0.281E+00    0.203E-01
RMM:   2    -0.192342340555E+03   -0.41973E-02   -0.38202E-02  3684   0.413E-01    0.277E-01
RMM:   3    -0.192342873776E+03   -0.53322E-03   -0.29960E-03  3705   0.901E-02    0.365E-01
RMM:   4    -0.192341599637E+03    0.12741E-02   -0.54288E-04  3685   0.394E-02    0.137E-01
RMM:   5    -0.192341539887E+03    0.59750E-04   -0.20670E-04  3684   0.238E-02    0.962E-02
RMM:   6    -0.192341614263E+03   -0.74376E-04   -0.42654E-04  3683   0.324E-02    0.104E-01
RMM:   7    -0.192341518818E+03    0.95445E-04   -0.21501E-04  3684   0.231E-02    0.341E-02
RMM:   8    -0.192341512232E+03    0.65864E-05   -0.31658E-05  3680   0.897E-03    0.252E-02
RMM:   9    -0.192341504367E+03    0.78653E-05   -0.10540E-05  3667   0.518E-03    0.112E-02
RMM:  10    -0.192341503360E+03    0.10066E-05   -0.23432E-06  2199   0.248E-03    0.781E-03
RMM:  11    -0.192341502837E+03    0.52278E-06   -0.16352E-06  1974   0.226E-03
  10 F= -.19234150E+03 E0= -.19222893E+03  d E =-.309752E-01
       N       E                     dE             d eps       ncg     rms          rms(c)
DAV:   1    -0.192341594428E+03   -0.91068E-04   -0.78380E+00  3684   0.433E+00    0.267E-01
RMM:   2    -0.192351040477E+03   -0.94460E-02   -0.89793E-02  3684   0.637E-01    0.362E-01
RMM:   3    -0.192351683290E+03   -0.64281E-03   -0.61328E-03  3722   0.132E-01    0.426E-01
RMM:   4    -0.192349929894E+03    0.17534E-02   -0.10842E-03  3683   0.558E-02    0.178E-01
RMM:   5    -0.192349784631E+03    0.14526E-03   -0.46913E-04  3684   0.357E-02    0.142E-01
RMM:   6    -0.192349906409E+03   -0.12178E-03   -0.10480E-03  3684   0.504E-02    0.174E-01
RMM:   7    -0.192349694045E+03    0.21236E-03   -0.64086E-04  3684   0.397E-02    0.739E-02
RMM:   8    -0.192349665684E+03    0.28361E-04   -0.10380E-04  3686   0.162E-02    0.495E-02
RMM:   9    -0.192349635232E+03    0.30452E-04   -0.32656E-05  3675   0.909E-03    0.234E-02
RMM:  10    -0.192349627977E+03    0.72553E-05   -0.14374E-05  3673   0.578E-03    0.153E-02
RMM:  11    -0.192349624482E+03    0.34946E-05   -0.10016E-05  3671   0.471E-03    0.738E-03
RMM:  12    -0.192349624327E+03    0.15495E-06   -0.64999E-06  3593   0.379E-03
  11 F= -.19234962E+03 E0= -.19223722E+03  d E =-.812149E-02
       N       E                     dE             d eps       ncg     rms          rms(c)
DAV:   1    -0.192348752712E+03    0.87177E-03   -0.14862E+00  3708   0.188E+00    0.115E-01
RMM:   2    -0.192350562778E+03   -0.18101E-02   -0.17029E-02  3684   0.277E-01    0.167E-01
RMM:   3    -0.192350601866E+03   -0.39087E-04   -0.11634E-03  3721   0.575E-02    0.177E-01
RMM:   4    -0.192350308072E+03    0.29379E-03   -0.19620E-04  3682   0.239E-02    0.772E-02
RMM:   5    -0.192350288214E+03    0.19858E-04   -0.87206E-05  3684   0.154E-02    0.626E-02
RMM:   6    -0.192350320506E+03   -0.32292E-04   -0.20417E-04  3684   0.222E-02    0.772E-02
RMM:   7    -0.192350278379E+03    0.42127E-04   -0.12641E-04  3684   0.176E-02    0.310E-02
RMM:   8    -0.192350273992E+03    0.43864E-05   -0.19031E-05  3674   0.694E-03    0.214E-02
RMM:   9    -0.192350268396E+03    0.55962E-05   -0.59671E-06  3131   0.392E-03    0.105E-02
RMM:  10    -0.192350267011E+03    0.13854E-05   -0.26416E-06  2083   0.270E-03    0.733E-03
RMM:  11    -0.192350266354E+03    0.65618E-06   -0.21292E-06  1952   0.256E-03
  12 F= -.19235027E+03 E0= -.19223794E+03  d E =-.876352E-02
       N       E                     dE             d eps       ncg     rms          rms(c)
DAV:   1    -0.192349070113E+03    0.11969E-02   -0.44805E+00  3672   0.327E+00    0.218E-01
RMM:   2    -0.192354477558E+03   -0.54074E-02   -0.51105E-02  3684   0.482E-01    0.284E-01
RMM:   3    -0.192354862047E+03   -0.38449E-03   -0.36109E-03  3720   0.102E-01    0.328E-01
RMM:   4    -0.192353942093E+03    0.91995E-03   -0.76109E-04  3685   0.457E-02    0.185E-01
RMM:   5    -0.192353722355E+03    0.21974E-03   -0.29910E-04  3684   0.285E-02    0.105E-01
RMM:   6    -0.192353829474E+03   -0.10712E-03   -0.63619E-04  3683   0.393E-02    0.134E-01
RMM:   7    -0.192353675105E+03    0.15437E-03   -0.41349E-04  3684   0.319E-02    0.510E-02
RMM:   8    -0.192353661382E+03    0.13724E-04   -0.55222E-05  3687   0.117E-02    0.374E-02
RMM:   9    -0.192353643901E+03    0.17480E-04   -0.19038E-05  3676   0.700E-03    0.168E-02
RMM:  10    -0.192353640310E+03    0.35913E-05   -0.89744E-06  3670   0.455E-03    0.115E-02
RMM:  11    -0.192353638703E+03    0.16067E-05   -0.43755E-06  2804   0.324E-03    0.622E-03
RMM:  12    -0.192353638657E+03    0.46814E-07   -0.25724E-06  2052   0.273E-03
  13 F= -.19235364E+03 E0= -.19224141E+03  d E =-.337230E-02
       N       E                     dE             d eps       ncg     rms          rms(c)
DAV:   1    -0.192353344234E+03    0.29447E-03   -0.43137E-01  3744   0.101E+00    0.665E-02
RMM:   2    -0.192353874841E+03   -0.53061E-03   -0.49318E-03  3684   0.150E-01    0.960E-02
RMM:   3    -0.192353877013E+03   -0.21726E-05   -0.34740E-04  3720   0.316E-02    0.948E-02
RMM:   4    -0.192353803742E+03    0.73272E-04   -0.69338E-05  3684   0.139E-02    0.561E-02
RMM:   5    -0.192353785950E+03    0.17792E-04   -0.28055E-05  3684   0.876E-03    0.332E-02
RMM:   6    -0.192353798871E+03   -0.12921E-04   -0.63177E-05  3681   0.124E-02    0.422E-02
RMM:   7    -0.192353783408E+03    0.15462E-04   -0.41905E-05  3682   0.101E-02    0.152E-02
RMM:   8    -0.192353782222E+03    0.11868E-05   -0.48882E-06  2833   0.355E-03    0.112E-02
RMM:   9    -0.192353780726E+03    0.14958E-05   -0.17258E-06  2075   0.231E-03    0.555E-03
RMM:  10    -0.192353780395E+03    0.33093E-06   -0.97541E-07  1943   0.170E-03
  14 F= -.19235378E+03 E0= -.19224158E+03  d E =-.351404E-02
       N       E                     dE             d eps       ncg     rms          rms(c)
DAV:   1    -0.192353562965E+03    0.21776E-03   -0.99307E-01  3684   0.154E+00    0.962E-02
RMM:   2    -0.192354799896E+03   -0.12369E-02   -0.11781E-02  3684   0.228E-01    0.141E-01
RMM:   3    -0.192354858482E+03   -0.58586E-04   -0.84045E-04  3710   0.483E-02    0.156E-01
RMM:   4    -0.192354637884E+03    0.22060E-03   -0.15049E-04  3685   0.204E-02    0.763E-02
RMM:   5    -0.192354606026E+03    0.31858E-04   -0.48407E-05  3684   0.116E-02    0.459E-02
RMM:   6    -0.192354617413E+03   -0.11387E-04   -0.10328E-04  3682   0.157E-02    0.525E-02
RMM:   7    -0.192354600327E+03    0.17086E-04   -0.10688E-04  3683   0.160E-02    0.216E-02
RMM:   8    -0.192354598101E+03    0.22260E-05   -0.12674E-05  3628   0.572E-03    0.171E-02
RMM:   9    -0.192354594176E+03    0.39249E-05   -0.36843E-06  2661   0.315E-03    0.754E-03
RMM:  10    -0.192354593711E+03    0.46463E-06   -0.12324E-06  1948   0.191E-03
  15 F= -.19235459E+03 E0= -.19224246E+03  d E =-.813317E-03
       N       E                     dE             d eps       ncg     rms          rms(c)
DAV:   1    -0.192354510436E+03    0.83740E-04   -0.98396E-02  3744   0.484E-01    0.311E-02
RMM:   2    -0.192354634135E+03   -0.12370E-03   -0.11897E-03  3684   0.721E-02    0.462E-02
RMM:   3    -0.192354638789E+03   -0.46539E-05   -0.86851E-05  3708   0.155E-02    0.504E-02
RMM:   4    -0.192354616658E+03    0.22131E-04   -0.16228E-05  3673   0.668E-03    0.255E-02
RMM:   5    -0.192354613350E+03    0.33081E-05   -0.50846E-06  2877   0.383E-03    0.141E-02
RMM:   6    -0.192354615059E+03   -0.17097E-05   -0.98400E-06  3642   0.495E-03    0.160E-02
RMM:   7    -0.192354613615E+03    0.14440E-05   -0.10271E-05  3670   0.499E-03    0.723E-03
RMM:   8    -0.192354613405E+03    0.21007E-06   -0.11738E-06  1995   0.185E-03
  16 F= -.19235461E+03 E0= -.19224249E+03  d E =-.833010E-03
       N       E                     dE             d eps       ncg     rms          rms(c)
DAV:   1    -0.192354083225E+03    0.53039E-03   -0.11097E+00  3672   0.162E+00    0.103E-01
RMM:   2    -0.192355468816E+03   -0.13856E-02   -0.13017E-02  3684   0.240E-01    0.149E-01
RMM:   3    -0.192355565471E+03   -0.96655E-04   -0.94935E-04  3708   0.510E-02    0.178E-01
RMM:   4    -0.192355264472E+03    0.30100E-03   -0.15324E-04  3683   0.209E-02    0.698E-02
RMM:   5    -0.192355250493E+03    0.13979E-04   -0.57695E-05  3684   0.126E-02    0.555E-02
RMM:   6    -0.192355259412E+03   -0.89190E-05   -0.11587E-04  3683   0.167E-02    0.579E-02
RMM:   7    -0.192355238412E+03    0.21000E-04   -0.11890E-04  3684   0.169E-02    0.203E-02
RMM:   8    -0.192355237721E+03    0.69052E-06   -0.11701E-05  3587   0.554E-03    0.181E-02
RMM:   9    -0.192355233839E+03    0.38817E-05   -0.32243E-06  2529   0.298E-03    0.871E-03
RMM:  10    -0.192355233238E+03    0.60110E-06   -0.12863E-06  1950   0.198E-03
  17 F= -.19235523E+03 E0= -.19224320E+03  d E =-.619833E-03
       N       E                     dE             d eps       ncg     rms          rms(c)
DAV:   1    -0.192355112737E+03    0.12110E-03   -0.14429E-01  3696   0.585E-01    0.379E-02
RMM:   2    -0.192355293063E+03   -0.18033E-03   -0.17174E-03  3684   0.870E-02    0.546E-02
RMM:   3    -0.192355305443E+03   -0.12380E-04   -0.12693E-04  3707   0.186E-02    0.658E-02
RMM:   4    -0.192355265221E+03    0.40222E-04   -0.21112E-05  3678   0.772E-03    0.262E-02
RMM:   5    -0.192355263837E+03    0.13835E-05   -0.75324E-06  3159   0.461E-03    0.197E-02
RMM:   6    -0.192355265980E+03   -0.21427E-05   -0.14314E-05  3671   0.594E-03    0.207E-02
RMM:   7    -0.192355263426E+03    0.25538E-05   -0.15649E-05  3674   0.615E-03    0.673E-03
RMM:   8    -0.192355263460E+03   -0.33593E-07   -0.12481E-06  2030   0.194E-03
  18 F= -.19235526E+03 E0= -.19224325E+03  d E =-.650054E-03
       N       E                     dE             d eps       ncg     rms          rms(c)
DAV:   1    -0.192355099955E+03    0.16347E-03   -0.38291E-01  3672   0.957E-01    0.578E-02
RMM:   2    -0.192355506879E+03   -0.40692E-03   -0.41663E-03  3684   0.138E-01    0.539E-02
RMM:   3    -0.192355605699E+03   -0.98820E-04   -0.26888E-04  3713   0.278E-02    0.110E-01
RMM:   4    -0.192355482322E+03    0.12338E-03   -0.45687E-05  3679   0.114E-02    0.355E-02
RMM:   5    -0.192355488405E+03   -0.60825E-05   -0.24175E-05  3683   0.796E-03    0.389E-02
RMM:   6    -0.192355484550E+03    0.38550E-05   -0.45112E-05  3682   0.105E-02    0.313E-02
RMM:   7    -0.192355477004E+03    0.75457E-05   -0.27199E-05  3681   0.822E-03    0.939E-03
RMM:   8    -0.192355477166E+03   -0.16186E-06   -0.25004E-06  2344   0.268E-03
  19 F= -.19235548E+03 E0= -.19224347E+03  d E =-.213706E-03
