unknown system                          
           1
    11.002582    0.000000    0.000000
     5.501291    9.528515    0.000000
     0.000000    0.000000   24.491785
   Au   Pd
  24  24
Direct configuration=     1
   0.83333333  0.08333333  0.40830017
   0.75000000  0.50000000  0.59169983
   0.91666667  0.41666667  0.50000000
   0.83333333  0.58333333  0.40830017
   0.08333333  0.58333333  0.40830017
   0.75000000  0.25000000  0.59169983
   0.00000000  0.50000000  0.59169983
   0.83333333  0.33333333  0.40830017
   0.75000000  0.00000000  0.59169983
   0.66666667  0.16666667  0.50000000
   0.50000000  0.25000000  0.59169983
   0.41666667  0.66666667  0.50000000
   0.16666667  0.16666667  0.50000000
   0.16666667  0.41666667  0.50000000
   0.50000000  0.75000000  0.59169983
   0.16666667  0.66666667  0.50000000
   0.33333333  0.83333333  0.40830017
   0.16666667  0.91666667  0.50000000
   0.66666667  0.91666667  0.50000000
   0.58333333  0.08333333  0.40830017
   0.50000000  0.50000000  0.59169983
   0.50000000  0.00000000  0.59169983
   0.58333333  0.33333333  0.40830017
   0.33333333  0.33333333  0.40830017
   0.08333333  0.83333333  0.40830017
   0.58333333  0.58333333  0.40830017
   0.91666667  0.91666667  0.50000000
   0.33333333  0.08333333  0.40830017
   0.41666667  0.16666667  0.50000000
   0.25000000  0.25000000  0.59169983
   0.33333333  0.58333333  0.40830017
   0.25000000  0.50000000  0.59169983
   0.91666667  0.66666667  0.50000000
   0.25000000  0.00000000  0.59169983
   0.00000000  0.25000000  0.59169983
   0.25000000  0.75000000  0.59169983
   0.00000000  0.00000000  0.59169983
   0.91666667  0.16666667  0.50000000
   0.41666667  0.41666667  0.50000000
   0.08333333  0.08333333  0.40830017
   0.83333333  0.83333333  0.40830017
   0.66666667  0.66666667  0.50000000
   0.58333333  0.83333333  0.40830017
   0.41666667  0.91666667  0.50000000
   0.66666667  0.41666667  0.50000000
   0.00000000  0.75000000  0.59169983
   0.08333333  0.33333333  0.40830017
   0.75000000  0.75000000  0.59169983
Direct configuration=     2
   0.83333333  0.08333333  0.40830017
   0.75031975  0.50019474  0.59359616
   0.91605057  0.41632981  0.49999407
   0.83333333  0.58333333  0.40830017
   0.08333333  0.58333333  0.40830017
   0.75190919  0.24943427  0.59357422
   0.00032385  0.50072270  0.59384315
   0.83333333  0.33333333  0.40830017
   0.75224227 -0.00186530  0.59387838
   0.66683266  0.16744552  0.49999984
   0.49786383  0.25108400  0.59361823
   0.41793080  0.66553728  0.49963438
   0.16754110  0.16566853  0.50001910
   0.16793374  0.41590940  0.50038728
   0.49957176  0.75096310  0.59361724
   0.16595471  0.66719887  0.50037355
   0.33333333  0.83333333  0.40830017
   0.16503781  0.91797236  0.50037303
   0.66749429  0.91414095  0.49962063
   0.58333333  0.08333333  0.40830017
   0.49884098  0.50022262  0.59360756
   0.49877845  0.00022408  0.59358463
   0.58333333  0.33333333  0.40830017
   0.33333333  0.33333333  0.40830017
   0.08333333  0.83333333  0.40830017
   0.58333333  0.58333333  0.40830017
   0.91758388  0.91588487  0.50005473
   0.33333333  0.08333333  0.40830017
   0.41562289  0.16658194  0.50000441
   0.25007832  0.24963211  0.59289640
   0.33333333  0.58333333  0.40830017
   0.24981598  0.50030228  0.59288364
   0.91558217  0.66834080  0.50020429
   0.24944000  0.00044229  0.59280100
   0.00073340  0.24890501  0.59286169
   0.24893460  0.75048740  0.59302284
   0.00047788 -0.00031934  0.59261366
   0.91737537  0.16588145  0.50022617
   0.41635246  0.41696582  0.50005141
   0.08333333  0.08333333  0.40830017
   0.83333333  0.83333333  0.40830017
   0.66647725  0.66720920  0.49968923
   0.58333333  0.83333333  0.40830017
   0.41694459  0.91729184  0.49978319
   0.66643517  0.41723470  0.49974872
   0.00021307  0.75007539  0.59263927
   0.08333333  0.33333333  0.40830017
   0.75061620  0.74971990  0.59270791
Direct configuration=     3
   0.83333333  0.08333333  0.40830017
   0.75120415  0.50073338  0.59884114
   0.91434652  0.41539813  0.49997767
   0.83333333  0.58333333  0.40830017
   0.08333333  0.58333333  0.40830017
   0.75718974  0.24786953  0.59875852
   0.00121958  0.50272159  0.59977127
   0.83333333  0.33333333  0.40830017
   0.75844406 -0.00702447  0.59990393
   0.66729179  0.16959974  0.49999939
   0.49195550  0.25408221  0.59892425
   0.42142722  0.66241354  0.49862314
   0.16995966  0.16290784  0.50007192
   0.17143828  0.41381491  0.50145844
   0.49838729  0.75362688  0.59892052
   0.16398555  0.66867089  0.50140673
   0.33333333  0.83333333  0.40830017
   0.16053262  0.92158374  0.50140477
   0.66978339  0.90715519  0.49857136
   0.58333333  0.08333333  0.40830017
   0.49563529  0.50083837  0.59888407
   0.49539981  0.00084384  0.59879773
   0.58333333  0.33333333  0.40830017
   0.33333333  0.33333333  0.40830017
   0.08333333  0.83333333  0.40830017
   0.58333333  0.58333333  0.40830017
   0.92012077  0.91372252  0.50020611
   0.33333333  0.08333333  0.40830017
   0.41273595  0.16634761  0.50001660
   0.25029494  0.24861456  0.59620594
   0.33333333  0.58333333  0.40830017
   0.24930702  0.50113836  0.59615790
   0.91258259  0.67297123  0.50076931
   0.24789113  0.00166560  0.59584667
   0.00276187  0.24587643  0.59607523
   0.24598784  0.75183547  0.59668211
   0.00179961 -0.00120260  0.59514117
   0.91933555  0.16370966  0.50085171
   0.41548340  0.41779324  0.50019362
   0.08333333  0.08333333  0.40830017
   0.83333333  0.83333333  0.40830017
   0.66595337  0.66870976  0.49882967
   0.58333333  0.83333333  0.40830017
   0.41771328  0.91902100  0.49918352
   0.66579488  0.41880579  0.49905370
   0.00080238  0.75028391  0.59523763
   0.08333333  0.33333333  0.40830017
   0.75232054  0.74894516  0.59549613
Direct configuration=     4
   0.83333333  0.08333333  0.40830017
   0.75118969  0.50102160  0.60087035
   0.91494755  0.41558537  0.50157196
   0.83333333  0.58333333  0.40830017
   0.08333333  0.58333333  0.40830017
   0.75714713  0.24762405  0.60079701
   0.00173059  0.50246466  0.60204931
   0.83333333  0.33333333  0.40830017
   0.75821019 -0.00691905  0.60209151
   0.66714538  0.16887181  0.50207728
   0.49247014  0.25331195  0.60092376
   0.42120493  0.66308543  0.49996312
   0.16952192  0.16338007  0.50091999
   0.16998208  0.41440391  0.50289717
   0.49781013  0.75360451  0.60090097
   0.16465156  0.66849090  0.50242375
   0.33333333  0.83333333  0.40830017
   0.16197226  0.92029604  0.50236659
   0.66907552  0.90905043  0.49992833
   0.58333333  0.08333333  0.40830017
   0.49555670  0.50125459  0.60098006
   0.49594521  0.00111780  0.60083386
   0.58333333  0.33333333  0.40830017
   0.33333333  0.33333333  0.40830017
   0.08333333  0.83333333  0.40830017
   0.58333333  0.58333333  0.40830017
   0.91856565  0.91450102  0.50100547
   0.33333333  0.08333333  0.40830017
   0.41454739  0.16506527  0.50114579
   0.24910336  0.24880873  0.59774623
   0.33333333  0.58333333  0.40830017
   0.24834683  0.50201234  0.59768234
   0.91376963  0.67134388  0.50178848
   0.24734866  0.00164049  0.59723103
   0.00384947  0.24582840  0.59739274
   0.24571439  0.75226275  0.59809629
   0.00255886 -0.00174107  0.59659222
   0.91854483  0.16426932  0.50181455
   0.41586163  0.41772490  0.50134715
   0.08333333  0.08333333  0.40830017
   0.83333333  0.83333333  0.40830017
   0.66559979  0.66772286  0.49987253
   0.58333333  0.83333333  0.40830017
   0.41798191  0.91838360  0.50008907
   0.66603071  0.41890061  0.50041438
   0.00165408  0.74977138  0.59665408
   0.08333333  0.33333333  0.40830017
   0.75217081  0.74910554  0.59677083
Direct configuration=     5
   0.83333333  0.08333333  0.40830017
   0.75114632  0.50188624  0.60695798
   0.91675066  0.41614711  0.50635485
   0.83333333  0.58333333  0.40830017
   0.08333333  0.58333333  0.40830017
   0.75701927  0.24688759  0.60691250
   0.00326364  0.50169388  0.60888341
   0.83333333  0.33333333  0.40830017
   0.75750858 -0.00660282  0.60865425
   0.66670615  0.16668801  0.50831095
   0.49401408  0.25100119  0.60692228
   0.42053808  0.66510108  0.50398309
   0.16820869  0.16479679  0.50346421
   0.16561347  0.41617090  0.50721336
   0.49607866  0.75353738  0.60684231
   0.16664959  0.66795092  0.50547481
   0.33333333  0.83333333  0.40830017
   0.16629116  0.91643294  0.50525206
   0.66695191  0.91473615  0.50399924
   0.58333333  0.08333333  0.40830017
   0.49532093  0.50250324  0.60726803
   0.49758142  0.00193968  0.60694227
   0.58333333  0.33333333  0.40830017
   0.33333333  0.33333333  0.40830017
   0.08333333  0.83333333  0.40830017
   0.58333333  0.58333333  0.40830017
   0.91390028  0.91683652  0.50340357
   0.33333333  0.08333333  0.40830017
   0.41998171  0.16121827  0.50453335
   0.24552859  0.24939124  0.60236712
   0.33333333  0.58333333  0.40830017
   0.24546628  0.50463429  0.60225568
   0.91733074  0.66646185  0.50484599
   0.24572126  0.00156516  0.60138411
   0.00711227  0.24568430  0.60134526
   0.24489407  0.75354459  0.60233885
   0.00483661 -0.00335651  0.60094539
   0.91617267  0.16594828  0.50470306
   0.41699630  0.41751987  0.50480775
   0.08333333  0.08333333  0.40830017
   0.83333333  0.83333333  0.40830017
   0.66453905  0.66476217  0.50300110
   0.58333333  0.83333333  0.40830017
   0.41878780  0.91647140  0.50280571
   0.66673821  0.41918508  0.50449640
   0.00420917  0.74823378  0.60090342
   0.08333333  0.33333333  0.40830017
   0.75172163  0.74958668  0.60059493
Direct configuration=     6
   0.83333333  0.08333333  0.40830017
   0.75113592  0.50209350  0.60841721
   0.91718287  0.41628176  0.50750132
   0.83333333  0.58333333  0.40830017
   0.08333333  0.58333333  0.40830017
   0.75698863  0.24671106  0.60837841
   0.00363112  0.50150911  0.61052158
   0.83333333  0.33333333  0.40830017
   0.75734040 -0.00652701  0.61022737
   0.66660087  0.16616455  0.50980519
   0.49438417  0.25044729  0.60836016
   0.42037823  0.66558425  0.50494669
   0.16789391  0.16513638  0.50407407
   0.16456630  0.41659446  0.50824797
   0.49566362  0.75352129  0.60826648
   0.16712853  0.66782149  0.50620616
   0.33333333  0.83333333  0.40830017
   0.16732642  0.91550694  0.50594372
   0.66644288  0.91609904  0.50497505
   0.58333333  0.08333333  0.40830017
   0.49526442  0.50280255  0.60877529
   0.49797363  0.00213669  0.60840648
   0.58333333  0.33333333  0.40830017
   0.33333333  0.33333333  0.40830017
   0.08333333  0.83333333  0.40830017
   0.58333333  0.58333333  0.40830017
   0.91278197  0.91739635  0.50397841
   0.33333333  0.08333333  0.40830017
   0.42128434  0.16029612  0.50534537
   0.24467170  0.24953087  0.60347476
   0.33333333  0.58333333  0.40830017
   0.24477580  0.50526278  0.60335193
   0.91818435  0.66529160  0.50557889
   0.24533116  0.00154710  0.60237962
   0.00789438  0.24564976  0.60229270
   0.24469743  0.75385186  0.60335581
   0.00538259 -0.00374373  0.60198887
   0.91560405  0.16635074  0.50539545
   0.41726829  0.41747073  0.50563727
   0.08333333  0.08333333  0.40830017
   0.83333333  0.83333333  0.40830017
   0.66428479  0.66405248  0.50375103
   0.58333333  0.83333333  0.40830017
   0.41898098  0.91601304  0.50345690
   0.66690780  0.41925327  0.50547487
   0.00482164  0.74786521  0.60192201
   0.08333333  0.33333333  0.40830017
   0.75161396  0.74970201  0.60151159
Direct configuration=     7
   0.83333333  0.08333333  0.40830017
   0.75120012  0.50137016  0.60947634
   0.91535271  0.41688991  0.50885596
   0.83333333  0.58333333  0.40830017
   0.08333333  0.58333333  0.40830017
   0.75616993  0.24759451  0.60950101
   0.00154899  0.50184529  0.61203950
   0.83333333  0.33333333  0.40830017
   0.75707251 -0.00588462  0.61151794
   0.66633884  0.16824186  0.51125770
   0.49450765  0.25188698  0.60943154
   0.42003709  0.66478056  0.50651761
   0.16902613  0.16411764  0.50478826
   0.16796191  0.41513094  0.50908080
   0.49617773  0.75373770  0.60921076
   0.16675360  0.66735349  0.50669483
   0.33333333  0.83333333  0.40830017
   0.16576195  0.91698016  0.50648715
   0.66807906  0.91258003  0.50643448
   0.58333333  0.08333333  0.40830017
   0.49625129  0.50152574  0.60976719
   0.49794799  0.00095217  0.60938936
   0.58333333  0.33333333  0.40830017
   0.33333333  0.33333333  0.40830017
   0.08333333  0.83333333  0.40830017
   0.58333333  0.58333333  0.40830017
   0.91411973  0.91680281  0.50529441
   0.33333333  0.08333333  0.40830017
   0.41845747  0.16342639  0.50684771
   0.24715849  0.24910758  0.60442507
   0.33333333  0.58333333  0.40830017
   0.24770664  0.50307051  0.60439644
   0.91635644  0.66659085  0.50670511
   0.24743715  0.00099132  0.60319447
   0.00477333  0.24712875  0.60330527
   0.24663140  0.75259138  0.60447636
   0.00330003 -0.00241099  0.60279226
   0.91542373  0.16610033  0.50659036
   0.41755671  0.41626702  0.50719618
   0.08333333  0.08333333  0.40830017
   0.83333333  0.83333333  0.40830017
   0.66614098  0.66525697  0.50534030
   0.58333333  0.83333333  0.40830017
   0.41929892  0.91571557  0.50517919
   0.66721112  0.41724193  0.50725295
   0.00279176  0.74932044  0.60280603
   0.08333333  0.33333333  0.40830017
   0.75113791  0.74980631  0.60211682
Direct configuration=     8
   0.83333333  0.08333333  0.40830017
   0.75122468  0.50109340  0.60988159
   0.91465245  0.41712261  0.50937427
   0.83333333  0.58333333  0.40830017
   0.08333333  0.58333333  0.40830017
   0.75585669  0.24793254  0.60993054
   0.00075233  0.50197392  0.61262029
   0.83333333  0.33333333  0.40830017
   0.75697001 -0.00563883  0.61201174
   0.66623858  0.16903668  0.51181346
   0.49455489  0.25243784  0.60984147
   0.41990656  0.66447306  0.50711868
   0.16945933  0.16372785  0.50506153
   0.16926114  0.41457097  0.50939946
   0.49637444  0.75382050  0.60957207
   0.16661014  0.66717443  0.50688181
   0.33333333  0.83333333  0.40830017
   0.16516336  0.91754384  0.50669508
   0.66870510  0.91123359  0.50699289
   0.58333333  0.08333333  0.40830017
   0.49662889  0.50103720  0.61014671
   0.49793817  0.00049894  0.60976543
   0.58333333  0.33333333  0.40830017
   0.33333333  0.33333333  0.40830017
   0.08333333  0.83333333  0.40830017
   0.58333333  0.58333333  0.40830017
   0.91463158  0.91657571  0.50579794
   0.33333333  0.08333333  0.40830017
   0.41737585  0.16462409  0.50742253
   0.24810998  0.24894562  0.60478868
   0.33333333  0.58333333  0.40830017
   0.24882804  0.50223170  0.60479609
   0.91565705  0.66708797  0.50713602
   0.24824294  0.00077866  0.60350624
   0.00357916  0.24769465  0.60369270
   0.24737137  0.75210910  0.60490511
   0.00250320 -0.00190105  0.60309965
   0.91535474  0.16600452  0.50704756
   0.41766707  0.41580646  0.50779265
   0.08333333  0.08333333  0.40830017
   0.83333333  0.83333333  0.40830017
   0.66685120  0.66571783  0.50594838
   0.58333333  0.83333333  0.40830017
   0.41942058  0.91560176  0.50583817
   0.66732717  0.41647235  0.50793328
   0.00201508  0.74987724  0.60314428
   0.08333333  0.33333333  0.40830017
   0.75095576  0.74984622  0.60234839
Direct configuration=     9
   0.83333333  0.08333333  0.40830017
   0.75023250  0.50133623  0.61022108
   0.91520079  0.41684908  0.50952020
   0.83333333  0.58333333  0.40830017
   0.08333333  0.58333333  0.40830017
   0.75498764  0.24844197  0.61047194
   0.00092377  0.50196422  0.61287354
   0.83333333  0.33333333  0.40830017
   0.75565902 -0.00464587  0.61231621
   0.66628128  0.16797793  0.51180414
   0.49555277  0.25178904  0.61027697
   0.42060439  0.66365532  0.50754983
   0.16894582  0.16419650  0.50540915
   0.16887450  0.41478538  0.50951333
   0.49763518  0.75267728  0.60973521
   0.16592103  0.66699986  0.50705502
   0.33333333  0.83333333  0.40830017
   0.16421371  0.91810806  0.50686160
   0.66816368  0.91252009  0.50718610
   0.58333333  0.08333333  0.40830017
   0.49779179  0.50079736  0.61036407
   0.49843624  0.00055614  0.60985952
   0.58333333  0.33333333  0.40830017
   0.33333333  0.33333333  0.40830017
   0.08333333  0.83333333  0.40830017
   0.58333333  0.58333333  0.40830017
   0.91516191  0.91643836  0.50640749
   0.33333333  0.08333333  0.40830017
   0.41770355  0.16464871  0.50801522
   0.24882976  0.24895397  0.60517758
   0.33333333  0.58333333  0.40830017
   0.24891598  0.50177112  0.60522021
   0.91658975  0.66643911  0.50749439
   0.24830574  0.00117481  0.60368768
   0.00292704  0.24787696  0.60408244
   0.24774881  0.75167419  0.60517081
   0.00205690 -0.00132193  0.60331219
   0.91597587  0.16570090  0.50743423
   0.41781741  0.41579654  0.50832728
   0.08333333  0.08333333  0.40830017
   0.83333333  0.83333333  0.40830017
   0.66684482  0.66557886  0.50659110
   0.58333333  0.83333333  0.40830017
   0.41952915  0.91555546  0.50664378
   0.66678532  0.41674207  0.50857408
   0.00176307  0.74972932  0.60336956
   0.08333333  0.33333333  0.40830017
   0.75079197  0.74975652  0.60298678
Direct configuration=    10
   0.83333333  0.08333333  0.40830017
   0.74990284  0.50141691  0.61033388
   0.91538297  0.41675821  0.50956868
   0.83333333  0.58333333  0.40830017
   0.08333333  0.58333333  0.40830017
   0.75469890  0.24861123  0.61065182
   0.00098073  0.50196099  0.61295769
   0.83333333  0.33333333  0.40830017
   0.75522345 -0.00431597  0.61241736
   0.66629547  0.16762616  0.51180104
   0.49588431  0.25157348  0.61042167
   0.42083624  0.66338363  0.50769308
   0.16877520  0.16435221  0.50552464
   0.16874604  0.41485661  0.50955116
   0.49805405  0.75229745  0.60978941
   0.16569207  0.66694186  0.50711257
   0.33333333  0.83333333  0.40830017
   0.16389819  0.91829552  0.50691692
   0.66798379  0.91294753  0.50725030
   0.58333333  0.08333333  0.40830017
   0.49817816  0.50071768  0.61043628
   0.49860172  0.00057515  0.60989078
   0.58333333  0.33333333  0.40830017
   0.33333333  0.33333333  0.40830017
   0.08333333  0.83333333  0.40830017
   0.58333333  0.58333333  0.40830017
   0.91533811  0.91639273  0.50661002
   0.33333333  0.08333333  0.40830017
   0.41781242  0.16465689  0.50821214
   0.24906891  0.24895674  0.60530680
   0.33333333  0.58333333  0.40830017
   0.24894520  0.50161809  0.60536113
   0.91689964  0.66622353  0.50761346
   0.24832660  0.00130644  0.60374797
   0.00271037  0.24793753  0.60421193
   0.24787421  0.75152970  0.60525909
   0.00190862 -0.00112952  0.60338281
   0.91618224  0.16560003  0.50756270
   0.41786736  0.41579324  0.50850490
   0.08333333  0.08333333  0.40830017
   0.83333333  0.83333333  0.40830017
   0.66684270  0.66553269  0.50680464
   0.58333333  0.83333333  0.40830017
   0.41956523  0.91554007  0.50691144
   0.66660529  0.41683168  0.50878699
   0.00167933  0.74968018  0.60344441
   0.08333333  0.33333333  0.40830017
   0.75073755  0.74972671  0.60319888
Direct configuration=    11
   0.83333333  0.08333333  0.40830017
   0.75032249  0.50134654  0.61056211
   0.91551080  0.41663416  0.50946981
   0.83333333  0.58333333  0.40830017
   0.08333333  0.58333333  0.40830017
   0.75453302  0.24847779  0.61101338
   0.00125406  0.50165450  0.61297496
   0.83333333  0.33333333  0.40830017
   0.75493712 -0.00415563  0.61256193
   0.66682384  0.16697172  0.51145603
   0.49636332  0.25134668  0.61078092
   0.42032172  0.66380802  0.50766579
   0.16874477  0.16465049  0.50570148
   0.16840365  0.41480892  0.50954327
   0.49817435  0.75235423  0.60987753
   0.16608866  0.66697866  0.50722012
   0.33333333  0.83333333  0.40830017
   0.16456699  0.91752006  0.50696353
   0.66810033  0.91322087  0.50714505
   0.58333333  0.08333333  0.40830017
   0.49798445  0.50067967  0.61060198
   0.49878130  0.00044838  0.60991004
   0.58333333  0.33333333  0.40830017
   0.33333333  0.33333333  0.40830017
   0.08333333  0.83333333  0.40830017
   0.58333333  0.58333333  0.40830017
   0.91514552  0.91638493  0.50689620
   0.33333333  0.08333333  0.40830017
   0.41788249  0.16441531  0.50843156
   0.24889933  0.24914037  0.60553363
   0.33333333  0.58333333  0.40830017
   0.24889428  0.50165529  0.60559616
   0.91678353  0.66622173  0.50776117
   0.24820776  0.00141039  0.60384283
   0.00282229  0.24809163  0.60448751
   0.24772431  0.75156220  0.60523067
   0.00193032 -0.00111087  0.60358911
   0.91577144  0.16603801  0.50767213
   0.41779061  0.41582260  0.50873081
   0.08333333  0.08333333  0.40830017
   0.83333333  0.83333333  0.40830017
   0.66692540  0.66543812  0.50700234
   0.58333333  0.83333333  0.40830017
   0.41916439  0.91557638  0.50726299
   0.66698194  0.41651359  0.50897864
   0.00165254  0.74966048  0.60362710
   0.08333333  0.33333333  0.40830017
   0.75101932  0.74969452  0.60370597
Direct configuration=    12
   0.83333333  0.08333333  0.40830017
   0.75050522  0.50131590  0.61066149
   0.91556646  0.41658014  0.50942676
   0.83333333  0.58333333  0.40830017
   0.08333333  0.58333333  0.40830017
   0.75446079  0.24841968  0.61117082
   0.00137308  0.50152104  0.61298249
   0.83333333  0.33333333  0.40830017
   0.75481243 -0.00408582  0.61262488
   0.66705391  0.16668676  0.51130580
   0.49657189  0.25124793  0.61093735
   0.42009768  0.66399281  0.50765391
   0.16873151  0.16478038  0.50577849
   0.16825456  0.41478816  0.50953984
   0.49822673  0.75237895  0.60991590
   0.16626135  0.66699469  0.50726695
   0.33333333  0.83333333  0.40830017
   0.16485821  0.91718240  0.50698382
   0.66815108  0.91333989  0.50709922
   0.58333333  0.08333333  0.40830017
   0.49790010  0.50066313  0.61067413
   0.49885949  0.00039318  0.60991843
   0.58333333  0.33333333  0.40830017
   0.33333333  0.33333333  0.40830017
   0.08333333  0.83333333  0.40830017
   0.58333333  0.58333333  0.40830017
   0.91506166  0.91638153  0.50702081
   0.33333333  0.08333333  0.40830017
   0.41791301  0.16431012  0.50852710
   0.24882549  0.24922033  0.60563241
   0.33333333  0.58333333  0.40830017
   0.24887211  0.50167148  0.60569850
   0.91673297  0.66622094  0.50782549
   0.24815601  0.00145566  0.60388414
   0.00287102  0.24815874  0.60460751
   0.24765904  0.75157636  0.60521829
   0.00193977 -0.00110275  0.60367894
   0.91559256  0.16622872  0.50771978
   0.41775719  0.41583538  0.50882918
   0.08333333  0.08333333  0.40830017
   0.83333333  0.83333333  0.40830017
   0.66696141  0.66539695  0.50708842
   0.58333333  0.83333333  0.40830017
   0.41898985  0.91559219  0.50741607
   0.66714595  0.41637509  0.50906209
   0.00164088  0.74965190  0.60370665
   0.08333333  0.33333333  0.40830017
   0.75114201  0.74968050  0.60392677
Direct configuration=    13
   0.83333333  0.08333333  0.40830017
   0.75101982  0.50108670  0.61086139
   0.91533633  0.41661174  0.50932729
   0.83333333  0.58333333  0.40830017
   0.08333333  0.58333333  0.40830017
   0.75467496  0.24827446  0.61143184
   0.00160423  0.50136717  0.61296615
   0.83333333  0.33333333  0.40830017
   0.75508205 -0.00431270  0.61276014
   0.66708821  0.16690216  0.51103038
   0.49655888  0.25125432  0.61120807
   0.42041290  0.66385187  0.50752473
   0.16875162  0.16444068  0.50588090
   0.16834325  0.41494581  0.50954958
   0.49809015  0.75248840  0.60999722
   0.16631306  0.66671025  0.50734019
   0.33333333  0.83333333  0.40830017
   0.16477539  0.91747376  0.50702257
   0.66825071  0.91266893  0.50701811
   0.58333333  0.08333333  0.40830017
   0.49756816  0.50085557  0.61082479
   0.49880823  0.00036754  0.60993716
   0.58333333  0.33333333  0.40830017
   0.33333333  0.33333333  0.40830017
   0.08333333  0.83333333  0.40830017
   0.58333333  0.58333333  0.40830017
   0.91535388  0.91614993  0.50719490
   0.33333333  0.08333333  0.40830017
   0.41782230  0.16430948  0.50864112
   0.24882504  0.24929053  0.60585494
   0.33333333  0.58333333  0.40830017
   0.24887223  0.50166127  0.60585889
   0.91638927  0.66648890  0.50794398
   0.24798474  0.00147515  0.60400569
   0.00299479  0.24814999  0.60483108
   0.24751279  0.75172973  0.60522135
   0.00209319 -0.00116752  0.60383854
   0.91575613  0.16606965  0.50783167
   0.41784767  0.41553806  0.50898073
   0.08333333  0.08333333  0.40830017
   0.83333333  0.83333333  0.40830017
   0.66688071  0.66552851  0.50717422
   0.58333333  0.83333333  0.40830017
   0.41894764  0.91562930  0.50755577
   0.66714122  0.41630195  0.50916579
   0.00163837  0.74971454  0.60390214
   0.08333333  0.33333333  0.40830017
   0.75151002  0.74971465  0.60430172
Direct configuration=    14
   0.83333333  0.08333333  0.40830017
   0.75117947  0.50101559  0.61092342
   0.91526493  0.41662155  0.50929643
   0.83333333  0.58333333  0.40830017
   0.08333333  0.58333333  0.40830017
   0.75474141  0.24822940  0.61151282
   0.00167595  0.50131943  0.61296108
   0.83333333  0.33333333  0.40830017
   0.75516570 -0.00438309  0.61280210
   0.66709886  0.16696899  0.51094492
   0.49655484  0.25125630  0.61129206
   0.42051070  0.66380814  0.50748465
   0.16875785  0.16433528  0.50591267
   0.16837076  0.41499472  0.50955261
   0.49804778  0.75252236  0.61002245
   0.16632911  0.66662200  0.50736291
   0.33333333  0.83333333  0.40830017
   0.16474969  0.91756415  0.50703460
   0.66828162  0.91246076  0.50699295
   0.58333333  0.08333333  0.40830017
   0.49746517  0.50091528  0.61087153
   0.49879232  0.00035959  0.60994297
   0.58333333  0.33333333  0.40830017
   0.33333333  0.33333333  0.40830017
   0.08333333  0.83333333  0.40830017
   0.58333333  0.58333333  0.40830017
   0.91544454  0.91607807  0.50724891
   0.33333333  0.08333333  0.40830017
   0.41779416  0.16430928  0.50867649
   0.24882490  0.24931231  0.60592398
   0.33333333  0.58333333  0.40830017
   0.24887226  0.50165810  0.60590865
   0.91628263  0.66657203  0.50798074
   0.24793161  0.00148119  0.60404341
   0.00303319  0.24814727  0.60490045
   0.24746741  0.75177732  0.60522230
   0.00214079 -0.00118762  0.60388806
   0.91580688  0.16602030  0.50786638
   0.41787574  0.41544581  0.50902774
   0.08333333  0.08333333  0.40830017
   0.83333333  0.83333333  0.40830017
   0.66685567  0.66556933  0.50720084
   0.58333333  0.83333333  0.40830017
   0.41893454  0.91564081  0.50759912
   0.66713975  0.41627925  0.50919796
   0.00163759  0.74973397  0.60396279
   0.08333333  0.33333333  0.40830017
   0.75162420  0.74972525  0.60441806
Direct configuration=    15
   0.83333333  0.08333333  0.40830017
   0.75109114  0.50101309  0.61101879
   0.91528808  0.41658185  0.50930035
   0.83333333  0.58333333  0.40830017
   0.08333333  0.58333333  0.40830017
   0.75478782  0.24823256  0.61157218
   0.00177309  0.50137387  0.61292516
   0.83333333  0.33333333  0.40830017
   0.75528758 -0.00433044  0.61283484
   0.66696883  0.16696728  0.51099048
   0.49661095  0.25118627  0.61136558
   0.42074638  0.66350147  0.50740939
   0.16868105  0.16449364  0.50595268
   0.16839054  0.41483756  0.50959931
   0.49814191  0.75231266  0.61005376
   0.16627799  0.66663383  0.50739046
   0.33333333  0.83333333  0.40830017
   0.16457206  0.91758576  0.50703291
   0.66822358  0.91237980  0.50704793
   0.58333333  0.08333333  0.40830017
   0.49758753  0.50104349  0.61093570
   0.49877636  0.00041362  0.60995839
   0.58333333  0.33333333  0.40830017
   0.33333333  0.33333333  0.40830017
   0.08333333  0.83333333  0.40830017
   0.58333333  0.58333333  0.40830017
   0.91556244  0.91602396  0.50729301
   0.33333333  0.08333333  0.40830017
   0.41784771  0.16430838  0.50871515
   0.24896173  0.24922055  0.60601359
   0.33333333  0.58333333  0.40830017
   0.24887443  0.50166096  0.60597917
   0.91635673  0.66648012  0.50804866
   0.24790756  0.00148282  0.60416287
   0.00310022  0.24808099  0.60497654
   0.24745996  0.75184886  0.60519875
   0.00224651 -0.00120297  0.60400281
   0.91599750  0.16579299  0.50797076
   0.41805424  0.41523093  0.50910459
   0.08333333  0.08333333  0.40830017
   0.83333333  0.83333333  0.40830017
   0.66682621  0.66547718  0.50726513
   0.58333333  0.83333333  0.40830017
   0.41906331  0.91559924  0.50755801
   0.66699807  0.41639234  0.50927806
   0.00185362  0.74963079  0.60409501
   0.08333333  0.33333333  0.40830017
   0.75162775  0.74970383  0.60455600
Direct configuration=    16
   0.83333333  0.08333333  0.40830017
   0.75106333  0.50101231  0.61104882
   0.91529537  0.41656935  0.50930158
   0.83333333  0.58333333  0.40830017
   0.08333333  0.58333333  0.40830017
   0.75480243  0.24823355  0.61159086
   0.00180367  0.50139102  0.61291385
   0.83333333  0.33333333  0.40830017
   0.75532596 -0.00431386  0.61284515
   0.66692789  0.16696674  0.51100482
   0.49662861  0.25116422  0.61138872
   0.42082059  0.66340491  0.50738570
   0.16865687  0.16454350  0.50596527
   0.16839677  0.41478808  0.50961401
   0.49817155  0.75224663  0.61006361
   0.16626189  0.66663755  0.50739913
   0.33333333  0.83333333  0.40830017
   0.16451614  0.91759257  0.50703237
   0.66820530  0.91235431  0.50706524
   0.58333333  0.08333333  0.40830017
   0.49762606  0.50108386  0.61095590
   0.49877134  0.00043064  0.60996325
   0.58333333  0.33333333  0.40830017
   0.33333333  0.33333333  0.40830017
   0.08333333  0.83333333  0.40830017
   0.58333333  0.58333333  0.40830017
   0.91559956  0.91600692  0.50730689
   0.33333333  0.08333333  0.40830017
   0.41786457  0.16430809  0.50872732
   0.24900481  0.24919165  0.60604180
   0.33333333  0.58333333  0.40830017
   0.24887511  0.50166186  0.60600137
   0.91638006  0.66645118  0.50807005
   0.24789999  0.00148333  0.60420048
   0.00312132  0.24806012  0.60500050
   0.24745761  0.75187139  0.60519133
   0.00227980 -0.00120780  0.60403894
   0.91605752  0.16572142  0.50800363
   0.41811045  0.41516327  0.50912878
   0.08333333  0.08333333  0.40830017
   0.83333333  0.83333333  0.40830017
   0.66681694  0.66544816  0.50728537
   0.58333333  0.83333333  0.40830017
   0.41910385  0.91558615  0.50754507
   0.66695346  0.41642794  0.50930328
   0.00192164  0.74959830  0.60413665
   0.08333333  0.33333333  0.40830017
   0.75162887  0.74969709  0.60459943
Direct configuration=    17
   0.83333333  0.08333333  0.40830017
   0.75108303  0.50099336  0.61115590
   0.91525302  0.41650328  0.50935566
   0.83333333  0.58333333  0.40830017