       N       E                     dE             d eps       ncg     rms          rms(c)
DAV:   1     0.312163512627E+04    0.31216E+04   -0.18911E+05  3684   0.112E+03
DAV:   2     0.103200633146E+02   -0.31113E+04   -0.28586E+04  4344   0.260E+02
DAV:   3    -0.203581399955E+03   -0.21390E+03   -0.19711E+03  4128   0.638E+01
DAV:   4    -0.209549679430E+03   -0.59683E+01   -0.59022E+01  4176   0.108E+01
DAV:   5    -0.209761020735E+03   -0.21134E+00   -0.21062E+00  4380   0.206E+00    0.497E+01
RMM:   6    -0.204055149766E+03    0.57059E+01   -0.89949E+01  3679   0.147E+01    0.479E+01
RMM:   7    -0.201448407693E+03    0.26067E+01   -0.38150E+01  3683   0.105E+01    0.344E+01
RMM:   8    -0.207393882500E+03   -0.59455E+01   -0.40990E+01  3678   0.104E+01    0.289E+01
RMM:   9    -0.211216448342E+03   -0.38226E+01   -0.29004E+01  3678   0.802E+00    0.355E+01
RMM:  10    -0.198322555168E+03    0.12894E+02   -0.19385E+01  3681   0.695E+00    0.193E+01
RMM:  11    -0.193361211167E+03    0.49613E+01   -0.69838E+00  3681   0.429E+00    0.971E+00
RMM:  12    -0.192933109218E+03    0.42810E+00   -0.26203E+00  3680   0.251E+00    0.901E+00
RMM:  13    -0.192403608890E+03    0.52950E+00   -0.11541E+00  3682   0.167E+00    0.636E+00
RMM:  14    -0.192151092381E+03    0.25252E+00   -0.45498E-01  3680   0.105E+00    0.406E+00
RMM:  15    -0.192087499467E+03    0.63593E-01   -0.25218E-01  3680   0.773E-01    0.298E+00
RMM:  16    -0.192060718407E+03    0.26781E-01   -0.91803E-02  3680   0.476E-01    0.246E+00
RMM:  17    -0.192062369365E+03   -0.16510E-02   -0.11152E-01  3681   0.522E-01    0.230E+00
RMM:  18    -0.192019502248E+03    0.42867E-01   -0.25900E-02  3680   0.256E-01    0.112E+00
RMM:  19    -0.192016153720E+03    0.33485E-02   -0.20478E-02  3679   0.225E-01    0.966E-01
RMM:  20    -0.192006495777E+03    0.96579E-02   -0.82459E-03  3678   0.134E-01    0.381E-01
RMM:  21    -0.192005158314E+03    0.13375E-02   -0.14478E-03  3682   0.554E-02    0.244E-01
RMM:  22    -0.192004870245E+03    0.28807E-03   -0.64543E-04  3682   0.369E-02    0.209E-01
RMM:  23    -0.192004824307E+03    0.45939E-04   -0.50002E-04  3680   0.339E-02    0.156E-01
RMM:  24    -0.192004810468E+03    0.13839E-04   -0.35146E-04  3680   0.284E-02    0.928E-02
RMM:  25    -0.192004976563E+03   -0.16610E-03   -0.13685E-04  3681   0.164E-02    0.651E-02
RMM:  26    -0.192005235387E+03   -0.25882E-03   -0.62870E-05  3674   0.114E-02    0.433E-02
RMM:  27    -0.192005707319E+03   -0.47193E-03   -0.47912E-05  3675   0.963E-03    0.416E-02
RMM:  28    -0.192006112109E+03   -0.40479E-03   -0.32994E-05  3672   0.786E-03    0.329E-02
RMM:  29    -0.192006651164E+03   -0.53906E-03   -0.35068E-05  3672   0.770E-03    0.235E-02
RMM:  30    -0.192006976828E+03   -0.32566E-03   -0.14781E-05  3242   0.504E-03    0.201E-02
RMM:  31    -0.192007205533E+03   -0.22871E-03   -0.10195E-05  3040   0.446E-03    0.146E-02
RMM:  32    -0.192007440522E+03   -0.23499E-03   -0.11458E-05  3036   0.448E-03    0.931E-03
RMM:  33    -0.192007498649E+03   -0.58127E-04   -0.24873E-06  2396   0.209E-03    0.746E-03
RMM:  34    -0.192007582101E+03   -0.83452E-04   -0.26967E-06  2510   0.230E-03    0.300E-03
RMM:  35    -0.192007608595E+03   -0.26494E-04   -0.62842E-07  2143   0.115E-03    0.232E-03
RMM:  36    -0.192007635608E+03   -0.27013E-04   -0.50188E-07  2140   0.120E-03    0.135E-03
RMM:  37    -0.192007645368E+03   -0.97596E-05   -0.22258E-07  1908   0.770E-04    0.127E-03
RMM:  38    -0.192007653684E+03   -0.83168E-05   -0.21515E-07  1973   0.751E-04    0.990E-04
RMM:  39    -0.192007656018E+03   -0.23336E-05   -0.86174E-08  1156   0.447E-04    0.711E-04
RMM:  40    -0.192007656645E+03   -0.62671E-06   -0.27742E-08   866   0.395E-04
   1 F= -.19200766E+03 E0= -.19186345E+03  d E =-.192008E+03
       N       E                     dE             d eps       ncg     rms          rms(c)
DAV:   1    -0.192007824214E+03   -0.16820E-03   -0.62541E-02  3858   0.387E-01    0.239E-02
RMM:   2    -0.192007894297E+03   -0.70083E-04   -0.71886E-04  3682   0.565E-02    0.259E-02
RMM:   3    -0.192007900360E+03   -0.60630E-05   -0.48186E-05  3702   0.118E-02    0.337E-02
RMM:   4    -0.192007893617E+03    0.67429E-05   -0.96113E-06  3667   0.506E-03    0.243E-02
RMM:   5    -0.192007889267E+03    0.43505E-05   -0.32722E-06  2556   0.296E-03    0.124E-02
RMM:   6    -0.192007890178E+03   -0.91150E-06   -0.56039E-06  3082   0.382E-03
   2 F= -.19200789E+03 E0= -.19186371E+03  d E =-.233534E-03
