unknown system                          
           1
    11.002582    0.000000    0.000000
     5.501291    9.528515    0.000000
     0.000000    0.000000   24.491785
   Au   Pd
  24  24
Direct configuration=     1
   0.25005073  0.74886669  0.60739528
   0.41620106  0.16778793  0.49908539
   0.58190513  0.08277868  0.39684100
   0.41836197  0.66762396  0.50030621
   0.16570388  0.91916665  0.50013174
   0.33386965  0.83365534  0.39250492
   0.49803752  0.49806467  0.60918722
   0.16424224  0.66741446  0.50005467
   0.58576116  0.83082012  0.39840387
   0.41807382  0.91809190  0.49966151
   0.50049310  0.75172176  0.60451068
   0.83409261  0.08247921  0.39880983
   0.58121541  0.33556884  0.39579146
   0.41688753  0.41634733  0.50041173
   0.83585809  0.33546343  0.39462121
   0.99908277  0.74600287  0.60232584
   0.66876697  0.41791213  0.49959621
   0.08372122  0.83288068  0.39705863
   0.74862366  0.24960223  0.60311392
   0.08307637  0.58077427  0.39660771
   0.75327839  0.49924132  0.60294876
   0.00072554  0.99995112  0.60586571
   0.91733374  0.16789673  0.49995066
   0.74636217  0.99967411  0.60007888
   0.83455025  0.58214223  0.40508553
   0.66987287  0.66737410  0.50104611
   0.83467729  0.83147936  0.40464082
   0.58409226  0.58367248  0.40254981
   0.66764238  0.16587762  0.49897108
   0.08477892  0.08395307  0.40188912
   0.49823808  0.00098775  0.59655906
   0.08475672  0.33154668  0.40381035
   0.91752409  0.41857376  0.50010072
   0.00177408  0.24915277  0.59686624
   0.91638429  0.66716386  0.49988857
   0.00157652  0.49722846  0.59488568
   0.91510067  0.91715801  0.50133192
   0.33041108  0.08543725  0.40199847
   0.16504178  0.17057440  0.50002561
   0.24930670  0.00139775  0.59722209
   0.33183266  0.33355218  0.40191933
   0.16258306  0.41888298  0.49872767
   0.24888065  0.24954690  0.59574957
   0.33390768  0.58272091  0.40251983
   0.24912023  0.49683396  0.59705740
   0.66956568  0.91611627  0.49928630
   0.49739773  0.24953855  0.59693573
   0.74925964  0.74930228  0.59566994
Direct configuration=     2
   0.25007608  0.74884962  0.60740036
   0.41622574  0.16780406  0.49907688
   0.58193755  0.08277968  0.39683328
   0.41837213  0.66767650  0.50031531
   0.16570801  0.91918644  0.50014261
   0.33384789  0.83363322  0.39253415
   0.49798265  0.49808076  0.60917653
   0.16420418  0.66737133  0.50007205
   0.58579802  0.83082596  0.39839764
   0.41807892  0.91805703  0.49966173
   0.50046026  0.75173039  0.60451319
   0.83407797  0.08246403  0.39880173
   0.58123370  0.33557179  0.39579323
   0.41684830  0.41630300  0.50041811
   0.83588656  0.33544981  0.39464022
   0.99907078  0.74596544  0.60233161
   0.66880896  0.41790628  0.49959820
   0.08373282  0.83289932  0.39706730
   0.74861431  0.24958594  0.60312269
   0.08306707  0.58077634  0.39661411
   0.75329835  0.49924012  0.60295156
   0.00071928  0.99999408  0.60585026
   0.91734464  0.16789463  0.49994130
   0.74630930  0.99968689  0.60008349
   0.83458203  0.58216771  0.40507283
   0.66982567  0.66738417  0.50104959
   0.83465869  0.83149389  0.40463138
   0.58408647  0.58366551  0.40255850
   0.66764512  0.16584229  0.49898021
   0.08478264  0.08397996  0.40189913
   0.49825576  0.00097391  0.59655249
   0.08479514  0.33152755  0.40379260
   0.91751729  0.41853270  0.50009717
   0.00179458  0.24913271  0.59685307
   0.91644080  0.66717180  0.49988637
   0.00158190  0.49724697  0.59489542
   0.91507909  0.91716079  0.50132330
   0.33039183  0.08548666  0.40198693
   0.16502408  0.17053356  0.50002291
   0.24928609  0.00141893  0.59722393
   0.33182325  0.33353205  0.40191169
   0.16258320  0.41892447  0.49872033
   0.24886563  0.24954640  0.59574509
   0.33393240  0.58273792  0.40252826
   0.24912641  0.49682477  0.59705413
   0.66955630  0.91614372  0.49928055
   0.49738749  0.24953791  0.59692585
   0.74927463  0.74930102  0.59567073
