  48  48   0   0
  0.5349325E+02  0.1100258E-08  0.1100258E-08  0.2449179E-08  0.3500000E-15
  1.000000000000000E-004
  CAR 
 unknown system                          
      6.37681765     -9.75536826  301     -1.09460930      1.00000000
     -9.755  0.0000E+00  0.0000E+00
     -9.702  0.0000E+00  0.0000E+00
     -9.648  0.0000E+00  0.0000E+00
     -9.594  0.0000E+00  0.0000E+00
     -9.540  0.0000E+00  0.0000E+00
     -9.486  0.0000E+00  0.0000E+00
     -9.433  0.0000E+00  0.0000E+00
     -9.379  0.0000E+00  0.0000E+00
     -9.325  0.7570E-17  0.4071E-18
     -9.271  0.2898E-14  0.1562E-15
     -9.218  0.6488E-12  0.3505E-13
     -9.164  0.8259E-10  0.4477E-11
     -9.110  0.5989E-08  0.3265E-09
     -9.056  0.2478E-06  0.1365E-07
     -9.003  0.5866E-05  0.3291E-06
     -8.949  0.7961E-04  0.4610E-05
     -8.895  0.6210E-03  0.3800E-04
     -8.841  0.2793E-02  0.1882E-03
     -8.787  0.7291E-02  0.5803E-03
     -8.734  0.1134E-01  0.1190E-02
     -8.680  0.1180E-01  0.1825E-02
     -8.626  0.1128E-01  0.2431E-02
     -8.572  0.1182E-01  0.3067E-02
     -8.519  0.9957E-02  0.3602E-02
     -8.465  0.5335E-02  0.3889E-02
     -8.411  0.1705E-02  0.3981E-02
     -8.357  0.3234E-03  0.3998E-02
     -8.303  0.7392E-04  0.4002E-02
     -8.250  0.2942E-03  0.4018E-02
     -8.196  0.1320E-02  0.4089E-02
     -8.142  0.3745E-02  0.4290E-02
     -8.088  0.7278E-02  0.4682E-02
     -8.035  0.1114E-01  0.5281E-02
     -7.981  0.1502E-01  0.6088E-02
     -7.927  0.1766E-01  0.7038E-02
     -7.873  0.1732E-01  0.7969E-02
     -7.820  0.1503E-01  0.8778E-02
     -7.766  0.1356E-01  0.9507E-02
     -7.712  0.1339E-01  0.1023E-01
     -7.658  0.1287E-01  0.1092E-01
     -7.604  0.1167E-01  0.1155E-01
     -7.551  0.1198E-01  0.1219E-01
     -7.497  0.1558E-01  0.1303E-01
     -7.443  0.2047E-01  0.1413E-01
     -7.389  0.2239E-01  0.1533E-01
     -7.336  0.2142E-01  0.1648E-01
     -7.282  0.2153E-01  0.1764E-01
     -7.228  0.2511E-01  0.1899E-01
     -7.174  0.3214E-01  0.2072E-01
     -7.120  0.4066E-01  0.2291E-01
     -7.067  0.4811E-01  0.2549E-01
     -7.013  0.5347E-01  0.2837E-01
     -6.959  0.5851E-01  0.3152E-01
     -6.905  0.6491E-01  0.3501E-01
     -6.852  0.7263E-01  0.3891E-01
     -6.798  0.7989E-01  0.4321E-01
     -6.744  0.8263E-01  0.4765E-01
     -6.690  0.8094E-01  0.5200E-01
     -6.636  0.7914E-01  0.5626E-01
     -6.583  0.7707E-01  0.6040E-01
     -6.529  0.7453E-01  0.6441E-01
     -6.475  0.7709E-01  0.6856E-01
     -6.421  0.8918E-01  0.7335E-01
     -6.368  0.1088E+00  0.7920E-01
     -6.314  0.1288E+00  0.8613E-01
     -6.260  0.1429E+00  0.9382E-01
     -6.206  0.1490E+00  0.1018E+00
     -6.153  0.1488E+00  0.1098E+00
     -6.099  0.1497E+00  0.1179E+00
     -6.045  0.1583E+00  0.1264E+00
     -5.991  0.1685E+00  0.1354E+00
     -5.937  0.1718E+00  0.1447E+00
     -5.884  0.1700E+00  0.1538E+00
     -5.830  0.1664E+00  0.1628E+00
     -5.776  0.1571E+00  0.1712E+00
     -5.722  0.1436E+00  0.1789E+00
     -5.669  0.1350E+00  0.1862E+00
     -5.615  0.1347E+00  0.1934E+00
     -5.561  0.1392E+00  0.2009E+00
     -5.507  0.1425E+00  0.2086E+00
     -5.453  0.1417E+00  0.2162E+00
     -5.400  0.1407E+00  0.2238E+00
     -5.346  0.1449E+00  0.2316E+00
     -5.292  0.1536E+00  0.2398E+00
     -5.238  0.1618E+00  0.2485E+00
     -5.185  0.1681E+00  0.2576E+00
     -5.131  0.1755E+00  0.2670E+00
     -5.077  0.1840E+00  0.2769E+00
     -5.023  0.1890E+00  0.2871E+00
     -4.969  0.1880E+00  0.2972E+00
     -4.916  0.1834E+00  0.3070E+00
     -4.862  0.1779E+00  0.3166E+00
     -4.808  0.1717E+00  0.3258E+00
     -4.754  0.1652E+00  0.3347E+00
     -4.701  0.1626E+00  0.3435E+00
     -4.647  0.1665E+00  0.3524E+00
     -4.593  0.1728E+00  0.3617E+00
     -4.539  0.1774E+00  0.3713E+00
     -4.486  0.1812E+00  0.3810E+00
     -4.432  0.1837E+00  0.3909E+00
     -4.378  0.1819E+00  0.4007E+00
     -4.324  0.1780E+00  0.4102E+00
     -4.270  0.1772E+00  0.4198E+00
     -4.217  0.1793E+00  0.4294E+00
     -4.163  0.1793E+00  0.4390E+00
     -4.109  0.1760E+00  0.4485E+00
     -4.055  0.1739E+00  0.4579E+00
     -4.002  0.1745E+00  0.4672E+00
     -3.948  0.1754E+00  0.4767E+00
     -3.894  0.1777E+00  0.4862E+00
     -3.840  0.1837E+00  0.4961E+00
     -3.786  0.1901E+00  0.5063E+00
     -3.733  0.1948E+00  0.5168E+00
     -3.679  0.2000E+00  0.5276E+00
     -3.625  0.2054E+00  0.5386E+00
     -3.571  0.2078E+00  0.5498E+00
     -3.518  0.2071E+00  0.5609E+00
     -3.464  0.2065E+00  0.5720E+00
     -3.410  0.2083E+00  0.5832E+00
     -3.356  0.2122E+00  0.5946E+00
     -3.302  0.2134E+00  0.6061E+00
     -3.249  0.2083E+00  0.6173E+00
     -3.195  0.1986E+00  0.6280E+00
     -3.141  0.1884E+00  0.6381E+00
     -3.087  0.1809E+00  0.6478E+00
     -3.034  0.1764E+00  0.6573E+00
     -2.980  0.1740E+00  0.6667E+00
     -2.926  0.1744E+00  0.6761E+00
     -2.872  0.1777E+00  0.6856E+00
     -2.819  0.1808E+00  0.6953E+00
     -2.765  0.1814E+00  0.7051E+00
     -2.711  0.1815E+00  0.7149E+00
     -2.657  0.1834E+00  0.7247E+00
     -2.603  0.1841E+00  0.7346E+00
     -2.550  0.1809E+00  0.7444E+00
     -2.496  0.1766E+00  0.7539E+00
     -2.442  0.1762E+00  0.7633E+00
     -2.388  0.1783E+00  0.7729E+00
     -2.335  0.1770E+00  0.7824E+00
     -2.281  0.1741E+00  0.7918E+00
     -2.227  0.1756E+00  0.8012E+00
     -2.173  0.1797E+00  0.8109E+00
     -2.119  0.1815E+00  0.8207E+00
     -2.066  0.1836E+00  0.8305E+00
     -2.012  0.1895E+00  0.8407E+00
     -1.958  0.1972E+00  0.8513E+00
     -1.904  0.2028E+00  0.8622E+00
     -1.851  0.2043E+00  0.8732E+00
     -1.797  0.2027E+00  0.8841E+00
     -1.743  0.2004E+00  0.8949E+00
     -1.689  0.1989E+00  0.9056E+00
     -1.636  0.1980E+00  0.9162E+00
     -1.582  0.1952E+00  0.9267E+00
     -1.528  0.1914E+00  0.9370E+00
     -1.474  0.1917E+00  0.9473E+00
     -1.420  0.1958E+00  0.9579E+00
     -1.367  0.1956E+00  0.9684E+00
     -1.313  0.1847E+00  0.9783E+00
     -1.259  0.1657E+00  0.9872E+00
     -1.205  0.1454E+00  0.9950E+00
     -1.152  0.1267E+00  0.1002E+01
     -1.098  0.1086E+00  0.1008E+01
     -1.044  0.8933E-01  0.1012E+01
     -0.990  0.6612E-01  0.1016E+01
     -0.936  0.4185E-01  0.1018E+01
     -0.883  0.2578E-01  0.1020E+01
     -0.829  0.2026E-01  0.1021E+01
     -0.775  0.1938E-01  0.1022E+01
     -0.721  0.1914E-01  0.1023E+01
     -0.668  0.2012E-01  0.1024E+01
     -0.614  0.2334E-01  0.1025E+01
     -0.560  0.2928E-01  0.1027E+01
     -0.506  0.3723E-01  0.1029E+01
     -0.452  0.4251E-01  0.1031E+01
     -0.399  0.4073E-01  0.1033E+01
     -0.345  0.3479E-01  0.1035E+01
     -0.291  0.3251E-01  0.1037E+01
     -0.237  0.3730E-01  0.1039E+01
     -0.184  0.4161E-01  0.1041E+01
     -0.130  0.3695E-01  0.1043E+01
     -0.076  0.2711E-01  0.1045E+01
     -0.022  0.2208E-01  0.1046E+01
      0.031  0.2505E-01  0.1047E+01
      0.085  0.3157E-01  0.1049E+01
      0.139  0.3622E-01  0.1051E+01
      0.193  0.3680E-01  0.1053E+01
      0.247  0.3536E-01  0.1055E+01
      0.300  0.3516E-01  0.1056E+01
      0.354  0.3574E-01  0.1058E+01
      0.408  0.3535E-01  0.1060E+01
      0.462  0.3563E-01  0.1062E+01
      0.515  0.3943E-01  0.1064E+01
      0.569  0.4447E-01  0.1067E+01
      0.623  0.4613E-01  0.1069E+01
      0.677  0.4495E-01  0.1072E+01
      0.731  0.4258E-01  0.1074E+01
      0.784  0.3773E-01  0.1076E+01
      0.838  0.3102E-01  0.1078E+01
      0.892  0.2505E-01  0.1079E+01
      0.946  0.2017E-01  0.1080E+01
      0.999  0.1671E-01  0.1081E+01
      1.053  0.1632E-01  0.1082E+01
      1.107  0.1926E-01  0.1083E+01
      1.161  0.2220E-01  0.1084E+01
      1.215  0.1985E-01  0.1085E+01
      1.268  0.1332E-01  0.1086E+01
      1.322  0.1013E-01  0.1086E+01
      1.376  0.1345E-01  0.1087E+01
      1.430  0.2070E-01  0.1088E+01
      1.483  0.2896E-01  0.1090E+01
      1.537  0.3489E-01  0.1092E+01
      1.591  0.3539E-01  0.1094E+01
      1.645  0.3285E-01  0.1095E+01
      1.698  0.3280E-01  0.1097E+01
      1.752  0.3506E-01  0.1099E+01
      1.806  0.3534E-01  0.1101E+01
      1.860  0.3081E-01  0.1103E+01
      1.914  0.2280E-01  0.1104E+01
      1.967  0.1692E-01  0.1105E+01
      2.021  0.1463E-01  0.1105E+01
      2.075  0.1491E-01  0.1106E+01
      2.129  0.2076E-01  0.1107E+01
      2.182  0.3102E-01  0.1109E+01
      2.236  0.3909E-01  0.1111E+01
      2.290  0.4299E-01  0.1113E+01
      2.344  0.4550E-01  0.1116E+01
      2.398  0.4772E-01  0.1118E+01
      2.451  0.4786E-01  0.1121E+01
      2.505  0.4594E-01  0.1124E+01
      2.559  0.4479E-01  0.1126E+01
      2.613  0.4467E-01  0.1128E+01
      2.666  0.4520E-01  0.1131E+01
      2.720  0.4566E-01  0.1133E+01
      2.774  0.4068E-01  0.1135E+01
      2.828  0.2911E-01  0.1137E+01
      2.882  0.1842E-01  0.1138E+01
      2.935  0.1403E-01  0.1139E+01
      2.989  0.1308E-01  0.1139E+01
      3.043  0.1153E-01  0.1140E+01
      3.097  0.1169E-01  0.1141E+01
      3.150  0.1702E-01  0.1142E+01
      3.204  0.2461E-01  0.1143E+01
      3.258  0.2658E-01  0.1144E+01
      3.312  0.2151E-01  0.1145E+01
      3.365  0.1649E-01  0.1146E+01
      3.419  0.1592E-01  0.1147E+01
      3.473  0.1904E-01  0.1148E+01
      3.527  0.2450E-01  0.1150E+01
      3.581  0.3064E-01  0.1151E+01
      3.634  0.3516E-01  0.1153E+01
      3.688  0.3756E-01  0.1155E+01
      3.742  0.3828E-01  0.1157E+01
      3.796  0.3488E-01  0.1159E+01
      3.849  0.2704E-01  0.1161E+01
      3.903  0.2019E-01  0.1162E+01
      3.957  0.1971E-01  0.1163E+01
      4.011  0.2548E-01  0.1164E+01
      4.065  0.3066E-01  0.1166E+01
      4.118  0.3017E-01  0.1167E+01
      4.172  0.2712E-01  0.1169E+01
      4.226  0.2476E-01  0.1170E+01
      4.280  0.2086E-01  0.1171E+01
      4.333  0.1678E-01  0.1172E+01
      4.387  0.1923E-01  0.1173E+01
      4.441  0.2736E-01  0.1175E+01
      4.495  0.3459E-01  0.1176E+01
      4.549  0.4189E-01  0.1179E+01
      4.602  0.5173E-01  0.1182E+01
      4.656  0.5733E-01  0.1185E+01
      4.710  0.5259E-01  0.1187E+01
      4.764  0.4390E-01  0.1190E+01
      4.817  0.4181E-01  0.1192E+01
      4.871  0.4751E-01  0.1195E+01
      4.925  0.5556E-01  0.1198E+01
      4.979  0.6350E-01  0.1201E+01
      5.032  0.7058E-01  0.1205E+01
      5.086  0.7120E-01  0.1209E+01
      5.140  0.6308E-01  0.1212E+01
      5.194  0.5558E-01  0.1215E+01
      5.248  0.5346E-01  0.1218E+01
      5.301  0.4826E-01  0.1220E+01
      5.355  0.3513E-01  0.1222E+01
      5.409  0.1959E-01  0.1223E+01
      5.463  0.8086E-02  0.1224E+01
      5.516  0.2333E-02  0.1224E+01
      5.570  0.4410E-03  0.1224E+01
      5.624  0.5194E-04  0.1224E+01
      5.678  0.3682E-05  0.1224E+01
      5.732  0.1539E-06  0.1224E+01
      5.785  0.3742E-08  0.1224E+01
      5.839  0.5246E-10  0.1224E+01
      5.893  0.4215E-12  0.1224E+01
      5.947  0.1932E-14  0.1224E+01
      6.000  0.5506E-17  0.1224E+01
      6.054  0.0000E+00  0.1224E+01
      6.108  0.0000E+00  0.1224E+01
      6.162  0.0000E+00  0.1224E+01
      6.215  0.0000E+00  0.1224E+01
      6.269  0.0000E+00  0.1224E+01
      6.323  0.0000E+00  0.1224E+01
      6.377  0.0000E+00  0.1224E+01
