unknown system                          
           1
    11.002582    0.000000    0.000000
     5.501291    9.528515    0.000000
     0.000000    0.000000   24.491785
   Au   Pd
  24  24
Direct configuration=     1
   0.08333333  0.08333333  0.40830017
   0.50000000  0.00000000  0.59169983
   0.41666667  0.66666667  0.50000000
   0.66666667  0.91666667  0.50000000
   0.50000000  0.50000000  0.59169983
   0.25000000  0.50000000  0.59169983
   0.50000000  0.75000000  0.59169983
   0.33333333  0.33333333  0.40830017
   0.58333333  0.33333333  0.40830017
   0.16666667  0.16666667  0.50000000
   0.75000000  0.00000000  0.59169983
   0.25000000  0.00000000  0.59169983
   0.83333333  0.33333333  0.40830017
   0.83333333  0.83333333  0.40830017
   0.75000000  0.50000000  0.59169983
   0.66666667  0.66666667  0.50000000
   0.91666667  0.41666667  0.50000000
   0.00000000  0.75000000  0.59169983
   0.83333333  0.58333333  0.40830017
   0.91666667  0.66666667  0.50000000
   0.66666667  0.41666667  0.50000000
   0.08333333  0.83333333  0.40830017
   0.75000000  0.25000000  0.59169983
   0.50000000  0.25000000  0.59169983
   0.41666667  0.91666667  0.50000000
   0.83333333  0.08333333  0.40830017
   0.58333333  0.83333333  0.40830017
   0.66666667  0.16666667  0.50000000
   0.58333333  0.58333333  0.40830017
   0.25000000  0.75000000  0.59169983
   0.41666667  0.16666667  0.50000000
   0.91666667  0.16666667  0.50000000
   0.00000000  0.00000000  0.59169983
   0.08333333  0.33333333  0.40830017
   0.00000000  0.25000000  0.59169983
   0.08333333  0.58333333  0.40830017
   0.00000000  0.50000000  0.59169983
   0.91666667  0.91666667  0.50000000
   0.33333333  0.08333333  0.40830017
   0.16666667  0.41666667  0.50000000
   0.25000000  0.25000000  0.59169983
   0.33333333  0.58333333  0.40830017
   0.16666667  0.66666667  0.50000000
   0.33333333  0.83333333  0.40830017
   0.16666667  0.91666667  0.50000000
   0.58333333  0.08333333  0.40830017
   0.41666667  0.41666667  0.50000000
   0.75000000  0.75000000  0.59169983
Direct configuration=     2
   0.08395441  0.08297440  0.40645604
   0.49946158  0.00032951  0.59360809
   0.41408355  0.66801050  0.49916448
   0.66527585  0.91821041  0.49953837
   0.49887438  0.50052818  0.59393432
   0.24923663  0.49986863  0.59326224
   0.49965024  0.75065426  0.59397854
   0.33265121  0.33344610  0.40685760
   0.58304947  0.33295502  0.40646369
   0.16754622  0.16678232  0.50001698
   0.75108948 -0.00044533  0.59358109
   0.24878668  0.00026751  0.59345187
   0.83354055  0.33277180  0.40606673
   0.83293581  0.83435964  0.40619157
   0.75159731  0.49988299  0.59427284
   0.66530124  0.66846496  0.49959243
   0.91929459  0.41497301  0.50038185
   0.00033271  0.75021487  0.59349770
   0.83338069  0.58328449  0.40570948
   0.91891749  0.66579729  0.50034859
   0.66625260  0.41547763  0.49949621
   0.08399347  0.83271040  0.40673836
   0.75193410  0.24855648  0.59356485
   0.49908948  0.24999515  0.59330341
   0.41590995  0.91749080  0.49927823
   0.83295175  0.08332968  0.40749365
   0.58195083  0.83412709  0.40714795
   0.66704457  0.16608926  0.49953013
   0.58227121  0.58437181  0.40689250
   0.24916306  0.75064367  0.59268934
   0.41637916  0.16708227  0.49971443
   0.91687087  0.16502658  0.50028032
   0.00051414 -0.00007661  0.59238301
   0.08400005  0.33339147  0.40709805
   0.00027828  0.24972440  0.59284107
   0.08427740  0.58273982  0.40727078
   0.00036865  0.49938595  0.59287501
   0.91736106  0.91805245  0.49998105
   0.33403798  0.08258126  0.40740701
   0.16727602  0.41666578  0.50001831
   0.24934815  0.25064858  0.59261816
   0.33307820  0.58385592  0.40738918
   0.16713148  0.66649031  0.49978932
   0.33408259  0.83300066  0.40737867
   0.16629231  0.91617638  0.50013939
   0.58306536  0.08312988  0.40741592
   0.41564529  0.41650721  0.49970696
   0.75047189  0.74949516  0.59318423
Direct configuration=     3
   0.08581762  0.08189759  0.40092365
   0.49784632  0.00131804  0.59933285
   0.40633420  0.67204201  0.49665792
   0.66110342  0.92284163  0.49815349
   0.49549752  0.50211270  0.60063778
   0.24694654  0.49947453  0.59794947
   0.49860097  0.75261705  0.60081467
   0.33060483  0.33378439  0.40252988
   0.58219789  0.33182009  0.40095427
   0.17018488  0.16712927  0.50006793
   0.75435790 -0.00178131  0.59922487
   0.24514672  0.00107002  0.59870798
   0.83416219  0.33108721  0.39936643
   0.83174323  0.83743855  0.39986576
   0.75638922  0.49953196  0.60199187
   0.66120495  0.67385982  0.49836973
   0.92717838  0.40989205  0.50152740
   0.00133085  0.75085950  0.59889130
   0.83352277  0.58313795  0.39793741
   0.92566995  0.66318915  0.50139437
   0.66501041  0.41191052  0.49798482
   0.08597389  0.83084160  0.40205294
   0.75773640  0.24422590  0.59915989
   0.49635792  0.24998061  0.59811416
   0.41363981  0.91996321  0.49711293
   0.83180699  0.08331870  0.40507409
   0.57780333  0.83650834  0.40369128
   0.66817826  0.16435705  0.49812051
   0.57908486  0.58748724  0.40266950
   0.24665222  0.75257470  0.59565786
   0.41551662  0.16832909  0.49885773
   0.91748349  0.16010630  0.50112130
   0.00205656 -0.00030644  0.59443256
   0.08600020  0.33356586  0.40349169
   0.00111311  0.24889758  0.59626478
   0.08710961  0.58095929  0.40418260
   0.00147459  0.49754381  0.59640056
   0.91944426  0.92220980  0.49992421
   0.33615191  0.08032504  0.40472754
   0.16910409  0.41666311  0.50007326
   0.24739260  0.25259434  0.59537313
   0.33231280  0.58542369  0.40465621
   0.16852591  0.66596124  0.49915727
   0.33633038  0.83200265  0.40461416
   0.16516923  0.91470554  0.50055755
   0.58226146  0.08251954  0.40476317
   0.41258117  0.41602884  0.49882784
   0.75188755  0.74798064  0.59763742
Direct configuration=     4
   0.08616139  0.08180549  0.39977929
   0.49805304  0.00094130  0.60047745
   0.41047028  0.66975028  0.49790175
   0.66414973  0.92089344  0.49886311
   0.49727044  0.50191546  0.60162227
   0.24661371  0.50035284  0.59916576
   0.49889926  0.75154347  0.60197103
   0.33130696  0.33329127  0.40099882
   0.58142674  0.33244718  0.39927775
   0.17063580  0.16444766  0.49991833
   0.75314739 -0.00198959  0.60030643
   0.24597041  0.00126642  0.59990944
   0.83435636  0.33175860  0.39811076
   0.83217621  0.83574819  0.39869737
   0.75441252  0.49954977  0.60317114
   0.66354361  0.67039517  0.49879472
   0.92200978  0.41222088  0.50096817
   0.00120554  0.75061210  0.60030680
   0.83343319  0.58356681  0.39657759
   0.92237545  0.66600725  0.50098998
   0.66539078  0.41394678  0.49844264
   0.08561132  0.83130346  0.40070919
   0.75527648  0.24676679  0.60036184
   0.49808906  0.24963105  0.59897364
   0.41230009  0.92043121  0.49819363
   0.83245972  0.08333569  0.40413409
   0.57926122  0.83584334  0.40217797
   0.66693967  0.16538624  0.49887641
   0.58018100  0.58636779  0.40168924
   0.24772221  0.75169067  0.59638588
   0.41573982  0.16924454  0.49929216
   0.91775850  0.16256572  0.50060443
   0.00254865 -0.00103750  0.59549071
   0.08513836  0.33333731  0.40259034
   0.00176699  0.24862577  0.59731397
   0.08562598  0.58194920  0.40327838
   0.00160195  0.49786136  0.59764977
   0.91877549  0.91951549  0.49975725
   0.33531980  0.08115336  0.40349295
   0.17094082  0.41650321  0.50005666
   0.24710354  0.25174572  0.59618583
   0.33300245  0.58407428  0.40317754
   0.16697543  0.66616911  0.49955743
   0.33523435  0.83300353  0.40308292
   0.16465045  0.91690536  0.50020331
   0.58154102  0.08306094  0.40340362
   0.41377477  0.41535212  0.49913184
   0.75165225  0.74874349  0.59797840
Direct configuration=     5
   0.08634016  0.08175759  0.39918419
   0.49816054  0.00074538  0.60107268
   0.41262120  0.66855849  0.49854859
   0.66573393  0.91988030  0.49923213
   0.49819243  0.50181289  0.60213424
   0.24644063  0.50080960  0.59979827
   0.49905438  0.75098516  0.60257238
   0.33167209  0.33303483  0.40020260
   0.58102572  0.33277330  0.39840589
   0.17087029  0.16305311  0.49984053
   0.75251788 -0.00209791  0.60086889
   0.24639876  0.00136855  0.60053424
   0.83445733  0.33210774  0.39745776
   0.83240138  0.83486914  0.39808977
   0.75338456  0.49955903  0.60378441
   0.66475981  0.66859341  0.49901574
   0.91932191  0.41343196  0.50067735
   0.00114037  0.75048344  0.60104291
   0.83338660  0.58378984  0.39587044
   0.92066218  0.66747276  0.50077968
   0.66558859  0.41500571  0.49868072
   0.08542278  0.83154364  0.40001039
   0.75399723  0.24808815  0.60098689
   0.49898932  0.24944927  0.59942060
   0.41160339  0.92067458  0.49875563
   0.83279917  0.08334452  0.40364526
   0.58001937  0.83549751  0.40139099
   0.66629556  0.16592147  0.49926951
   0.58075103  0.58578563  0.40117946
   0.24827864  0.75123094  0.59676448
   0.41585589  0.16972061  0.49951807
   0.91790151  0.16384471  0.50033565
   0.00280456 -0.00141768  0.59604099
   0.08469018  0.33321846  0.40212160
   0.00210704  0.24848442  0.59785959
   0.08485443  0.58246400  0.40280815
   0.00166818  0.49802649  0.59829941
   0.91842771  0.91811435  0.49967043
   0.33488708  0.08158413  0.40285092
   0.17189599  0.41642005  0.50004803
   0.24695322  0.25130440  0.59660847
   0.33336110  0.58337254  0.40240857
   0.16616912  0.66627721  0.49976553
   0.33466438  0.83352403  0.40228661
   0.16438067  0.91804936  0.50001908
   0.58116637  0.08334249  0.40269661
   0.41439550  0.41500019  0.49928992
   0.75152988  0.74914020  0.59815573
Direct configuration=     6
   0.08585506  0.08212274  0.39864837
   0.49835527  0.00044404  0.60141796
   0.41291679  0.66833720  0.49887276
   0.66524348  0.91941002  0.49932662
   0.49858876  0.50142486  0.60242999
   0.24763105  0.50031741  0.60023385
   0.49933491  0.75083169  0.60297102
   0.33133038  0.33309291  0.39961705
   0.58180748  0.33275342  0.39790764
   0.16882884  0.16530313  0.49972485
   0.75228005 -0.00160099  0.60121616
   0.24724490  0.00075491  0.60107985
   0.83403870  0.33244431  0.39704328
   0.83216874  0.83478154  0.39768097
   0.75305836  0.49973095  0.60422185
   0.66518525  0.66858431  0.49910807
   0.91933344  0.41437824  0.50048969
   0.00077442  0.75050607  0.60163405
   0.83330301  0.58376670  0.39533660
   0.91975772  0.66657134  0.50056741
   0.66567255  0.41468627  0.49877437
   0.08541435  0.83151468  0.39960474
   0.75369487  0.24825059  0.60123863
   0.49907793  0.24983567  0.59970622
   0.41401245  0.91890987  0.49928364
   0.83267362  0.08348021  0.40354497
   0.58053715  0.83515351  0.40127967
   0.66664699  0.16668153  0.49956861
   0.58110941  0.58545792  0.40101044
   0.24900102  0.75080955  0.59680238
   0.41666301  0.16888392  0.49971182
   0.91689547  0.16482773  0.50009474
   0.00196423 -0.00105006  0.59622830
   0.08421864  0.33340602  0.40212154
   0.00155822  0.24901939  0.59800336
   0.08429422  0.58263066  0.40259625
   0.00079828  0.49834273  0.59833867
   0.91822795  0.91819763  0.49960832
   0.33492613  0.08180803  0.40248697
   0.17025277  0.41659907  0.49999565
   0.24741154  0.25108263  0.59678268
   0.33341900  0.58345787  0.40222321
   0.16659025  0.66678595  0.49986890
   0.33498748  0.83288128  0.40201863
   0.16459811  0.91720176  0.49968689
   0.58159765  0.08285470  0.40243168
   0.41544968  0.41540129  0.49943510
   0.75127042  0.74893480  0.59802557
Direct configuration=     7
   0.08574208  0.08220778  0.39852358
   0.49840063  0.00037385  0.60149837
   0.41298563  0.66828566  0.49894826
   0.66512925  0.91930049  0.49934863
   0.49868107  0.50133449  0.60249887
   0.24790830  0.50020278  0.60033530
   0.49940024  0.75079594  0.60306386
   0.33125080  0.33310643  0.39948067
   0.58198956  0.33274879  0.39779160
   0.16835339  0.16582715  0.49969790
   0.75222467 -0.00148525  0.60129704
   0.24744196  0.00061199  0.60120692
   0.83394121  0.33252270  0.39694675
   0.83211456  0.83476114  0.39758576
   0.75298239  0.49977099  0.60432373
   0.66528434  0.66858220  0.49912958
   0.91933613  0.41459863  0.50044598
   0.00068919  0.75051135  0.60177172
   0.83328354  0.58376131  0.39521227
   0.91954707  0.66636140  0.50051797
   0.66569210  0.41461188  0.49879618
   0.08541239  0.83150793  0.39951027
   0.75362445  0.24828842  0.60129726
   0.49909857  0.24992566  0.59977274
   0.41457351  0.91849888  0.49940661
   0.83264437  0.08351181  0.40352162
   0.58065774  0.83507339  0.40125374
   0.66672883  0.16685855  0.49963826
   0.58119288  0.58538159  0.40097108
   0.24916926  0.75071141  0.59681121
   0.41685099  0.16868906  0.49975694
   0.91666117  0.16505667  0.50003864
   0.00176852 -0.00096444  0.59627192
   0.08410882  0.33344971  0.40212153
   0.00143040  0.24914399  0.59803684
   0.08416374  0.58266948  0.40254690
   0.00059568  0.49841638  0.59834781
   0.91818143  0.91821703  0.49959386
   0.33493523  0.08186018  0.40240221
   0.16987007  0.41664076  0.49998345
   0.24751828  0.25103098  0.59682326
   0.33343249  0.58347775  0.40218004
   0.16668833  0.66690443  0.49989298
   0.33506273  0.83273158  0.40195622
   0.16464875  0.91700435  0.49960953
   0.58169809  0.08274110  0.40236998
   0.41569520  0.41549471  0.49946891
   0.75120999  0.74888696  0.59799526
Direct configuration=     8
   0.08561780  0.08226499  0.39824890
   0.49862412  0.00045606  0.60168905
   0.41289260  0.66849481  0.49892194
   0.66489351  0.91982021  0.49927821
   0.49884239  0.50125279  0.60271215
   0.24800674  0.49999260  0.60043384
   0.49967228  0.75060683  0.60336548
   0.33120708  0.33326746  0.39938217
   0.58219352  0.33257711  0.39760306
   0.16848261  0.16568486  0.49963712
   0.75217986 -0.00136679  0.60141167
   0.24714594  0.00059474  0.60131842
   0.83373585  0.33263749  0.39673746
   0.83200477  0.83504577  0.39743240
   0.75303812  0.49981071  0.60457278
   0.66508364  0.66835288  0.49907045
   0.91913484  0.41491600  0.50039394
   0.00073390  0.75028254  0.60195573
   0.83314183  0.58368658  0.39482161
   0.92008089  0.66610780  0.50040632
   0.66592423  0.41461123  0.49876911
   0.08531961  0.83142485  0.39935015
   0.75397437  0.24806400  0.60140091
   0.49890003  0.24987730  0.59991170
   0.41468743  0.91852575  0.49958856
   0.83246816  0.08344638  0.40359711
   0.58054370  0.83495470  0.40139002
   0.66705008  0.16664338  0.49969721
   0.58119680  0.58546398  0.40105093
   0.24910503  0.75078957  0.59675034
   0.41687030  0.16847712  0.49977644
   0.91637600  0.16504990  0.49995266
   0.00161905 -0.00071922  0.59613557
   0.08391933  0.33359863  0.40212610
   0.00121387  0.24920209  0.59794464
   0.08413840  0.58266568  0.40255171
   0.00045865  0.49854996  0.59821501
   0.91798214  0.91843424  0.49958097
   0.33508299  0.08156468  0.40251860
   0.16965832  0.41696171  0.49997558
   0.24775049  0.25107648  0.59678298
   0.33343215  0.58352675  0.40233605
   0.16667448  0.66687105  0.49993480
   0.33549197  0.83235177  0.40210125
   0.16485196  0.91701330  0.49941974
   0.58202419  0.08260071  0.40245753
   0.41545034  0.41569024  0.49942097
   0.75112368  0.74879834  0.59787065
Direct configuration=     9
   0.08549065  0.08232352  0.39796789
   0.49885275  0.00054017  0.60188413
   0.41279742  0.66870879  0.49889502
   0.66465233  0.92035189  0.49920617
   0.49900743  0.50116921  0.60293034
   0.24810745  0.49977759  0.60053466
   0.49995059  0.75041336  0.60367404
   0.33116235  0.33343220  0.39928139
   0.58240218  0.33240149  0.39741019
   0.16861481  0.16553929  0.49957494
   0.75213402 -0.00124561  0.60152894
   0.24684309  0.00057709  0.60143249
   0.83352576  0.33275493  0.39652334
   0.83189247  0.83533695  0.39727552
   0.75309512  0.49985135  0.60482757
   0.66487832  0.66811829  0.49900996
   0.91892891  0.41524068  0.50034070
   0.00077965  0.75004847  0.60214398
   0.83299686  0.58361013  0.39442196
   0.92062699  0.66584836  0.50029210
   0.66616170  0.41461056  0.49874141
   0.08522470  0.83133985  0.39918635
   0.75433236  0.24783441  0.60150696
   0.49869691  0.24982782  0.60005387
   0.41480397  0.91855324  0.49977470
   0.83228788  0.08337944  0.40367434
   0.58042704  0.83483328  0.40152943
   0.66737872  0.16642325  0.49975751
   0.58120082  0.58554826  0.40113262
   0.24903931  0.75086952  0.59668807
   0.41689005  0.16826031  0.49979638
   0.91608426  0.16504296  0.49986470
   0.00146613 -0.00046835  0.59599607
   0.08372548  0.33375098  0.40213077
   0.00099235  0.24926154  0.59785031
   0.08411247  0.58266179  0.40255662
   0.00031845  0.49868661  0.59807914
   0.91777826  0.91865646  0.49956778
   0.33523415  0.08126237  0.40263768
   0.16944170  0.41729005  0.49996754
   0.24798804  0.25112303  0.59674178
   0.33343181  0.58357687  0.40249565
   0.16666031  0.66683689  0.49997759
   0.33593109  0.83196321  0.40224961
   0.16505985  0.91702246  0.49922557
   0.58235780  0.08245709  0.40254711
   0.41519984  0.41589029  0.49937192
   0.75103538  0.74870768  0.59774317
Direct configuration=    10
   0.08544746  0.08227309  0.39768834
   0.49888050  0.00044199  0.60212186
   0.41274783  0.66873384  0.49898321
   0.66490385  0.92017081  0.49918504
   0.49912636  0.50104951  0.60312550
   0.24807549  0.49980322  0.60062285
   0.49997346  0.75046165  0.60402960
   0.33125436  0.33335845  0.39925395
   0.58235063  0.33233366  0.39725199
   0.16862300  0.16540095  0.49952147
   0.75226910 -0.00139880  0.60165025
   0.24673718  0.00064449  0.60149920
   0.83345176  0.33270407  0.39626955
   0.83183192  0.83524888  0.39712636
   0.75320723  0.49974404  0.60512935
   0.66491379  0.66826504  0.49898325
   0.91888568  0.41519269  0.50025885
   0.00077330  0.74999429  0.60229906
   0.83286433  0.58374250  0.39394228
   0.92049078  0.66631401  0.50014935
   0.66608330  0.41453198  0.49873357
   0.08521217  0.83131916  0.39902997
   0.75433981  0.24784826  0.60162411
   0.49875612  0.24987427  0.60017826
   0.41472178  0.91871729  0.50006352
   0.83228418  0.08336251  0.40372885
   0.58047070  0.83473345  0.40170547
   0.66731176  0.16659676  0.49985330
   0.58121388  0.58544155  0.40120507
   0.24894142  0.75089910  0.59658090
   0.41665533  0.16855010  0.49979958
   0.91617547  0.16504316  0.49973577
   0.00149265 -0.00055489  0.59574885
   0.08363135  0.33379037  0.40214296
   0.00102527  0.24935480  0.59766370
   0.08401892  0.58271085  0.40253566
   0.00033454  0.49866680  0.59791476
   0.91784763  0.91855949  0.49958204
   0.33533642  0.08105390  0.40282911
   0.16971465  0.41716099  0.49995214
   0.24793789  0.25107447  0.59664479
   0.33348497  0.58351597  0.40268796
   0.16659670  0.66700053  0.50005448
   0.33601149  0.83189122  0.40241782
   0.16502808  0.91724403  0.49899314
   0.58234547  0.08257289  0.40265003
   0.41518601  0.41580217  0.49933726
   0.75103405  0.74876045  0.59751561
Direct configuration=    11
   0.08536606  0.08217805  0.39716152
   0.49893278  0.00025696  0.60256986
   0.41265439  0.66878105  0.49914940
   0.66537782  0.91982958  0.49914520
   0.49935048  0.50082394  0.60349328
   0.24801528  0.49985154  0.60078905
   0.50001655  0.75055265  0.60469964
   0.33142775  0.33321947  0.39920224
   0.58225348  0.33220585  0.39695388
   0.16863845  0.16514026  0.49942069
   0.75252367 -0.00168750  0.60187885
   0.24653759  0.00077152  0.60162492
   0.83331230  0.33260822  0.39579129
   0.83171783  0.83508289  0.39684527
   0.75341849  0.49954181  0.60569807
   0.66498064  0.66854161  0.49893290
   0.91880421  0.41510224  0.50010461
   0.00076133  0.74989218  0.60259131
   0.83261458  0.58399195  0.39303834
   0.92023409  0.66719152  0.49988035
   0.66593556  0.41438389  0.49871879
   0.08518855  0.83128016  0.39873526
   0.75435385  0.24787437  0.60184488
   0.49886769  0.24996180  0.60041267
   0.41456691  0.91902644  0.50060779
   0.83227721  0.08333060  0.40383157
   0.58055296  0.83454532  0.40203722
   0.66718556  0.16692372  0.50003380
   0.58123849  0.58524045  0.40134162
   0.24875694  0.75095483  0.59637894
   0.41621298  0.16909622  0.49980562
   0.91634736  0.16504354  0.49949279
   0.00154262 -0.00071797  0.59528296
   0.08345396  0.33386460  0.40216592
   0.00108731  0.24953056  0.59731203
   0.08384262  0.58280330  0.40249617
   0.00036486  0.49862946  0.59760499
   0.91797837  0.91837674  0.49960892
   0.33552913  0.08066103  0.40318985
   0.17022902  0.41691778  0.49992314
   0.24784338  0.25098296  0.59646201
   0.33358515  0.58340121  0.40305035
   0.16647681  0.66730892  0.50019937
   0.33616298  0.83175555  0.40273480
   0.16496822  0.91766159  0.49855513
   0.58232224  0.08279112  0.40284399
   0.41515997  0.41563613  0.49927195
   0.75103154  0.74885989  0.59708678
Direct configuration=    12
   0.08534340  0.08215160  0.39701490
   0.49894733  0.00020547  0.60269454
   0.41262838  0.66879419  0.49919565
   0.66550973  0.91973461  0.49913411
   0.49941285  0.50076116  0.60359564
   0.24799852  0.49986498  0.60083531
   0.50002855  0.75057797  0.60488612
   0.33147601  0.33318079  0.39918785
   0.58222645  0.33217028  0.39687091
   0.16864275  0.16506771  0.49939265
   0.75259452 -0.00176784  0.60194248
   0.24648204  0.00080687  0.60165991
   0.83327348  0.33258154  0.39565818
   0.83168608  0.83503670  0.39676704
   0.75347729  0.49948553  0.60585634
   0.66499924  0.66861858  0.49891889
   0.91878154  0.41507707  0.50006168
   0.00075800  0.74986377  0.60267264
   0.83254508  0.58406137  0.39278676
   0.92016265  0.66743574  0.49980549
   0.66589444  0.41434267  0.49871468
   0.08518198  0.83126931  0.39865324
   0.75435775  0.24788164  0.60190633
   0.49889874  0.24998616  0.60047791
   0.41452380  0.91911247  0.50075927
   0.83227527  0.08332172  0.40386016
   0.58057586  0.83449296  0.40212955
   0.66715044  0.16701472  0.50008404
   0.58124534  0.58518448  0.40137962
   0.24870560  0.75097034  0.59632273
   0.41608987  0.16924821  0.49980730
   0.91639520  0.16504365  0.49942516
   0.00155653 -0.00076336  0.59515330
   0.08340459  0.33388526  0.40217231
   0.00110458  0.24957948  0.59721416
   0.08379356  0.58282903  0.40248517
   0.00037330  0.49861906  0.59751878
   0.91801475  0.91832588  0.49961640
   0.33558277  0.08055169  0.40329025
   0.17037217  0.41685009  0.49991506
   0.24781708  0.25095749  0.59641114
   0.33361304  0.58336927  0.40315121
   0.16644344  0.66739474  0.50023969
   0.33620515  0.83171779  0.40282302
   0.16495156  0.91777780  0.49843323
   0.58231577  0.08285186  0.40289797
   0.41515272  0.41558992  0.49925378
   0.75103085  0.74888756  0.59696743
Direct configuration=    13
   0.08546222  0.08208776  0.39663475
   0.49879923  0.00034640  0.60296011
   0.41304905  0.66858214  0.49956468
   0.66524150  0.92018434  0.49922651
   0.49930269  0.50103331  0.60381271
   0.24803659  0.49996784  0.60090122
   0.49988364  0.75045545  0.60530973
   0.33131284  0.33301516  0.39917745
   0.58213317  0.33222506  0.39673561
   0.16827250  0.16533353  0.49929026
   0.75257729 -0.00184564  0.60204275
   0.24657448  0.00077820  0.60170142
   0.83330447  0.33255726  0.39528447
   0.83159364  0.83497818  0.39655941
   0.75353180  0.49955785  0.60618840
   0.66521373  0.66836106  0.49898818
   0.91862564  0.41542259  0.49981737
   0.00079143  0.74981990  0.60282723
   0.83257592  0.58393931  0.39217341
   0.92015663  0.66709518  0.49957077
   0.66571343  0.41455567  0.49874392
   0.08521847  0.83118248  0.39850185
   0.75439145  0.24787298  0.60199985
   0.49911736  0.24981545  0.60059206
   0.41473776  0.91905425  0.50126782
   0.83237958  0.08324106  0.40389164
   0.58063165  0.83455124  0.40232198
   0.66692069  0.16710461  0.50029663
   0.58136899  0.58486494  0.40146582
   0.24890140  0.75090901  0.59620897
   0.41644284  0.16920655  0.49992738
   0.91645910  0.16526057  0.49920180
   0.00169654 -0.00096701  0.59474255
   0.08334575  0.33384215  0.40217380
   0.00116705  0.24958183  0.59694804
   0.08376583  0.58276299  0.40245907
   0.00040198  0.49862842  0.59724244
   0.91818594  0.91841602  0.49957777
   0.33551181  0.08056418  0.40353553
   0.17011811  0.41703844  0.49985651
   0.24786343  0.25078639  0.59629339
   0.33354409  0.58324703  0.40334894
   0.16632101  0.66767141  0.50034257
   0.33600075  0.83190604  0.40302072
   0.16471558  0.91790268  0.49817589
   0.58213588  0.08286559  0.40305770
   0.41538831  0.41547944  0.49933629
   0.75111678  0.74876072  0.59670263
Direct configuration=    14
   0.08552723  0.08205283  0.39642676
   0.49871819  0.00042351  0.60310542
   0.41327921  0.66846612  0.49976659
   0.66509475  0.92043040  0.49927707
   0.49924242  0.50118222  0.60393148
   0.24805743  0.50002412  0.60093729
   0.49980435  0.75038841  0.60554151
   0.33122357  0.33292454  0.39917176
   0.58208214  0.33225503  0.39666158
   0.16806993  0.16547898  0.49923425
   0.75256787 -0.00188820  0.60209761
   0.24662505  0.00076251  0.60172413
   0.83332142  0.33254397  0.39507999
   0.83154307  0.83494616  0.39644581
   0.75356162  0.49959742  0.60637009
   0.66533108  0.66822016  0.49902608
   0.91854035  0.41561164  0.49968370
   0.00080972  0.74979590  0.60291181
   0.83259279  0.58387253  0.39183782
   0.92015333  0.66690885  0.49944234
   0.66561439  0.41467221  0.49875992
   0.08523843  0.83113497  0.39841902
   0.75440988  0.24786824  0.60205102
   0.49923698  0.24972205  0.60065451
   0.41485482  0.91902239  0.50154607
   0.83243665  0.08319692  0.40390887
   0.58066217  0.83458313  0.40242726
   0.66679499  0.16715379  0.50041294
   0.58143664  0.58469011  0.40151298
   0.24900854  0.75087545  0.59614673
   0.41663596  0.16918375  0.49999308
   0.91649407  0.16537925  0.49907958
   0.00177315 -0.00107843  0.59451782
   0.08331356  0.33381856  0.40217462
   0.00120124  0.24958311  0.59680243
   0.08375066  0.58272686  0.40244478
   0.00041768  0.49863355  0.59709125
   0.91827960  0.91846534  0.49955664
   0.33547300  0.08057101  0.40366972
   0.16997911  0.41714149  0.49982447
   0.24788879  0.25069278  0.59622896
   0.33350636  0.58318014  0.40345712
   0.16625402  0.66782278  0.50039886
   0.33588892  0.83200904  0.40312888
   0.16458646  0.91797100  0.49803509
   0.58203746  0.08287310  0.40314509
   0.41551721  0.41541899  0.49938143
   0.75116380  0.74869133  0.59655775
Direct configuration=    15
   0.08555348  0.08213445  0.39629818
   0.49870684  0.00041949  0.60318941
   0.41341766  0.66856683  0.49993489
   0.66510484  0.92047498  0.49941834
   0.49922903  0.50116920  0.60402944
   0.24825441  0.49980591  0.60087440
   0.49990231  0.75037878  0.60567980
   0.33104450  0.33292774  0.39923421
   0.58212580  0.33219219  0.39674719
   0.16815899  0.16562045  0.49915321
   0.75256429 -0.00190674  0.60208394
   0.24665610  0.00068456  0.60169051
   0.83340461  0.33247977  0.39490108
   0.83151813  0.83503748  0.39642114
   0.75358589  0.49963804  0.60638912
   0.66536838  0.66814099  0.49909367
   0.91820556  0.41584297  0.49947421
   0.00079175  0.74980530  0.60285911
   0.83262402  0.58369332  0.39168179
   0.92009412  0.66682088  0.49931177
   0.66593277  0.41455105  0.49880628
   0.08522941  0.83099258  0.39841412
   0.75454806  0.24789894  0.60198191
   0.49915161  0.24982703  0.60068156
   0.41501872  0.91879869  0.50173497
   0.83232516  0.08323975  0.40387392
   0.58057791  0.83457363  0.40249615
   0.66699198  0.16711747  0.50049252
   0.58140678  0.58477285  0.40155935
   0.24902988  0.75097469  0.59621519
   0.41668013  0.16912020  0.50014986
   0.91607883  0.16586979  0.49893646
   0.00174613 -0.00101183  0.59437629
   0.08328763  0.33375559  0.40208067
   0.00110584  0.24950085  0.59670620
   0.08380322  0.58263929  0.40240077
   0.00047007  0.49859615  0.59700367
   0.91803873  0.91854395  0.49943147
   0.33534230  0.08063322  0.40377316
   0.16987916  0.41731963  0.49978973
   0.24803176  0.25077647  0.59619470
   0.33339453  0.58320111  0.40354087
   0.16628317  0.66768230  0.50035989
   0.33600061  0.83195020  0.40324474
   0.16476481  0.91776421  0.49800914
   0.58201243  0.08279561  0.40318960
   0.41546595  0.41556444  0.49953498
   0.75109168  0.74862554  0.59655643
Direct configuration=    16
   0.08556752  0.08217807  0.39622945
   0.49870077  0.00041734  0.60323430
   0.41349166  0.66862065  0.50002484
   0.66511024  0.92049881  0.49949385
   0.49922188  0.50116224  0.60408180
   0.24835970  0.49968928  0.60084079
   0.49995466  0.75037364  0.60575372
   0.33094879  0.33292945  0.39926759
   0.58214914  0.33215860  0.39679295
   0.16820660  0.16569607  0.49910989
   0.75256238 -0.00191665  0.60207663
   0.24667270  0.00064290  0.60167254
   0.83344908  0.33244545  0.39480544
   0.83150481  0.83508629  0.39640795
   0.75359885  0.49965976  0.60639930
   0.66538832  0.66809867  0.49912980
   0.91802661  0.41596662  0.49936224
   0.00078215  0.74981032  0.60283095
   0.83264071  0.58359754  0.39159839
   0.92006248  0.66677387  0.49924198
   0.66610294  0.41448629  0.49883106
   0.08522459  0.83091648  0.39841151
   0.75462191  0.24791535  0.60194497
   0.49910599  0.24988314  0.60069601
   0.41510633  0.91867912  0.50183593
   0.83226557  0.08326263  0.40385524
   0.58053287  0.83456856  0.40253297
   0.66709728  0.16709806  0.50053505
   0.58139082  0.58481707  0.40158414
   0.24904129  0.75102773  0.59625179
   0.41670375  0.16908623  0.50023365
   0.91585688  0.16613199  0.49885996
   0.00173169 -0.00097624  0.59430064
   0.08327377  0.33372194  0.40203045
   0.00105485  0.24945688  0.59665476
   0.08383132  0.58259248  0.40237724
   0.00049808  0.49857616  0.59695687
   0.91790999  0.91858597  0.49936457
   0.33527244  0.08066647  0.40382844
   0.16982575  0.41741484  0.49977116
   0.24810817  0.25082121  0.59617639
   0.33333476  0.58321232  0.40358564
   0.16629875  0.66760722  0.50033907
   0.33606031  0.83191876  0.40330667
   0.16486014  0.91765369  0.49799526
   0.58199905  0.08275420  0.40321339
   0.41543855  0.41564219  0.49961705
   0.75105313  0.74859039  0.59655572
Direct configuration=    17
   0.08557564  0.08206152  0.39616690
   0.49873286  0.00041572  0.60334235
   0.41360925  0.66849162  0.50016372
   0.66513825  0.92037235  0.49961674