  48  48   0   0
  0.5349325E+02  0.1100258E-08  0.1100258E-08  0.2449179E-08  0.3500000E-15
  1.000000000000000E-004
  CAR 
 unknown system                          
      6.34911495     -9.81013859  301     -1.09447325      1.00000000
     -9.810  0.0000E+00  0.0000E+00
     -9.756  0.0000E+00  0.0000E+00
     -9.702  0.0000E+00  0.0000E+00
     -9.649  0.0000E+00  0.0000E+00
     -9.595  0.0000E+00  0.0000E+00
     -9.541  0.0000E+00  0.0000E+00
     -9.487  0.0000E+00  0.0000E+00
     -9.433  0.0000E+00  0.0000E+00
     -9.379  0.8932E-17  0.4811E-18
     -9.325  0.3299E-14  0.1782E-15
     -9.271  0.7367E-12  0.3986E-13
     -9.218  0.9334E-10  0.5068E-11
     -9.164  0.6720E-08  0.3671E-09
     -9.110  0.2755E-06  0.1521E-07
     -9.056  0.6447E-05  0.3625E-06
     -9.002  0.8629E-04  0.5011E-05
     -8.948  0.6625E-03  0.4070E-04
     -8.894  0.2927E-02  0.1984E-03
     -8.841  0.7493E-02  0.6020E-03
     -8.787  0.1143E-01  0.1218E-02
     -8.733  0.1176E-01  0.1851E-02
     -8.679  0.1134E-01  0.2461E-02
     -8.625  0.1190E-01  0.3102E-02
     -8.571  0.9796E-02  0.3630E-02
     -8.517  0.5044E-02  0.3902E-02
     -8.464  0.1529E-02  0.3984E-02
     -8.410  0.2705E-03  0.3998E-02
     -8.356  0.4564E-04  0.4001E-02
     -8.302  0.1772E-03  0.4010E-02
     -8.248  0.1017E-02  0.4065E-02
     -8.194  0.3631E-02  0.4261E-02
     -8.140  0.8243E-02  0.4705E-02
     -8.086  0.1238E-01  0.5372E-02
     -8.033  0.1321E-01  0.6083E-02
     -7.979  0.1222E-01  0.6741E-02
     -7.925  0.1357E-01  0.7472E-02
     -7.871  0.1713E-01  0.8395E-02
     -7.817  0.1860E-01  0.9397E-02
     -7.763  0.1632E-01  0.1028E-01
     -7.709  0.1232E-01  0.1094E-01
     -7.656  0.9738E-02  0.1146E-01
     -7.602  0.1139E-01  0.1208E-01
     -7.548  0.1690E-01  0.1299E-01
     -7.494  0.2315E-01  0.1423E-01
     -7.440  0.2658E-01  0.1567E-01
     -7.386  0.2504E-01  0.1702E-01
     -7.332  0.2111E-01  0.1815E-01
     -7.279  0.1995E-01  0.1923E-01
     -7.225  0.2249E-01  0.2044E-01
     -7.171  0.2757E-01  0.2192E-01
     -7.117  0.3571E-01  0.2385E-01
     -7.063  0.4571E-01  0.2631E-01
     -7.009  0.5424E-01  0.2923E-01
     -6.955  0.5985E-01  0.3245E-01
     -6.901  0.6352E-01  0.3588E-01
     -6.848  0.6660E-01  0.3946E-01
     -6.794  0.7063E-01  0.4327E-01
     -6.740  0.7643E-01  0.4738E-01
     -6.686  0.8180E-01  0.5179E-01
     -6.632  0.8461E-01  0.5635E-01
     -6.578  0.8702E-01  0.6104E-01
     -6.524  0.9195E-01  0.6599E-01
     -6.471  0.9998E-01  0.7137E-01
     -6.417  0.1102E+00  0.7731E-01
     -6.363  0.1200E+00  0.8377E-01
     -6.309  0.1288E+00  0.9071E-01
     -6.255  0.1383E+00  0.9816E-01
     -6.201  0.1472E+00  0.1061E+00
     -6.147  0.1493E+00  0.1141E+00
     -6.094  0.1444E+00  0.1219E+00
     -6.040  0.1423E+00  0.1296E+00
     -5.986  0.1495E+00  0.1376E+00
     -5.932  0.1594E+00  0.1462E+00
     -5.878  0.1639E+00  0.1550E+00
     -5.824  0.1604E+00  0.1637E+00
     -5.770  0.1522E+00  0.1719E+00
     -5.716  0.1448E+00  0.1797E+00
     -5.663  0.1398E+00  0.1872E+00
     -5.609  0.1377E+00  0.1946E+00
     -5.555  0.1395E+00  0.2021E+00
     -5.501  0.1423E+00  0.2098E+00
     -5.447  0.1438E+00  0.2176E+00
     -5.393  0.1453E+00  0.2254E+00
     -5.339  0.1483E+00  0.2334E+00
     -5.286  0.1533E+00  0.2416E+00
     -5.232  0.1597E+00  0.2502E+00
     -5.178  0.1673E+00  0.2592E+00
     -5.124  0.1753E+00  0.2687E+00
     -5.070  0.1793E+00  0.2783E+00
     -5.016  0.1760E+00  0.2878E+00
     -4.962  0.1681E+00  0.2969E+00
     -4.908  0.1617E+00  0.3056E+00
     -4.855  0.1595E+00  0.3142E+00
     -4.801  0.1616E+00  0.3229E+00
     -4.747  0.1672E+00  0.3319E+00
     -4.693  0.1733E+00  0.3412E+00
     -4.639  0.1755E+00  0.3507E+00
     -4.585  0.1754E+00  0.3601E+00
     -4.531  0.1782E+00  0.3697E+00
     -4.478  0.1804E+00  0.3794E+00
     -4.424  0.1772E+00  0.3890E+00
     -4.370  0.1751E+00  0.3984E+00
     -4.316  0.1796E+00  0.4081E+00
     -4.262  0.1839E+00  0.4180E+00
     -4.208  0.1819E+00  0.4278E+00
     -4.154  0.1772E+00  0.4373E+00
     -4.101  0.1763E+00  0.4468E+00
     -4.047  0.1808E+00  0.4566E+00
     -3.993  0.1870E+00  0.4666E+00
     -3.939  0.1894E+00  0.4768E+00
     -3.885  0.1875E+00  0.4869E+00
     -3.831  0.1861E+00  0.4970E+00
     -3.777  0.1869E+00  0.5070E+00
     -3.723  0.1893E+00  0.5172E+00
     -3.670  0.1943E+00  0.5277E+00
     -3.616  0.2033E+00  0.5386E+00
     -3.562  0.2145E+00  0.5502E+00
     -3.508  0.2243E+00  0.5623E+00
     -3.454  0.2301E+00  0.5747E+00
     -3.400  0.2294E+00  0.5870E+00
     -3.346  0.2214E+00  0.5990E+00
     -3.293  0.2094E+00  0.6102E+00
     -3.239  0.1957E+00  0.6208E+00
     -3.185  0.1821E+00  0.6306E+00
     -3.131  0.1727E+00  0.6399E+00
     -3.077  0.1702E+00  0.6491E+00
     -3.023  0.1738E+00  0.6584E+00
     -2.969  0.1796E+00  0.6681E+00
     -2.916  0.1843E+00  0.6780E+00
     -2.862  0.1896E+00  0.6882E+00
     -2.808  0.1978E+00  0.6989E+00
     -2.754  0.2040E+00  0.7099E+00
     -2.700  0.2023E+00  0.7208E+00
     -2.646  0.1954E+00  0.7313E+00
     -2.592  0.1894E+00  0.7415E+00
     -2.538  0.1856E+00  0.7515E+00
     -2.485  0.1815E+00  0.7613E+00
     -2.431  0.1760E+00  0.7708E+00
     -2.377  0.1707E+00  0.7800E+00
     -2.323  0.1689E+00  0.7891E+00
     -2.269  0.1718E+00  0.7983E+00
     -2.215  0.1765E+00  0.8078E+00
     -2.161  0.1793E+00  0.8175E+00
     -2.108  0.1788E+00  0.8271E+00
     -2.054  0.1789E+00  0.8367E+00
     -2.000  0.1827E+00  0.8466E+00
     -1.946  0.1875E+00  0.8567E+00
     -1.892  0.1924E+00  0.8670E+00
     -1.838  0.1972E+00  0.8777E+00
     -1.784  0.1973E+00  0.8883E+00
     -1.731  0.1905E+00  0.8986E+00
     -1.677  0.1843E+00  0.9085E+00
     -1.623  0.1851E+00  0.9185E+00
     -1.569  0.1876E+00  0.9286E+00
     -1.515  0.1858E+00  0.9386E+00
     -1.461  0.1830E+00  0.9484E+00
     -1.407  0.1833E+00  0.9583E+00
     -1.353  0.1837E+00  0.9682E+00
     -1.300  0.1795E+00  0.9779E+00
     -1.246  0.1694E+00  0.9870E+00
     -1.192  0.1556E+00  0.9954E+00
     -1.138  0.1384E+00  0.1003E+01
     -1.084  0.1164E+00  0.1009E+01
     -1.030  0.8757E-01  0.1014E+01
     -0.976  0.5517E-01  0.1017E+01
     -0.923  0.3074E-01  0.1018E+01
     -0.869  0.2064E-01  0.1020E+01
     -0.815  0.1992E-01  0.1021E+01
     -0.761  0.2136E-01  0.1022E+01
     -0.707  0.2259E-01  0.1023E+01
     -0.653  0.2641E-01  0.1024E+01
     -0.599  0.3530E-01  0.1026E+01
     -0.545  0.4475E-01  0.1029E+01
     -0.492  0.4633E-01  0.1031E+01
     -0.438  0.3955E-01  0.1033E+01
     -0.384  0.3045E-01  0.1035E+01
     -0.330  0.2551E-01  0.1036E+01
     -0.276  0.2956E-01  0.1038E+01
     -0.222  0.3848E-01  0.1040E+01
     -0.168  0.4169E-01  0.1042E+01
     -0.115  0.3581E-01  0.1044E+01
     -0.061  0.2712E-01  0.1046E+01
     -0.007  0.2232E-01  0.1047E+01
      0.047  0.2339E-01  0.1048E+01
      0.101  0.2755E-01  0.1050E+01
      0.155  0.3067E-01  0.1051E+01
      0.209  0.3178E-01  0.1053E+01
      0.262  0.3424E-01  0.1055E+01
      0.316  0.3853E-01  0.1057E+01
      0.370  0.4060E-01  0.1059E+01
      0.424  0.4034E-01  0.1061E+01
      0.478  0.4090E-01  0.1063E+01
      0.532  0.4268E-01  0.1066E+01
      0.586  0.4324E-01  0.1068E+01
      0.640  0.4209E-01  0.1070E+01
      0.693  0.4168E-01  0.1073E+01
      0.747  0.4051E-01  0.1075E+01
      0.801  0.3302E-01  0.1077E+01
      0.855  0.2194E-01  0.1078E+01
      0.909  0.1743E-01  0.1079E+01
      0.963  0.2136E-01  0.1080E+01
      1.017  0.2557E-01  0.1081E+01
      1.070  0.2572E-01  0.1083E+01
      1.124  0.2467E-01  0.1084E+01
      1.178  0.2319E-01  0.1085E+01
      1.232  0.1971E-01  0.1086E+01
      1.286  0.1510E-01  0.1087E+01
      1.340  0.1067E-01  0.1088E+01
      1.394  0.8327E-02  0.1088E+01
      1.447  0.1185E-01  0.1089E+01
      1.501  0.2248E-01  0.1090E+01
      1.555  0.3469E-01  0.1092E+01
      1.609  0.3980E-01  0.1094E+01
      1.663  0.3674E-01  0.1096E+01
      1.717  0.3404E-01  0.1098E+01
      1.771  0.3629E-01  0.1100E+01
      1.825  0.3800E-01  0.1102E+01
      1.878  0.3310E-01  0.1104E+01
      1.932  0.2384E-01  0.1105E+01
      1.986  0.1713E-01  0.1106E+01
      2.040  0.1708E-01  0.1107E+01
      2.094  0.2295E-01  0.1108E+01
      2.148  0.3023E-01  0.1110E+01
      2.202  0.3706E-01  0.1112E+01
      2.255  0.4342E-01  0.1114E+01
      2.309  0.4473E-01  0.1116E+01
      2.363  0.3918E-01  0.1118E+01
      2.417  0.3400E-01  0.1120E+01
      2.471  0.3590E-01  0.1122E+01
      2.525  0.4200E-01  0.1124E+01
      2.579  0.4628E-01  0.1127E+01
      2.632  0.4781E-01  0.1129E+01
      2.686  0.4607E-01  0.1132E+01
      2.740  0.3980E-01  0.1134E+01
      2.794  0.3102E-01  0.1136E+01
      2.848  0.2300E-01  0.1137E+01
      2.902  0.1733E-01  0.1138E+01
      2.956  0.1477E-01  0.1139E+01
      3.010  0.1336E-01  0.1139E+01
      3.063  0.1211E-01  0.1140E+01
      3.117  0.1500E-01  0.1141E+01
      3.171  0.2219E-01  0.1142E+01
      3.225  0.2695E-01  0.1144E+01
      3.279  0.2401E-01  0.1145E+01
      3.333  0.1626E-01  0.1146E+01
      3.387  0.1312E-01  0.1146E+01
      3.440  0.1927E-01  0.1147E+01
      3.494  0.2850E-01  0.1149E+01
      3.548  0.3415E-01  0.1151E+01
      3.602  0.3634E-01  0.1153E+01
      3.656  0.3648E-01  0.1155E+01
      3.710  0.3583E-01  0.1157E+01
      3.764  0.3399E-01  0.1159E+01
      3.817  0.2906E-01  0.1160E+01
      3.871  0.2377E-01  0.1161E+01
      3.925  0.2264E-01  0.1163E+01
      3.979  0.2534E-01  0.1164E+01
      4.033  0.2798E-01  0.1165E+01
      4.087  0.2820E-01  0.1167E+01
      4.141  0.2659E-01  0.1168E+01
      4.195  0.2418E-01  0.1170E+01
      4.248  0.2093E-01  0.1171E+01
      4.302  0.1763E-01  0.1172E+01
      4.356  0.1821E-01  0.1173E+01
      4.410  0.2327E-01  0.1174E+01
      4.464  0.2750E-01  0.1176E+01
      4.518  0.3250E-01  0.1177E+01
      4.572  0.4358E-01  0.1180E+01
      4.625  0.5486E-01  0.1183E+01
      4.679  0.5799E-01  0.1186E+01
      4.733  0.5425E-01  0.1189E+01
      4.787  0.4938E-01  0.1191E+01
      4.841  0.4877E-01  0.1194E+01
      4.895  0.5337E-01  0.1197E+01
      4.949  0.5852E-01  0.1200E+01
      5.003  0.6263E-01  0.1203E+01
      5.056  0.6652E-01  0.1207E+01
      5.110  0.6657E-01  0.1210E+01
      5.164  0.6156E-01  0.1214E+01
      5.218  0.5691E-01  0.1217E+01
      5.272  0.5234E-01  0.1220E+01
      5.326  0.4133E-01  0.1222E+01
      5.380  0.2474E-01  0.1223E+01
      5.433  0.1055E-01  0.1224E+01
      5.487  0.3068E-02  0.1224E+01
      5.541  0.5818E-03  0.1224E+01
      5.595  0.6884E-04  0.1224E+01
      5.649  0.4910E-05  0.1224E+01
      5.703  0.2061E-06  0.1224E+01
      5.757  0.5015E-08  0.1224E+01
      5.810  0.7007E-10  0.1224E+01
      5.864  0.5588E-12  0.1224E+01
      5.918  0.2534E-14  0.1224E+01
      5.972  0.6871E-17  0.1224E+01
      6.026  0.0000E+00  0.1224E+01
      6.080  0.0000E+00  0.1224E+01
      6.134  0.0000E+00  0.1224E+01
      6.188  0.0000E+00  0.1224E+01
      6.241  0.0000E+00  0.1224E+01
      6.295  0.0000E+00  0.1224E+01
      6.349  0.0000E+00  0.1224E+01
