unknown system                          
           1
    11.002582    0.000000    0.000000
     5.501291    9.528515    0.000000
     0.000000    0.000000   26.191785
   Au   O    Pd
  24   8  24
Direct configuration=     1
   0.08333333  0.08333333  0.38179910
   0.33333333  0.83333333  0.38179910
   0.66666667  0.16666667  0.46754708
   0.91666667  0.16666667  0.46754708
   0.66666667  0.91666667  0.46754708
   0.83333333  0.83333333  0.38179910
   0.08333333  0.33333333  0.38179910
   0.00000000  0.25000000  0.55329505
   0.75000000  0.50000000  0.55329505
   0.83333333  0.58333333  0.38179910
   0.75000000  0.25000000  0.55329505
   0.91666667  0.91666667  0.46754708
   0.83333333  0.33333333  0.38179910
   0.41666667  0.91666667  0.46754708
   0.50000000  0.50000000  0.55329505
   0.41666667  0.66666667  0.46754708
   0.41666667  0.41666667  0.46754708
   0.58333333  0.33333333  0.38179910
   0.16666667  0.41666667  0.46754708
   0.41666667  0.16666667  0.46754708
   0.58333333  0.08333333  0.38179910
   0.25000000  0.75000000  0.55329505
   0.16666667  0.66666667  0.46754708
   0.16666667  0.91666667  0.46754708
   0.83333333  0.83333333  0.61820090
   0.08333333  0.83333333  0.61820090
   0.08333333  0.08333333  0.61820090
   0.33333333  0.83333333  0.61820090
   0.83333333  0.58333333  0.61820090
   0.58333333  0.33333333  0.61820090
   0.58333333  0.58333333  0.61820090
   0.83333333  0.08333333  0.61820090
   0.50000000  0.25000000  0.55329505
   0.50000000  0.75000000  0.55329505
   0.33333333  0.33333333  0.38179910
   0.33333333  0.08333333  0.38179910
   0.50000000  0.00000000  0.55329505
   0.25000000  0.25000000  0.55329505
   0.75000000  0.75000000  0.55329505
   0.33333333  0.58333333  0.38179910
   0.16666667  0.16666667  0.46754708
   0.25000000  0.50000000  0.55329505
   0.58333333  0.83333333  0.38179910
   0.00000000  0.75000000  0.55329505
   0.83333333  0.08333333  0.38179910
   0.08333333  0.83333333  0.38179910
   0.75000000  0.00000000  0.55329505
   0.00000000  0.50000000  0.55329505
   0.66666667  0.41666667  0.46754708
   0.91666667  0.66666667  0.46754708
   0.08333333  0.58333333  0.38179910
   0.66666667  0.66666667  0.46754708
   0.91666667  0.41666667  0.46754708
   0.00000000  0.00000000  0.55329505
   0.25000000  0.00000000  0.55329505
   0.58333333  0.58333333  0.38179910
Direct configuration=     2
   0.08333333  0.08333333  0.38179910
   0.33333333  0.83333333  0.38179910
   0.66712648  0.16655075  0.46795135
   0.91637141  0.16719022  0.46784982
   0.66742870  0.91438235  0.46862152
   0.83333333  0.83333333  0.38179910
   0.08333333  0.33333333  0.38179910
   0.00189536  0.25016555  0.55564055
   0.75143700  0.50033258  0.55574406
   0.83333333  0.58333333  0.38179910
   0.75076189  0.24918985  0.55622315
   0.91706742  0.91613208  0.46770373
   0.83333333  0.33333333  0.38179910
   0.41701668  0.91681645  0.46823998
   0.49857127  0.49996372  0.55656522
   0.41890480  0.66519896  0.46746006
   0.41641181  0.41704370  0.46767590
   0.58333333  0.33333333  0.38179910
   0.16511495  0.41706291  0.46816681
   0.41515224  0.16694641  0.46818478
   0.58333333  0.08333333  0.38179910
   0.24963626  0.74912481  0.55663232
   0.16537897  0.66657952  0.46756889
   0.16564347  0.91803785  0.46774470
   0.83282061  0.83307734  0.61407577
   0.08249472  0.83234638  0.61481392
   0.08429873  0.08444303  0.61475403
   0.33506648  0.83418350  0.61477245
   0.83512409  0.58320521  0.61464681
   0.58178433  0.33228263  0.61534459
   0.58246010  0.58510184  0.61550675
   0.83241248  0.08289974  0.61500034
   0.49930561  0.24994023  0.55589379
   0.49966167  0.75116512  0.55681368
   0.33333333  0.33333333  0.38179910
   0.33333333  0.08333333  0.38179910
   0.49962689  0.00053740  0.55435501
   0.25033349  0.25021315  0.55424211
   0.75118283  0.74979910  0.55649811
   0.33333333  0.58333333  0.38179910
   0.16733560  0.16652303  0.46794399
   0.24933951  0.49891274  0.55445691
   0.58333333  0.83333333  0.38179910
  -0.00083767  0.74984638  0.55692306
   0.83333333  0.08333333  0.38179910
   0.08333333  0.83333333  0.38179910
   0.75032132 -0.00117069  0.55721056
  -0.00095818  0.50117026  0.55546325
   0.66758036  0.41748123  0.46775385
   0.91672990  0.66619256  0.46804055
   0.08333333  0.58333333  0.38179910
   0.66711576  0.66646732  0.46790789
   0.91608394  0.41736538  0.46840139
  -0.00029297 -0.00018282  0.55798830
   0.25049609  0.00044076  0.55691546
   0.58333333  0.58333333  0.38179910
Direct configuration=     3
   0.08333333  0.08333333  0.38179910
   0.33333333  0.83333333  0.38179910
   0.66790030  0.16635566  0.46863169
   0.91587453  0.16807129  0.46835931
   0.66871110  0.91053813  0.47042966
   0.83333333  0.83333333  0.38179910
   0.08333333  0.33333333  0.38179910
   0.00508502  0.25044415  0.55958774
   0.75385528  0.50089227  0.55986542
   0.83333333  0.58333333  0.38179910
   0.75204405  0.24782648  0.56115076
   0.91774182  0.91523244  0.46796735
   0.83333333  0.33333333  0.38179910
   0.41760570  0.91706852  0.46940604
   0.49616689  0.49990267  0.56206850
   0.42267129  0.66272899  0.46731363
   0.41598292  0.41767820  0.46789269
   0.58333333  0.33333333  0.38179910
   0.16250360  0.41772974  0.46920974
   0.41260364  0.16741719  0.46925797
   0.58333333  0.08333333  0.38179910
   0.24902413  0.74765198  0.56224853
   0.16321193  0.66643287  0.46760560
   0.16392156  0.92034537  0.46807729
   0.83195776  0.83264653  0.60713371
   0.08108345  0.83068546  0.60911406
   0.08592337  0.08631050  0.60895339
   0.33798315  0.83561421  0.60900279
   0.83813771  0.58298960  0.60866573
   0.57917754  0.33051442  0.61053779
   0.58099057  0.58807801  0.61097283
   0.83086281  0.08217005  0.60961420
   0.49813704  0.24983965  0.56026714
   0.49909231  0.75312587  0.56273509
   0.33333333  0.33333333  0.38179910
   0.33333333  0.08333333  0.38179910
   0.49899900  0.00144178  0.55613880
   0.25089470  0.25057184  0.55583588
   0.75317338  0.74946100  0.56188845
   0.33333333  0.58333333  0.38179910
   0.16846133  0.16628129  0.46861195
   0.24822798  0.49708302  0.55641218
   0.58333333  0.83333333  0.38179910
  -0.00224736  0.74958785  0.56302853
   0.83333333  0.08333333  0.38179910
   0.08333333  0.83333333  0.38179910
   0.75086207 -0.00314080  0.56379987
  -0.00257069  0.50313965  0.55911204
   0.66911800  0.41885204  0.46810183
   0.91683633  0.66539469  0.46887100
   0.08333333  0.58333333  0.38179910
   0.66787152  0.66613185  0.46851510
   0.91510329  0.41854122  0.46983909
  -0.00078601 -0.00049048  0.56588644
   0.25133094  0.00118251  0.56300814
   0.58333333  0.58333333  0.38179910
Direct configuration=     4
   0.08333333  0.08333333  0.38179910
   0.33333333  0.83333333  0.38179910
   0.66777040  0.16638841  0.46851749
   0.91595794  0.16792339  0.46827379
   0.66849584  0.91118343  0.47012614
   0.83333333  0.83333333  0.38179910
   0.08333333  0.33333333  0.38179910
   0.00454959  0.25039739  0.55892515
   0.75344934  0.50079832  0.55917360
   0.83333333  0.58333333  0.38179910
   0.75182882  0.24805534  0.56032360
   0.91762862  0.91538346  0.46792310
   0.83333333  0.33333333  0.38179910
   0.41750683  0.91702621  0.46921030
   0.49657050  0.49991292  0.56114470
   0.42203904  0.66314361  0.46733821
   0.41605492  0.41757169  0.46785630
   0.58333333  0.33333333  0.38179910
   0.16294195  0.41761780  0.46903467
   0.41303146  0.16733816  0.46907782
   0.58333333  0.08333333  0.38179910
   0.24912688  0.74789921  0.56130578
   0.16357569  0.66645749  0.46759944
   0.16421061  0.91995803  0.46802146
   0.83210260  0.83271884  0.60829902
   0.08132035  0.83096427  0.61007085
   0.08565066  0.08599703  0.60992710
   0.33749355  0.83537405  0.60997130
   0.83763184  0.58302580  0.60966973
   0.57961512  0.33081123  0.61134467
   0.58123725  0.58757842  0.61173391
   0.83112294  0.08229253  0.61051833
   0.49833320  0.24985654  0.55953302
   0.49918788  0.75279673  0.56174111
   0.33333333  0.33333333  0.38179910
   0.33333333  0.08333333  0.38179910
   0.49910440  0.00128997  0.55583937
   0.25080049  0.25051163  0.55556834
   0.75283924  0.74951775  0.56098361
   0.33333333  0.58333333  0.38179910
   0.16827236  0.16632187  0.46849982
   0.24841456  0.49739017  0.55608396
   0.58333333  0.83333333  0.38179910
  -0.00201073  0.74963124  0.56200365
   0.83333333  0.08333333  0.38179910
   0.08333333  0.83333333  0.38179910
   0.75077130 -0.00281010  0.56269377
  -0.00230001  0.50280906  0.55849955
   0.66885989  0.41862194  0.46804341
   0.91681846  0.66552862  0.46873160
   0.08333333  0.58333333  0.38179910
   0.66774466  0.66618816  0.46841318
   0.91526791  0.41834384  0.46959775
  -0.00070325 -0.00043883  0.56456064
   0.25119080  0.00105799  0.56198541
   0.58333333  0.58333333  0.38179910
Direct configuration=     5
   0.08333333  0.08333333  0.38179910
   0.33333333  0.83333333  0.38179910
   0.66780571  0.16637951  0.46854853
   0.91593527  0.16796359  0.46829703
   0.66855435  0.91100804  0.47020864
   0.83333333  0.83333333  0.38179910
   0.08333333  0.33333333  0.38179910
   0.00469512  0.25041010  0.55910525
   0.75355968  0.50082386  0.55936164
   0.83333333  0.58333333  0.38179910
   0.75188732  0.24799313  0.56054843
   0.91765939  0.91534241  0.46793513
   0.83333333  0.33333333  0.38179910
   0.41753370  0.91703771  0.46926350
   0.49646079  0.49991013  0.56139580
   0.42221089  0.66303091  0.46733153
   0.41603535  0.41760064  0.46786619
   0.58333333  0.33333333  0.38179910
   0.16282280  0.41764823  0.46908225
   0.41291517  0.16735964  0.46912679
   0.58333333  0.08333333  0.38179910
   0.24909895  0.74783201  0.56156203
   0.16347682  0.66645079  0.46760111
   0.16413204  0.92006331  0.46803663
   0.83206324  0.83269919  0.60798228
   0.08125596  0.83088848  0.60981078
   0.08572478  0.08608223  0.60966243
   0.33762663  0.83543933  0.60970805
   0.83776934  0.58301596  0.60939683
   0.57949618  0.33073056  0.61112535
   0.58117020  0.58771421  0.61152704
   0.83105223  0.08225924  0.61027258
   0.49827988  0.24985195  0.55973256
   0.49916191  0.75288619  0.56201128
   0.33333333  0.33333333  0.38179910
   0.33333333  0.08333333  0.38179910
   0.49907575  0.00133123  0.55592076
   0.25082610  0.25052800  0.55564106
   0.75293007  0.74950233  0.56122956
   0.33333333  0.58333333  0.38179910
   0.16832372  0.16631084  0.46853030
   0.24836385  0.49730668  0.55617318
   0.58333333  0.83333333  0.38179910
  -0.00207505  0.74961945  0.56228222
   0.83333333  0.08333333  0.38179910
   0.08333333  0.83333333  0.38179910
   0.75079597 -0.00289999  0.56299442
  -0.00237358  0.50289892  0.55866603
   0.66893004  0.41868448  0.46805929
   0.91682332  0.66549222  0.46876949
   0.08333333  0.58333333  0.38179910
   0.66777914  0.66617286  0.46844088
   0.91522316  0.41839749  0.46966335
  -0.00072575 -0.00045287  0.56492100
   0.25122889  0.00109184  0.56226339
   0.58333333  0.58333333  0.38179910
Direct configuration=     6
   0.08333333  0.08333333  0.38179910
   0.33333333  0.83333333  0.38179910
   0.66762209  0.16579574  0.47053181
   0.91548038  0.16873258  0.47028162
   0.66963434  0.91049181  0.47204829
   0.83333333  0.83333333  0.38179910
   0.08333333  0.33333333  0.38179910
   0.00285683  0.25636917  0.55942004
   0.75506746  0.49471218  0.55947206
   0.83333333  0.58333333  0.38179910
   0.75475986  0.25215578  0.56032029
   0.91711588  0.91551065  0.46973617
   0.83333333  0.33333333  0.38179910
   0.41709085  0.91592943  0.47083085
   0.48995829  0.50277684  0.56247409
   0.42177495  0.66339759  0.46932893
   0.41631417  0.41742390  0.46931109
   0.58333333  0.33333333  0.38179910
   0.16141250  0.41803766  0.47020433
   0.41374699  0.16777947  0.47015027
   0.58333333  0.08333333  0.38179910
   0.25304665  0.73932775  0.56164772
   0.16386197  0.66714276  0.46910092
   0.16500905  0.91920280  0.47017732
   0.83090080  0.83222656  0.60660735
   0.07979411  0.82886865  0.60944349
   0.08789225  0.08735733  0.60909675
   0.34024307  0.83790411  0.60847389
   0.84169302  0.58270180  0.60839529
   0.57577013  0.32877633  0.61033081
   0.58110784  0.59010728  0.61041564
   0.82958286  0.08021083  0.61012214
   0.49589933  0.24761508  0.56119586
   0.50099296  0.75518035  0.56369085
   0.33333333  0.33333333  0.38179910
   0.33333333  0.08333333  0.38179910
   0.49875003  0.00254879  0.55719171
   0.25140624  0.25112407  0.55689677
   0.74758837  0.75286473  0.56239696
   0.33333333  0.58333333  0.38179910
   0.16781606  0.16624817  0.46970780
   0.24704961  0.49691951  0.55699383
   0.58333333  0.83333333  0.38179910
   0.00219177  0.74402425  0.56391284
   0.83333333  0.08333333  0.38179910
   0.08333333  0.83333333  0.38179910
   0.74420753  0.00066868  0.56451699
   0.00290222  0.50056722  0.55986369
   0.66963543  0.41858246  0.47006307
   0.91623684  0.66544962  0.47007486
   0.08333333  0.58333333  0.38179910
   0.66833246  0.66568276  0.46995526
   0.91514571  0.41818514  0.47135995
  -0.00130848  0.00069007  0.56660397
   0.25481865  0.00280804  0.56390081
   0.58333333  0.58333333  0.38179910
Direct configuration=     7
   0.08333333  0.08333333  0.38179910
   0.33333333  0.83333333  0.38179910
   0.66750290  0.16541679  0.47181921
   0.91518510  0.16923175  0.47156988
   0.67033540  0.91015671  0.47324246
   0.83333333  0.83333333  0.38179910
   0.08333333  0.33333333  0.38179910
   0.00166354  0.26023739  0.55962437
   0.75604621  0.49074490  0.55954374
   0.83333333  0.58333333  0.38179910
   0.75662451  0.25485789  0.56017219
   0.91676307  0.91561985  0.47090528
   0.83333333  0.33333333  0.38179910
   0.41680338  0.91521002  0.47184825
   0.48573732  0.50463770  0.56317403
   0.42149196  0.66363561  0.47062550
   0.41649516  0.41730918  0.47024902
   0.58333333  0.33333333  0.38179910
   0.16049703  0.41829045  0.47093271
   0.41428695  0.16805200  0.47081464
   0.58333333  0.08333333  0.38179910
   0.25560922  0.73380738  0.56170335
   0.16411198  0.66759194  0.47007449
   0.16557834  0.91864423  0.47156691
   0.83014623  0.83191976  0.60571484
   0.07884518  0.82755751  0.60920506
   0.08929921  0.08818503  0.60872954
   0.34194149  0.83950407  0.60767276
   0.84424000  0.58249786  0.60774516
   0.57335144  0.32750778  0.60981504
   0.58106737  0.59166069  0.60969420
   0.82862905  0.07888115  0.61002448
   0.49435405  0.24616305  0.56214573
   0.50218156  0.75666955  0.56478110
   0.33333333  0.33333333  0.38179910
   0.33333333  0.08333333  0.38179910
   0.49853860  0.00333914  0.55801673
   0.25178283  0.25151100  0.55771189
   0.74412092  0.75504737  0.56315476
   0.33333333  0.58333333  0.38179910
   0.16748652  0.16620748  0.47047216
   0.24619650  0.49666819  0.55752653
   0.58333333  0.83333333  0.38179910
   0.00496149  0.74039223  0.56497133
   0.83333333  0.08333333  0.38179910
   0.08333333  0.83333333  0.38179910
   0.73993077  0.00298522  0.56550533
   0.00632691  0.49905365  0.56064112
   0.67009331  0.41851623  0.47136378
   0.91585614  0.66542196  0.47092221
   0.08333333  0.58333333  0.38179910
   0.66869165  0.66536462  0.47093828
   0.91509544  0.41804730  0.47246127
  -0.00168675  0.00143199  0.56769643
   0.25714886  0.00392208  0.56496370
   0.58333333  0.58333333  0.38179910
Direct configuration=     8
   0.08333333  0.08333333  0.38179910
   0.33333333  0.83333333  0.38179910
   0.66727874  0.16516093  0.47342588
   0.91624002  0.16800261  0.47255342
   0.66987627  0.91078368  0.47421605
   0.83333333  0.83333333  0.38179910
   0.08333333  0.33333333  0.38179910
   0.00493092  0.26002308  0.56017960
   0.75526179  0.49294729  0.56000445
   0.83333333  0.58333333  0.38179910
   0.75553527  0.25457434  0.56061794
   0.91675176  0.91592209  0.47270137
   0.83333333  0.33333333  0.38179910
   0.41716018  0.91497465  0.47293235
   0.48515948  0.50115657  0.56415590
   0.42149152  0.66372579  0.47200818
   0.41673222  0.41700633  0.47124510
   0.58333333  0.33333333  0.38179910
   0.16056006  0.41814903  0.47129242
   0.41474312  0.16757848  0.47129623
   0.58333333  0.08333333  0.38179910
   0.25378367  0.73521539  0.56213847
   0.16421377  0.66764777  0.47068337
   0.16547916  0.91862325  0.47365607
   0.83082175  0.83140055  0.60695170
   0.08060056  0.82650903  0.61067367
   0.08990277  0.09155995  0.60980500
   0.34090754  0.84104689  0.60940214
   0.84678782  0.58211844  0.60765458
   0.57110953  0.32562271  0.60990098
   0.58298862  0.59085509  0.60995722
   0.82545327  0.07990728  0.61125282
   0.49246738  0.24469094  0.56310368
   0.50743351  0.75815617  0.56385217
   0.33333333  0.33333333  0.38179910
   0.33333333  0.08333333  0.38179910
   0.49715452  0.00537883  0.55928419
   0.25230374  0.25161211  0.55905961
   0.73971134  0.75405983  0.56295790
   0.33333333  0.58333333  0.38179910
   0.16759413  0.16577793  0.47142168
   0.24643239  0.49381486  0.55831200
   0.58333333  0.83333333  0.38179910
   0.00493485  0.73535566  0.56495398
   0.83333333  0.08333333  0.38179910
   0.08333333  0.83333333  0.38179910
   0.73400352  0.00811947  0.56558659
   0.01038335  0.49845336  0.56154245
   0.66903042  0.41854278  0.47237847
   0.91563388  0.66539770  0.47214572
   0.08333333  0.58333333  0.38179910
   0.66870771  0.66526333  0.47236089
   0.91532112  0.41823803  0.47320735
   0.00019013  0.00063197  0.56746915
   0.25823935  0.00790764  0.56450093
   0.58333333  0.58333333  0.38179910
Direct configuration=     9
   0.08333333  0.08333333  0.38179910
   0.33333333  0.83333333  0.38179910
   0.66727898  0.16516120  0.47342419
   0.91623891  0.16800390  0.47255238
   0.66987675  0.91078302  0.47421503
   0.83333333  0.83333333  0.38179910
   0.08333333  0.33333333  0.38179910
   0.00492748  0.26002331  0.56017902
   0.75526261  0.49294497  0.56000397
   0.83333333  0.58333333  0.38179910
   0.75553641  0.25457464  0.56061747
   0.91675177  0.91592178  0.47269948
   0.83333333  0.33333333  0.38179910
   0.41715980  0.91497490  0.47293121
   0.48516009  0.50116022  0.56415487
   0.42149153  0.66372570  0.47200673
   0.41673197  0.41700665  0.47124405
   0.58333333  0.33333333  0.38179910
   0.16056000  0.41814918  0.47129204
   0.41474264  0.16757898  0.47129573
   0.58333333  0.08333333  0.38179910
   0.25378558  0.73521391  0.56213801
   0.16421366  0.66764771  0.47068273
   0.16547927  0.91862327  0.47365387
   0.83082104  0.83140109  0.60695040
   0.08059872  0.82651013  0.61067213
   0.08990214  0.09155640  0.60980387
   0.34090863  0.84104526  0.60940033
   0.84678514  0.58211884  0.60765468
   0.57111188  0.32562469  0.60990089
   0.58298661  0.59085594  0.60995695
   0.82545660  0.07990620  0.61125153
   0.49246936  0.24469249  0.56310268
   0.50742800  0.75815461  0.56385314
   0.33333333  0.33333333  0.38179910
   0.33333333  0.08333333  0.38179910
   0.49715597  0.00537668  0.55928286
   0.25230319  0.25161200  0.55905819
   0.73971597  0.75406087  0.56295811
   0.33333333  0.58333333  0.38179910
   0.16759401  0.16577838  0.47142068
   0.24643215  0.49381786  0.55831117
   0.58333333  0.83333333  0.38179910
   0.00493488  0.73536095  0.56495400
   0.83333333  0.08333333  0.38179910
   0.08333333  0.83333333  0.38179910
   0.73400975  0.00811407  0.56558650
   0.01037909  0.49845399  0.56154151
   0.66903154  0.41854275  0.47237740
   0.91563411  0.66539773  0.47214443
   0.08333333  0.58333333  0.38179910
   0.66870770  0.66526344  0.47235940
   0.91532088  0.41823783  0.47320657
   0.00018816  0.00063281  0.56746939
   0.25823820  0.00790346  0.56450142
   0.58333333  0.58333333  0.38179910
Direct configuration=    10
   0.08333333  0.08333333  0.38179910
   0.33333333  0.83333333  0.38179910
   0.66715732  0.16531011  0.47413218
   0.91697374  0.16717970  0.47282352
   0.66908093  0.91147766  0.47445467
   0.83333333  0.83333333  0.38179910
   0.08333333  0.33333333  0.38179910
   0.00625360  0.25925755  0.56078012
   0.75587863  0.49402061  0.56043731
   0.83333333  0.58333333  0.38179910
   0.75509229  0.25302820  0.56147491
   0.91685301  0.91580862  0.47391899
   0.83333333  0.33333333  0.38179910
   0.41759479  0.91533784  0.47318955
   0.48550332  0.50010695  0.56502494
   0.42143242  0.66366434  0.47280736
   0.41665913  0.41677473  0.47158134
   0.58333333  0.33333333  0.38179910
   0.16148225  0.41752496  0.47115624
   0.41446675  0.16702433  0.47137502
   0.58333333  0.08333333  0.38179910
   0.25281515  0.73872540  0.56313687
   0.16413884  0.66729330  0.47065397
   0.16542942  0.91876362  0.47485495
   0.83013634  0.83137428  0.60704841
   0.08131868  0.82544790  0.61132659
   0.09098677  0.09364260  0.61073486
   0.34163436  0.84176567  0.60954043
   0.84852770  0.58182999  0.60788923
   0.57029505  0.32357727  0.61090382
   0.58398427  0.59047806  0.61005776
   0.82358971  0.08088331  0.61182597
   0.49060735  0.24438160  0.56373803
   0.50521087  0.75909205  0.56429561
   0.33333333  0.33333333  0.38179910
   0.33333333  0.08333333  0.38179910
   0.49599392  0.00687025  0.56038738
   0.25274084  0.25175857  0.56015579
   0.74131198  0.75413647  0.56352549
   0.33333333  0.58333333  0.38179910
   0.16815603  0.16550124  0.47174681
   0.24797677  0.49179018  0.55903231
   0.58333333  0.83333333  0.38179910
   0.00267154  0.73654728  0.56579045
   0.83333333  0.08333333  0.38179910
   0.08333333  0.83333333  0.38179910
   0.73386177  0.00807356  0.56650180
   0.01129461  0.49812119  0.56239580
   0.66823636  0.41836335  0.47270037
   0.91540538  0.66559346  0.47286505
   0.08333333  0.58333333  0.38179910
   0.66873056  0.66517087  0.47283682
   0.91533779  0.41827837  0.47351781
   0.00072567 -0.00013076  0.56788244
   0.25785821  0.00833213  0.56489958
   0.58333333  0.58333333  0.38179910
Direct configuration=    11
   0.08333333  0.08333333  0.38179910
   0.33333333  0.83333333  0.38179910
   0.66707039  0.16541652  0.47463810
   0.91749885  0.16659073  0.47301727
   0.66851224  0.91197405  0.47462591
   0.83333333  0.83333333  0.38179910
   0.08333333  0.33333333  0.38179910
   0.00720124  0.25871034  0.56120967
   0.75631883  0.49478925  0.56074697
   0.83333333  0.58333333  0.38179910
   0.75477492  0.25192313  0.56208762
   0.91692536  0.91572776  0.47479043
   0.83333333  0.33333333  0.38179910
   0.41790563  0.91559721  0.47337416
   0.48574860  0.49935429  0.56564669
   0.42139019  0.66362050  0.47337949
   0.41660708  0.41660900  0.47182237
   0.58333333  0.33333333  0.38179910
   0.16214129  0.41707889  0.47105920
   0.41426960  0.16662799  0.47143169
   0.58333333  0.08333333  0.38179910
   0.25212169  0.74123468  0.56385065
   0.16408538  0.66704005  0.47063342
   0.16539380  0.91886392  0.47571322
   0.82964706  0.83135512  0.60711844
   0.08183316  0.82468883  0.61179427
   0.09176184  0.09513337  0.61140014
   0.34215297  0.84228047  0.60964054
   0.84977292  0.58162358  0.60805683
   0.56971134  0.32211420  0.61162050
   0.58469719  0.59020803  0.61012980
   0.82225565  0.08158154  0.61223647
   0.48927678  0.24415944  0.56419205
   0.50362654  0.75976193  0.56461179
   0.33333333  0.33333333  0.38179910
   0.33333333  0.08333333  0.38179910
   0.49516353  0.00793755  0.56117665
   0.25305358  0.25186332  0.56094012
   0.74245246  0.75419050  0.56393094
   0.33333333  0.58333333  0.38179910
   0.16855764  0.16530320  0.47197987
   0.24908055  0.49034122  0.55954763
   0.58333333  0.83333333  0.38179910
   0.00105419  0.73739501  0.56638817
   0.83333333  0.08333333  0.38179910
   0.08333333  0.83333333  0.38179910
   0.73375602  0.00804461  0.56715586
   0.01194884  0.49788338  0.56300626
   0.66766814  0.41823516  0.47293116
   0.91524193  0.66573333  0.47337999
   0.08333333  0.58333333  0.38179910
   0.66874689  0.66510472  0.47317798
   0.91534988  0.41830734  0.47374021
   0.00110978 -0.00067639  0.56817760
   0.25758668  0.00863846  0.56518411
   0.58333333  0.58333333  0.38179910
Direct configuration=    12
   0.08333333  0.08333333  0.38179910
   0.33333333  0.83333333  0.38179910
   0.66692802  0.16558915  0.47515069
   0.91750305  0.16670408  0.47327187
   0.66802320  0.91246052  0.47489795
   0.83333333  0.83333333  0.38179910
   0.08333333  0.33333333  0.38179910
   0.00611155  0.25921079  0.56171168
   0.75763878  0.49317736  0.56096676
   0.83333333  0.58333333  0.38179910
   0.75465178  0.25247597  0.56293969
   0.91683912  0.91535202  0.47589558
   0.83333333  0.33333333  0.38179910
   0.41819055  0.91559645  0.47347795
   0.48555747  0.49994439  0.56681539
   0.42087177  0.66379897  0.47420593
   0.41643431  0.41638126  0.47207629
   0.58333333  0.33333333  0.38179910
   0.16279704  0.41661081  0.47114641
   0.41397196  0.16636121  0.47159365
   0.58333333  0.08333333  0.38179910
   0.25290136  0.74106559  0.56466135
   0.16410416  0.66678012  0.47087678
   0.16589828  0.91862546  0.47656201
   0.82796026  0.83243938  0.60829473
   0.08144352  0.82378988  0.61279694
   0.09289141  0.09682903  0.61270644
   0.34254269  0.84391852  0.61045246
   0.85153554  0.58127727  0.60909827
   0.56845691  0.31982174  0.61309439
   0.58544134  0.58997829  0.61039149
   0.82181987  0.08212948  0.61328537
   0.48864467  0.24415887  0.56512104
   0.50282004  0.75937036  0.56489394
   0.33333333  0.33333333  0.38179910
   0.33333333  0.08333333  0.38179910
   0.49476097  0.00796969  0.56238633
   0.25254255  0.25191253  0.56206143
   0.74230985  0.75481433  0.56413562
   0.33333333  0.58333333  0.38179910
   0.16894385  0.16530249  0.47223685
   0.24967033  0.49139616  0.56027810
   0.58333333  0.83333333  0.38179910
   0.00231701  0.73828619  0.56722896
   0.83333333  0.08333333  0.38179910
   0.08333333  0.83333333  0.38179910
   0.73327056  0.00728207  0.56806769
   0.01357097  0.49677064  0.56371688
   0.66771046  0.41763888  0.47341284
   0.91517241  0.66580292  0.47398553
   0.08333333  0.58333333  0.38179910
   0.66866860  0.66510789  0.47358120
   0.91548408  0.41791834  0.47417578
   0.00038052  0.00007823  0.56939370
   0.25674631  0.00887901  0.56587789
   0.58333333  0.58333333  0.38179910
Direct configuration=    13
   0.08333333  0.08333333  0.38179910
   0.33333333  0.83333333  0.38179910
   0.66666753  0.16590499  0.47608855
   0.91751075  0.16691147  0.47373771
   0.66712842  0.91335061  0.47539569
   0.83333333  0.83333333  0.38179910
   0.08333333  0.33333333  0.38179910
   0.00411778  0.26012644  0.56263021
   0.76005383  0.49022816  0.56136889
   0.83333333  0.58333333  0.38179910
   0.75442648  0.25348748  0.56449870
   0.91668132  0.91466456  0.47791763
   0.83333333  0.33333333  0.38179910
   0.41871185  0.91559506  0.47366784
   0.48520775  0.50102409  0.56895372
   0.41992323  0.66412550  0.47571804
   0.41611819  0.41596457  0.47254088
   0.58333333  0.33333333  0.38179910
   0.16399684  0.41575438  0.47130596
   0.41342739  0.16587309  0.47188999
   0.58333333  0.08333333  0.38179910
   0.25432787  0.74075621  0.56614467
   0.16413854  0.66630453  0.47132205
   0.16682132  0.91818914  0.47811500
   0.82487398  0.83442321  0.61044692
   0.08073060  0.82214511  0.61463150
   0.09495815  0.09993151  0.61509654
   0.34325576  0.84691560  0.61193799
   0.85476054  0.58064365  0.61100374
   0.56616172  0.31562730  0.61579111
   0.58680288  0.58955793  0.61087031
   0.82102253  0.08313202  0.61520450
   0.48748813  0.24415782  0.56682080
   0.50134441  0.75865391  0.56541020
   0.33333333  0.33333333  0.38179910
   0.33333333  0.08333333  0.38179910
   0.49402441  0.00802849  0.56459962
   0.25160756  0.25200258  0.56411304
   0.74204890  0.75595574  0.56451013
   0.33333333  0.58333333  0.38179910
   0.16965048  0.16530120  0.47270704
   0.25074943  0.49332633  0.56161462
   0.58333333  0.83333333  0.38179910
   0.00462756  0.73991673  0.56876732
   0.83333333  0.08333333  0.38179910
   0.08333333  0.83333333  0.38179910
   0.73238233  0.00588688  0.56973603
   0.01653893  0.49473470  0.56501707
   0.66778789  0.41654789  0.47429415
   0.91504521  0.66593025  0.47509346
   0.08333333  0.58333333  0.38179910
   0.66852535  0.66511370  0.47431894
   0.91572962  0.41720659  0.47497272
  -0.00095378  0.00145895  0.57161874
   0.25520874  0.00931914  0.56714728
   0.58333333  0.58333333  0.38179910
Direct configuration=    14
   0.08333333  0.08333333  0.38179910
   0.33333333  0.83333333  0.38179910
   0.66664899  0.16583018  0.47650583
   0.91746077  0.16681737  0.47392857
   0.66703318  0.91355935  0.47564598
   0.83333333  0.83333333  0.38179910
   0.08333333  0.33333333  0.38179910
   0.00397970  0.25944544  0.56312035
   0.76017046  0.49069511  0.56182194
   0.83333333  0.58333333  0.38179910
   0.75370439  0.25390412  0.56525755
   0.91664658  0.91464031  0.47862296
   0.83333333  0.33333333  0.38179910
   0.41871796  0.91535319  0.47384609
   0.48612490  0.49987633  0.57023835
   0.41978610  0.66396965  0.47614617
   0.41618042  0.41584907  0.47281985
   0.58333333  0.33333333  0.38179910
   0.16395478  0.41577211  0.47166935
   0.41352625  0.16586697  0.47231988
   0.58333333  0.08333333  0.38179910
   0.25429280  0.74063495  0.56693724
   0.16409602  0.66637594  0.47158143
   0.16682774  0.91818663  0.47858444
   0.82415844  0.83440760  0.61146158
   0.08072315  0.82229717  0.61576298
   0.09521964  0.10158104  0.61613477
   0.34374935  0.84805767  0.61299173
   0.85594509  0.58052900  0.61151339
   0.56475842  0.31470253  0.61698339
   0.58777987  0.58925259  0.61119057
   0.82083032  0.08324656  0.61600564
   0.48740769  0.24419938  0.56752082
   0.50187197  0.75823870  0.56547409
   0.33333333  0.33333333  0.38179910
   0.33333333  0.08333333  0.38179910
   0.49362823  0.00744073  0.56537625
   0.25104621  0.25220081  0.56483370
   0.74254365  0.75504239  0.56498489
   0.33333333  0.58333333  0.38179910
   0.16951862  0.16535312  0.47301057
   0.25066809  0.49456703  0.56202802
   0.58333333  0.83333333  0.38179910
   0.00455793  0.73979846  0.56942745
   0.83333333  0.08333333  0.38179910