  56  56   0   0
  0.4903395E+02  0.1100258E-08  0.1100258E-08  0.2619179E-08  0.3500000E-15
  1.000000000000000E-004
  CAR 
 unknown system                          
      6.38607654    -21.12512161  301     -1.46913614      1.00000000
    -21.125  0.0000E+00  0.0000E+00
    -21.033  0.0000E+00  0.0000E+00
    -20.942  0.0000E+00  0.0000E+00
    -20.850  0.0000E+00  0.0000E+00
    -20.758  0.0000E+00  0.0000E+00
    -20.667  0.0000E+00  0.0000E+00
    -20.575  0.0000E+00  0.0000E+00
    -20.483  0.0000E+00  0.0000E+00
    -20.391  0.2936E-14  0.2692E-15
    -20.300  0.2210E-10  0.2027E-11
    -20.208  0.3240E-07  0.2974E-08
    -20.116  0.9422E-05  0.8670E-06
    -20.025  0.5604E-03  0.5226E-04
    -19.933  0.7186E-02  0.7113E-03
    -19.841  0.2263E-01  0.2786E-02
    -19.750  0.3103E-01  0.5632E-02
    -19.658  0.4726E-01  0.9966E-02
    -19.566  0.6022E-01  0.1549E-01
    -19.474  0.4051E-01  0.1920E-01
    -19.383  0.1584E-01  0.2066E-01
    -19.291  0.2098E-01  0.2258E-01
    -19.199  0.1692E-01  0.2413E-01
    -19.108  0.2018E-01  0.2598E-01
    -19.016  0.3093E-01  0.2882E-01
    -18.924  0.2559E-01  0.3116E-01
    -18.833  0.8382E-02  0.3193E-01
    -18.741  0.7135E-03  0.3200E-01
    -18.649  0.1327E-04  0.3200E-01
    -18.557  0.5046E-07  0.3200E-01
    -18.466  0.3789E-10  0.3200E-01
    -18.374  0.5509E-14  0.3200E-01
    -18.282  0.0000E+00  0.3200E-01
    -18.191  0.0000E+00  0.3200E-01
    -18.099  0.0000E+00  0.3200E-01
    -18.007  0.0000E+00  0.3200E-01
    -17.915  0.0000E+00  0.3200E-01
    -17.824  0.0000E+00  0.3200E-01
    -17.732  0.0000E+00  0.3200E-01
    -17.640  0.0000E+00  0.3200E-01
    -17.549  0.0000E+00  0.3200E-01
    -17.457  0.0000E+00  0.3200E-01
    -17.365  0.0000E+00  0.3200E-01
    -17.274  0.0000E+00  0.3200E-01
    -17.182  0.0000E+00  0.3200E-01
    -17.090  0.0000E+00  0.3200E-01
    -16.998  0.0000E+00  0.3200E-01
    -16.907  0.0000E+00  0.3200E-01
    -16.815  0.0000E+00  0.3200E-01
    -16.723  0.0000E+00  0.3200E-01
    -16.632  0.0000E+00  0.3200E-01
    -16.540  0.0000E+00  0.3200E-01
    -16.448  0.0000E+00  0.3200E-01
    -16.357  0.0000E+00  0.3200E-01
    -16.265  0.0000E+00  0.3200E-01
    -16.173  0.0000E+00  0.3200E-01
    -16.081  0.0000E+00  0.3200E-01
    -15.990  0.0000E+00  0.3200E-01
    -15.898  0.0000E+00  0.3200E-01
    -15.806  0.0000E+00  0.3200E-01
    -15.715  0.0000E+00  0.3200E-01
    -15.623  0.0000E+00  0.3200E-01
    -15.531  0.0000E+00  0.3200E-01
    -15.439  0.0000E+00  0.3200E-01
    -15.348  0.0000E+00  0.3200E-01
    -15.256  0.0000E+00  0.3200E-01
    -15.164  0.0000E+00  0.3200E-01
    -15.073  0.0000E+00  0.3200E-01
    -14.981  0.0000E+00  0.3200E-01
    -14.889  0.0000E+00  0.3200E-01
    -14.798  0.0000E+00  0.3200E-01
    -14.706  0.0000E+00  0.3200E-01
    -14.614  0.0000E+00  0.3200E-01
    -14.522  0.0000E+00  0.3200E-01
    -14.431  0.0000E+00  0.3200E-01
    -14.339  0.0000E+00  0.3200E-01
    -14.247  0.0000E+00  0.3200E-01
    -14.156  0.0000E+00  0.3200E-01
    -14.064  0.0000E+00  0.3200E-01
    -13.972  0.0000E+00  0.3200E-01
    -13.881  0.0000E+00  0.3200E-01
    -13.789  0.0000E+00  0.3200E-01
    -13.697  0.0000E+00  0.3200E-01
    -13.605  0.0000E+00  0.3200E-01
    -13.514  0.0000E+00  0.3200E-01
    -13.422  0.0000E+00  0.3200E-01
    -13.330  0.0000E+00  0.3200E-01
    -13.239  0.0000E+00  0.3200E-01
    -13.147  0.0000E+00  0.3200E-01
    -13.055  0.0000E+00  0.3200E-01
    -12.963  0.0000E+00  0.3200E-01
    -12.872  0.0000E+00  0.3200E-01
    -12.780  0.0000E+00  0.3200E-01
    -12.688  0.0000E+00  0.3200E-01
    -12.597  0.0000E+00  0.3200E-01
    -12.505  0.0000E+00  0.3200E-01
    -12.413  0.0000E+00  0.3200E-01
    -12.322  0.0000E+00  0.3200E-01
    -12.230  0.0000E+00  0.3200E-01
    -12.138  0.0000E+00  0.3200E-01
    -12.046  0.0000E+00  0.3200E-01
    -11.955  0.0000E+00  0.3200E-01
    -11.863  0.0000E+00  0.3200E-01
    -11.771  0.0000E+00  0.3200E-01
    -11.680  0.0000E+00  0.3200E-01
    -11.588  0.0000E+00  0.3200E-01
    -11.496  0.0000E+00  0.3200E-01
    -11.404  0.0000E+00  0.3200E-01
    -11.313  0.0000E+00  0.3200E-01
    -11.221  0.0000E+00  0.3200E-01
    -11.129  0.0000E+00  0.3200E-01
    -11.038  0.0000E+00  0.3200E-01
    -10.946  0.0000E+00  0.3200E-01
    -10.854  0.0000E+00  0.3200E-01
    -10.763  0.0000E+00  0.3200E-01
    -10.671  0.0000E+00  0.3200E-01
    -10.579  0.0000E+00  0.3200E-01
    -10.487  0.0000E+00  0.3200E-01
    -10.396  0.0000E+00  0.3200E-01
    -10.304  0.0000E+00  0.3200E-01
    -10.212  0.0000E+00  0.3200E-01
    -10.121  0.0000E+00  0.3200E-01
    -10.029  0.0000E+00  0.3200E-01
     -9.937  0.0000E+00  0.3200E-01
     -9.846  0.0000E+00  0.3200E-01
     -9.754  0.0000E+00  0.3200E-01
     -9.662  0.0000E+00  0.3200E-01
     -9.570  0.0000E+00  0.3200E-01
     -9.479  0.9161E-16  0.3200E-01
     -9.387  0.1097E-11  0.3200E-01
     -9.295  0.2545E-08  0.3200E-01
     -9.204  0.1161E-05  0.3200E-01
     -9.112  0.1068E-03  0.3201E-01
     -9.020  0.2072E-02  0.3220E-01
     -8.928  0.9213E-02  0.3304E-01
     -8.837  0.1287E-01  0.3422E-01
     -8.745  0.1236E-01  0.3536E-01
     -8.653  0.6227E-02  0.3593E-01
     -8.562  0.2324E-02  0.3614E-01
     -8.470  0.9255E-02  0.3699E-01
     -8.378  0.2037E-01  0.3886E-01
     -8.287  0.2635E-01  0.4128E-01
     -8.195  0.2999E-01  0.4403E-01
     -8.103  0.3202E-01  0.4696E-01
     -8.011  0.3246E-01  0.4994E-01
     -7.920  0.3630E-01  0.5327E-01
     -7.828  0.4489E-01  0.5738E-01
     -7.736  0.5177E-01  0.6213E-01
     -7.645  0.5632E-01  0.6730E-01
     -7.553  0.5962E-01  0.7276E-01
     -7.461  0.6493E-01  0.7872E-01
     -7.370  0.8514E-01  0.8653E-01
     -7.278  0.9660E-01  0.9538E-01
     -7.186  0.9853E-01  0.1044E+00
     -7.094  0.1086E+00  0.1144E+00
     -7.003  0.1221E+00  0.1256E+00
     -6.911  0.1278E+00  0.1373E+00
     -6.819  0.1389E+00  0.1500E+00
     -6.728  0.1560E+00  0.1643E+00
     -6.636  0.1650E+00  0.1795E+00
     -6.544  0.1581E+00  0.1940E+00
     -6.452  0.1516E+00  0.2079E+00
     -6.361  0.1553E+00  0.2221E+00
     -6.269  0.1661E+00  0.2373E+00
     -6.177  0.1738E+00  0.2533E+00
     -6.086  0.1738E+00  0.2692E+00
     -5.994  0.1701E+00  0.2848E+00
     -5.902  0.1632E+00  0.2998E+00
     -5.811  0.1666E+00  0.3151E+00
     -5.719  0.1662E+00  0.3303E+00
     -5.627  0.1613E+00  0.3451E+00
     -5.535  0.1642E+00  0.3602E+00
     -5.444  0.1633E+00  0.3751E+00
     -5.352  0.1638E+00  0.3902E+00
     -5.260  0.1696E+00  0.4057E+00
     -5.169  0.1749E+00  0.4217E+00
     -5.077  0.1795E+00  0.4382E+00
     -4.985  0.1819E+00  0.4549E+00
     -4.894  0.1764E+00  0.4711E+00
     -4.802  0.1803E+00  0.4876E+00
     -4.710  0.1894E+00  0.5050E+00
     -4.618  0.1923E+00  0.5226E+00
     -4.527  0.1897E+00  0.5400E+00
     -4.435  0.1877E+00  0.5572E+00
     -4.343  0.1905E+00  0.5747E+00
     -4.252  0.1909E+00  0.5922E+00
     -4.160  0.1900E+00  0.6096E+00
     -4.068  0.1891E+00  0.6269E+00
     -3.976  0.2045E+00  0.6457E+00
     -3.885  0.2141E+00  0.6653E+00
     -3.793  0.2025E+00  0.6839E+00
     -3.701  0.1922E+00  0.7015E+00
     -3.610  0.1923E+00  0.7192E+00
     -3.518  0.1936E+00  0.7369E+00
     -3.426  0.1927E+00  0.7546E+00
     -3.335  0.1934E+00  0.7723E+00
     -3.243  0.1886E+00  0.7896E+00
     -3.151  0.1816E+00  0.8063E+00
     -3.059  0.1787E+00  0.8227E+00
     -2.968  0.1841E+00  0.8396E+00
     -2.876  0.1802E+00  0.8561E+00
     -2.784  0.1739E+00  0.8720E+00
     -2.693  0.1799E+00  0.8885E+00
     -2.601  0.1854E+00  0.9055E+00
     -2.509  0.1808E+00  0.9221E+00
     -2.418  0.1834E+00  0.9389E+00
     -2.326  0.2001E+00  0.9573E+00
     -2.234  0.2033E+00  0.9759E+00
     -2.142  0.2010E+00  0.9944E+00
     -2.051  0.1984E+00  0.1013E+01
     -1.959  0.1887E+00  0.1030E+01
     -1.867  0.1728E+00  0.1046E+01
     -1.776  0.1637E+00  0.1061E+01
     -1.684  0.1549E+00  0.1075E+01
     -1.592  0.1451E+00  0.1088E+01
     -1.500  0.1308E+00  0.1100E+01
     -1.409  0.1143E+00  0.1111E+01
     -1.317  0.8718E-01  0.1119E+01
     -1.225  0.5771E-01  0.1124E+01
     -1.134  0.4380E-01  0.1128E+01
     -1.042  0.3885E-01  0.1132E+01
     -0.950  0.3603E-01  0.1135E+01
     -0.859  0.3918E-01  0.1138E+01
     -0.767  0.3812E-01  0.1142E+01
     -0.675  0.3385E-01  0.1145E+01
     -0.583  0.4055E-01  0.1149E+01
     -0.492  0.5014E-01  0.1153E+01
     -0.400  0.4812E-01  0.1158E+01
     -0.308  0.3527E-01  0.1161E+01
     -0.217  0.2685E-01  0.1163E+01
     -0.125  0.1979E-01  0.1165E+01
     -0.033  0.1414E-01  0.1167E+01
      0.059  0.2181E-01  0.1169E+01
      0.150  0.2168E-01  0.1171E+01
      0.242  0.2353E-01  0.1173E+01
      0.334  0.3616E-01  0.1176E+01
      0.425  0.3694E-01  0.1179E+01
      0.517  0.3764E-01  0.1183E+01
      0.609  0.4342E-01  0.1187E+01
      0.700  0.4584E-01  0.1191E+01
      0.792  0.4125E-01  0.1195E+01
      0.884  0.3274E-01  0.1198E+01
      0.976  0.2210E-01  0.1200E+01
      1.067  0.1687E-01  0.1201E+01
      1.159  0.2255E-01  0.1204E+01
      1.251  0.2824E-01  0.1206E+01
      1.342  0.2592E-01  0.1208E+01
      1.434  0.2518E-01  0.1211E+01
      1.526  0.2881E-01  0.1213E+01
      1.617  0.3202E-01  0.1216E+01
      1.709  0.3489E-01  0.1220E+01
      1.801  0.2690E-01  0.1222E+01
      1.893  0.2589E-01  0.1224E+01
      1.984  0.3521E-01  0.1228E+01
      2.076  0.3953E-01  0.1231E+01
      2.168  0.3501E-01  0.1234E+01
      2.259  0.3195E-01  0.1237E+01
      2.351  0.2586E-01  0.1240E+01
      2.443  0.2332E-01  0.1242E+01
      2.535  0.2940E-01  0.1245E+01
      2.626  0.2788E-01  0.1247E+01
      2.718  0.2453E-01  0.1249E+01
      2.810  0.2728E-01  0.1252E+01
      2.901  0.3172E-01  0.1255E+01
      2.993  0.3386E-01  0.1258E+01
      3.085  0.3188E-01  0.1261E+01
      3.176  0.3037E-01  0.1264E+01
      3.268  0.3229E-01  0.1267E+01
      3.360  0.3232E-01  0.1270E+01
      3.452  0.3016E-01  0.1272E+01
      3.543  0.3112E-01  0.1275E+01
      3.635  0.3409E-01  0.1278E+01
      3.727  0.3463E-01  0.1281E+01
      3.818  0.3412E-01  0.1285E+01
      3.910  0.3198E-01  0.1288E+01
      4.002  0.3357E-01  0.1291E+01
      4.093  0.3970E-01  0.1294E+01
      4.185  0.4240E-01  0.1298E+01
      4.277  0.3584E-01  0.1301E+01
      4.369  0.2977E-01  0.1304E+01
      4.460  0.3492E-01  0.1307E+01
      4.552  0.4434E-01  0.1311E+01
      4.644  0.4858E-01  0.1316E+01
      4.735  0.5343E-01  0.1321E+01
      4.827  0.5361E-01  0.1326E+01
      4.919  0.5632E-01  0.1331E+01
      5.011  0.6034E-01  0.1336E+01
      5.102  0.5239E-01  0.1341E+01
      5.194  0.2506E-01  0.1344E+01
      5.286  0.4955E-02  0.1344E+01
      5.377  0.2978E-03  0.1344E+01
      5.469  0.4363E-05  0.1344E+01
      5.561  0.1396E-07  0.1344E+01
      5.652  0.9245E-11  0.1344E+01
      5.744  0.1229E-14  0.1344E+01
      5.836  0.0000E+00  0.1344E+01
      5.928  0.0000E+00  0.1344E+01
      6.019  0.0000E+00  0.1344E+01
      6.111  0.0000E+00  0.1344E+01
      6.203  0.0000E+00  0.1344E+01
      6.294  0.0000E+00  0.1344E+01
      6.386  0.0000E+00  0.1344E+01
