 vasp.5.4.1 24Jun15 (build Mar 14 2019 10:18:33) complex                        
  
 executed on INTEL-19.0.2+OPENMPI date 2023.01.31  01:50:24
 running on   36 total cores
 distrk:  each k-point on   36 cores,    1 groups
 distr:  one band on NCORES_PER_BAND=   6 cores,    6 groups


--------------------------------------------------------------------------------------------------------


 INCAR:
 POTCAR:    PAW_PBE Au 04Oct2007                  
 POTCAR:    PAW_PBE Pd 04Jan2005                  
 POTCAR:    PAW_PBE Au 04Oct2007                  
  local pseudopotential read in
  partial core-charges read in
  partial kinetic energy density read in
  atomic valenz-charges read in
  non local Contribution for L=           2  read in
    real space projection operators read in
  non local Contribution for L=           2  read in
    real space projection operators read in
  non local Contribution for L=           0  read in
    real space projection operators read in
  non local Contribution for L=           0  read in
    real space projection operators read in
  non local Contribution for L=           1  read in
    real space projection operators read in
  non local Contribution for L=           1  read in
    real space projection operators read in
    PAW grid and wavefunctions read in
 
   number of l-projection  operators is LMAX  =           6
   number of lm-projection operators is LMMAX =          18
 
 POTCAR:    PAW_PBE Pd 04Jan2005                  
  local pseudopotential read in
  partial core-charges read in
  partial kinetic energy density read in
  atomic valenz-charges read in
  non local Contribution for L=           2  read in
    real space projection operators read in
  non local Contribution for L=           2  read in
    real space projection operators read in
  non local Contribution for L=           0  read in
    real space projection operators read in
  non local Contribution for L=           0  read in
    real space projection operators read in
  non local Contribution for L=           1  read in
    real space projection operators read in
  non local Contribution for L=           1  read in
    real space projection operators read in
    PAW grid and wavefunctions read in
 
   number of l-projection  operators is LMAX  =           6
   number of lm-projection operators is LMMAX =          18
 
 Optimization of the real space projectors (new method)

 maximal supplied QI-value         = 15.12
 optimisation between [QCUT,QGAM] = [ 10.13, 20.41] = [ 28.73,116.64] Ry 
 Optimized for a Real-space Cutoff    1.51 Angstroem

   l    n(q)    QCUT    max X(q) W(low)/X(q) W(high)/X(q)  e(spline) 
   2      8    10.129    60.898    0.46E-03    0.46E-03    0.14E-06
   2      8    10.129    58.894    0.47E-03    0.47E-03    0.14E-06
   0      9    10.129   109.617    0.16E-03    0.11E-03    0.54E-07
   0      9    10.129    75.026    0.15E-03    0.11E-03    0.52E-07
   1      9    10.129    16.344    0.96E-04    0.15E-03    0.14E-06
   1      9    10.129    10.160    0.81E-04    0.12E-03    0.11E-06
 Optimization of the real space projectors (new method)

 maximal supplied QI-value         = 14.36
 optimisation between [QCUT,QGAM] = [ 10.20, 20.39] = [ 29.12,116.47] Ry 
 Optimized for a Real-space Cutoff    1.51 Angstroem

   l    n(q)    QCUT    max X(q) W(low)/X(q) W(high)/X(q)  e(spline) 
   2      8    10.197    59.108    0.26E-03    0.14E-03    0.96E-07
   2      8    10.197    58.101    0.27E-03    0.14E-03    0.98E-07
   0      9    10.197   102.235    0.54E-04    0.60E-05    0.72E-07
   0      9    10.197    58.388    0.52E-04    0.60E-05    0.68E-07
   1      9    10.197    22.191    0.18E-03    0.25E-03    0.79E-07
   1      9    10.197    15.590    0.15E-03    0.21E-03    0.69E-07
  PAW_PBE Au 04Oct2007                  :
 energy of atom  1       EATOM= -926.0867
 kinetic energy error for atom=    0.0062 (will be added to EATOM!!)
  PAW_PBE Pd 04Jan2005                  :
 energy of atom  2       EATOM= -809.7530
 kinetic energy error for atom=    0.0091 (will be added to EATOM!!)
 
 
 POSCAR: Au Pd                                   
  positions in cartesian coordinates
  No initial velocities read in
 exchange correlation table for  LEXCH =        8
   RHO(1)=    0.500       N(1)  =     2000
   RHO(2)=  100.500       N(2)  =     4000

 VTST: version 3.2, (02/03/18)

 CHAIN: initializing optimizer
 
 OPT: Using VASP Conjugate-Gradient optimizer
 CHAIN: Read ICHAIN            0
 
 POSCAR: Au Pd                                   
  positions in cartesian coordinates
  No initial velocities read in
 


--------------------------------------------------------------------------------------------------------


 ion  position               nearest neighbor table
   1  0.750  0.750  0.592-  30 2.75  35 2.75  33 2.75  29 2.75  40 2.75  43 2.75   8 2.75  20 2.75
                            44 2.75
   2  0.000  0.000  0.592-  38 2.75  34 2.75   6 2.75  37 2.75   8 2.75  48 2.75  46 2.75  40 2.75
                            27 2.75
   3  0.083  0.333  0.408-  24 2.75   9 2.75   5 2.75  36 2.75  47 2.75  45 2.75  12 2.75  13 2.75
                             4 2.75
   4  0.917  0.417  0.500-  45 2.75  37 2.75  43 2.75  38 2.75  35 2.75  44 2.75  13 2.75   7 2.75
                            24 2.75   5 2.75   3 2.75  33 2.75
   5  0.833  0.583  0.408-  35 2.75   3 2.75  41 2.75  42 2.75  45 2.75  11 2.75  47 2.75   4 2.75
                            44 2.75
   6  0.750  0.250  0.592-   7 2.75  38 2.75  22 2.75   2 2.75  40 2.75  43 2.75  37 2.75  10 2.75
                            17 2.75
   7  0.667  0.417  0.500-  39 2.75   6 2.75  22 2.75  23 2.75  38 2.75  17 2.75  44 2.75  26 2.75
                             4 2.75  11 2.75  43 2.75  45 2.75
   8  0.000  0.750  0.592-  27 2.75  16 2.75   2 2.75  28 2.75  33 2.75  40 2.75   1 2.75  48 2.75
                            35 2.75
   9  0.333  0.083  0.408-  32 2.75  12 2.75  18 2.75   3 2.75  42 2.75  36 2.75  31 2.75  21 2.75
                            13 2.75
  10  0.500  0.250  0.592-  26 2.75  17 2.75  22 2.75  28 2.75  29 2.75  40 2.75   6 2.75  14 2.75
                            32 2.75
  11  0.583  0.583  0.408-  44 2.75  39 2.75  42 2.75  18 2.75  45 2.75  15 2.75   5 2.75   7 2.75
                            23 2.75
  12  0.333  0.333  0.408-  26 2.75  15 2.75   9 2.75  31 2.75  47 2.75  39 2.75   3 2.75  32 2.75
                            24 2.75
  13  0.167  0.167  0.500-  36 2.75  46 2.75  37 2.75  34 2.75   4 2.75  21 2.75  24 2.75  38 2.75
                            32 2.75   3 2.75   9 2.75  14 2.75
  14  0.250  0.250  0.592-  24 2.75  32 2.75  29 2.75  28 2.75  33 2.75  46 2.75  37 2.75  10 2.75
                            13 2.75
  15  0.333  0.583  0.408-  23 2.75  18 2.75  12 2.75  25 2.75  39 2.75  11 2.75  47 2.75  26 2.75
                            16 2.75
  16  0.167  0.667  0.500-  47 2.75  28 2.75   8 2.75  27 2.75  24 2.75  34 2.75  26 2.75  35 2.75
                            23 2.75  25 2.75  15 2.75  48 2.75
  17  0.667  0.167  0.500-  31 2.75  40 2.75  10 2.75  27 2.75  30 2.75   7 2.75  26 2.75  38 2.75
                            32 2.75  39 2.75   6 2.75  19 2.75
  18  0.333  0.833  0.408-  21 2.75  11 2.75  15 2.75   9 2.75  36 2.75  25 2.75  42 2.75  23 2.75
                            34 2.75
  19  0.833  0.083  0.408-  38 2.75  25 2.75  39 2.75  41 2.75  45 2.75  31 2.75  36 2.75  27 2.75
                            17 2.75
  20  0.500  0.750  0.592-  21 2.75  44 2.75  29 2.75  43 2.75  22 2.75  46 2.75   1 2.75  48 2.75
                            23 2.75
  21  0.417  0.917  0.500-  18 2.75  20 2.75  46 2.75  23 2.75  32 2.75  44 2.75  13 2.75  30 2.75
                            34 2.75   9 2.75  29 2.75  42 2.75
  22  0.500  0.500  0.592-  23 2.75   7 2.75  10 2.75  20 2.75   6 2.75  48 2.75  43 2.75  28 2.75
                            26 2.75
  23  0.417  0.667  0.500-  15 2.75  22 2.75  48 2.75   7 2.75  26 2.75  34 2.75  21 2.75  44 2.75
                            16 2.75  18 2.75  11 2.75  20 2.75
  24  0.167  0.417  0.500-   3 2.75  14 2.75  33 2.75  16 2.75  32 2.75  13 2.75  35 2.75  26 2.75
                             4 2.75  47 2.75  12 2.75  28 2.75
  25  0.083  0.833  0.408-  34 2.75  19 2.75  15 2.75  36 2.75  47 2.75  41 2.75  18 2.75  16 2.75
                            27 2.75
  26  0.417  0.417  0.500-  12 2.75  10 2.75  28 2.75  17 2.75  23 2.75  16 2.75  32 2.75   7 2.75
                            24 2.75  15 2.75  22 2.75  39 2.75
  27  0.917  0.917  0.500-  41 2.75   8 2.75  40 2.75  35 2.75  38 2.75  16 2.75  17 2.75  30 2.75
                            34 2.75  19 2.75   2 2.75  25 2.75
  28  0.250  0.500  0.592-  16 2.75  26 2.75  14 2.75   8 2.75  10 2.75  48 2.75  33 2.75  22 2.75
                            24 2.75
  29  0.500  0.000  0.592-  32 2.75  30 2.75  14 2.75  20 2.75   1 2.75  10 2.75  40 2.75  46 2.75
                            21 2.75
  30  0.667  0.917  0.500-  42 2.75   1 2.75  29 2.75  32 2.75  35 2.75  17 2.75  44 2.75  27 2.75
                            21 2.75  31 2.75  40 2.75  41 2.75
  31  0.583  0.083  0.408-  17 2.75  12 2.75  39 2.75  41 2.75  42 2.75  19 2.75   9 2.75  30 2.75
                            32 2.75
  32  0.417  0.167  0.500-   9 2.75  29 2.75  14 2.75  24 2.75  26 2.75  21 2.75  30 2.75  17 2.75
                            13 2.75  12 2.75  10 2.75  31 2.75
  33  0.000  0.500  0.592-  35 2.75  24 2.75  14 2.75   1 2.75   8 2.75  37 2.75  28 2.75  43 2.75
                             4 2.75
  34  0.167  0.917  0.500-  25 2.75  48 2.75   2 2.75  23 2.75  13 2.75  38 2.75  16 2.75  21 2.75
                            27 2.75  36 2.75  46 2.75  18 2.75
  35  0.917  0.667  0.500-   5 2.75  33 2.75   1 2.75  24 2.75  27 2.75  30 2.75   4 2.75  16 2.75
                            44 2.75  41 2.75   8 2.75  47 2.75
  36  0.083  0.083  0.408-  13 2.75   3 2.75  18 2.75  25 2.75  45 2.75   9 2.75  19 2.75  34 2.75
                            38 2.75
  37  0.000  0.250  0.592-   4 2.75  13 2.75   2 2.75  33 2.75  43 2.75  46 2.75  14 2.75   6 2.75
                            38 2.75
  38  0.917  0.167  0.500-  19 2.75   2 2.75   6 2.75   7 2.75   4 2.75  27 2.75  34 2.75  17 2.75
                            13 2.75  45 2.75  37 2.75  36 2.75
  39  0.583  0.333  0.408-   7 2.75  11 2.75  15 2.75  19 2.75  31 2.75  12 2.75  45 2.75  17 2.75
                            26 2.75
  40  0.750  0.000  0.592-  17 2.75  27 2.75   8 2.75  10 2.75   1 2.75   6 2.75   2 2.75  29 2.75
                            30 2.75
  41  0.833  0.833  0.408-  27 2.75  19 2.75   5 2.75  31 2.75  47 2.75  42 2.75  25 2.75  35 2.75
                            30 2.75
  42  0.583  0.833  0.408-  30 2.75   9 2.75  11 2.75   5 2.75  31 2.75  18 2.75  41 2.75  44 2.75
                            21 2.75
  43  0.750  0.500  0.592-  44 2.75   4 2.75   6 2.75  20 2.75  37 2.75   1 2.75  22 2.75  33 2.75
                             7 2.75
  44  0.667  0.667  0.500-  11 2.75  43 2.75  20 2.75   7 2.75  21 2.75  30 2.75   4 2.75  35 2.75
                            23 2.75  42 2.75   5 2.75   1 2.75
  45  0.833  0.333  0.408-   4 2.75   5 2.75  11 2.75  19 2.75  36 2.75   3 2.75  39 2.75  38 2.75
                             7 2.75
  46  0.250  0.000  0.592-  13 2.75  21 2.75  20 2.75  14 2.75  37 2.75  48 2.75   2 2.75  29 2.75
                            34 2.75
  47  0.083  0.583  0.408-  16 2.75  12 2.75   3 2.75  25 2.75  41 2.75  15 2.75   5 2.75  24 2.75
                            35 2.75
  48  0.250  0.750  0.592-  34 2.75  23 2.75   2 2.75  28 2.75  22 2.75  46 2.75  20 2.75   8 2.75
                            16 2.75
 
  LATTYP: Found a hexagonal cell.
 ALAT       =    11.0025815153
 C/A-ratio  =     2.2260035120
  
  Lattice vectors:
  
 A1 = (   5.5012907576,  -9.5285150994,   0.0000000000)
 A2 = ( -11.0025815153,   0.0000000000,   0.0000000000)
 A3 = (   0.0000000000,   0.0000000000, -24.4917850943)


Analysis of symmetry for initial positions (statically):
=====================================================================
 Subroutine PRICEL returns:
 Original cell was already a primitive cell.
 

 Routine SETGRP: Setting up the symmetry group for a 
 hexagonal supercell.


 Subroutine GETGRP returns: Found  1 space group operations
 (whereof  1 operations were pure point group operations)
 out of a pool of 24 trial point group operations.


The static configuration has the point symmetry C_1 .


Analysis of symmetry for dynamics (positions and initial velocities):
=====================================================================
 Subroutine PRICEL returns:
 Original cell was already a primitive cell.
 

 Routine SETGRP: Setting up the symmetry group for a 
 hexagonal supercell.


 Subroutine GETGRP returns: Found  1 space group operations
 (whereof  1 operations were pure point group operations)
 out of a pool of 24 trial point group operations.


The dynamic configuration has the point symmetry C_1 .


Analysis of constrained symmetry for selective dynamics:
=====================================================================
 Subroutine PRICEL returns:
 Original cell was already a primitive cell.
 

 Routine SETGRP: Setting up the symmetry group for a 
 hexagonal supercell.


 Subroutine GETGRP returns: Found  1 space group operations
 (whereof  1 operations were pure point group operations)
 out of a pool of 24 trial point group operations.


The constrained configuration has the point symmetry C_1 .
 
 
 KPOINTS: Automatic mesh                          

Automatic generation of k-mesh.
Space group operators:
 irot       det(A)        alpha          n_x          n_y          n_z        tau_x        tau_y        tau_z
    1     1.000000     0.000000     1.000000     0.000000     0.000000     0.000000     0.000000     0.000000
 
 Subroutine IBZKPT returns following result:
 ===========================================
 
 Found      6 irreducible k-points:
 
 Following reciprocal coordinates:
            Coordinates               Weight
  0.250000  0.250000  0.000000     16.000000
  0.000000  0.250000  0.000000     16.000000
 -0.250000  0.000000  0.000000     16.000000
 -0.250000  0.250000  0.000000     16.000000
  0.500000 -0.250000  0.000000     16.000000
 -0.250000  0.500000  0.000000     16.000000
 
 Following cartesian coordinates:
            Coordinates               Weight
  0.022722  0.013119  0.000000     16.000000
  0.000000  0.026237  0.000000     16.000000
 -0.022722  0.013119  0.000000     16.000000
 -0.022722  0.039356  0.000000     16.000000
  0.045444 -0.052474  0.000000     16.000000
 -0.022722  0.065593  0.000000     16.000000
 


--------------------------------------------------------------------------------------------------------




 Dimension of arrays:
   k-points           NKPTS =      6   k-points in BZ     NKDIM =      6   number of bands    NBANDS=    306
   number of dos      NEDOS =    301   number of ions     NIONS =     48
   non local maximal  LDIM  =      6   non local SUM 2l+1 LMDIM =     18
   total plane-waves  NPLWV = 349920
   max r-space proj   IRMAX =   2009   max aug-charges    IRDMAX=   8532
   dimension x,y,z NGX =    54 NGY =   54 NGZ =  120
   dimension x,y,z NGXF=   108 NGYF=  108 NGZF=  240
   support grid    NGXF=   108 NGYF=  108 NGZF=  240
   ions per type =              24  24
 NGX,Y,Z   is equivalent  to a cutoff of   8.16,  8.16,  8.15 a.u.
 NGXF,Y,Z  is equivalent  to a cutoff of  16.32, 16.32, 16.29 a.u.


 I would recommend the setting:
   dimension x,y,z NGX =    54 NGY =   54 NGZ =  120
 SYSTEM =  unknown system                          
 POSCAR =  Au Pd                                   

 Startparameter for this run:
   NWRITE =      1    write-flag & timer
   PREC   = normal    normal or accurate (medium, high low for compatibility)
   ISTART =      0    job   : 0-new  1-cont  2-samecut
   ICHARG =      2    charge: 1-file 2-atom 10-const
   ISPIN  =      1    spin polarized calculation?
   LNONCOLLINEAR =      F non collinear calculations
   LSORBIT =      F    spin-orbit coupling
   INIWAV =      1    electr: 0-lowe 1-rand  2-diag
   LASPH  =      F    aspherical Exc in radial PAW
   METAGGA=      F    non-selfconsistent MetaGGA calc.

 Electronic Relaxation 1
   ENCUT  =  400.0 eV  29.40 Ry    5.42 a.u.  17.94 17.94 39.94*2*pi/ulx,y,z
   ENINI  =  400.0     initial cutoff
   ENAUG  =  416.2 eV  augmentation charge cutoff
   NELM   =    500;   NELMIN=  2; NELMDL= -5     # of ELM steps 
   EDIFF  = 0.1E-05   stopping-criterion for ELM
   LREAL  =      T    real-space projection
   NLSPLINE    = F    spline interpolate recip. space projectors
   LCOMPAT=      F    compatible to vasp.4.4
   GGA_COMPAT  = T    GGA compatible to vasp.4.4-vasp.4.6
   LMAXPAW     = -100 max onsite density
   LMAXMIX     =    2 max onsite mixed and CHGCAR
   VOSKOWN=      1    Vosko Wilk Nusair interpolation
   ROPT   =   -0.00050  -0.00050
 Ionic relaxation
   EDIFFG = -.2E-01   stopping-criterion for IOM
   NSW    =    500    number of steps for IOM
   NBLOCK =      1;   KBLOCK =    500    inner block; outer block 
   IBRION =      2    ionic relax: 0-MD 1-quasi-New 2-CG
   NFREE  =      2    steps in history (QN), initial steepest desc. (CG)
   ISIF   =      0    stress and relaxation
   IWAVPR =     11    prediction:  0-non 1-charg 2-wave 3-comb
   ISYM   =      2    0-nonsym 1-usesym 2-fastsym
   LCORR  =      T    Harris-Foulkes like correction to forces

   POTIM  = 0.3500    time-step for ionic-motion
   TEIN   =    0.0    initial temperature
   TEBEG  =    0.0;   TEEND  =   0.0 temperature during run
   SMASS  =  -3.00    Nose mass-parameter (am)
   estimated Nose-frequenzy (Omega)   =  0.10E-29 period in steps =****** mass=  -0.277E-26a.u.
   SCALEE = 1.0000    scale energy and forces
   NPACO  =    256;   APACO  = 16.0  distance and # of slots for P.C.
   PSTRESS=    0.0 pullay stress

  Mass of Ions in am
   POMASS = 196.97106.42
  Ionic Valenz
   ZVAL   =  11.00 10.00
  Atomic Wigner-Seitz radii
   RWIGS  =  -1.00 -1.00
  virtual crystal weights 
   VCA    =   1.00  1.00
   NELECT =     504.0000    total number of electrons
   NUPDOWN=      -1.0000    fix difference up-down

 DOS related values:
   EMIN   =  10.00;   EMAX   =-10.00  energy-range for DOS
   EFERMI =   0.00
   ISMEAR =     0;   SIGMA  =   0.10  broadening in eV -4-tet -1-fermi 0-gaus

 Electronic relaxation 2 (details)
   IALGO  =     68    algorithm
   LDIAG  =      T    sub-space diagonalisation (order eigenvalues)
   LSUBROT=      F    optimize rotation matrix (better conditioning)
   TURBO    =      0    0=normal 1=particle mesh
   IRESTART =      0    0=no restart 2=restart with 2 vectors
   NREBOOT  =      0    no. of reboots
   NMIN     =      0    reboot dimension
   EREF     =   0.00    reference energy to select bands
   IMIX   =      4    mixing-type and parameters
     AMIX     =   0.40;   BMIX     =  1.00
     AMIX_MAG =   1.60;   BMIX_MAG =  1.00
     AMIN     =   0.10
     WC   =   100.;   INIMIX=   1;  MIXPRE=   1;  MAXMIX= -45

 Intra band minimization:
   WEIMIN = 0.0010     energy-eigenvalue tresh-hold
   EBREAK =  0.82E-09  absolut break condition
   DEPER  =   0.30     relativ break condition  

   TIME   =   0.40     timestep for ELM

  volume/ion in A,a.u.               =      53.49       360.99
  Fermi-wavevector in a.u.,A,eV,Ry     =   0.951418  1.797920 12.315955  0.905197
  Thomas-Fermi vector in A             =   2.079887
 
 Write flags
   LWAVE  =      F    write WAVECAR
   LCHARG =      F    write CHGCAR
   LVTOT  =      F    write LOCPOT, total local potential
   LVHAR  =      F    write LOCPOT, Hartree potential only
   LELF   =      F    write electronic localiz. function (ELF)
   LORBIT =      0    0 simple, 1 ext, 2 COOP (PROOUT)


 Dipole corrections
   LMONO  =      F    monopole corrections only (constant potential shift)
   LDIPOL =      T    correct potential (dipole corrections)
   IDIPOL =      3    1-x, 2-y, 3-z, 4-all directions 
   EPSILON=  1.0000000 bulk dielectric constant

 Exchange correlation treatment:
   GGA     =    PE    GGA type
   LEXCH   =     8    internal setting for exchange type
   VOSKOWN=      1    Vosko Wilk Nusair interpolation
   LHFCALC =     F    Hartree Fock is set to
   LHFONE  =     F    Hartree Fock one center treatment
   AEXX    =    0.0000 exact exchange contribution

 Linear response parameters
   LEPSILON=     F    determine dielectric tensor
   LRPA    =     F    only Hartree local field effects (RPA)
   LNABLA  =     F    use nabla operator in PAW spheres
   LVEL    =     F    velocity operator in full k-point grid
   LINTERFAST=   F  fast interpolation
   KINTER  =     0    interpolate to denser k-point grid
   CSHIFT  =0.1000    complex shift for real part using Kramers Kronig
   OMEGAMAX=  -1.0    maximum frequency
   DEG_THRESHOLD= 0.2000000E-02 threshold for treating states as degnerate
   RTIME   =    0.100 relaxation time in fs

 Orbital magnetization related:
   ORBITALMAG=     F  switch on orbital magnetization
   LCHIMAG   =     F  perturbation theory with respect to B field
   DQ        =  0.001000  dq finite difference perturbation B field



--------------------------------------------------------------------------------------------------------


 conjugate gradient relaxation of ions
   using selective dynamics as specified on POSCAR
   WARNING: If single coordinates had been selected the selection of coordinates
            is made according to the corresponding   d i r e c t   coordinates!
            Don't support selection of single cartesian coordinates -- sorry ...
  !
 charge density and potential will be updated during run
 non-spin polarized calculation
 RMM-DIIS sequential band-by-band and
  variant of blocked Davidson during initial phase
 perform sub-space diagonalisation
    before iterative eigenvector-optimisation
 modified Broyden-mixing scheme, WC =      100.0
 initial mixing is a Kerker type mixing with AMIX =  0.4000 and BMIX =      1.0000
 Hartree-type preconditioning will be used
 using additional bands           54
 real space projection scheme for non local part
 use partial core corrections
 calculate Harris-corrections to forces 
   (improved forces if not selfconsistent)
 use gradient corrections 
 use of overlap-Matrix (Vanderbilt PP)
 Gauss-broadening in eV      SIGMA  =   0.10


--------------------------------------------------------------------------------------------------------


  energy-cutoff  :      400.00
  volume of cell :     2567.68
      direct lattice vectors                 reciprocal lattice vectors
    11.002581515  0.000000000  0.000000000     0.090887761 -0.052474073  0.000000000
     5.501290758  9.528515099  0.000000000     0.000000000  0.104948147  0.000000000
     0.000000000  0.000000000 24.491785094     0.000000000  0.000000000  0.040830017

  length of vectors
    11.002581515 11.002581515 24.491785094     0.104948147  0.104948147  0.040830017


 
 k-points in units of 2pi/SCALE and weight: Automatic mesh                          
   0.02272194  0.01311852  0.00000000       0.167
   0.00000000  0.02623704  0.00000000       0.167
  -0.02272194  0.01311852  0.00000000       0.167
  -0.02272194  0.03935555  0.00000000       0.167
   0.04544388 -0.05247407  0.00000000       0.167
  -0.02272194  0.06559259  0.00000000       0.167
 
 k-points in reciprocal lattice and weights: Automatic mesh                          
   0.25000000  0.25000000  0.00000000       0.167
   0.00000000  0.25000000  0.00000000       0.167
  -0.25000000  0.00000000  0.00000000       0.167
  -0.25000000  0.25000000  0.00000000       0.167
   0.50000000 -0.25000000  0.00000000       0.167
  -0.25000000  0.50000000  0.00000000       0.167
 
 position of ions in fractional coordinates (direct lattice) 
   0.75000000  0.75000000  0.59169983
   0.00000000  0.00000000  0.59169983
   0.08333333  0.33333333  0.40830017
   0.91666667  0.41666667  0.50000000
   0.83333333  0.58333333  0.40830017
   0.75000000  0.25000000  0.59169983
   0.66666667  0.41666667  0.50000000
   0.00000000  0.75000000  0.59169983
   0.33333333  0.08333333  0.40830017
   0.50000000  0.25000000  0.59169983
   0.58333333  0.58333333  0.40830017
   0.33333333  0.33333333  0.40830017
   0.16666667  0.16666667  0.50000000
   0.25000000  0.25000000  0.59169983
   0.33333333  0.58333333  0.40830017
   0.16666667  0.66666667  0.50000000
   0.66666667  0.16666667  0.50000000
   0.33333333  0.83333333  0.40830017
   0.83333333  0.08333333  0.40830017
   0.50000000  0.75000000  0.59169983
   0.41666667  0.91666667  0.50000000
   0.50000000  0.50000000  0.59169983
   0.41666667  0.66666667  0.50000000
   0.16666667  0.41666667  0.50000000
   0.08333333  0.83333333  0.40830017
   0.41666667  0.41666667  0.50000000
   0.91666667  0.91666667  0.50000000
   0.25000000  0.50000000  0.59169983
   0.50000000  0.00000000  0.59169983
   0.66666667  0.91666667  0.50000000
   0.58333333  0.08333333  0.40830017
   0.41666667  0.16666667  0.50000000
   0.00000000  0.50000000  0.59169983
   0.16666667  0.91666667  0.50000000
   0.91666667  0.66666667  0.50000000
   0.08333333  0.08333333  0.40830017
   0.00000000  0.25000000  0.59169983
   0.91666667  0.16666667  0.50000000
   0.58333333  0.33333333  0.40830017
   0.75000000  0.00000000  0.59169983
   0.83333333  0.83333333  0.40830017
   0.58333333  0.83333333  0.40830017
   0.75000000  0.50000000  0.59169983
   0.66666667  0.66666667  0.50000000
   0.83333333  0.33333333  0.40830017
   0.25000000  0.00000000  0.59169983
   0.08333333  0.58333333  0.40830017
   0.25000000  0.75000000  0.59169983
 
 position of ions in cartesian coordinates  (Angst):
  12.37790420  7.14638632 14.49178509
   0.00000000  0.00000000 14.49178509
   2.75064538  3.17617170 10.00000000
  12.37790420  3.97021462 12.24589255
  12.37790420  5.55830047 10.00000000
   9.62725883  2.38212877 14.49178509
   9.62725883  3.97021462 12.24589255
   4.12596807  7.14638632 14.49178509
   4.12596807  0.79404292 10.00000000
   6.87661345  2.38212877 14.49178509
   9.62725883  5.55830047 10.00000000
   5.50129076  3.17617170 10.00000000
   2.75064538  1.58808585 12.24589255
   4.12596807  2.38212877 14.49178509
   6.87661345  5.55830047 10.00000000
   5.50129076  6.35234340 12.24589255
   8.25193614  1.58808585 12.24589255
   8.25193614  7.94042925 10.00000000
   9.62725883  0.79404292 10.00000000
   9.62725883  7.14638632 14.49178509
   9.62725883  8.73447217 12.24589255
   8.25193614  4.76425755 14.49178509
   8.25193614  6.35234340 12.24589255
   4.12596807  3.97021462 12.24589255
   5.50129076  7.94042925 10.00000000
   6.87661345  3.97021462 12.24589255
  15.12854958  8.73447217 12.24589255
   5.50129076  4.76425755 14.49178509
   5.50129076  0.00000000 14.49178509
  12.37790420  8.73447217 12.24589255
   6.87661345  0.79404292 10.00000000
   5.50129076  1.58808585 12.24589255
   2.75064538  4.76425755 14.49178509
   6.87661345  8.73447217 12.24589255
  13.75322689  6.35234340 12.24589255
   1.37532269  0.79404292 10.00000000
   1.37532269  2.38212877 14.49178509
  11.00258152  1.58808585 12.24589255
   8.25193614  3.17617170 10.00000000
   8.25193614  0.00000000 14.49178509
  13.75322689  7.94042925 10.00000000
  11.00258152  7.94042925 10.00000000
  11.00258152  4.76425755 14.49178509
  11.00258152  6.35234340 12.24589255
  11.00258152  3.17617170 10.00000000
   2.75064538  0.00000000 14.49178509
   4.12596807  5.55830047 10.00000000
   6.87661345  7.14638632 14.49178509
 


--------------------------------------------------------------------------------------------------------


 k-point  1 :   0.2500 0.2500 0.0000  plane waves:   46635
 k-point  2 :   0.0000 0.2500 0.0000  plane waves:   46635
 k-point  3 :  -0.2500 0.0000 0.0000  plane waves:   46635
 k-point  4 :  -0.2500 0.2500 0.0000  plane waves:   46644
 k-point  5 :   0.5000-0.2500 0.0000  plane waves:   46644
 k-point  6 :  -0.2500 0.5000 0.0000  plane waves:   46644

 maximum and minimum number of plane-waves per node :      7818     7732

 maximum number of plane-waves:     46644
 maximum index in each direction: 
   IXMAX=   18   IYMAX=   18   IZMAX=   39
   IXMIN=  -18   IYMIN=  -18   IZMIN=  -39

 WARNING: aliasing errors must be expected set NGX to  74 to avoid them
 WARNING: aliasing errors must be expected set NGY to  74 to avoid them
 WARNING: aliasing errors must be expected set NGZ to 158 to avoid them
 aliasing errors are usually negligible using standard VASP settings
 and one can safely disregard these warnings

 real space projection operators:
  total allocation   :      12803.06 KBytes
  max/ min on nodes  :       2145.66       2127.94


 parallel 3D FFT for wavefunctions:
    minimum data exchange during FFTs selected (reduces bandwidth)
 parallel 3D FFT for charge:
    minimum data exchange during FFTs selected (reduces bandwidth)


 total amount of memory used by VASP on root node    84353. kBytes
========================================================================

   base      :      30000. kBytes
   nonlr-proj:       4285. kBytes
   fftplans  :       4447. kBytes
   grid      :       6721. kBytes
   one-center:        124. kBytes
   wavefun   :      38776. kBytes
 
     INWAV:  cpu time    0.0000: real time    0.0000
 Broyden mixing: mesh for mixing (old mesh)
   NGX = 35   NGY = 35   NGZ = 79
  (NGX  =108   NGY  =108   NGZ  =240)
  gives a total of  96775 points

 initial charge density was supplied:
 charge density of overlapping atoms calculated
 number of electron     504.0000000 magnetization 
 keeping initial charge density in first step


--------------------------------------------------------------------------------------------------------


 Maximum index for non-local projection operator          355
 Maximum index for augmentation-charges          437 (set IRDMAX)


--------------------------------------------------------------------------------------------------------


 First call to EWALD:  gamma=   0.129
 Maximum number of real-space cells 4x 4x 2
 Maximum number of reciprocal cells 2x 2x 5

 FEWALD executed in parallel
    FEWALD:  cpu time    0.0027: real time    0.0027


----------------------------------------- Iteration    1(   1)  ---------------------------------------


    POTLOK:  cpu time    0.0464: real time    0.0468
    SETDIJ:  cpu time    0.0059: real time    0.0059
     EDDAV:  cpu time    6.8692: real time    6.8926
       DOS:  cpu time    0.0014: real time    0.0014
    --------------------------------------------
      LOOP:  cpu time    6.9258: real time    6.9519

 eigenvalue-minimisations  :  3672
 total energy-change (2. order) : 0.3200694E+04  (-0.1897729E+05)
 number of electron     504.0000000 magnetization 
 augmentation part      504.0000000 magnetization 

 DIPCOR: dipole corrections for dipol
 direction  3 min pos     1,
 dipolmoment           0.000000      0.000000      0.000000 electrons x Angstroem
 Tr[quadrupol]    -10324.399761

 energy correction for charged system         0.000000 eV
 dipol+quadrupol energy correction           -0.000000 eV
 added-field ion interaction          0.000000 eV  (added to PSCEN)


 Free energy of the ion-electron system (eV)
  ---------------------------------------------------
  alpha Z        PSCENC =       805.86936429
  Ewald energy   TEWEN  =    200157.78616891
  -Hartree energ DENC   =   -242571.65231647
  -exchange      EXHF   =         0.00000000
  -V(xc)+E(xc)   XCENC  =      -327.63380095
  PAW double counting   =     40340.05962942   -38292.62782345
  entropy T*S    EENTRO =        -0.13190180
  eigenvalues    EBANDS =      1429.23851557
  atomic energy  EATOM  =     41659.78587232
  Solvation  Ediel_sol  =         0.00000000
  ---------------------------------------------------
  free energy    TOTEN  =      3200.69370783 eV

  energy without entropy =     3200.82560963  energy(sigma->0) =     3200.75965873


--------------------------------------------------------------------------------------------------------




----------------------------------------- Iteration    1(   2)  ---------------------------------------


     EDDAV:  cpu time    7.9995: real time    8.0210
       DOS:  cpu time    0.0015: real time    0.0015
    --------------------------------------------
      LOOP:  cpu time    8.0016: real time    8.0247

 eigenvalue-minimisations  :  4380
 total energy-change (2. order) :-0.3185571E+04  (-0.2928151E+04)
 number of electron     504.0000000 magnetization 
 augmentation part      504.0000000 magnetization 

 DIPCOR: dipole corrections for dipol
 direction  3 min pos     1,
 dipolmoment           0.000000      0.000000      0.000000 electrons x Angstroem
 Tr[quadrupol]    -10324.399761

 energy correction for charged system         0.000000 eV
 dipol+quadrupol energy correction           -0.000000 eV
 added-field ion interaction          0.000000 eV  (added to PSCEN)


 Free energy of the ion-electron system (eV)
  ---------------------------------------------------
  alpha Z        PSCENC =       805.86936429
  Ewald energy   TEWEN  =    200157.78616891
  -Hartree energ DENC   =   -242571.65231647
  -exchange      EXHF   =         0.00000000
  -V(xc)+E(xc)   XCENC  =      -327.63380095
  PAW double counting   =     40340.05962942   -38292.62782345
  entropy T*S    EENTRO =        -0.13352084
  eigenvalues    EBANDS =     -1756.33109722
  atomic energy  EATOM  =     41659.78587232
  Solvation  Ediel_sol  =         0.00000000
  ---------------------------------------------------
  free energy    TOTEN  =        15.12247601 eV

  energy without entropy =       15.25599684  energy(sigma->0) =       15.18923642


--------------------------------------------------------------------------------------------------------




----------------------------------------- Iteration    1(   3)  ---------------------------------------


     EDDAV:  cpu time    7.8285: real time    7.9258
       DOS:  cpu time    0.0017: real time    0.0017
    --------------------------------------------
      LOOP:  cpu time    7.8310: real time    7.9316

 eigenvalue-minimisations  :  4128
 total energy-change (2. order) :-0.2155212E+03  (-0.2003747E+03)
 number of electron     504.0000000 magnetization 
 augmentation part      504.0000000 magnetization 

 DIPCOR: dipole corrections for dipol
 direction  3 min pos     1,
 dipolmoment           0.000000      0.000000      0.000000 electrons x Angstroem
 Tr[quadrupol]    -10324.399761

 energy correction for charged system         0.000000 eV
 dipol+quadrupol energy correction           -0.000000 eV
 added-field ion interaction          0.000000 eV  (added to PSCEN)


 Free energy of the ion-electron system (eV)
  ---------------------------------------------------
  alpha Z        PSCENC =       805.86936429
  Ewald energy   TEWEN  =    200157.78616891
  -Hartree energ DENC   =   -242571.65231647
  -exchange      EXHF   =         0.00000000
  -V(xc)+E(xc)   XCENC  =      -327.63380095
  PAW double counting   =     40340.05962942   -38292.62782345
  entropy T*S    EENTRO =        -0.20262796
  eigenvalues    EBANDS =     -1971.78322766
  atomic energy  EATOM  =     41659.78587232
  Solvation  Ediel_sol  =         0.00000000
  ---------------------------------------------------
  free energy    TOTEN  =      -200.39876155 eV

  energy without entropy =     -200.19613359  energy(sigma->0) =     -200.29744757


--------------------------------------------------------------------------------------------------------




----------------------------------------- Iteration    1(   4)  ---------------------------------------


     EDDAV:  cpu time    8.0061: real time    8.0271
       DOS:  cpu time    0.0016: real time    0.0017
    --------------------------------------------
      LOOP:  cpu time    8.0090: real time    8.0324

 eigenvalue-minimisations  :  4224
 total energy-change (2. order) :-0.5772292E+01  (-0.5708612E+01)
 number of electron     504.0000000 magnetization 
 augmentation part      504.0000000 magnetization 

 DIPCOR: dipole corrections for dipol
 direction  3 min pos     1,
 dipolmoment           0.000000      0.000000      0.000000 electrons x Angstroem
 Tr[quadrupol]    -10324.399761

 energy correction for charged system         0.000000 eV
 dipol+quadrupol energy correction           -0.000000 eV
 added-field ion interaction          0.000000 eV  (added to PSCEN)


 Free energy of the ion-electron system (eV)
  ---------------------------------------------------
  alpha Z        PSCENC =       805.86936429
  Ewald energy   TEWEN  =    200157.78616891
  -Hartree energ DENC   =   -242571.65231647
  -exchange      EXHF   =         0.00000000
  -V(xc)+E(xc)   XCENC  =      -327.63380095
  PAW double counting   =     40340.05962942   -38292.62782345
  entropy T*S    EENTRO =        -0.20761581
  eigenvalues    EBANDS =     -1977.55053157
  atomic energy  EATOM  =     41659.78587232
  Solvation  Ediel_sol  =         0.00000000
  ---------------------------------------------------
  free energy    TOTEN  =      -206.17105331 eV

  energy without entropy =     -205.96343750  energy(sigma->0) =     -206.06724540


--------------------------------------------------------------------------------------------------------




----------------------------------------- Iteration    1(   5)  ---------------------------------------


     EDDAV:  cpu time    8.2898: real time    8.3109
       DOS:  cpu time    0.0016: real time    0.0016
    CHARGE:  cpu time    0.2408: real time    0.2414
    MIXING:  cpu time    0.0022: real time    0.0024
    --------------------------------------------
      LOOP:  cpu time    8.5352: real time    8.5604

 eigenvalue-minimisations  :  4428
 total energy-change (2. order) :-0.1872806E+00  (-0.1867187E+00)
 number of electron     503.9998405 magnetization 
 augmentation part      191.2665854 magnetization 

 DIPCOR: dipole corrections for dipol
 direction  3 min pos     1,
 dipolmoment           0.000000      0.000000      0.000000 electrons x Angstroem
 Tr[quadrupol]    -10324.399761

 energy correction for charged system         0.000000 eV
 dipol+quadrupol energy correction           -0.000000 eV
 added-field ion interaction          0.000000 eV  (added to PSCEN)


 Broyden mixing:
  rms(total) = 0.62254E+01    rms(broyden)= 0.62254E+01
  rms(prec ) = 0.63372E+01
  weight for this iteration     100.00

 Free energy of the ion-electron system (eV)
  ---------------------------------------------------
  alpha Z        PSCENC =       805.86936429
  Ewald energy   TEWEN  =    200157.78616891
  -Hartree energ DENC   =   -242571.65231647
  -exchange      EXHF   =         0.00000000
  -V(xc)+E(xc)   XCENC  =      -327.63380095
  PAW double counting   =     40340.05962942   -38292.62782345
  entropy T*S    EENTRO =        -0.20768294
  eigenvalues    EBANDS =     -1977.73774504
  atomic energy  EATOM  =     41659.78587232
  Solvation  Ediel_sol  =         0.00000000
  ---------------------------------------------------
  free energy    TOTEN  =      -206.35833392 eV

  energy without entropy =     -206.15065097  energy(sigma->0) =     -206.25449245


--------------------------------------------------------------------------------------------------------




----------------------------------------- Iteration    1(   6)  ---------------------------------------


    POTLOK:  cpu time    0.0425: real time    0.0427
    SETDIJ:  cpu time    0.0057: real time    0.0058
    EDDIAG:  cpu time    1.2224: real time    1.2254
  RMM-DIIS:  cpu time    3.3689: real time    3.3790
    ORTHCH:  cpu time    0.2990: real time    0.2997
       DOS:  cpu time    0.0015: real time    0.0015
    CHARGE:  cpu time    0.2386: real time    0.2392
    MIXING:  cpu time    0.0020: real time    0.0020
    --------------------------------------------
      LOOP:  cpu time    5.1812: real time    5.1986

 eigenvalue-minimisations  :  3678
 total energy-change (2. order) : 0.7575755E+01  (-0.8855634E+01)
 number of electron     503.9998410 magnetization 
 augmentation part      192.2872541 magnetization 

 DIPCOR: dipole corrections for dipol
 direction  3 min pos     1,
 dipolmoment           0.000000      0.000000     -0.001417 electrons x Angstroem
 Tr[quadrupol]    -10325.804523

 energy correction for charged system         0.000000 eV
 dipol+quadrupol energy correction           -0.000000 eV
 added-field ion interaction          0.000000 eV  (added to PSCEN)


 Broyden mixing:
  rms(total) = 0.53311E+01    rms(broyden)= 0.53310E+01
  rms(prec ) = 0.55379E+01
  weight for this iteration     100.00

 eigenvalues of (default mixing * dielectric matrix)
  average eigenvalue GAMMA=   0.7938
  0.7938

 Free energy of the ion-electron system (eV)
  ---------------------------------------------------
  alpha Z        PSCENC =       805.86936422
  Ewald energy   TEWEN  =    200157.78616891
  -Hartree energ DENC   =   -242323.11121154
  -exchange      EXHF   =         0.00000000
  -V(xc)+E(xc)   XCENC  =      -340.19167120
  PAW double counting   =     43917.64670762   -41929.53638761
  entropy T*S    EENTRO =        -0.22538664
  eigenvalues    EBANDS =     -2146.80603475
  atomic energy  EATOM  =     41659.78587232
  Solvation  Ediel_sol  =         0.00000000
  ---------------------------------------------------
  free energy    TOTEN  =      -198.78257867 eV

  energy without entropy =     -198.55719203  energy(sigma->0) =     -198.66988535


--------------------------------------------------------------------------------------------------------




----------------------------------------- Iteration    1(   7)  ---------------------------------------


    POTLOK:  cpu time    0.0416: real time    0.0425
    SETDIJ:  cpu time    0.0053: real time    0.0055
    EDDIAG:  cpu time    1.2210: real time    1.2239
  RMM-DIIS:  cpu time    3.3995: real time    3.4231
    ORTHCH:  cpu time    0.2990: real time    0.2997
       DOS:  cpu time    0.0015: real time    0.0015
    CHARGE:  cpu time    0.2397: real time    0.2403
    MIXING:  cpu time    0.0022: real time    0.0022
    --------------------------------------------
      LOOP:  cpu time    5.2104: real time    5.2421

 eigenvalue-minimisations  :  3681
 total energy-change (2. order) :-0.6236944E+01  (-0.6564104E+01)
 number of electron     503.9998369 magnetization 
 augmentation part      196.5827015 magnetization 

 DIPCOR: dipole corrections for dipol
 direction  3 min pos     1,
 dipolmoment           0.000000      0.000000      0.372714 electrons x Angstroem
 Tr[quadrupol]    -10324.156183

 energy correction for charged system         0.000000 eV
 dipol+quadrupol energy correction           -0.004895 eV
 added-field ion interaction          0.000000 eV  (added to PSCEN)


 Broyden mixing:
  rms(total) = 0.40642E+01    rms(broyden)= 0.40640E+01
  rms(prec ) = 0.43276E+01
  weight for this iteration     100.00

 eigenvalues of (default mixing * dielectric matrix)
  average eigenvalue GAMMA=   1.0285
  1.6730  0.3840

 Free energy of the ion-electron system (eV)
  ---------------------------------------------------
  alpha Z        PSCENC =       805.86446926
  Ewald energy   TEWEN  =    200157.78616891
  -Hartree energ DENC   =   -242167.13397181
  -exchange      EXHF   =         0.00000000
  -V(xc)+E(xc)   XCENC  =      -342.33621293
  PAW double counting   =     45452.57276637   -43490.57989223
  entropy T*S    EENTRO =        -0.14956043
  eigenvalues    EBANDS =     -2280.82916171
  atomic energy  EATOM  =     41659.78587232
  Solvation  Ediel_sol  =         0.00000000
  ---------------------------------------------------
  free energy    TOTEN  =      -205.01952226 eV

  energy without entropy =     -204.86996183  energy(sigma->0) =     -204.94474205


--------------------------------------------------------------------------------------------------------




----------------------------------------- Iteration    1(   8)  ---------------------------------------


    POTLOK:  cpu time    0.0426: real time    0.0427
    SETDIJ:  cpu time    0.0061: real time    0.0061
    EDDIAG:  cpu time    1.2450: real time    1.2487
  RMM-DIIS:  cpu time    3.3911: real time    3.3997
    ORTHCH:  cpu time    0.2964: real time    0.2971
       DOS:  cpu time    0.0015: real time    0.0015
    CHARGE:  cpu time    0.2366: real time    0.2372
    MIXING:  cpu time    0.0021: real time    0.0021
    --------------------------------------------
      LOOP:  cpu time    5.2221: real time    5.2393

 eigenvalue-minimisations  :  3681
 total energy-change (2. order) :-0.2457485E+01  (-0.4447816E+01)
 number of electron     503.9998351 magnetization 
 augmentation part      197.8553416 magnetization 

 DIPCOR: dipole corrections for dipol
 direction  3 min pos     1,
 dipolmoment           0.000000      0.000000     -1.144932 electrons x Angstroem
 Tr[quadrupol]    -10326.131778

 energy correction for charged system         0.000000 eV
 dipol+quadrupol energy correction           -0.046192 eV
 added-field ion interaction          0.000000 eV  (added to PSCEN)


 Broyden mixing:
  rms(total) = 0.30614E+01    rms(broyden)= 0.30611E+01
  rms(prec ) = 0.36499E+01
  weight for this iteration     100.00

 eigenvalues of (default mixing * dielectric matrix)
  average eigenvalue GAMMA=   0.9938
  2.1449  0.4182  0.4182

 Free energy of the ion-electron system (eV)
  ---------------------------------------------------
  alpha Z        PSCENC =       805.82317277
  Ewald energy   TEWEN  =    200157.78616891
  -Hartree energ DENC   =   -242163.34322369
  -exchange      EXHF   =         0.00000000
  -V(xc)+E(xc)   XCENC  =      -344.58437158
  PAW double counting   =     47687.26697176   -45755.85281553
  entropy T*S    EENTRO =        -0.18127428
  eigenvalues    EBANDS =     -2254.17750833
  atomic energy  EATOM  =     41659.78587232
  Solvation  Ediel_sol  =         0.00000000
  ---------------------------------------------------
  free energy    TOTEN  =      -207.47700766 eV

  energy without entropy =     -207.29573338  energy(sigma->0) =     -207.38637052


--------------------------------------------------------------------------------------------------------




----------------------------------------- Iteration    1(   9)  ---------------------------------------


    POTLOK:  cpu time    0.0416: real time    0.0417
    SETDIJ:  cpu time    0.0055: real time    0.0055
    EDDIAG:  cpu time    1.2252: real time    1.2282
  RMM-DIIS:  cpu time    3.3910: real time    3.4287
    ORTHCH:  cpu time    0.2849: real time    0.3127
       DOS:  cpu time    0.0015: real time    0.0016
    CHARGE:  cpu time    0.2446: real time    0.2653
    MIXING:  cpu time    0.0021: real time    0.0022
    --------------------------------------------
      LOOP:  cpu time    5.1972: real time    5.2891

 eigenvalue-minimisations  :  3679
 total energy-change (2. order) : 0.2495441E+01  (-0.3794210E+01)
 number of electron     503.9998356 magnetization 
 augmentation part      197.4169049 magnetization 

 DIPCOR: dipole corrections for dipol
 direction  3 min pos     1,
 dipolmoment           0.000000      0.000000      1.331016 electrons x Angstroem
 Tr[quadrupol]    -10327.014612

 energy correction for charged system         0.000000 eV
 dipol+quadrupol energy correction           -0.062427 eV
 added-field ion interaction          0.000000 eV  (added to PSCEN)


 Broyden mixing:
  rms(total) = 0.27816E+01    rms(broyden)= 0.27812E+01
  rms(prec ) = 0.35308E+01
  weight for this iteration     100.00

 eigenvalues of (default mixing * dielectric matrix)
  average eigenvalue GAMMA=   0.8808
  2.2994  0.4789  0.4789  0.2659

 Free energy of the ion-electron system (eV)
  ---------------------------------------------------
  alpha Z        PSCENC =       805.80693769
  Ewald energy   TEWEN  =    200157.78616891
  -Hartree energ DENC   =   -242180.36908352
  -exchange      EXHF   =         0.00000000
  -V(xc)+E(xc)   XCENC  =      -345.45290446
  PAW double counting   =     48792.39606953   -46874.85247801
  entropy T*S    EENTRO =        -0.18835087
  eigenvalues    EBANDS =     -2219.89379832
  atomic energy  EATOM  =     41659.78587232
  Solvation  Ediel_sol  =         0.00000000
  ---------------------------------------------------
  free energy    TOTEN  =      -204.98156672 eV

  energy without entropy =     -204.79321585  energy(sigma->0) =     -204.88739129


--------------------------------------------------------------------------------------------------------




----------------------------------------- Iteration    1(  10)  ---------------------------------------


    POTLOK:  cpu time    0.0416: real time    0.0446
    SETDIJ:  cpu time    0.0054: real time    0.0057
    EDDIAG:  cpu time    1.2243: real time    1.2272
  RMM-DIIS:  cpu time    3.4060: real time    3.4164
    ORTHCH:  cpu time    0.2964: real time    0.2971
       DOS:  cpu time    0.0016: real time    0.0016
    CHARGE:  cpu time    0.2355: real time    0.2361
    MIXING:  cpu time    0.0023: real time    0.0023
    --------------------------------------------
      LOOP:  cpu time    5.2139: real time    5.2352

 eigenvalue-minimisations  :  3681
 total energy-change (2. order) : 0.1085631E+02  (-0.1744569E+01)
 number of electron     503.9998343 magnetization 
 augmentation part      198.5024111 magnetization 

 DIPCOR: dipole corrections for dipol
 direction  3 min pos     1,
 dipolmoment           0.000000      0.000000     -0.237807 electrons x Angstroem
 Tr[quadrupol]    -10327.256064

 energy correction for charged system         0.000000 eV
 dipol+quadrupol energy correction           -0.001993 eV
 added-field ion interaction          0.000000 eV  (added to PSCEN)


 Broyden mixing:
  rms(total) = 0.18427E+01    rms(broyden)= 0.18423E+01
  rms(prec ) = 0.20861E+01
  weight for this iteration     100.00

 eigenvalues of (default mixing * dielectric matrix)
  average eigenvalue GAMMA=   0.7740
  2.3006  0.4939  0.4939  0.3394  0.2423

 Free energy of the ion-electron system (eV)
  ---------------------------------------------------
  alpha Z        PSCENC =       805.86737154
  Ewald energy   TEWEN  =    200157.78616891
  -Hartree energ DENC   =   -242191.74930672
  -exchange      EXHF   =         0.00000000
  -V(xc)+E(xc)   XCENC  =      -345.62001398
  PAW double counting   =     49180.97977658   -47268.15331238
  entropy T*S    EENTRO =        -0.19054074
  eigenvalues    EBANDS =     -2192.83126769
  atomic energy  EATOM  =     41659.78587232
  Solvation  Ediel_sol  =         0.00000000
  ---------------------------------------------------
  free energy    TOTEN  =      -194.12525215 eV

  energy without entropy =     -193.93471141  energy(sigma->0) =     -194.02998178


--------------------------------------------------------------------------------------------------------




----------------------------------------- Iteration    1(  11)  ---------------------------------------


    POTLOK:  cpu time    0.0429: real time    0.0430
    SETDIJ:  cpu time    0.0056: real time    0.0056
    EDDIAG:  cpu time    1.2213: real time    1.2243
  RMM-DIIS:  cpu time    3.3998: real time    3.4151
    ORTHCH:  cpu time    0.2971: real time    0.2978
       DOS:  cpu time    0.0015: real time    0.0016
    CHARGE:  cpu time    0.2344: real time    0.2350
    MIXING:  cpu time    0.0023: real time    0.0023
    --------------------------------------------
      LOOP:  cpu time    5.2056: real time    5.2351

 eigenvalue-minimisations  :  3681
 total energy-change (2. order) : 0.3882273E+01  (-0.5478424E+00)
 number of electron     503.9998349 magnetization 
 augmentation part      198.2447919 magnetization 

 DIPCOR: dipole corrections for dipol
 direction  3 min pos     1,
 dipolmoment           0.000000      0.000000      0.041931 electrons x Angstroem
 Tr[quadrupol]    -10327.066720

 energy correction for charged system         0.000000 eV
 dipol+quadrupol energy correction           -0.000062 eV
 added-field ion interaction          0.000000 eV  (added to PSCEN)


 Broyden mixing:
  rms(total) = 0.98347E+00    rms(broyden)= 0.98319E+00
  rms(prec ) = 0.10739E+01
  weight for this iteration     100.00

 eigenvalues of (default mixing * dielectric matrix)
  average eigenvalue GAMMA=   0.7226
  2.2848  0.5392  0.4873  0.4873  0.2685  0.2685

 Free energy of the ion-electron system (eV)
  ---------------------------------------------------
  alpha Z        PSCENC =       805.86930233
  Ewald energy   TEWEN  =    200157.78616891
  -Hartree energ DENC   =   -242203.90898756
  -exchange      EXHF   =         0.00000000
  -V(xc)+E(xc)   XCENC  =      -345.10713746
  PAW double counting   =     49254.44878299   -47340.49915099
  entropy T*S    EENTRO =        -0.23259880
  eigenvalues    EBANDS =     -2178.38523096
  atomic energy  EATOM  =     41659.78587232
  Solvation  Ediel_sol  =         0.00000000
  ---------------------------------------------------
  free energy    TOTEN  =      -190.24297922 eV

  energy without entropy =     -190.01038043  energy(sigma->0) =     -190.12667982


--------------------------------------------------------------------------------------------------------




----------------------------------------- Iteration    1(  12)  ---------------------------------------


    POTLOK:  cpu time    0.0410: real time    0.0411
    SETDIJ:  cpu time    0.0056: real time    0.0056
    EDDIAG:  cpu time    1.2293: real time    1.2323
  RMM-DIIS:  cpu time    3.4032: real time    3.4115
    ORTHCH:  cpu time    0.2960: real time    0.2967
       DOS:  cpu time    0.0016: real time    0.0016
    CHARGE:  cpu time    0.2340: real time    0.2346
    MIXING:  cpu time    0.0026: real time    0.0026
    --------------------------------------------
      LOOP:  cpu time    5.2140: real time    5.2292

 eigenvalue-minimisations  :  3680
 total energy-change (2. order) : 0.8680271E+00  (-0.2301166E+00)
 number of electron     503.9998355 magnetization 
 augmentation part      197.7416956 magnetization 

 DIPCOR: dipole corrections for dipol
 direction  3 min pos     1,
 dipolmoment           0.000000      0.000000     -0.086093 electrons x Angstroem
 Tr[quadrupol]    -10327.388743

 energy correction for charged system         0.000000 eV
 dipol+quadrupol energy correction           -0.000261 eV
 added-field ion interaction          0.000000 eV  (added to PSCEN)


 Broyden mixing:
  rms(total) = 0.73283E+00    rms(broyden)= 0.73265E+00
  rms(prec ) = 0.80163E+00
  weight for this iteration     100.00

 eigenvalues of (default mixing * dielectric matrix)
  average eigenvalue GAMMA=   0.7128
  2.2566  0.6704  0.6178  0.6178  0.3038  0.3038  0.2194

 Free energy of the ion-electron system (eV)
  ---------------------------------------------------
  alpha Z        PSCENC =       805.86910311
  Ewald energy   TEWEN  =    200157.78616891
  -Hartree energ DENC   =   -242231.62156451
  -exchange      EXHF   =         0.00000000
  -V(xc)+E(xc)   XCENC  =      -344.64437875
  PAW double counting   =     49276.54931555   -47360.60103198
  entropy T*S    EENTRO =        -0.23564404
  eigenvalues    EBANDS =     -2152.26279276
  atomic energy  EATOM  =     41659.78587232
  Solvation  Ediel_sol  =         0.00000000
  ---------------------------------------------------
  free energy    TOTEN  =      -189.37495216 eV

  energy without entropy =     -189.13930812  energy(sigma->0) =     -189.25713014


--------------------------------------------------------------------------------------------------------




----------------------------------------- Iteration    1(  13)  ---------------------------------------


    POTLOK:  cpu time    0.0410: real time    0.0411
    SETDIJ:  cpu time    0.0054: real time    0.0054
    EDDIAG:  cpu time    1.2246: real time    1.2275
  RMM-DIIS:  cpu time    3.4012: real time    3.4145
    ORTHCH:  cpu time    0.2970: real time    0.2977
       DOS:  cpu time    0.0015: real time    0.0016
    CHARGE:  cpu time    0.2368: real time    0.2394
    MIXING:  cpu time    0.0027: real time    0.0028
    --------------------------------------------
      LOOP:  cpu time    5.2109: real time    5.2333

 eigenvalue-minimisations  :  3679
 total energy-change (2. order) : 0.1824138E+00  (-0.6992181E-01)
 number of electron     503.9998360 magnetization 
 augmentation part      197.2363613 magnetization 

 DIPCOR: dipole corrections for dipol
 direction  3 min pos     1,
 dipolmoment           0.000000      0.000000     -0.003323 electrons x Angstroem
 Tr[quadrupol]    -10327.825583

 energy correction for charged system         0.000000 eV
 dipol+quadrupol energy correction           -0.000000 eV
 added-field ion interaction          0.000000 eV  (added to PSCEN)


 Broyden mixing:
  rms(total) = 0.54042E+00    rms(broyden)= 0.54030E+00
  rms(prec ) = 0.58934E+00
  weight for this iteration     100.00

 eigenvalues of (default mixing * dielectric matrix)
  average eigenvalue GAMMA=   0.6942
  2.2187  0.8143  0.6762  0.6762  0.3288  0.3288  0.2935  0.2175

 Free energy of the ion-electron system (eV)
  ---------------------------------------------------
  alpha Z        PSCENC =       805.86936390
  Ewald energy   TEWEN  =    200157.78616891
  -Hartree energ DENC   =   -242264.31311548
  -exchange      EXHF   =         0.00000000
  -V(xc)+E(xc)   XCENC  =      -344.11405964
  PAW double counting   =     49291.77588576   -47373.31009272
  entropy T*S    EENTRO =        -0.24221232
  eigenvalues    EBANDS =     -2122.43034913
  atomic energy  EATOM  =     41659.78587232
  Solvation  Ediel_sol  =         0.00000000
  ---------------------------------------------------
  free energy    TOTEN  =      -189.19253840 eV

  energy without entropy =     -188.95032608  energy(sigma->0) =     -189.07143224


--------------------------------------------------------------------------------------------------------




----------------------------------------- Iteration    1(  14)  ---------------------------------------


    POTLOK:  cpu time    0.0425: real time    0.0427
    SETDIJ:  cpu time    0.0061: real time    0.0061
    EDDIAG:  cpu time    1.2276: real time    1.2317
  RMM-DIIS:  cpu time    3.4124: real time    3.4232
    ORTHCH:  cpu time    0.2954: real time    0.2961
       DOS:  cpu time    0.0015: real time    0.0015
    CHARGE:  cpu time    0.2363: real time    0.2369
    MIXING:  cpu time    0.0030: real time    0.0030
    --------------------------------------------
      LOOP:  cpu time    5.2253: real time    5.2452

 eigenvalue-minimisations  :  3679
 total energy-change (2. order) : 0.9986151E-01  (-0.4458351E-01)
 number of electron     503.9998361 magnetization 
 augmentation part      197.0913944 magnetization 

 DIPCOR: dipole corrections for dipol
 direction  3 min pos     1,
 dipolmoment           0.000000      0.000000      0.007374 electrons x Angstroem
 Tr[quadrupol]    -10327.925164

 energy correction for charged system         0.000000 eV
 dipol+quadrupol energy correction           -0.000002 eV
 added-field ion interaction          0.000000 eV  (added to PSCEN)


 Broyden mixing:
  rms(total) = 0.53036E+00    rms(broyden)= 0.53023E+00
  rms(prec ) = 0.57112E+00
  weight for this iteration     100.00

 eigenvalues of (default mixing * dielectric matrix)
  average eigenvalue GAMMA=   0.7336
  2.2639  1.0377  1.0377  0.7052  0.4083  0.3558  0.3558  0.2327  0.2051

 Free energy of the ion-electron system (eV)
  ---------------------------------------------------
  alpha Z        PSCENC =       805.86936237
  Ewald energy   TEWEN  =    200157.78616891
  -Hartree energ DENC   =   -242274.53446427
  -exchange      EXHF   =         0.00000000
  -V(xc)+E(xc)   XCENC  =      -343.85211473
  PAW double counting   =     49290.28054262   -47370.50166261
  entropy T*S    EENTRO =        -0.25051984
  eigenvalues    EBANDS =     -2113.67586166
  atomic energy  EATOM  =     41659.78587232
  Solvation  Ediel_sol  =         0.00000000
  ---------------------------------------------------
  free energy    TOTEN  =      -189.09267689 eV

  energy without entropy =     -188.84215705  energy(sigma->0) =     -188.96741697


--------------------------------------------------------------------------------------------------------




----------------------------------------- Iteration    1(  15)  ---------------------------------------


    POTLOK:  cpu time    0.0427: real time    0.0428
    SETDIJ:  cpu time    0.0056: real time    0.0056
    EDDIAG:  cpu time    1.2235: real time    1.2275
  RMM-DIIS:  cpu time    3.4620: real time    3.4722
    ORTHCH:  cpu time    0.2947: real time    0.2954
       DOS:  cpu time    0.0015: real time    0.0015
    CHARGE:  cpu time    0.2351: real time    0.2357
    MIXING:  cpu time    0.0030: real time    0.0030
    --------------------------------------------
      LOOP:  cpu time    5.2688: real time    5.2862

 eigenvalue-minimisations  :  3679
 total energy-change (2. order) :-0.1179250E+00  (-0.3580674E-01)
 number of electron     503.9998360 magnetization 
 augmentation part      197.1840083 magnetization 

 DIPCOR: dipole corrections for dipol
 direction  3 min pos     1,
 dipolmoment           0.000000      0.000000      0.015831 electrons x Angstroem
 Tr[quadrupol]    -10328.248545

 energy correction for charged system         0.000000 eV
 dipol+quadrupol energy correction           -0.000009 eV
 added-field ion interaction          0.000000 eV  (added to PSCEN)


 Broyden mixing:
  rms(total) = 0.55591E+00    rms(broyden)= 0.55575E+00
  rms(prec ) = 0.62237E+00
  weight for this iteration     100.00

 eigenvalues of (default mixing * dielectric matrix)
  average eigenvalue GAMMA=   0.7365
  2.3063  1.2980  1.2980  0.5822  0.4395  0.4395  0.3015  0.3015  0.2167  0.1815

 Free energy of the ion-electron system (eV)
  ---------------------------------------------------
  alpha Z        PSCENC =       805.86935546
  Ewald energy   TEWEN  =    200157.78616891
  -Hartree energ DENC   =   -242285.22382085
  -exchange      EXHF   =         0.00000000
  -V(xc)+E(xc)   XCENC  =      -343.79380996
  PAW double counting   =     49322.85540605   -47402.58944040
  entropy T*S    EENTRO =        -0.24411971
  eigenvalues    EBANDS =     -2103.65621370
  atomic energy  EATOM  =     41659.78587232
  Solvation  Ediel_sol  =         0.00000000
  ---------------------------------------------------
  free energy    TOTEN  =      -189.21060189 eV

  energy without entropy =     -188.96648218  energy(sigma->0) =     -189.08854204


--------------------------------------------------------------------------------------------------------




----------------------------------------- Iteration    1(  16)  ---------------------------------------


    POTLOK:  cpu time    0.0412: real time    0.0413
    SETDIJ:  cpu time    0.0055: real time    0.0055
    EDDIAG:  cpu time    1.2290: real time    1.2319
  RMM-DIIS:  cpu time    3.4647: real time    3.4734
    ORTHCH:  cpu time    0.2956: real time    0.2963
       DOS:  cpu time    0.0015: real time    0.0015
    CHARGE:  cpu time    0.2344: real time    0.2349
    MIXING:  cpu time    0.0032: real time    0.0032
    --------------------------------------------
      LOOP:  cpu time    5.2759: real time    5.2908

 eigenvalue-minimisations  :  3678
 total energy-change (2. order) : 0.1786249E+00  (-0.2944216E-01)
 number of electron     503.9998359 magnetization 
 augmentation part      197.2783222 magnetization 

 DIPCOR: dipole corrections for dipol
 direction  3 min pos     1,
 dipolmoment           0.000000      0.000000      0.009762 electrons x Angstroem
 Tr[quadrupol]    -10328.461766

 energy correction for charged system         0.000000 eV
 dipol+quadrupol energy correction           -0.000003 eV
 added-field ion interaction          0.000000 eV  (added to PSCEN)


 Broyden mixing:
  rms(total) = 0.25221E+00    rms(broyden)= 0.25205E+00
  rms(prec ) = 0.27304E+00
  weight for this iteration     100.00

 eigenvalues of (default mixing * dielectric matrix)
  average eigenvalue GAMMA=   0.7362
  2.2724  1.4711  1.4711  0.5709  0.5709  0.4439  0.3317  0.3317  0.2436  0.2137
  0.1773

 Free energy of the ion-electron system (eV)
  ---------------------------------------------------
  alpha Z        PSCENC =       805.86936093
  Ewald energy   TEWEN  =    200157.78616891
  -Hartree energ DENC   =   -242294.24467658
  -exchange      EXHF   =         0.00000000
  -V(xc)+E(xc)   XCENC  =      -343.70859230
  PAW double counting   =     49342.19708954   -47421.33122744
  entropy T*S    EENTRO =        -0.26192065
  eigenvalues    EBANDS =     -2095.12405169
  atomic energy  EATOM  =     41659.78587232
  Solvation  Ediel_sol  =         0.00000000
  ---------------------------------------------------
  free energy    TOTEN  =      -189.03197696 eV

  energy without entropy =     -188.77005630  energy(sigma->0) =     -188.90101663


--------------------------------------------------------------------------------------------------------




----------------------------------------- Iteration    1(  17)  ---------------------------------------


    POTLOK:  cpu time    0.0420: real time    0.0422
    SETDIJ:  cpu time    0.0060: real time    0.0061
    EDDIAG:  cpu time    1.2233: real time    1.2262
  RMM-DIIS:  cpu time    3.3815: real time    3.4769
    ORTHCH:  cpu time    0.2955: real time    0.2962
       DOS:  cpu time    0.0015: real time    0.0015
    CHARGE:  cpu time    0.2381: real time    0.2386
    MIXING:  cpu time    0.0033: real time    0.0033
    --------------------------------------------
      LOOP:  cpu time    5.1917: real time    5.2954

 eigenvalue-minimisations  :  3678
 total energy-change (2. order) : 0.5337554E-01  (-0.9099368E-02)
 number of electron     503.9998361 magnetization 
 augmentation part      197.1897959 magnetization 

 DIPCOR: dipole corrections for dipol
 direction  3 min pos     1,
 dipolmoment           0.000000      0.000000      0.004963 electrons x Angstroem
 Tr[quadrupol]    -10328.659357

 energy correction for charged system         0.000000 eV
 dipol+quadrupol energy correction           -0.000001 eV
 added-field ion interaction          0.000000 eV  (added to PSCEN)


 Broyden mixing:
  rms(total) = 0.13852E+00    rms(broyden)= 0.13849E+00
  rms(prec ) = 0.15220E+00
  weight for this iteration     100.00

 eigenvalues of (default mixing * dielectric matrix)
  average eigenvalue GAMMA=   0.7722
  2.2711  2.2711  1.2655  0.7006  0.7006  0.3743  0.3743  0.3270  0.3270  0.2592
  0.2157  0.1794

 Free energy of the ion-electron system (eV)
  ---------------------------------------------------
  alpha Z        PSCENC =       805.86936342
  Ewald energy   TEWEN  =    200157.78616891
  -Hartree energ DENC   =   -242304.90417414
  -exchange      EXHF   =         0.00000000
  -V(xc)+E(xc)   XCENC  =      -343.57696634
  PAW double counting   =     49343.04419159   -47421.32813211
  entropy T*S    EENTRO =        -0.26146064
  eigenvalues    EBANDS =     -2085.39346442
  atomic energy  EATOM  =     41659.78587232
  Solvation  Ediel_sol  =         0.00000000
  ---------------------------------------------------
  free energy    TOTEN  =      -188.97860142 eV

  energy without entropy =     -188.71714078  energy(sigma->0) =     -188.84787110


--------------------------------------------------------------------------------------------------------




----------------------------------------- Iteration    1(  18)  ---------------------------------------


    POTLOK:  cpu time    0.0411: real time    0.0411
    SETDIJ:  cpu time    0.0054: real time    0.0055
    EDDIAG:  cpu time    1.2280: real time    1.2310
  RMM-DIIS:  cpu time    3.4100: real time    3.4347
    ORTHCH:  cpu time    0.2904: real time    0.2959
       DOS:  cpu time    0.0016: real time    0.0016
    CHARGE:  cpu time    0.2316: real time    0.2356
    MIXING:  cpu time    0.0034: real time    0.0034
    --------------------------------------------
      LOOP:  cpu time    5.2121: real time    5.2522

 eigenvalue-minimisations  :  3679
 total energy-change (2. order) : 0.1672919E-01  (-0.3170833E-02)
 number of electron     503.9998362 magnetization 
 augmentation part      197.0667138 magnetization 

 DIPCOR: dipole corrections for dipol
 direction  3 min pos     1,
 dipolmoment           0.000000      0.000000     -0.002820 electrons x Angstroem
 Tr[quadrupol]    -10328.950544

 energy correction for charged system         0.000000 eV
 dipol+quadrupol energy correction           -0.000000 eV
 added-field ion interaction          0.000000 eV  (added to PSCEN)


 Broyden mixing:
  rms(total) = 0.77875E-01    rms(broyden)= 0.77860E-01
  rms(prec ) = 0.86513E-01
  weight for this iteration     100.00

 eigenvalues of (default mixing * dielectric matrix)
  average eigenvalue GAMMA=   0.7635
  2.3838  2.3838  1.2435  0.7336  0.7336  0.4115  0.3901  0.3901  0.3105  0.3105
  0.2423  0.2150  0.1778

 Free energy of the ion-electron system (eV)
  ---------------------------------------------------
  alpha Z        PSCENC =       805.86936401
  Ewald energy   TEWEN  =    200157.78616891
  -Hartree energ DENC   =   -242319.15233348
  -exchange      EXHF   =         0.00000000
  -V(xc)+E(xc)   XCENC  =      -343.43509040
  PAW double counting   =     49345.58655652   -47422.97973942
  entropy T*S    EENTRO =        -0.26276235
  eigenvalues    EBANDS =     -2072.15990831
  atomic energy  EATOM  =     41659.78587232
  Solvation  Ediel_sol  =         0.00000000
  ---------------------------------------------------
  free energy    TOTEN  =      -188.96187223 eV

  energy without entropy =     -188.69910987  energy(sigma->0) =     -188.83049105


--------------------------------------------------------------------------------------------------------




----------------------------------------- Iteration    1(  19)  ---------------------------------------


    POTLOK:  cpu time    0.0409: real time    0.0417
    SETDIJ:  cpu time    0.0054: real time    0.0055
    EDDIAG:  cpu time    1.2183: real time    1.2282
  RMM-DIIS:  cpu time    3.4258: real time    3.4347
    ORTHCH:  cpu time    0.2947: real time    0.2954
       DOS:  cpu time    0.0015: real time    0.0015
    CHARGE:  cpu time    0.2346: real time    0.2351
    MIXING:  cpu time    0.0036: real time    0.0036
    --------------------------------------------
      LOOP:  cpu time    5.2253: real time    5.2489

 eigenvalue-minimisations  :  3680
 total energy-change (2. order) : 0.5046555E-02  (-0.6554579E-03)
 number of electron     503.9998362 magnetization 
 augmentation part      197.0507493 magnetization 

 DIPCOR: dipole corrections for dipol
 direction  3 min pos     1,
 dipolmoment           0.000000      0.000000     -0.000143 electrons x Angstroem
 Tr[quadrupol]    -10329.066383

 energy correction for charged system         0.000000 eV
 dipol+quadrupol energy correction           -0.000000 eV
 added-field ion interaction          0.000000 eV  (added to PSCEN)


 Broyden mixing:
  rms(total) = 0.51124E-01    rms(broyden)= 0.51117E-01
  rms(prec ) = 0.54815E-01
  weight for this iteration     100.00

 eigenvalues of (default mixing * dielectric matrix)
  average eigenvalue GAMMA=   0.7746
  2.6312  2.3310  1.0903  0.8134  0.8134  0.7282  0.4292  0.4292  0.3275  0.3275
  0.2857  0.2434  0.2158  0.1785

 Free energy of the ion-electron system (eV)
  ---------------------------------------------------
  alpha Z        PSCENC =       805.86936429
  Ewald energy   TEWEN  =    200157.78616891
  -Hartree energ DENC   =   -242323.63718646
  -exchange      EXHF   =         0.00000000
  -V(xc)+E(xc)   XCENC  =      -343.41689705
  PAW double counting   =     49349.39440890   -47426.71949196
  entropy T*S    EENTRO =        -0.26461814
  eigenvalues    EBANDS =     -2067.75444648
  atomic energy  EATOM  =     41659.78587232
  Solvation  Ediel_sol  =         0.00000000
  ---------------------------------------------------
  free energy    TOTEN  =      -188.95682567 eV

  energy without entropy =     -188.69220753  energy(sigma->0) =     -188.82451660


--------------------------------------------------------------------------------------------------------




----------------------------------------- Iteration    1(  20)  ---------------------------------------


    POTLOK:  cpu time    0.0413: real time    0.0414
    SETDIJ:  cpu time    0.0055: real time    0.0055
    EDDIAG:  cpu time    1.2269: real time    1.2301
  RMM-DIIS:  cpu time    3.4353: real time    3.4436
    ORTHCH:  cpu time    0.2950: real time    0.2957
       DOS:  cpu time    0.0015: real time    0.0015
    CHARGE:  cpu time    0.2344: real time    0.2349
    MIXING:  cpu time    0.0037: real time    0.0037
    --------------------------------------------
      LOOP:  cpu time    5.2444: real time    5.2594

 eigenvalue-minimisations  :  3679
 total energy-change (2. order) :-0.2127033E-03  (-0.3822531E-03)
 number of electron     503.9998362 magnetization 
 augmentation part      197.0424353 magnetization 

 DIPCOR: dipole corrections for dipol
 direction  3 min pos     1,
 dipolmoment           0.000000      0.000000      0.002488 electrons x Angstroem
 Tr[quadrupol]    -10329.184776

 energy correction for charged system         0.000000 eV
 dipol+quadrupol energy correction           -0.000000 eV
 added-field ion interaction          0.000000 eV  (added to PSCEN)


 Broyden mixing:
  rms(total) = 0.48508E-01    rms(broyden)= 0.48500E-01
  rms(prec ) = 0.54590E-01
  weight for this iteration     100.00

 eigenvalues of (default mixing * dielectric matrix)
  average eigenvalue GAMMA=   0.7776
  2.7077  2.2850  1.1985  1.1985  0.6890  0.6890  0.5068  0.5068  0.3380  0.3380
  0.3157  0.1783  0.2154  0.2571  0.2404

 Free energy of the ion-electron system (eV)
  ---------------------------------------------------
  alpha Z        PSCENC =       805.86936407
  Ewald energy   TEWEN  =    200157.78616891
  -Hartree energ DENC   =   -242328.20017253
  -exchange      EXHF   =         0.00000000
  -V(xc)+E(xc)   XCENC  =      -343.40114780
  PAW double counting   =     49351.96529164   -47429.33450619
  entropy T*S    EENTRO =        -0.26365382
  eigenvalues    EBANDS =     -2063.16425497
  atomic energy  EATOM  =     41659.78587232
  Solvation  Ediel_sol  =         0.00000000
  ---------------------------------------------------
  free energy    TOTEN  =      -188.95703838 eV

  energy without entropy =     -188.69338455  energy(sigma->0) =     -188.82521146


--------------------------------------------------------------------------------------------------------




----------------------------------------- Iteration    1(  21)  ---------------------------------------


    POTLOK:  cpu time    0.0413: real time    0.0414
    SETDIJ:  cpu time    0.0053: real time    0.0053
    EDDIAG:  cpu time    1.2243: real time    1.2306
  RMM-DIIS:  cpu time    3.4198: real time    3.4281
    ORTHCH:  cpu time    0.2952: real time    0.2959
       DOS:  cpu time    0.0015: real time    0.0015
    CHARGE:  cpu time    0.2377: real time    0.2383
    MIXING:  cpu time    0.0039: real time    0.0040
    --------------------------------------------
      LOOP:  cpu time    5.2298: real time    5.2484

 eigenvalue-minimisations  :  3681
 total energy-change (2. order) : 0.4649066E-03  (-0.3077602E-03)
 number of electron     503.9998362 magnetization 
 augmentation part      197.0475652 magnetization 

 DIPCOR: dipole corrections for dipol
 direction  3 min pos     1,
 dipolmoment           0.000000      0.000000      0.002399 electrons x Angstroem
 Tr[quadrupol]    -10329.259515

 energy correction for charged system         0.000000 eV
 dipol+quadrupol energy correction           -0.000000 eV
 added-field ion interaction          0.000000 eV  (added to PSCEN)


 Broyden mixing:
  rms(total) = 0.35266E-01    rms(broyden)= 0.35251E-01
  rms(prec ) = 0.40078E-01
  weight for this iteration     100.00

 eigenvalues of (default mixing * dielectric matrix)
  average eigenvalue GAMMA=   0.7903
  2.7663  2.1695  1.4702  1.4702  0.7621  0.7024  0.7024  0.4114  0.4114  0.3238
  0.3238  0.2732  0.2542  0.1782  0.2145  0.2110

 Free energy of the ion-electron system (eV)
  ---------------------------------------------------
  alpha Z        PSCENC =       805.86936408
  Ewald energy   TEWEN  =    200157.78616891
  -Hartree energ DENC   =   -242330.79051980
  -exchange      EXHF   =         0.00000000
  -V(xc)+E(xc)   XCENC  =      -343.40359841
  PAW double counting   =     49352.35076315   -47429.84278863
  entropy T*S    EENTRO =        -0.26442590
  eigenvalues    EBANDS =     -2060.44740919
  atomic energy  EATOM  =     41659.78587232
  Solvation  Ediel_sol  =         0.00000000
  ---------------------------------------------------
  free energy    TOTEN  =      -188.95657347 eV

  energy without entropy =     -188.69214757  energy(sigma->0) =     -188.82436052


--------------------------------------------------------------------------------------------------------




----------------------------------------- Iteration    1(  22)  ---------------------------------------


    POTLOK:  cpu time    0.0414: real time    0.0415
    SETDIJ:  cpu time    0.0055: real time    0.0055
    EDDIAG:  cpu time    1.2218: real time    1.2255
  RMM-DIIS:  cpu time    3.3996: real time    3.4079
    ORTHCH:  cpu time    0.2954: real time    0.2961
       DOS:  cpu time    0.0014: real time    0.0014
    CHARGE:  cpu time    0.2360: real time    0.2366
    MIXING:  cpu time    0.0040: real time    0.0040
    --------------------------------------------
      LOOP:  cpu time    5.2059: real time    5.2233

 eigenvalue-minimisations  :  3678
 total energy-change (2. order) : 0.7680638E-03  (-0.9846207E-04)
 number of electron     503.9998362 magnetization 
 augmentation part      197.0578696 magnetization 

 DIPCOR: dipole corrections for dipol
 direction  3 min pos     1,
 dipolmoment           0.000000      0.000000      0.000778 electrons x Angstroem
 Tr[quadrupol]    -10329.337126

 energy correction for charged system         0.000000 eV
 dipol+quadrupol energy correction           -0.000000 eV
 added-field ion interaction          0.000000 eV  (added to PSCEN)


 Broyden mixing:
  rms(total) = 0.20135E-01    rms(broyden)= 0.20127E-01
  rms(prec ) = 0.22571E-01
  weight for this iteration     100.00

 eigenvalues of (default mixing * dielectric matrix)
  average eigenvalue GAMMA=   0.7942
  2.8615  2.2129  1.6172  1.6172  0.7814  0.7249  0.7249  0.4123  0.4123  0.3278
  0.3278  0.3414  0.2940  0.2442  0.1782  0.2143  0.2098

 Free energy of the ion-electron system (eV)
  ---------------------------------------------------
  alpha Z        PSCENC =       805.86936426
  Ewald energy   TEWEN  =    200157.78616891
  -Hartree energ DENC   =   -242333.27256271
  -exchange      EXHF   =         0.00000000
  -V(xc)+E(xc)   XCENC  =      -343.41324983
  PAW double counting   =     49352.07588778   -47429.72774237
  entropy T*S    EENTRO =        -0.26429239
  eigenvalues    EBANDS =     -2057.79525138
  atomic energy  EATOM  =     41659.78587232
  Solvation  Ediel_sol  =         0.00000000
  ---------------------------------------------------
  free energy    TOTEN  =      -188.95580541 eV

  energy without entropy =     -188.69151302  energy(sigma->0) =     -188.82365921


--------------------------------------------------------------------------------------------------------




----------------------------------------- Iteration    1(  23)  ---------------------------------------


    POTLOK:  cpu time    0.0418: real time    0.0419
    SETDIJ:  cpu time    0.0055: real time    0.0055
    EDDIAG:  cpu time    1.2205: real time    1.2235
  RMM-DIIS:  cpu time    3.4128: real time    3.4211
[...]
    275       1.7860      0.00000
    276       1.8514      0.00000
    277       2.1777      0.00000
    278       2.2793      0.00000
    279       2.3205      0.00000
    280       2.3873      0.00000
    281       2.5076      0.00000
    282       2.5424      0.00000
    283       2.7207      0.00000
    284       2.9724      0.00000
    285       3.1966      0.00000
    286       3.2233      0.00000
    287       3.5716      0.00000
    288       3.6284      0.00000
    289       3.7657      0.00000
    290       3.9548      0.00000
    291       4.1284      0.00000
    292       4.2023      0.00000
    293       4.4819      0.00000
    294       4.5576      0.00000
    295       4.5919      0.00000
    296       4.6268      0.00000
    297       4.7680      0.00000
    298       4.8374      0.00000
    299       4.8581      0.00000
    300       4.9769      0.00000
    301       4.9869      0.00000
    302       5.0497      0.00000
    303       5.0723      0.00000
    304       5.1716      0.00000
    305       5.2135      0.00000
    306       5.2943      0.00000


--------------------------------------------------------------------------------------------------------


 soft charge-density along one line, spin component           1
         0         1         2         3         4         5         6         7         8         9
 total charge-density along one line
 
 pseudopotential strength for first ion, spin component:           1
 -8.014   0.003   0.000  -0.003   0.000  -8.161   0.003   0.000
  0.003  -7.930  -0.001  -0.000  -0.003   0.003  -8.079  -0.001
  0.000  -0.001  -7.928   0.001   0.006   0.000  -0.001  -8.078
 -0.003  -0.000   0.001  -7.941   0.004  -0.003  -0.000   0.001
  0.000  -0.003   0.006   0.004  -8.011   0.000  -0.003   0.006
 -8.161   0.003   0.000  -0.003   0.000  -8.293   0.003   0.000
  0.003  -8.079  -0.001  -0.000  -0.003   0.003  -8.212  -0.001
  0.000  -0.001  -8.078   0.001   0.006   0.000  -0.001  -8.211
 -0.003  -0.000   0.001  -8.090   0.004  -0.003  -0.000   0.001
  0.000  -0.003   0.006   0.004  -8.158   0.000  -0.003   0.006
 -0.000  -0.000  -0.024  -0.002   0.003  -0.000  -0.000  -0.024
 -0.000  -0.000  -0.035  -0.003   0.005  -0.000  -0.000  -0.035
 -0.000   0.007  -0.000   0.000  -0.000  -0.000   0.006  -0.000
  0.000   0.000   0.009  -0.000  -0.000   0.000   0.000   0.009
  0.000   0.000   0.000   0.006  -0.000   0.000   0.000   0.000
 -0.000   0.007  -0.000   0.000  -0.000  -0.000   0.007  -0.000
  0.000   0.000   0.010  -0.000  -0.000   0.000   0.000   0.010
  0.000   0.000   0.000   0.007  -0.000   0.000   0.000   0.000
 total augmentation occupancy for first ion, spin component:           1
  3.951   0.030   0.011  -0.029   0.002  -2.174  -0.018  -0.011  -0.013   0.001   0.010   0.007   0.002   0.001   0.022  -0.000
  0.030   4.128  -0.016   0.002  -0.045  -0.017  -1.857   0.001  -0.006  -0.005  -0.003   0.002   0.160   0.004   0.004   0.000
  0.011  -0.016   4.409   0.028  -0.211  -0.011   0.001  -2.296  -0.031   0.216   0.958  -0.139   0.002   0.219   0.002  -0.000
 -0.029   0.002   0.028   4.069   0.016  -0.012  -0.006  -0.031  -1.843   0.005   0.049  -0.011   0.002   0.009   0.114   0.000
  0.002  -0.045  -0.211   0.016   4.579   0.001  -0.007   0.216   0.005  -2.738  -0.227   0.120   0.020  -0.012  -0.001  -0.001
 -2.174  -0.017  -0.011  -0.012   0.001   2.270   0.008   0.012   0.045  -0.004  -0.007  -0.005  -0.001  -0.002  -0.021   0.000
 -0.018  -1.857   0.001  -0.006  -0.007   0.008   1.556   0.012   0.010   0.045   0.004  -0.002  -0.152  -0.006  -0.004   0.005
 -0.011   0.001  -2.296  -0.031   0.216   0.012   0.012   2.130   0.035  -0.216  -0.891   0.151  -0.003  -0.232  -0.003   0.000
 -0.013  -0.006  -0.031  -1.843   0.005   0.045   0.010   0.035   1.581  -0.020  -0.040   0.008  -0.003  -0.009  -0.107   0.000
  0.001  -0.005   0.216   0.005  -2.738  -0.004   0.045  -0.216  -0.020   2.783   0.203  -0.111  -0.020   0.015   0.001   0.001
  0.010  -0.003   0.958   0.049  -0.227  -0.007   0.004  -0.891  -0.040   0.203   2.402  -0.479  -0.003  -0.115  -0.001   0.000
  0.007   0.002  -0.139  -0.011   0.120  -0.005  -0.002   0.151   0.008  -0.111  -0.479   0.129   0.001   0.046   0.001  -0.000
  0.002   0.160   0.002   0.002   0.020  -0.001  -0.152  -0.003  -0.003  -0.020  -0.003   0.001   0.186  -0.000  -0.000  -0.005
  0.001   0.004   0.219   0.009  -0.012  -0.002  -0.006  -0.232  -0.009   0.015  -0.115   0.046  -0.000   0.095  -0.002   0.000
  0.022   0.004   0.002   0.114  -0.001  -0.021  -0.004  -0.003  -0.107   0.001  -0.001   0.001  -0.000  -0.002   0.200   0.000
 -0.000   0.000  -0.000   0.000  -0.001   0.000   0.005   0.000   0.000   0.001   0.000  -0.000  -0.005   0.000   0.000   0.000
  0.000   0.000   0.004  -0.000   0.000   0.000   0.000   0.005   0.000  -0.000   0.008  -0.002   0.000  -0.003   0.000  -0.000
 -0.000  -0.000   0.000   0.000  -0.000   0.001   0.000   0.000   0.004   0.000   0.000  -0.000  -0.000   0.000  -0.006   0.000


------------------------ aborting loop because EDIFF is reached ----------------------------------------


    CHARGE:  cpu time    0.2274: real time    0.2281
    FORLOC:  cpu time    0.0164: real time    0.0165
    FORNL :  cpu time    1.3134: real time    1.3176
    FORCOR:  cpu time    0.0577: real time    0.0578
    FORHAR:  cpu time    0.0248: real time    0.0248
    MIXING:  cpu time    0.0026: real time    0.0026
    OFIELD:  cpu time    0.0000: real time    0.0000

 VOLUME and BASIS-vectors are now :
 -----------------------------------------------------------------------------
  energy-cutoff  :      400.00
  volume of cell :     2567.68
      direct lattice vectors                 reciprocal lattice vectors
    11.002581515  0.000000000  0.000000000     0.090887761 -0.052474073  0.000000000
     5.501290758  9.528515099  0.000000000     0.000000000  0.104948147  0.000000000
     0.000000000  0.000000000 24.491785094     0.000000000  0.000000000  0.040830017

  length of vectors
    11.002581515 11.002581515 24.491785094     0.104948147  0.104948147  0.040830017


 FORCES acting on ions
    electron-ion (+dipol)            ewald-force                    non-local-force                 convergence-correction
 -----------------------------------------------------------------------------------------------
   -.109E+02 -.597E+01 -.221E+04   0.109E+02 0.591E+01 0.221E+04   -.389E-01 0.399E-01 0.554E+00   -.287E-02 0.254E-01 -.272E-01
   0.439E+01 0.130E+01 -.221E+04   -.386E+01 -.123E+01 0.221E+04   -.518E+00 -.827E-01 0.544E+00   -.118E-01 0.474E-02 0.132E-01
   0.111E+02 -.854E+00 0.222E+04   -.118E+02 0.871E+00 -.222E+04   0.445E+00 -.255E-01 0.150E+00   0.155E-01 0.788E-02 0.295E-02
   0.162E+01 -.223E+01 -.125E+02   -.220E+01 0.253E+01 0.137E+02   0.570E+00 -.322E+00 -.125E+01   0.111E-01 0.114E-01 -.764E-02
   -.520E+01 -.154E+02 0.222E+04   0.556E+01 0.161E+02 -.222E+04   -.284E+00 -.463E+00 -.107E+00   -.210E-02 0.206E-01 0.277E-02
   -.738E+01 0.137E+02 -.226E+04   0.826E+01 -.139E+02 0.226E+04   -.863E+00 0.139E+00 -.990E-02   -.172E-01 -.148E-02 0.393E-01
   0.880E+01 0.251E+01 -.468E+01   -.867E+01 -.262E+01 0.414E+01   -.120E+00 0.109E+00 0.540E+00   -.147E-01 0.741E-02 0.419E-02
   0.751E+01 -.523E+01 -.224E+04   -.744E+01 0.482E+01 0.224E+04   -.656E-01 0.410E+00 0.814E-01   -.122E-01 0.643E-02 0.282E-01
   -.996E+01 0.825E+01 0.222E+04   0.104E+02 -.861E+01 -.222E+04   -.335E+00 0.224E+00 0.105E+00   0.316E-01 -.780E-02 0.119E-01
   0.216E+01 0.168E+02 -.225E+04   -.265E+01 -.171E+02 0.225E+04   0.492E+00 0.292E+00 0.199E+00   -.510E-02 -.122E-01 0.418E-02
   -.486E+01 0.539E+01 0.221E+04   0.529E+01 -.569E+01 -.221E+04   -.312E+00 0.172E+00 0.113E+00   0.359E-02 0.140E-01 0.229E-02
   -.161E+02 0.208E+01 0.221E+04   0.169E+02 -.222E+01 -.221E+04   -.502E+00 0.108E+00 -.271E+00   0.540E-02 -.123E-01 0.132E-01
   -.349E+01 -.202E+01 -.192E+02   0.264E+01 0.118E+01 0.198E+02   0.804E+00 0.841E+00 -.569E+00   0.382E-01 0.270E-02 0.689E-02
   0.694E+01 0.188E+01 -.229E+04   -.720E+01 -.201E+01 0.229E+04   0.251E+00 0.134E+00 0.180E+00   0.170E-01 -.103E-01 0.144E-01
   0.629E+01 0.192E+01 0.221E+04   -.692E+01 -.226E+01 -.222E+04   0.491E+00 0.263E+00 0.330E+00   0.339E-02 -.121E-01 0.638E-02
   0.525E+01 -.449E+01 0.155E+02   -.544E+01 0.500E+01 -.156E+02   0.173E+00 -.494E+00 0.681E-01   0.674E-02 -.850E-02 0.201E-02
   -.194E+01 -.470E+01 0.277E+02   0.138E+01 0.427E+01 -.281E+02   0.602E+00 0.448E+00 0.375E+00   -.429E-01 -.153E-01 0.183E-02
   0.832E+01 -.573E+01 0.222E+04   -.884E+01 0.645E+01 -.222E+04   0.312E+00 -.528E+00 0.214E+00   0.281E-01 -.753E-02 0.151E-02
   -.320E+01 0.409E+01 0.223E+04   0.375E+01 -.414E+01 -.223E+04   -.375E+00 0.358E-01 -.279E+00   -.356E-01 -.120E-02 -.692E-02
   -.892E+01 -.123E+02 -.232E+04   0.883E+01 0.126E+02 0.232E+04   0.835E-01 -.273E+00 -.154E-01   0.127E-01 0.150E-01 -.277E-03
   -.250E+01 0.690E+01 -.147E+02   0.321E+01 -.684E+01 0.153E+02   -.784E+00 -.724E-01 -.581E+00   0.577E-01 0.108E-01 -.793E-02
   0.190E+01 0.258E+01 -.231E+04   -.235E+01 -.233E+01 0.231E+04   0.453E+00 -.251E+00 -.154E-01   0.194E-02 -.107E-01 -.163E-01
   -.632E+01 0.571E+01 -.864E+02   0.604E+01 -.558E+01 0.870E+02   0.279E+00 -.120E+00 -.572E+00   0.282E-02 -.842E-02 -.170E-01
   -.322E+01 0.546E+01 -.276E+02   0.381E+01 -.487E+01 0.283E+02   -.606E+00 -.586E+00 -.633E+00   0.156E-01 -.168E-01 -.433E-02
   0.130E+02 -.580E+01 0.203E+04   -.132E+02 0.594E+01 -.203E+04   0.203E-01 -.901E-01 -.192E+01   -.682E-02 -.131E-01 -.667E-02
   -.548E+01 0.547E+01 -.248E+02   0.533E+01 -.569E+01 0.248E+02   0.152E+00 0.231E+00 -.151E-02   -.188E-02 -.136E-01 -.155E-01
   -.966E+00 0.164E+01 0.378E+02   0.866E+00 -.180E+01 -.383E+02   0.151E+00 0.164E+00 0.479E+00   -.459E-01 -.482E-02 0.186E-01
   0.111E+02 -.496E+01 -.199E+04   -.109E+02 0.512E+01 0.199E+04   -.201E+00 -.151E+00 0.158E+01   -.710E-02 -.150E-01 -.106E-01
   -.105E+02 -.628E+00 -.196E+04   0.107E+02 0.743E+00 0.196E+04   -.183E+00 -.112E+00 0.159E+01   0.556E-02 -.188E-02 -.567E-01
   -.179E+01 0.216E+01 0.657E+02   0.196E+01 -.228E+01 -.661E+02   -.164E+00 0.109E+00 0.387E+00   -.119E-01 0.111E-01 -.713E-02
   -.384E+01 0.949E+01 0.203E+04   0.367E+01 -.979E+01 -.203E+04   0.144E+00 0.169E+00 -.171E+01   -.110E-01 -.161E-01 0.228E-01
   -.295E+01 -.647E+01 -.105E+02   0.352E+01 0.606E+01 0.106E+02   -.607E+00 0.426E+00 -.434E-01   0.264E-01 -.237E-01 0.236E-02
   0.245E+01 -.361E+01 -.200E+04   -.265E+01 0.362E+01 0.200E+04   0.204E+00 -.107E-01 0.163E+01   0.156E-02 0.179E-02 -.858E-02
   0.690E+01 -.237E+01 0.192E+02   -.743E+01 0.266E+01 -.192E+02   0.527E+00 -.270E+00 -.509E-01   0.116E-01 -.185E-01 0.428E-02
   -.846E+00 -.377E+01 0.267E+02   0.700E+00 0.441E+01 -.272E+02   0.164E+00 -.659E+00 0.512E+00   -.220E-01 0.234E-01 0.179E-01
   0.174E+02 0.232E+01 0.202E+04   -.179E+02 -.242E+01 -.202E+04   0.243E+00 0.471E-01 -.166E+01   0.143E-01 0.247E-02 -.822E-02
   0.592E+00 -.278E+00 -.200E+04   -.621E+00 0.390E+00 0.200E+04   0.245E-01 -.119E+00 0.144E+01   0.129E-03 0.504E-02 0.176E-02
   0.449E+01 0.277E+01 0.150E+02   -.416E+01 -.320E+01 -.155E+02   -.324E+00 0.422E+00 0.461E+00   -.554E-02 0.961E-02 0.216E-01
   -.162E+01 0.782E+01 0.203E+04   0.154E+01 -.786E+01 -.202E+04   0.841E-01 -.680E-02 -.171E+01   -.161E-01 -.506E-02 0.795E-02
   0.382E+00 0.808E+01 -.193E+04   -.755E+00 -.816E+01 0.193E+04   0.384E+00 0.827E-01 0.170E+01   -.105E-01 -.160E-02 -.218E-01
   -.270E+01 -.841E+00 0.203E+04   0.260E+01 0.643E+00 -.203E+04   0.101E+00 0.104E+00 -.213E+01   -.333E-01 0.834E-02 0.101E-01
   -.183E+02 -.512E+01 0.203E+04   0.188E+02 0.526E+01 -.202E+04   -.316E+00 -.498E-01 -.185E+01   0.147E-01 0.134E-01 0.199E-01
   -.146E+02 0.299E+01 -.199E+04   0.150E+02 -.303E+01 0.199E+04   -.344E+00 0.434E-01 0.159E+01   -.265E-02 -.288E-03 -.269E-02
   -.209E+00 -.481E+01 -.140E+02   0.682E+00 0.508E+01 0.139E+02   -.512E+00 -.319E+00 0.413E-01   0.312E-01 0.417E-01 -.275E-02
   0.595E+01 0.136E+02 0.203E+04   -.600E+01 -.141E+02 -.202E+04   0.171E-01 0.343E+00 -.136E+01   -.292E-02 0.148E-01 -.416E-02
   0.555E+01 -.480E+01 -.199E+04   -.571E+01 0.463E+01 0.199E+04   0.134E+00 0.151E+00 0.158E+01   0.278E-01 0.101E-01 -.697E-02
   0.370E+01 -.212E+02 0.203E+04   -.382E+01 0.218E+02 -.202E+04   0.111E+00 -.321E+00 -.145E+01   -.471E-02 -.623E-02 -.597E-03
   0.118E+02 -.114E+02 -.201E+04   -.119E+02 0.116E+02 0.200E+04   0.264E-01 -.170E+00 0.153E+01   0.478E-03 -.125E-02 -.131E-01
 -----------------------------------------------------------------------------------------------
   -.264E-01 -.489E-01 0.196E+00   -.428E-12 -.281E-12 -.159E-11   -.883E-02 0.127E-01 -.209E+00   0.584E-01 0.222E-01 0.294E-01
 
 
 POSITION                                       TOTAL-FORCE (eV/Angst)
 -----------------------------------------------------------------------------------
     12.38105      7.15036     14.88613         0.001985     -0.001064      0.009389
      0.02229     -0.00235     14.88782        -0.001955      0.000109      0.006165
      2.75065      3.17617     10.00000        -0.247936     -0.000393     -0.328304
     12.35837      3.98223     12.47333        -0.001758     -0.005279      0.000615
     12.37790      5.55830     10.00000         0.074174      0.257175     -0.148225
      9.64727      2.37279     14.98356         0.002598     -0.002053     -0.011066
      9.61916      3.95294     12.45000        -0.000781      0.009251     -0.000147
      4.13078      7.13581     14.93045        -0.006927     -0.000445     -0.004732
      4.12597      0.79404     10.00000         0.177910     -0.136172     -0.223822
      6.86538      2.37018     14.96106        -0.003873     -0.003324      0.000791
      9.62726      5.55830     10.00000         0.126003     -0.116990     -0.181495
      5.50129      3.17617     10.00000         0.304848     -0.048580     -0.070302
      2.71962      1.56450     12.47682        -0.006186      0.004462     -0.002153
      4.11231      2.37619     14.98663         0.003711     -0.002567     -0.005050
      6.87661      5.55830     10.00000        -0.136089     -0.080437     -0.198483
      5.48561      6.37670     12.43749        -0.003944      0.005590     -0.004052
      8.22057      1.57348     12.41215        -0.007813     -0.003317     -0.000111
      8.25194      7.94043     10.00000        -0.174807      0.181780     -0.205788
      9.62726      0.79404     10.00000         0.142134     -0.018252     -0.215348
      9.63078      7.15867     15.06124        -0.000541      0.002552      0.007074
      9.65274      8.72546     12.47096        -0.008022     -0.003916      0.007898
      8.24171      4.76506     15.06991         0.002241     -0.002087      0.009935
      8.25030      6.35163     12.55324         0.005182      0.000483      0.004265
      4.13252      3.99067     12.48527        -0.003145     -0.007370      0.000136
      5.50129      7.94043     10.00000        -0.148031      0.040560      0.182990
      6.87395      3.96435     12.48101        -0.004597      0.000875     -0.003794
     15.12247      8.73196     12.39936         0.004608     -0.005126     -0.006269
      5.50232      4.76902     14.86138        -0.003888     -0.000574      0.004415
      5.51021     -0.00272     14.80997         0.000445      0.001403      0.016062
     12.38516      8.71746     12.37178        -0.008312     -0.002453     -0.000762
      6.87661      0.79404     10.00000        -0.043324     -0.143309      0.163249
      5.50827      1.58111     12.46379        -0.007464      0.000246     -0.002264
      2.74200      4.76368     14.84025         0.004884      0.003731      0.004685
      6.84975      8.73823     12.43496         0.000765      0.000527     -0.005072
     13.73904      6.40055     12.41692        -0.004393     -0.003284     -0.011316
      1.37532      0.79404     10.00000        -0.181372     -0.050901      0.224104
      1.38050      2.39039     14.84912        -0.004955     -0.001937      0.005562
     10.98188      1.56132     12.43284         0.005797      0.001986     -0.009990
      8.25194      3.17617     10.00000        -0.009858     -0.055242      0.213845
      8.24488     -0.00598     14.76081         0.000734     -0.005750      0.002195
     13.75323      7.94043     10.00000        -0.036372     -0.084720      0.160669
     11.00258      7.94043     10.00000         0.271182      0.104785      0.211391
     11.00981      4.76363     14.85517         0.000835     -0.002506      0.004440
     11.00978      6.36725     12.46790        -0.007890     -0.002366     -0.003404
     11.00258      3.17617     10.00000        -0.040923     -0.117314      0.185475
      2.75642     -0.01074     14.84157        -0.002760     -0.005716      0.008287
      4.12597      5.55830     10.00000        -0.019821      0.293740      0.198656
      6.87585      7.14957     14.87627        -0.002298      0.004189      0.009654
 -----------------------------------------------------------------------------------
    total drift:                                0.023102     -0.013957      0.016609


--------------------------------------------------------------------------------------------------------



  FREE ENERGIE OF THE ION-ELECTRON SYSTEM (eV)
  ---------------------------------------------------
  free  energy   TOTEN  =      -192.42089734 eV

  energy  without entropy=     -192.18780975  energy(sigma->0) =     -192.30435355
 
 d Force = 0.5707507E-03[ 0.318E-03, 0.824E-03]  d Energy = 0.5691831E-03 0.157E-05
 d Force = 0.1293215E+02[ 0.130E+02, 0.129E+02]  d Ewald  = 0.1293215E+02 0.298E-05


--------------------------------------------------------------------------------------------------------


    POTLOK:  cpu time    0.0486: real time    0.0497


--------------------------------------------------------------------------------------------------------


 stress matrix after NEB project (eV)
      0.00000      0.00000      0.00000
      0.00000      0.00000      0.00000
      0.00000      0.00000      0.00000
  FORCES: max atom, RMS     0.016129    0.007230
  FORCE total and by dimension    0.050091    0.016062
  Stress total and by dimension    0.000000    0.000000
 Conjugate gradient step on ions:
 trial-energy change:   -0.000569  1 .order   -0.000571   -0.000824   -0.000318
  (g-gl).g = 0.286E-03      g.g   = 0.302E-03  gl.gl    = 0.629E-03
 g(Force)  = 0.302E-03   g(Stress)= 0.000E+00 ortho     = 0.426E-04
 gamma     =   0.45483
 trial     =   2.56404
 opt step  =   4.17278  (harmonic =   4.17278) maximal distance =0.00637489
 next E    =  -192.420999   (d E  =  -0.00067)


--------------------------------------------------------------------------------------------------------


  
 reached required accuracy - stopping structural energy minimisation
     LOOP+:  cpu time   44.7672: real time   45.0660
    4ORBIT:  cpu time    0.0000: real time    0.0000

 total amount of memory used by VASP on root node    84353. kBytes
========================================================================

   base      :      30000. kBytes
   nonlr-proj:       4285. kBytes
   fftplans  :       4447. kBytes
   grid      :       6721. kBytes
   one-center:        124. kBytes
   wavefun   :      38776. kBytes
 
  
  
 General timing and accounting informations for this job:
 ========================================================
  
                  Total CPU time used (sec):     1278.572
                            User time (sec):     1217.891
                          System time (sec):       60.681
                         Elapsed time (sec):     1286.404
  
                   Maximum memory used (kb):      742100.
                   Average memory used (kb):           0.
  
                          Minor page faults:       568621
                          Major page faults:            0
                 Voluntary context switches:         8673
