unknown system                          
           1
    11.002582    0.000000    0.000000
     5.501291    9.528515    0.000000
     0.000000    0.000000   24.491785
   Au   Pd
  24  24
Direct configuration=     1
   0.75000000  0.75000000  0.59169983
   0.00000000  0.00000000  0.59169983
   0.08333333  0.33333333  0.40830017
   0.91666667  0.41666667  0.50000000
   0.83333333  0.58333333  0.40830017
   0.75000000  0.25000000  0.59169983
   0.66666667  0.41666667  0.50000000
   0.00000000  0.75000000  0.59169983
   0.33333333  0.08333333  0.40830017
   0.50000000  0.25000000  0.59169983
   0.58333333  0.58333333  0.40830017
   0.33333333  0.33333333  0.40830017
   0.16666667  0.16666667  0.50000000
   0.25000000  0.25000000  0.59169983
   0.33333333  0.58333333  0.40830017
   0.16666667  0.66666667  0.50000000
   0.66666667  0.16666667  0.50000000
   0.33333333  0.83333333  0.40830017
   0.83333333  0.08333333  0.40830017
   0.50000000  0.75000000  0.59169983
   0.41666667  0.91666667  0.50000000
   0.50000000  0.50000000  0.59169983
   0.41666667  0.66666667  0.50000000
   0.16666667  0.41666667  0.50000000
   0.08333333  0.83333333  0.40830017
   0.41666667  0.41666667  0.50000000
   0.91666667  0.91666667  0.50000000
   0.25000000  0.50000000  0.59169983
   0.50000000  0.00000000  0.59169983
   0.66666667  0.91666667  0.50000000
   0.58333333  0.08333333  0.40830017
   0.41666667  0.16666667  0.50000000
   0.00000000  0.50000000  0.59169983
   0.16666667  0.91666667  0.50000000
   0.91666667  0.66666667  0.50000000
   0.08333333  0.08333333  0.40830017
   0.00000000  0.25000000  0.59169983
   0.91666667  0.16666667  0.50000000
   0.58333333  0.33333333  0.40830017
   0.75000000  0.00000000  0.59169983
   0.83333333  0.83333333  0.40830017
   0.58333333  0.83333333  0.40830017
   0.75000000  0.50000000  0.59169983
   0.66666667  0.66666667  0.50000000
   0.83333333  0.33333333  0.40830017
   0.25000000  0.00000000  0.59169983
   0.08333333  0.58333333  0.40830017
   0.25000000  0.75000000  0.59169983
Direct configuration=     2
   0.75006354  0.75007543  0.59322915
   0.00080188  0.00002134  0.59325730
   0.08333333  0.33333333  0.40830017
   0.91548111  0.41713488  0.50072290
   0.83333333  0.58333333  0.40830017
   0.75132991  0.24957215  0.59387508
   0.66760290  0.41616400  0.49963083
   0.00019823  0.74959019  0.59351342
   0.33333333  0.08333333  0.40830017
   0.49936087  0.24960818  0.59358395
   0.58333333  0.58333333  0.40830017
   0.33333333  0.33333333  0.40830017
   0.16580802  0.16503641  0.50045401
   0.24993136  0.24976477  0.59377904
   0.33333333  0.58333333  0.40830017
   0.16558539  0.66757814  0.50000684
   0.66632445  0.16524165  0.49956710
   0.33333333  0.83333333  0.40830017
   0.83333333  0.08333333  0.40830017
   0.49980322  0.75058983  0.59387292
   0.41791651  0.91712546  0.50036402
   0.49898901  0.50045391  0.59395077
   0.41582369  0.66712026  0.50041863
   0.16673239  0.41824471  0.50045429
   0.08333333  0.83333333  0.40830017
   0.41660240  0.41605555  0.49995504
   0.91644901  0.91646851  0.49964560
   0.24991732  0.50026142  0.59294087
   0.50025725  0.00000214  0.59266314
   0.66710844  0.91651966  0.49971645
   0.58333333  0.08333333  0.40830017
   0.41836399  0.16566710  0.50003897
  -0.00034064  0.49997268  0.59283755
   0.16531094  0.91734129  0.50008443
   0.91569326  0.66804632  0.49973933
   0.08333333  0.08333333  0.40830017
  -0.00009995  0.25022896  0.59285943
   0.91772776  0.16578569  0.49980178
   0.58333333  0.33333333  0.40830017
   0.74965023 -0.00047915  0.59257571
   0.83333333  0.83333333  0.40830017
   0.58333333  0.83333333  0.40830017
   0.75093824  0.49987383  0.59290618
   0.66737401  0.66733585  0.50000746
   0.83333333  0.33333333  0.40830017
   0.24982765 -0.00022053  0.59283995
   0.08333333  0.58333333  0.40830017
   0.24979122  0.75036680  0.59293201
Direct configuration=     3
   0.75025415  0.75030171  0.59781710
   0.00320751  0.00008536  0.59792971
   0.08333333  0.33333333  0.40830017
   0.91192445  0.41853952  0.50289159
   0.83333333  0.58333333  0.40830017
   0.75531964  0.24828861  0.60040084
   0.67041160  0.41465601  0.49852331
   0.00079293  0.74836075  0.59895418
   0.33333333  0.08333333  0.40830017
   0.49744349  0.24843274  0.59923631
   0.58333333  0.58333333  0.40830017
   0.33333333  0.33333333  0.40830017
   0.16323207  0.16014563  0.50181604
   0.24972543  0.24905909  0.60001666
   0.33333333  0.58333333  0.40830017
   0.16234156  0.67031257  0.50002736
   0.66529782  0.16096659  0.49826841
   0.33333333  0.83333333  0.40830017
   0.83333333  0.08333333  0.40830017
   0.49921286  0.75235933  0.60039217
   0.42166602  0.91850182  0.50145608
   0.49595603  0.50181564  0.60070359
   0.41329474  0.66848102  0.50167451
   0.16692955  0.42297883  0.50181716
   0.08333333  0.83333333  0.40830017
   0.41640962  0.41422219  0.49982017
   0.91579604  0.91587406  0.49858242
   0.24966929  0.50104567  0.59666399
   0.50102900  0.00000855  0.59555306
   0.66843376  0.91607863  0.49886580
   0.58333333  0.08333333  0.40830017
   0.42345597  0.16266842  0.50015587
  -0.00136256  0.49989070  0.59625069
   0.16124375  0.91936518  0.50033774
   0.91277303  0.67218528  0.49895732
   0.08333333  0.08333333  0.40830017
  -0.00039979  0.25091585  0.59633821
   0.92091104  0.16314277  0.49920710
   0.58333333  0.33333333  0.40830017
   0.74860094 -0.00191658  0.59520334
   0.83333333  0.83333333  0.40830017
   0.58333333  0.83333333  0.40830017
   0.75375295  0.49949532  0.59652525
   0.66949605  0.66934340  0.50002982
   0.83333333  0.33333333  0.40830017
   0.24931060 -0.00088212  0.59626033
   0.08333333  0.58333333  0.40830017
   0.24916486  0.75146720  0.59662855
Direct configuration=     4
   0.75029770  0.75026486  0.59967159
   0.00302345 -0.00026371  0.59981871
   0.08333333  0.33333333  0.40830017
   0.91360216  0.41839995  0.50409292
   0.83333333  0.58333333  0.40830017
   0.75463783  0.24837019  0.60249162
   0.66910714  0.41370627  0.50038135
   0.00089426  0.74839571  0.60104593
   0.33333333  0.08333333  0.40830017
   0.49815474  0.24849612  0.60135601
   0.58333333  0.58333333  0.40830017
   0.33333333  0.33333333  0.40830017
   0.16413526  0.16140203  0.50329652
   0.24898623  0.24897328  0.60215308
   0.33333333  0.58333333  0.40830017
   0.16155312  0.67170699  0.50141919
   0.66610788  0.16199149  0.50002694
   0.33333333  0.83333333  0.40830017
   0.83333333  0.08333333  0.40830017
   0.49937176  0.75213924  0.60288865
   0.42216275  0.91745358  0.50292895
   0.49678593  0.50122690  0.60305110
   0.41387519  0.66860342  0.50366876
   0.16635301  0.42163687  0.50342874
   0.08333333  0.83333333  0.40830017
   0.41779607  0.41394581  0.50134039
   0.91574064  0.91591344  0.49971858
   0.24933928  0.50130356  0.59820920
   0.50108314 -0.00008335  0.59690356
   0.66967000  0.91476361  0.49959544
   0.58333333  0.08333333  0.40830017
   0.42189659  0.16344074  0.50149741
  -0.00108249  0.49989401  0.59766837
   0.16131163  0.91802875  0.50133378
   0.91216930  0.67324475  0.49999008
   0.08333333  0.08333333  0.40830017
   0.00015326  0.25103801  0.59799351
   0.91888571  0.16287701  0.50034375
   0.58333333  0.33333333  0.40830017
   0.74885645 -0.00168012  0.59610774
   0.83333333  0.83333333  0.40830017
   0.58333333  0.83333333  0.40830017
   0.75272541  0.49993164  0.59812965
   0.66846147  0.67029629  0.50141774
   0.83333333  0.33333333  0.40830017
   0.24987391 -0.00110853  0.59778376
   0.08333333  0.58333333  0.40830017
   0.24891370  0.75165165  0.59812214
Direct configuration=     5
   0.75042836  0.75015432  0.60523506
   0.00247129 -0.00131092  0.60548570
   0.08333333  0.33333333  0.40830017
   0.91863529  0.41798124  0.50769691
   0.83333333  0.58333333  0.40830017
   0.75259241  0.24861494  0.60876396
   0.66519377  0.41085703  0.50595547
   0.00119826  0.74850060  0.60732118
   0.33333333  0.08333333  0.40830017
   0.50028852  0.24868627  0.60771509
   0.58333333  0.58333333  0.40830017
   0.33333333  0.33333333  0.40830017
   0.16684484  0.16517123  0.50773795
   0.24676866  0.24871585  0.60856235
   0.33333333  0.58333333  0.40830017
   0.15918782  0.67589027  0.50559470
   0.66853808  0.16506618  0.50530254
   0.33333333  0.83333333  0.40830017
   0.83333333  0.08333333  0.40830017
   0.49984847  0.75147897  0.61037809
   0.42365294  0.91430885  0.50734756
   0.49927563  0.49946068  0.61009362
   0.41561653  0.66897063  0.50965152
   0.16462341  0.41761097  0.50826349
   0.08333333  0.83333333  0.40830017
   0.42195544  0.41311667  0.50590106
   0.91557444  0.91603159  0.50312707
   0.24834926  0.50207723  0.60284484
   0.50124555 -0.00035905  0.60095507
   0.67337875  0.91081854  0.50178437
   0.58333333  0.08333333  0.40830017
   0.41721843  0.16575772  0.50552205
  -0.00024227  0.49990394  0.60192143
   0.16151529  0.91401947  0.50432191
   0.91035810  0.67642316  0.50308835
   0.08333333  0.08333333  0.40830017
   0.00181240  0.25140449  0.60295940
   0.91280973  0.16207971  0.50375370
   0.58333333  0.33333333  0.40830017
   0.74962299 -0.00097073  0.59882094
   0.83333333  0.83333333  0.40830017
   0.58333333  0.83333333  0.40830017
   0.74964279  0.50124063  0.60294285
   0.66535773  0.67315496  0.50558148
   0.83333333  0.33333333  0.40830017
   0.25156383 -0.00178776  0.60235408
   0.08333333  0.58333333  0.40830017
   0.24816021  0.75220502  0.60260288
Direct configuration=     6
   0.75068202  0.75010631  0.60757353
   0.00162568 -0.00027009  0.60772935
   0.08333333  0.33333333  0.40830017
   0.91493422  0.41845710  0.50897069
   0.83333333  0.58333333  0.40830017
   0.75295050  0.24861017  0.61153319
   0.66655539  0.41455012  0.50869390
   0.00056790  0.74888623  0.60996977
   0.33333333  0.08333333  0.40830017
   0.49957952  0.24889995  0.61029958
   0.58333333  0.58333333  0.40830017
   0.33333333  0.33333333  0.40830017
   0.16703794  0.16317619  0.50939524
   0.24858969  0.24875478  0.61155998
   0.33333333  0.58333333  0.40830017
   0.16199353  0.66998502  0.50761526
   0.66598751  0.16379812  0.50766746
   0.33333333  0.83333333  0.40830017
   0.83333333  0.08333333  0.40830017
   0.49996241  0.75087934  0.61379300
   0.42052666  0.91542035  0.50911016
   0.49956634  0.49955734  0.61319635
   0.41745328  0.66718573  0.51217633
   0.16690146  0.41874713  0.50997359
   0.08333333  0.83333333  0.40830017
   0.41816342  0.41526602  0.50843081
   0.91476994  0.91724860  0.50530974
   0.24920558  0.50126069  0.60476721
   0.50136024  0.00012783  0.60294756
   0.67109636  0.91408556  0.50351789
   0.58333333  0.08333333  0.40830017
   0.41754684  0.16639533  0.50783123
  -0.00088877  0.50116989  0.60437813
   0.16253587  0.91743826  0.50617684
   0.91238567  0.67395120  0.50535404
   0.08333333  0.08333333  0.40830017
   0.00039228  0.25079117  0.60520377
   0.91491136  0.16266416  0.50624067
   0.58333333  0.33333333  0.40830017
   0.75025745 -0.00104051  0.60034508
   0.83333333  0.83333333  0.40830017
   0.58333333  0.83333333  0.40830017
   0.74895631  0.50098425  0.60479712
   0.66646417  0.66874283  0.50794396
   0.83333333  0.33333333  0.40830017
   0.25180521 -0.00212825  0.60436274
   0.08333333  0.58333333  0.40830017
   0.24891341  0.75135839  0.60516412
Direct configuration=     7
   0.75071722  0.75009965  0.60789798
   0.00150836 -0.00012568  0.60804064
   0.08333333  0.33333333  0.40830017
   0.91442072  0.41852312  0.50914742
   0.83333333  0.58333333  0.40830017
   0.75300018  0.24860951  0.61191739
   0.66674430  0.41506251  0.50907384
   0.00048044  0.74893973  0.61033724
   0.33333333  0.08333333  0.40830017
   0.49948115  0.24892959  0.61065816
   0.58333333  0.58333333  0.40830017
   0.33333333  0.33333333  0.40830017
   0.16706473  0.16289940  0.50962518
   0.24884234  0.24876018  0.61197588
   0.33333333  0.58333333  0.40830017
   0.16238280  0.66916571  0.50789560
   0.66563363  0.16362218  0.50799557
   0.33333333  0.83333333  0.40830017
   0.83333333  0.08333333  0.40830017
   0.49997822  0.75079614  0.61426679
   0.42009292  0.91557457  0.50935471
   0.49960668  0.49957075  0.61362683
   0.41770812  0.66693809  0.51252663
   0.16721753  0.41890476  0.51021086
   0.08333333  0.83333333  0.40830017
   0.41763731  0.41556423  0.50878179
   0.91465833  0.91741745  0.50561257
   0.24932439  0.50114740  0.60503393
   0.50137615  0.00019539  0.60322400
   0.67077969  0.91453883  0.50375840
   0.58333333  0.08333333  0.40830017
   0.41759241  0.16648380  0.50815161
  -0.00097847  0.50134553  0.60471898
   0.16267747  0.91791259  0.50643420
   0.91266698  0.67360823  0.50566839
   0.08333333  0.08333333  0.40830017
   0.00019525  0.25070607  0.60551515
   0.91520295  0.16274525  0.50658572
   0.58333333  0.33333333  0.40830017
   0.75034547 -0.00105019  0.60055654
   0.83333333  0.83333333  0.40830017
   0.58333333  0.83333333  0.40830017
   0.74886107  0.50094868  0.60505439
   0.66661768  0.66813068  0.50827174
   0.83333333  0.33333333  0.40830017
   0.25183870 -0.00217549  0.60464143
   0.08333333  0.58333333  0.40830017
   0.24901791  0.75124092  0.60551947
Direct configuration=     8
   0.75011428  0.75045161  0.60797227
   0.00199054 -0.00012594  0.60812818
   0.08333333  0.33333333  0.40830017
   0.91474327  0.41762062  0.50908823
   0.83333333  0.58333333  0.40830017
   0.75297447  0.24868724  0.61224813
   0.66732939  0.41471560  0.50888373
   0.00062843  0.74924106  0.61048413
   0.33333333  0.08333333  0.40830017
   0.49916053  0.24898968  0.61096179
   0.58333333  0.58333333  0.40830017
   0.33333333  0.33333333  0.40830017
   0.16529245  0.16405243  0.50951899
   0.24919493  0.24911424  0.61229551
   0.33333333  0.58333333  0.40830017
   0.16375693  0.66926539  0.50788481
   0.66379007  0.16576594  0.50755313
   0.33333333  0.83333333  0.40830017
   0.83333333  0.08333333  0.40830017
   0.49991667  0.75129052  0.61477823
   0.42024263  0.91546329  0.50920042
   0.49885606  0.49977449  0.61429406
   0.41668355  0.66685322  0.51247375
   0.16687468  0.41833970  0.50993190
   0.08333333  0.83333333  0.40830017
   0.41715759  0.41606554  0.50903883
   0.91652703  0.91645565  0.50590558
   0.24997361  0.50073131  0.60575993
   0.50165867 -0.00013696  0.60365169
   0.66842862  0.91481359  0.50420034
   0.58333333  0.08333333  0.40830017
   0.41812854  0.16611922  0.50848091
  -0.00125121  0.50088298  0.60523388
   0.16331881  0.91751272  0.50687448
   0.91293685  0.67215171  0.50627341
   0.08333333  0.08333333  0.40830017
  -0.00021464  0.25082619  0.60577797
   0.91624165  0.16388646  0.50713842
   0.58333333  0.33333333  0.40830017
   0.75030448 -0.00136642  0.60151865
   0.83333333  0.83333333  0.40830017
   0.58333333  0.83333333  0.40830017
   0.74998101  0.50043807  0.60563005
   0.66710034  0.66809721  0.50859519
   0.83333333  0.33333333  0.40830017
   0.25134154 -0.00188270  0.60521757
   0.08333333  0.58333333  0.40830017
   0.24912774  0.75088276  0.60615317
Direct configuration=     9
   0.74999455  0.75052150  0.60798702
   0.00208629 -0.00012599  0.60814556
   0.08333333  0.33333333  0.40830017
   0.91480733  0.41744139  0.50907647
   0.83333333  0.58333333  0.40830017
   0.75296937  0.24870268  0.61231381
   0.66744558  0.41464671  0.50884597
   0.00065782  0.74930090  0.61051330
   0.33333333  0.08333333  0.40830017
   0.49909686  0.24900161  0.61102209
   0.58333333  0.58333333  0.40830017
   0.33333333  0.33333333  0.40830017
   0.16494050  0.16428140  0.50949791
   0.24926495  0.24918455  0.61235899
   0.33333333  0.58333333  0.40830017
   0.16402981  0.66928518  0.50788266
   0.66342397  0.16619167  0.50746527
   0.33333333  0.83333333  0.40830017
   0.83333333  0.08333333  0.40830017
   0.49990445  0.75138869  0.61487979
   0.42027236  0.91544119  0.50916978
   0.49870699  0.49981495  0.61442656
   0.41648008  0.66683637  0.51246324
   0.16680660  0.41822748  0.50987651
   0.08333333  0.83333333  0.40830017
   0.41706233  0.41616509  0.50908988
   0.91689813  0.91626465  0.50596377
   0.25010254  0.50064868  0.60590410
   0.50171477 -0.00020295  0.60373662
   0.66796173  0.91486815  0.50428810
   0.58333333  0.08333333  0.40830017
   0.41823501  0.16604682  0.50854630
  -0.00130537  0.50079112  0.60533614
   0.16344617  0.91743331  0.50696191
   0.91299044  0.67186246  0.50639356
   0.08333333  0.08333333  0.40830017
  -0.00029603  0.25085004  0.60583016
   0.91644793  0.16411309  0.50724818
   0.58333333  0.33333333  0.40830017
   0.75029633 -0.00142922  0.60170971
   0.83333333  0.83333333  0.40830017
   0.58333333  0.83333333  0.40830017
   0.75020341  0.50033667  0.60574437
   0.66719619  0.66809056  0.50865942
   0.83333333  0.33333333  0.40830017
   0.25124281 -0.00182456  0.60533199
   0.08333333  0.58333333  0.40830017
   0.24914955  0.75081164  0.60627901
Direct configuration=    10
   0.74999280  0.75052994  0.60788898
   0.00222001 -0.00017063  0.60804653
   0.08333333  0.33333333  0.40830017
   0.91480740  0.41759782  0.50899308
   0.83333333  0.58333333  0.40830017
   0.75250256  0.24875241  0.61229738
   0.66720640  0.41482455  0.50857490
   0.00087649  0.74908399  0.61033611
   0.33333333  0.08333333  0.40830017
   0.49947925  0.24875113  0.61108607
   0.58333333  0.58333333  0.40830017
   0.33333333  0.33333333  0.40830017
   0.16524453  0.16420157  0.50940392
   0.24904890  0.24928024  0.61230030
   0.33333333  0.58333333  0.40830017
   0.16401723  0.66923089  0.50778277
   0.66423156  0.16590533  0.50709185
   0.33333333  0.83333333  0.40830017
   0.83333333  0.08333333  0.40830017
   0.49971054  0.75139104  0.61496733
   0.41962895  0.91554563  0.50905073
   0.49877763  0.50005149  0.61472431
   0.41668273  0.66679523  0.51232860
   0.16660836  0.41821542  0.50972183
   0.08333333  0.83333333  0.40830017
   0.41670978  0.41646690  0.50916002
   0.91670140  0.91637730  0.50609241
   0.24981354  0.50065631  0.60625003
   0.50147316 -0.00022297  0.60399456
   0.66803188  0.91491205  0.50454788
   0.58333333  0.08333333  0.40830017
   0.41772489  0.16598097  0.50865245
  -0.00112486  0.50038641  0.60555803
   0.16395186  0.91730578  0.50718728
   0.91314845  0.67155619  0.50669399
   0.08333333  0.08333333  0.40830017
  -0.00009677  0.25096175  0.60600514
   0.91627832  0.16409879  0.50742586
   0.58333333  0.33333333  0.40830017
   0.75008614 -0.00108875  0.60208668
   0.83333333  0.83333333  0.40830017
   0.58333333  0.83333333  0.40830017
   0.75053397  0.50015270  0.60606231
   0.66709646  0.66806817  0.50878629
   0.83333333  0.33333333  0.40830017
   0.25114148 -0.00141922  0.60553555
   0.08333333  0.58333333  0.40830017
   0.24933182  0.75067617  0.60670489
Direct configuration=    11
   0.74999178  0.75053486  0.60783187
   0.00229791 -0.00019663  0.60798884
   0.08333333  0.33333333  0.40830017
   0.91480744  0.41768896  0.50894450
   0.83333333  0.58333333  0.40830017
   0.75223060  0.24878138  0.61228780
   0.66706706  0.41492815  0.50841698
   0.00100388  0.74895761  0.61023287
   0.33333333  0.08333333  0.40830017
   0.49970203  0.24860520  0.61112334
   0.58333333  0.58333333  0.40830017
   0.33333333  0.33333333  0.40830017
   0.16542165  0.16415506  0.50934916
   0.24892303  0.24933598  0.61226611
   0.33333333  0.58333333  0.40830017
   0.16400990  0.66919926  0.50772457
   0.66470205  0.16573851  0.50687430
   0.33333333  0.83333333  0.40830017
   0.83333333  0.08333333  0.40830017
   0.49959758  0.75139241  0.61501833
   0.41925411  0.91560648  0.50898137
   0.49881878  0.50018929  0.61489778
   0.41680079  0.66677127  0.51225015
   0.16649287  0.41820840  0.50963172
   0.08333333  0.83333333  0.40830017
   0.41650439  0.41664274  0.50920089
   0.91658679  0.91644292  0.50616735
   0.24964518  0.50066075  0.60645156
   0.50133240 -0.00023464  0.60414483
   0.66807274  0.91493763  0.50469923
   0.58333333  0.08333333  0.40830017
   0.41742770  0.16594261  0.50871430
  -0.00101970  0.50015064  0.60568731
   0.16424646  0.91723149  0.50731858
   0.91324050  0.67137776  0.50686902
   0.08333333  0.08333333  0.40830017
   0.00001931  0.25102682  0.60610707
   0.91617950  0.16409046  0.50752938
   0.58333333  0.33333333  0.40830017
   0.74996368 -0.00089039  0.60230630
   0.83333333  0.83333333  0.40830017
   0.58333333  0.83333333  0.40830017
   0.75072656  0.50004551  0.60624754
   0.66703836  0.66805513  0.50886019
   0.83333333  0.33333333  0.40830017
   0.25108245 -0.00118308  0.60565414
   0.08333333  0.58333333  0.40830017
   0.24943801  0.75059725  0.60695301
Direct configuration=    12
   0.75007084  0.75049983  0.60777261
   0.00219900 -0.00013349  0.60789972
   0.08333333  0.33333333  0.40830017
   0.91455175  0.41773608  0.50903154
   0.83333333  0.58333333  0.40830017
   0.75223245  0.24894621  0.61216472
   0.66692631  0.41510214  0.50834497
   0.00099868  0.74886493  0.61001360
   0.33333333  0.08333333  0.40830017
   0.49957769  0.24867441  0.61104829
   0.58333333  0.58333333  0.40830017
   0.33333333  0.33333333  0.40830017
   0.16524823  0.16414736  0.50935196
   0.24905648  0.24938694  0.61216331
   0.33333333  0.58333333  0.40830017
   0.16379815  0.66932436  0.50773505
   0.66463594  0.16534392  0.50677919
   0.33333333  0.83333333  0.40830017
   0.83333333  0.08333333  0.40830017
   0.49954097  0.75138133  0.61499581
   0.41943600  0.91553357  0.50901626
   0.49894884  0.50019127  0.61503821
   0.41688696  0.66667900  0.51229991
   0.16647646  0.41848669  0.50966172
   0.08333333  0.83333333  0.40830017
   0.41656869  0.41630395  0.50932298
   0.91642921  0.91637819  0.50623616
   0.24964452  0.50049659  0.60658568
   0.50105799 -0.00024419  0.60429785
   0.66823403  0.91498772  0.50487403
   0.58333333  0.08333333  0.40830017
   0.41767343  0.16601477  0.50880803
  -0.00085354  0.50003677  0.60578504
   0.16412557  0.91713230  0.50748317
   0.91314737  0.67159822  0.50700174
   0.08333333  0.08333333  0.40830017
  -0.00005473  0.25100027  0.60617310
   0.91632703  0.16393572  0.50762092
   0.58333333  0.33333333  0.40830017
   0.74991712 -0.00074874  0.60244840
   0.83333333  0.83333333  0.40830017
   0.58333333  0.83333333  0.40830017
   0.75075234  0.49988767  0.60637439
   0.66679797  0.66821844  0.50895138
   0.83333333  0.33333333  0.40830017
   0.25113681 -0.00105790  0.60578169
   0.08333333  0.58333333  0.40830017
   0.24961936  0.75049611  0.60713962
Direct configuration=    13
   0.75010212  0.75048596  0.60774916
   0.00215986 -0.00010849  0.60786446
   0.08333333  0.33333333  0.40830017
   0.91445056  0.41775472  0.50906599
   0.83333333  0.58333333  0.40830017
   0.75223319  0.24901145  0.61211600
   0.66687061  0.41517100  0.50831647
   0.00099662  0.74882825  0.60992682
   0.33333333  0.08333333  0.40830017
   0.49952848  0.24870180  0.61101859
   0.58333333  0.58333333  0.40830017
   0.33333333  0.33333333  0.40830017
   0.16517959  0.16414432  0.50935307
   0.24910930  0.24940711  0.61212262
   0.33333333  0.58333333  0.40830017
   0.16371434  0.66937387  0.50773920
   0.66460977  0.16518775  0.50674155
   0.33333333  0.83333333  0.40830017
   0.83333333  0.08333333  0.40830017
   0.49951856  0.75137695  0.61498690
   0.41950798  0.91550472  0.50903007
   0.49900031  0.50019205  0.61509379
   0.41692106  0.66664248  0.51231961
   0.16646997  0.41859683  0.50967359
   0.08333333  0.83333333  0.40830017
   0.41659414  0.41616987  0.50937131
   0.91636684  0.91635257  0.50626339
   0.24964426  0.50043161  0.60663876
   0.50094938 -0.00024797  0.60435841
   0.66829787  0.91500754  0.50494321
   0.58333333  0.08333333  0.40830017
   0.41777068  0.16604334  0.50884513
  -0.00078778  0.49999171  0.60582372
   0.16407773  0.91709305  0.50754831
   0.91311051  0.67168548  0.50705426
   0.08333333  0.08333333  0.40830017
  -0.00008403  0.25098975  0.60619923
   0.91638541  0.16387448  0.50765715
   0.58333333  0.33333333  0.40830017
   0.74989869 -0.00069268  0.60250463
   0.83333333  0.83333333  0.40830017
   0.58333333  0.83333333  0.40830017
   0.75076255  0.49982520  0.60642459
   0.66670283  0.66828307  0.50898747
   0.83333333  0.33333333  0.40830017
   0.25115833 -0.00100836  0.60583217
   0.08333333  0.58333333  0.40830017
   0.24969113  0.75045609  0.60721348
Direct configuration=    14
   0.75005969  0.75045001  0.60774843
   0.00215871 -0.00018160  0.60784330
   0.08333333  0.33333333  0.40830017
   0.91435261  0.41786984  0.50918258
   0.83333333  0.58333333  0.40830017
   0.75223811  0.24906803  0.61195732
   0.66685821  0.41491082  0.50831822
   0.00103611  0.74885115  0.60976246
   0.33333333  0.08333333  0.40830017
   0.49954227  0.24877891  0.61093724
   0.58333333  0.58333333  0.40830017
   0.33333333  0.33333333  0.40830017
   0.16515974  0.16417521  0.50939460
   0.24909629  0.24940320  0.61201818
   0.33333333  0.58333333  0.40830017
   0.16390065  0.66938193  0.50778860
   0.66459924  0.16518737  0.50675279
   0.33333333  0.83333333  0.40830017
   0.83333333  0.08333333  0.40830017
   0.49961914  0.75134834  0.61496457
   0.41956874  0.91569176  0.50910105
   0.49902356  0.50010194  0.61519074
   0.41661606  0.66658052  0.51242825
   0.16631486  0.41870660  0.50972696
   0.08333333  0.83333333  0.40830017
   0.41673351  0.41608224  0.50949033
   0.91627024  0.91637982  0.50628283
   0.24975511  0.50044327  0.60672120
   0.50091074 -0.00029429  0.60450183
   0.66828787  0.91491495  0.50505995
   0.58333333  0.08333333  0.40830017
   0.41778026  0.16595429  0.50888623
  -0.00075554  0.49992879  0.60587223
   0.16402725  0.91698482  0.50765402
   0.91288743  0.67176304  0.50705545
   0.08333333  0.08333333  0.40830017
  -0.00004282  0.25095181  0.60624141
   0.91625376  0.16384873  0.50766603
   0.58333333  0.33333333  0.40830017
   0.74979771 -0.00063486  0.60259754
   0.83333333  0.83333333  0.40830017
   0.58333333  0.83333333  0.40830017
   0.75073033  0.49986711  0.60648764
   0.66668428  0.66835302  0.50904234
   0.83333333  0.33333333  0.40830017
   0.25114035 -0.00102715  0.60590770
   0.08333333  0.58333333  0.40830017
   0.24973294  0.75036487  0.60729598
Direct configuration=    15
   0.75005096  0.75044261  0.60774828
   0.00215848 -0.00019665  0.60783895
   0.08333333  0.33333333  0.40830017
   0.91433244  0.41789353  0.50920658
   0.83333333  0.58333333  0.40830017
   0.75223912  0.24907968  0.61192465
   0.66685565  0.41485726  0.50831858
   0.00104423  0.74885586  0.60972863
   0.33333333  0.08333333  0.40830017
   0.49954510  0.24879478  0.61092049
   0.58333333  0.58333333  0.40830017
   0.33333333  0.33333333  0.40830017
   0.16515565  0.16418157  0.50940315
   0.24909362  0.24940240  0.61199668
   0.33333333  0.58333333  0.40830017
   0.16393900  0.66938359  0.50779877
   0.66459707  0.16518729  0.50675511
   0.33333333  0.83333333  0.40830017
   0.83333333  0.08333333  0.40830017
   0.49963985  0.75134245  0.61495998
   0.41958124  0.91573026  0.50911566
   0.49902835  0.50008338  0.61521070
   0.41655328  0.66656777  0.51245062
   0.16628293  0.41872920  0.50973794
   0.08333333  0.83333333  0.40830017
   0.41676220  0.41606420  0.50951483
   0.91625036  0.91638543  0.50628683
   0.24977794  0.50044567  0.60673817
   0.50090278 -0.00030382  0.60453136
   0.66828581  0.91489589  0.50508399
   0.58333333  0.08333333  0.40830017
   0.41778224  0.16593596  0.50889469
  -0.00074891  0.49991584  0.60588221
   0.16401685  0.91696254  0.50767578
   0.91284151  0.67177900  0.50705569
   0.08333333  0.08333333  0.40830017
  -0.00003434  0.25094400  0.60625009
   0.91622666  0.16384343  0.50766786
   0.58333333  0.33333333  0.40830017
   0.74977692 -0.00062296  0.60261666
   0.83333333  0.83333333  0.40830017
   0.58333333  0.83333333  0.40830017
   0.75072370  0.49987574  0.60650062
   0.66668046  0.66836742  0.50905364
   0.83333333  0.33333333  0.40830017
   0.25113665 -0.00103101  0.60592325
   0.08333333  0.58333333  0.40830017
   0.24974155  0.75034609  0.60731297
Direct configuration=    16
   0.75007771  0.75041728  0.60780092
   0.00214875 -0.00024631  0.60787011
   0.08333333  0.33333333  0.40830017
   0.91426073  0.41792736  0.50928641
   0.83333333  0.58333333  0.40830017
   0.75230905  0.24901962  0.61177905
   0.66683673  0.41485348  0.50833379
   0.00099225  0.74889000  0.60961044
   0.33333333  0.08333333  0.40830017
   0.49960547  0.24874645  0.61086024
   0.58333333  0.58333333  0.40830017
   0.33333333  0.33333333  0.40830017
   0.16508473  0.16419118  0.50942889
   0.24906972  0.24937725  0.61190446
   0.33333333  0.58333333  0.40830017
   0.16396362  0.66922316  0.50782309
   0.66458236  0.16513333  0.50678811
   0.33333333  0.83333333  0.40830017
   0.83333333  0.08333333  0.40830017
   0.49967572  0.75128897  0.61495081
   0.41945516  0.91572115  0.50918953
   0.49902846  0.50008415  0.61530461
   0.41655488  0.66659211  0.51254891
   0.16618897  0.41881350  0.50977365
   0.08333333  0.83333333  0.40830017
   0.41673216  0.41605088  0.50960003
   0.91624612  0.91640343  0.50626616
   0.24984322  0.50050033  0.60679032
   0.50095317 -0.00028514  0.60469130
   0.66821908  0.91488117  0.50513990
   0.58333333  0.08333333  0.40830017
   0.41766688  0.16593419  0.50889684
  -0.00075514  0.49993939  0.60592758
   0.16402763  0.91706099  0.50771978
   0.91284790  0.67172578  0.50698318
   0.08333333  0.08333333  0.40830017
   0.00003731  0.25086727  0.60628999
   0.91618981  0.16385784  0.50763288
   0.58333333  0.33333333  0.40830017
   0.74967291 -0.00062770  0.60268398
   0.83333333  0.83333333  0.40830017
   0.58333333  0.83333333  0.40830017
   0.75069056  0.49993367  0.60653687
   0.66653900  0.66823139  0.50906474
   0.83333333  0.33333333  0.40830017
   0.25108793 -0.00112679  0.60598174
   0.08333333  0.58333333  0.40830017
   0.24976347  0.75033397  0.60739818
