  48  48   0   0
  0.5349325E+02  0.1100258E-08  0.1100258E-08  0.2449179E-08  0.3500000E-15
  1.000000000000000E-004
  CAR 
 unknown system                          
      6.35374763     -9.66627238  301     -1.08312202      1.00000000
     -9.666  0.0000E+00  0.0000E+00
     -9.613  0.0000E+00  0.0000E+00
     -9.559  0.0000E+00  0.0000E+00
     -9.506  0.0000E+00  0.0000E+00
     -9.453  0.0000E+00  0.0000E+00
     -9.399  0.0000E+00  0.0000E+00
     -9.346  0.0000E+00  0.0000E+00
     -9.292  0.0000E+00  0.0000E+00
     -9.239  0.5544E-17  0.2961E-18
     -9.186  0.1983E-14  0.1062E-15
     -9.132  0.4432E-12  0.2377E-13
     -9.079  0.5677E-10  0.3056E-11
     -9.025  0.4177E-08  0.2261E-09
     -8.972  0.1768E-06  0.9669E-08
     -8.919  0.4318E-05  0.2402E-06
     -8.865  0.6095E-04  0.3495E-05
     -8.812  0.4986E-03  0.3012E-04
     -8.758  0.2370E-02  0.1567E-03
     -8.705  0.6573E-02  0.5077E-03
     -8.652  0.1078E-01  0.1084E-02
     -8.598  0.1125E-01  0.1685E-02
     -8.545  0.9956E-02  0.2216E-02
     -8.491  0.1076E-01  0.2791E-02
     -8.438  0.1101E-01  0.3379E-02
     -8.385  0.7564E-02  0.3783E-02
     -8.331  0.3155E-02  0.3951E-02
     -8.278  0.7853E-03  0.3993E-02
     -8.224  0.1381E-03  0.4001E-02
     -8.171  0.2231E-03  0.4013E-02
     -8.118  0.1233E-02  0.4078E-02
     -8.064  0.4539E-02  0.4321E-02
     -8.011  0.1096E-01  0.4906E-02
     -7.957  0.1776E-01  0.5855E-02
     -7.904  0.1985E-01  0.6915E-02
     -7.851  0.1710E-01  0.7828E-02
     -7.797  0.1572E-01  0.8667E-02
     -7.744  0.1861E-01  0.9661E-02
     -7.690  0.2195E-01  0.1083E-01
     -7.637  0.2199E-01  0.1201E-01
     -7.584  0.1842E-01  0.1299E-01
     -7.530  0.1329E-01  0.1370E-01
     -7.477  0.1031E-01  0.1425E-01
     -7.423  0.1148E-01  0.1486E-01
     -7.370  0.1459E-01  0.1564E-01
     -7.317  0.1877E-01  0.1665E-01
     -7.263  0.2597E-01  0.1803E-01
     -7.210  0.3479E-01  0.1989E-01
     -7.156  0.4013E-01  0.2203E-01
     -7.103  0.4123E-01  0.2424E-01
     -7.050  0.4325E-01  0.2654E-01
     -6.996  0.4832E-01  0.2912E-01
     -6.943  0.5395E-01  0.3201E-01
     -6.889  0.5765E-01  0.3508E-01
     -6.836  0.5960E-01  0.3827E-01
     -6.783  0.6330E-01  0.4165E-01
     -6.729  0.6938E-01  0.4535E-01
     -6.676  0.7513E-01  0.4936E-01
     -6.622  0.7987E-01  0.5363E-01
     -6.569  0.8374E-01  0.5810E-01
     -6.516  0.8754E-01  0.6278E-01
     -6.462  0.9359E-01  0.6777E-01
     -6.409  0.1004E+00  0.7314E-01
     -6.355  0.1047E+00  0.7873E-01
     -6.302  0.1118E+00  0.8470E-01
     -6.249  0.1280E+00  0.9153E-01
     -6.195  0.1463E+00  0.9934E-01
     -6.142  0.1546E+00  0.1076E+00
     -6.088  0.1523E+00  0.1157E+00
     -6.035  0.1496E+00  0.1237E+00
     -5.982  0.1529E+00  0.1319E+00
     -5.928  0.1600E+00  0.1404E+00
     -5.875  0.1651E+00  0.1492E+00
     -5.821  0.1658E+00  0.1581E+00
     -5.768  0.1634E+00  0.1668E+00
     -5.715  0.1612E+00  0.1754E+00
     -5.661  0.1595E+00  0.1839E+00
     -5.608  0.1572E+00  0.1923E+00
     -5.554  0.1554E+00  0.2006E+00
     -5.501  0.1553E+00  0.2089E+00
     -5.448  0.1544E+00  0.2172E+00
     -5.394  0.1500E+00  0.2252E+00
     -5.341  0.1476E+00  0.2331E+00
     -5.287  0.1546E+00  0.2413E+00
     -5.234  0.1658E+00  0.2502E+00
     -5.181  0.1699E+00  0.2592E+00
     -5.127  0.1646E+00  0.2680E+00
     -5.074  0.1569E+00  0.2764E+00
     -5.020  0.1549E+00  0.2847E+00
     -4.967  0.1615E+00  0.2933E+00
     -4.914  0.1715E+00  0.3025E+00
     -4.860  0.1776E+00  0.3119E+00
     -4.807  0.1786E+00  0.3215E+00
     -4.753  0.1794E+00  0.3311E+00
     -4.700  0.1833E+00  0.3408E+00
     -4.647  0.1875E+00  0.3509E+00
     -4.593  0.1884E+00  0.3609E+00
     -4.540  0.1862E+00  0.3709E+00
     -4.486  0.1825E+00  0.3806E+00
     -4.433  0.1801E+00  0.3902E+00
     -4.380  0.1803E+00  0.3999E+00
     -4.326  0.1813E+00  0.4095E+00
     -4.273  0.1831E+00  0.4193E+00
     -4.219  0.1852E+00  0.4292E+00
     -4.166  0.1851E+00  0.4391E+00
     -4.113  0.1834E+00  0.4489E+00
     -4.059  0.1835E+00  0.4587E+00
     -4.006  0.1842E+00  0.4685E+00
     -3.952  0.1843E+00  0.4784E+00
     -3.899  0.1886E+00  0.4884E+00
     -3.846  0.1964E+00  0.4989E+00
     -3.792  0.2020E+00  0.5097E+00
     -3.739  0.2058E+00  0.5207E+00
     -3.685  0.2107E+00  0.5319E+00
     -3.632  0.2135E+00  0.5433E+00
     -3.579  0.2104E+00  0.5546E+00
     -3.525  0.2027E+00  0.5654E+00
     -3.472  0.1965E+00  0.5759E+00
     -3.418  0.1971E+00  0.5864E+00
     -3.365  0.2016E+00  0.5972E+00
     -3.312  0.2029E+00  0.6080E+00
     -3.258  0.1987E+00  0.6186E+00
     -3.205  0.1925E+00  0.6289E+00
     -3.151  0.1866E+00  0.6389E+00
     -3.098  0.1840E+00  0.6487E+00
     -3.045  0.1885E+00  0.6588E+00
     -2.991  0.1956E+00  0.6692E+00
     -2.938  0.1969E+00  0.6797E+00
     -2.884  0.1914E+00  0.6899E+00
     -2.831  0.1844E+00  0.6998E+00
     -2.778  0.1785E+00  0.7093E+00
     -2.724  0.1726E+00  0.7185E+00
     -2.671  0.1683E+00  0.7275E+00
     -2.617  0.1683E+00  0.7365E+00
     -2.564  0.1716E+00  0.7457E+00
     -2.511  0.1750E+00  0.7550E+00
     -2.457  0.1769E+00  0.7645E+00
     -2.404  0.1780E+00  0.7740E+00
     -2.350  0.1794E+00  0.7836E+00
     -2.297  0.1816E+00  0.7932E+00
     -2.244  0.1851E+00  0.8031E+00
     -2.190  0.1882E+00  0.8132E+00
     -2.137  0.1883E+00  0.8232E+00
     -2.083  0.1863E+00  0.8332E+00
     -2.030  0.1831E+00  0.8430E+00
     -1.977  0.1768E+00  0.8524E+00
     -1.923  0.1688E+00  0.8614E+00
     -1.870  0.1645E+00  0.8702E+00
     -1.816  0.1679E+00  0.8792E+00
     -1.763  0.1785E+00  0.8887E+00
     -1.710  0.1911E+00  0.8989E+00
     -1.656  0.1984E+00  0.9095E+00
     -1.603  0.1981E+00  0.9201E+00
     -1.549  0.1957E+00  0.9305E+00
     -1.496  0.1959E+00  0.9410E+00
     -1.443  0.1973E+00  0.9515E+00
     -1.389  0.1959E+00  0.9620E+00
     -1.336  0.1881E+00  0.9720E+00
     -1.282  0.1744E+00  0.9813E+00
     -1.229  0.1572E+00  0.9897E+00
     -1.176  0.1394E+00  0.9972E+00
     -1.122  0.1229E+00  0.1004E+01
     -1.069  0.1064E+00  0.1009E+01
     -1.015  0.8631E-01  0.1014E+01
     -0.962  0.6199E-01  0.1017E+01
     -0.909  0.3959E-01  0.1019E+01
     -0.855  0.2587E-01  0.1021E+01
     -0.802  0.2034E-01  0.1022E+01
     -0.748  0.1861E-01  0.1023E+01
     -0.695  0.1824E-01  0.1024E+01
     -0.642  0.1975E-01  0.1025E+01
     -0.588  0.2452E-01  0.1026E+01
     -0.535  0.3212E-01  0.1028E+01
     -0.481  0.3869E-01  0.1030E+01
     -0.428  0.3965E-01  0.1032E+01
     -0.375  0.3573E-01  0.1034E+01
     -0.321  0.3254E-01  0.1036E+01
     -0.268  0.3555E-01  0.1038E+01
     -0.214  0.4190E-01  0.1040E+01
     -0.161  0.4204E-01  0.1042E+01
     -0.108  0.3494E-01  0.1044E+01
     -0.054  0.2870E-01  0.1046E+01
     -0.001  0.2802E-01  0.1047E+01
      0.053  0.3121E-01  0.1049E+01
      0.106  0.3556E-01  0.1051E+01
      0.159  0.3934E-01  0.1053E+01
      0.213  0.4022E-01  0.1055E+01
      0.266  0.3889E-01  0.1057E+01
      0.320  0.3770E-01  0.1059E+01
      0.373  0.3564E-01  0.1061E+01
      0.426  0.3229E-01  0.1063E+01
      0.480  0.3132E-01  0.1064E+01
      0.533  0.3230E-01  0.1066E+01
      0.587  0.3255E-01  0.1068E+01
      0.640  0.3465E-01  0.1070E+01
      0.693  0.3841E-01  0.1072E+01
      0.747  0.4030E-01  0.1074E+01
      0.800  0.3802E-01  0.1076E+01
      0.854  0.3067E-01  0.1077E+01
      0.907  0.2341E-01  0.1079E+01
      0.960  0.2075E-01  0.1080E+01
      1.014  0.1999E-01  0.1081E+01
      1.067  0.1940E-01  0.1082E+01
      1.121  0.1996E-01  0.1083E+01
      1.174  0.2013E-01  0.1084E+01
      1.227  0.1763E-01  0.1085E+01
      1.281  0.1449E-01  0.1086E+01
      1.334  0.1377E-01  0.1087E+01
      1.388  0.1561E-01  0.1087E+01
      1.441  0.1972E-01  0.1088E+01
      1.494  0.2610E-01  0.1090E+01
      1.548  0.3243E-01  0.1092E+01
      1.601  0.3574E-01  0.1093E+01
      1.655  0.3679E-01  0.1095E+01
      1.708  0.3771E-01  0.1097E+01
      1.761  0.3815E-01  0.1099E+01
      1.815  0.3569E-01  0.1101E+01
      1.868  0.2847E-01  0.1103E+01
      1.922  0.1978E-01  0.1104E+01
      1.975  0.1520E-01  0.1105E+01
      2.028  0.1444E-01  0.1106E+01
      2.082  0.1596E-01  0.1106E+01
      2.135  0.2162E-01  0.1108E+01
      2.189  0.2959E-01  0.1109E+01
      2.242  0.3592E-01  0.1111E+01
      2.295  0.3996E-01  0.1113E+01
      2.349  0.4143E-01  0.1115E+01
      2.402  0.4138E-01  0.1118E+01
      2.456  0.4212E-01  0.1120E+01
      2.509  0.4310E-01  0.1122E+01
      2.562  0.4371E-01  0.1124E+01
      2.616  0.4608E-01  0.1127E+01
      2.669  0.4963E-01  0.1130E+01
      2.723  0.4942E-01  0.1132E+01
      2.776  0.4212E-01  0.1134E+01
      2.829  0.3063E-01  0.1136E+01
      2.883  0.2064E-01  0.1137E+01
      2.936  0.1532E-01  0.1138E+01
      2.990  0.1550E-01  0.1139E+01
      3.043  0.1965E-01  0.1140E+01
      3.096  0.2494E-01  0.1141E+01
      3.150  0.2880E-01  0.1143E+01
      3.203  0.2861E-01  0.1144E+01
      3.257  0.2381E-01  0.1146E+01
      3.310  0.1744E-01  0.1146E+01
      3.363  0.1288E-01  0.1147E+01
      3.417  0.1221E-01  0.1148E+01
      3.470  0.1494E-01  0.1149E+01
      3.524  0.1857E-01  0.1150E+01
      3.577  0.2399E-01  0.1151E+01
      3.630  0.3202E-01  0.1153E+01
      3.684  0.3732E-01  0.1155E+01
      3.737  0.3683E-01  0.1157E+01
      3.791  0.3349E-01  0.1158E+01
      3.844  0.2927E-01  0.1160E+01
      3.897  0.2565E-01  0.1161E+01
      3.951  0.2526E-01  0.1163E+01
      4.004  0.2754E-01  0.1164E+01
      4.058  0.2822E-01  0.1166E+01
      4.111  0.2696E-01  0.1167E+01
      4.164  0.2621E-01  0.1168E+01
      4.218  0.2485E-01  0.1170E+01
      4.271  0.2139E-01  0.1171E+01
      4.325  0.1775E-01  0.1172E+01
      4.378  0.1837E-01  0.1173E+01
      4.431  0.2398E-01  0.1174E+01
      4.485  0.3084E-01  0.1176E+01
      4.538  0.4004E-01  0.1178E+01
      4.592  0.5419E-01  0.1181E+01
      4.645  0.6507E-01  0.1184E+01
      4.698  0.6300E-01  0.1188E+01
      4.752  0.5363E-01  0.1191E+01
      4.805  0.4862E-01  0.1193E+01
      4.859  0.4974E-01  0.1196E+01
      4.912  0.5149E-01  0.1199E+01
      4.965  0.5245E-01  0.1201E+01
      5.019  0.5670E-01  0.1204E+01
      5.072  0.6304E-01  0.1208E+01
      5.126  0.6402E-01  0.1211E+01
      5.179  0.6037E-01  0.1214E+01
      5.232  0.5681E-01  0.1217E+01
      5.286  0.5027E-01  0.1220E+01
      5.339  0.3774E-01  0.1222E+01
      5.393  0.2239E-01  0.1223E+01
      5.446  0.9760E-02  0.1224E+01
      5.499  0.2891E-02  0.1224E+01
      5.553  0.5468E-03  0.1224E+01
      5.606  0.6336E-04  0.1224E+01
      5.660  0.4385E-05  0.1224E+01
      5.713  0.1784E-06  0.1224E+01
      5.766  0.4226E-08  0.1224E+01
      5.820  0.5791E-10  0.1224E+01
      5.873  0.4568E-12  0.1224E+01
      5.927  0.2067E-14  0.1224E+01
      5.980  0.5544E-17  0.1224E+01
      6.033  0.0000E+00  0.1224E+01
      6.087  0.0000E+00  0.1224E+01
      6.140  0.0000E+00  0.1224E+01
      6.194  0.0000E+00  0.1224E+01
      6.247  0.0000E+00  0.1224E+01
      6.300  0.0000E+00  0.1224E+01
      6.354  0.0000E+00  0.1224E+01
