unknown system                          
           1
    11.002582    0.000000    0.000000
     5.501291    9.528515    0.000000
     0.000000    0.000000   24.491785
   Au   Pd
  24  24
Direct configuration=     1
   0.08333333  0.08333333  0.40830017
   0.25000000  0.50000000  0.59169983
   0.33333333  0.83333333  0.40830017
   0.16666667  0.91666667  0.50000000
   0.66666667  0.91666667  0.50000000
   0.58333333  0.08333333  0.40830017
   0.50000000  0.00000000  0.59169983
   0.16666667  0.66666667  0.50000000
   0.50000000  0.25000000  0.59169983
   0.41666667  0.66666667  0.50000000
   0.50000000  0.50000000  0.59169983
   0.58333333  0.83333333  0.40830017
   0.50000000  0.75000000  0.59169983
   0.75000000  0.00000000  0.59169983
   0.75000000  0.50000000  0.59169983
   0.58333333  0.58333333  0.40830017
   0.25000000  0.25000000  0.59169983
   0.25000000  0.75000000  0.59169983
   0.25000000  0.00000000  0.59169983
   0.08333333  0.83333333  0.40830017
   0.00000000  0.00000000  0.59169983
   0.08333333  0.58333333  0.40830017
   0.08333333  0.33333333  0.40830017
   0.91666667  0.41666667  0.50000000
   0.33333333  0.58333333  0.40830017
   0.83333333  0.83333333  0.40830017
   0.91666667  0.16666667  0.50000000
   0.66666667  0.66666667  0.50000000
   0.83333333  0.58333333  0.40830017
   0.75000000  0.25000000  0.59169983
   0.66666667  0.41666667  0.50000000
   0.83333333  0.33333333  0.40830017
   0.66666667  0.16666667  0.50000000
   0.83333333  0.08333333  0.40830017
   0.00000000  0.25000000  0.59169983
   0.16666667  0.41666667  0.50000000
   0.91666667  0.66666667  0.50000000
   0.00000000  0.50000000  0.59169983
   0.41666667  0.41666667  0.50000000
   0.58333333  0.33333333  0.40830017
   0.41666667  0.16666667  0.50000000
   0.91666667  0.91666667  0.50000000
   0.00000000  0.75000000  0.59169983
   0.33333333  0.08333333  0.40830017
   0.16666667  0.16666667  0.50000000
   0.33333333  0.33333333  0.40830017
   0.41666667  0.91666667  0.50000000
   0.75000000  0.75000000  0.59169983
Direct configuration=     2
   0.08235703  0.08452158  0.40638066
   0.24870495  0.50012804  0.59358058
   0.33366248  0.83370157  0.40606377
   0.16557565  0.91869928  0.49993228
   0.66800085  0.91537281  0.49990375
   0.58301496  0.08465123  0.40657934
   0.50028709 -0.00050260  0.59356110
   0.16557411  0.66560357  0.49992943
   0.50080493  0.25005530  0.59326120
   0.41816595  0.66517731  0.49950873
   0.50126514  0.49854366  0.59362840
   0.58373914  0.83313329  0.40642523
   0.50122458  0.75016751  0.59359368
   0.75100849 -0.00042945  0.59349852
   0.75098588  0.49949855  0.59348908
   0.58456248  0.58160698  0.40646906
   0.24854678  0.25071755  0.59324926
   0.24906478  0.75004336  0.59429419
   0.24945706  0.00117945  0.59360434
   0.08192861  0.83368350  0.40608959
  -0.00143221  0.00120106  0.59354509
   0.08313046  0.58308298  0.40642266
   0.08388247  0.33305830  0.40652358
   0.91652198  0.41678524  0.50009540
   0.33404808  0.58187718  0.40713729
   0.83363559  0.83309155  0.40732920
   0.91522737  0.16734558  0.49997389
   0.66779298  0.66640478  0.49999822
   0.83321219  0.58354479  0.40738022
   0.75044000  0.24995076  0.59248040
   0.66723297  0.41493110  0.49967529
   0.83262155  0.33323774  0.40740142
   0.66722481  0.16791088  0.49961178
   0.83298734  0.08386399  0.40762616
  -0.00029349  0.25019126  0.59254960
   0.16717841  0.41610159  0.50002013
   0.91630782  0.66684342  0.50028956
  -0.00025131  0.50060842  0.59255317
   0.41744169  0.41524601  0.49926038
   0.58321966  0.33338388  0.40762753
   0.41546709  0.16766225  0.49941850
   0.91564110  0.91721714  0.49981858
  -0.00070863  0.74949452  0.59266871
   0.33313978  0.08400125  0.40751127
   0.16716596  0.16690934  0.49996385
   0.33386995  0.33330105  0.40762360
   0.41639060  0.91787805  0.49980743
   0.75097484  0.74932339  0.59264492
Direct configuration=     3
   0.07942811  0.08808632  0.40062215
   0.24481981  0.50051214  0.59922283
   0.33464990  0.83480630  0.39935456
   0.16230258  0.92479714  0.49972914
   0.67200341  0.91149125  0.49961499
   0.58205985  0.08860491  0.40141686
   0.50114838 -0.00201039  0.59914491
   0.16229643  0.66241427  0.49971772
   0.50321971  0.25022121  0.59794531
   0.42266382  0.66070924  0.49803490
   0.50506058  0.49417464  0.59941412
   0.58495655  0.83253317  0.40080041
   0.50489832  0.75067003  0.59927523
   0.75403397 -0.00171779  0.59889460
   0.75394353  0.49799419  0.59885685
   0.58824994  0.57642791  0.40097575
   0.24418711  0.25287020  0.59789753
   0.24625913  0.75017346  0.60207726
   0.24782824  0.00471781  0.59931788
   0.07771443  0.83473401  0.39945784
  -0.00572882  0.00480426  0.59908089
   0.08252186  0.58233190  0.40079013
   0.08552987  0.33223321  0.40119380
   0.91608791  0.41714097  0.50038159
   0.33619232  0.57750870  0.40364865
   0.83454235  0.83236620  0.40441629
   0.91090950  0.16938232  0.49989558
   0.67117193  0.66561913  0.49999290
   0.83284874  0.58417915  0.40462036
   0.75175999  0.24980304  0.59482211
   0.66893187  0.40972438  0.49870115
   0.83048619  0.33295097  0.40470516
   0.66889924  0.17164352  0.49844711
   0.83194938  0.08545595  0.40560412
  -0.00117395  0.25076505  0.59509890
   0.16871363  0.41440635  0.50008051
   0.91523127  0.66737366  0.50115823
  -0.00100523  0.50243367  0.59511318
   0.41976677  0.41098402  0.49704152
   0.58287865  0.33353551  0.40560962
   0.41186835  0.17064898  0.49767401
   0.91256440  0.91886856  0.49927431
  -0.00283454  0.74797809  0.59557535
   0.33255912  0.08600501  0.40514455
   0.16866383  0.16763737  0.49985538
   0.33547979  0.33320421  0.40559388
   0.41556241  0.92151222  0.49922971
   0.75389937  0.74729357  0.59548019
Direct configuration=     4
   0.07968028  0.08727658  0.39929566
   0.24658873  0.50024975  0.60041591
   0.33367545  0.83421853  0.39813849
   0.16324673  0.92209326  0.49965862
   0.66872751  0.91518141  0.49960083
   0.58287482  0.08702754  0.40031973
   0.50167407 -0.00025626  0.60001981
   0.16398008  0.66435843  0.49959803
   0.50231167  0.24890825  0.59862740
   0.42077187  0.66266570  0.49847141
   0.50330750  0.49687461  0.60034705
   0.58489091  0.83298860  0.39956702
   0.50340722  0.74956767  0.60001896
   0.75233043 -0.00159336  0.60001945
   0.75372659  0.49805140  0.60012314
   0.58759482  0.57774934  0.39956280
   0.24564744  0.25276566  0.59901640
   0.24708638  0.75032446  0.60315911
   0.24787006  0.00280899  0.60051714
   0.07963738  0.83444250  0.39822831
  -0.00352458  0.00339646  0.60028484
   0.08273068  0.58198381  0.39943897
   0.08458314  0.33325043  0.39999341
   0.91687934  0.41641323  0.50006775
   0.33491963  0.57940876  0.40283366
   0.83334293  0.83284378  0.40354430
   0.91360930  0.16803010  0.49987367
   0.66924506  0.66521540  0.49995533
   0.83346995  0.58342119  0.40395406
   0.75182238  0.25006522  0.59555443
   0.66813478  0.41271442  0.49927349
   0.83162423  0.33282934  0.40384069
   0.66758019  0.16867591  0.49896197
   0.83184743  0.08530304  0.40468938
  -0.00161832  0.25110831  0.59563677
   0.16793124  0.41459458  0.50000625
   0.91684496  0.66573718  0.50067070
  -0.00159264  0.50206372  0.59584524
   0.41879261  0.41202401  0.49827273
   0.58310179  0.33348363  0.40411608
   0.41472499  0.16866867  0.49854749
   0.91431979  0.91884485  0.49950820
  -0.00232187  0.74873884  0.59629771
   0.33298538  0.08540083  0.40419849
   0.16723140  0.16847277  0.49974573
   0.33428222  0.33393486  0.40432916
   0.41645183  0.91981530  0.49942826
   0.75357221  0.74785834  0.59642597
Direct configuration=     5
   0.07982951  0.08679738  0.39851066
   0.24763557  0.50009447  0.60112197
   0.33309877  0.83387069  0.39741883
   0.16380546  0.92049313  0.49961689
   0.66678886  0.91736521  0.49959245
   0.58335712  0.08609406  0.39967046
   0.50198517  0.00078181  0.60053757
   0.16497645  0.66550896  0.49952720
   0.50177429  0.24813126  0.59903105
   0.41965223  0.66382351  0.49872973
   0.50227004  0.49847243  0.60089915
   0.58485206  0.83325812  0.39883711
   0.50252480  0.74891530  0.60045909
   0.75132230 -0.00151972  0.60068512
   0.75359820  0.49808525  0.60087253
   0.58720712  0.57853135  0.39872662
   0.24651165  0.25270379  0.59967854
   0.24757595  0.75041381  0.60379934
   0.24789481  0.00167936  0.60122686
   0.08077536  0.83426998  0.39750069
  -0.00222012  0.00256333  0.60099733
   0.08285426  0.58177781  0.39863937
   0.08402288  0.33385242  0.39928303
   0.91734770  0.41598256  0.49988202
   0.33416646  0.58053320  0.40235136
   0.83263312  0.83312641  0.40302827
   0.91520703  0.16722988  0.49986070
   0.66810475  0.66497647  0.49993309
   0.83383757  0.58297263  0.40355975
   0.75185930  0.25022037  0.59598780
   0.66766307  0.41448391  0.49961219
   0.83229771  0.33275736  0.40332911
   0.66679960  0.16691971  0.49926666
   0.83178710  0.08521255  0.40414805
  -0.00188129  0.25131146  0.59595507
   0.16746823  0.41470597  0.49996231
   0.91779993  0.66476873  0.50038218
  -0.00194027  0.50184479  0.59627846
   0.41821612  0.41263947  0.49900134
   0.58323384  0.33345292  0.40323222
   0.41641553  0.16749674  0.49906441
   0.91535862  0.91883081  0.49964661
  -0.00201847  0.74918904  0.59672520
   0.33323763  0.08504327  0.40363862
   0.16638369  0.16896715  0.49968084
   0.33357351  0.33436725  0.40358070
   0.41697819  0.91881107  0.49954576
   0.75337860  0.74819257  0.59698568
Direct configuration=     6
   0.08053203  0.08624184  0.39795352
   0.24789321  0.50058812  0.60150890
   0.33321975  0.83373481  0.39694143
   0.16526437  0.91951359  0.49952092
   0.66736633  0.91628630  0.49959308
   0.58304964  0.08608027  0.39911049
   0.50101907 -0.00043320  0.60094602
   0.16560651  0.66569178  0.49949481
   0.50158481  0.24958293  0.59938510
   0.41853760  0.66493757  0.49881068
   0.50169341  0.49840994  0.60126958
   0.58440467  0.83302823  0.39837700
   0.50203694  0.74978741  0.60064728
   0.75232210 -0.00158354  0.60116754
   0.75309175  0.49859646  0.60141218
   0.58641792  0.57943753  0.39821084
   0.24653114  0.25204028  0.60004176
   0.24781535  0.75017500  0.60439225
   0.24877580  0.00146878  0.60157245
   0.08082872  0.83398331  0.39691483
  -0.00226381  0.00204337  0.60152323
   0.08273242  0.58280232  0.39807566
   0.08397393  0.33339172  0.39868125
   0.91682391  0.41618847  0.49974689
   0.33395796  0.58106527  0.40224510
   0.83298273  0.83307508  0.40284141
   0.91561567  0.16665043  0.49978801
   0.66753204  0.66561008  0.49993622
   0.83359454  0.58302407  0.40335448
   0.75122063  0.25002735  0.59605465
   0.66711450  0.41473014  0.49977630
   0.83239437  0.33288065  0.40305925
   0.66684962  0.16709112  0.49942992
   0.83186304  0.08498253  0.40392840
  -0.00114538  0.25097979  0.59611175
   0.16805241  0.41504940  0.49991517
   0.91759705  0.66560519  0.50002191
  -0.00153155  0.50166237  0.59655558
   0.41807314  0.41322209  0.49960199
   0.58303987  0.33371173  0.40302468
   0.41604226  0.16747865  0.49936354
   0.91565900  0.91839551  0.49983705
  -0.00132002  0.74929793  0.59678371
   0.33312482  0.08484830  0.40349570
   0.16722504  0.16765345  0.49958080
   0.33376466  0.33426699  0.40328106
   0.41651574  0.91811563  0.49971904
   0.75252028  0.74858295  0.59699659
Direct configuration=     7
   0.08075982  0.08606171  0.39777286
   0.24797675  0.50074819  0.60163437
   0.33325898  0.83369075  0.39678663
   0.16573743  0.91919597  0.49948980
   0.66755358  0.91593645  0.49959328
   0.58294995  0.08607580  0.39892891
   0.50070580 -0.00082717  0.60107846
   0.16581081  0.66575106  0.49948430
   0.50152337  0.25005365  0.59949991
   0.41817617  0.66529881  0.49883692
   0.50150643  0.49838968  0.60138969
   0.58425961  0.83295369  0.39822781
   0.50187875  0.75007020  0.60070830
   0.75264629 -0.00160423  0.60132396
   0.75292753  0.49876222  0.60158717
   0.58616201  0.57973136  0.39804359
   0.24653746  0.25182513  0.60015954
   0.24789298  0.75009756  0.60458451
   0.24906147  0.00140050  0.60168452
   0.08084603  0.83389035  0.39672487
  -0.00227797  0.00187477  0.60169376
   0.08269292  0.58313453  0.39789287
   0.08395806  0.33324234  0.39848612
   0.91665407  0.41625524  0.49970307
   0.33389036  0.58123780  0.40221065
   0.83309610  0.83305843  0.40278083
   0.91574817  0.16646254  0.49976444
   0.66734633  0.66581553  0.49993723
   0.83351573  0.58304075  0.40328793
   0.75101354  0.24996476  0.59607633
   0.66693662  0.41480998  0.49982952
   0.83242571  0.33292062  0.40297175
   0.66686583  0.16714670  0.49948285
   0.83188766  0.08490794  0.40385718
  -0.00090676  0.25087224  0.59616255
   0.16824184  0.41516076  0.49989988
   0.91753127  0.66587642  0.49990510
  -0.00139902  0.50160322  0.59664543
   0.41802678  0.41341100  0.49979676
   0.58297698  0.33379565  0.40295738
   0.41592123  0.16747279  0.49946054
   0.91575640  0.91825436  0.49989880
  -0.00109355  0.74933324  0.59680269
   0.33308824  0.08478508  0.40344935
   0.16749786  0.16722748  0.49954836
   0.33382664  0.33423448  0.40318389
   0.41636579  0.91789013  0.49977523
   0.75224196  0.74870953  0.59700013
Direct configuration=     8
   0.08095813  0.08570562  0.39746692
   0.24729377  0.50090730  0.60184112
   0.33331552  0.83381460  0.39643125
   0.16563943  0.91951550  0.49944691
   0.66796508  0.91527645  0.49957412
   0.58261513  0.08625252  0.39872279
   0.50088627 -0.00077857  0.60128138
   0.16555727  0.66546315  0.49945189
   0.50161891  0.24974337  0.59977212
   0.41856574  0.66499938  0.49883928
   0.50179913  0.49857053  0.60164199
   0.58413995  0.83296284  0.39803584
   0.50194536  0.74982808  0.60082706
   0.75239778 -0.00156889  0.60155456
   0.75273557  0.49879369  0.60180523
   0.58592512  0.57965645  0.39787547
   0.24655143  0.25190796  0.60026853
   0.24793489  0.75028566  0.60510313
   0.24860790  0.00158751  0.60187091
   0.08045176  0.83418462  0.39632687
  -0.00205674  0.00207142  0.60193090
   0.08265322  0.58321062  0.39760671
   0.08417054  0.33321900  0.39821952
   0.91653173  0.41644735  0.49971431
   0.33412689  0.58102600  0.40231398
   0.83313170  0.83321754  0.40273306
   0.91580110  0.16605813  0.49968222
   0.66737377  0.66589511  0.49991212
   0.83333185  0.58318508  0.40322381
   0.75109963  0.24998844  0.59597508
   0.66655143  0.41468197  0.49979971
   0.83205183  0.33305538  0.40293274
   0.66706654  0.16751243  0.49943408
   0.83192841  0.08483039  0.40391298
  -0.00078422  0.25060584  0.59608998
   0.16843017  0.41535111  0.49983256
   0.91761373  0.66618752  0.49973611
  -0.00110548  0.50173430  0.59661408
   0.41822772  0.41352499  0.49994067
   0.58275126  0.33409964  0.40320371
   0.41552056  0.16755008  0.49955566
   0.91585829  0.91810927  0.49998201
  -0.00084306  0.74893379  0.59666770
   0.33309124  0.08475780  0.40357005
   0.16799461  0.16671223  0.49944942
   0.33401466  0.33421104  0.40328246
   0.41634391  0.91791943  0.49976726
   0.75222058  0.74879631  0.59677973
Direct configuration=     9
   0.08107881  0.08548894  0.39728075
   0.24687817  0.50100413  0.60196693
   0.33334992  0.83388998  0.39621500
   0.16557979  0.91970994  0.49942081
   0.66821548  0.91487483  0.49956246
   0.58241139  0.08636006  0.39859735
   0.50099609 -0.00074900  0.60140487
   0.16540298  0.66528796  0.49943216
   0.50167704  0.24955457  0.59993776
   0.41880280  0.66481718  0.49884071
   0.50197724  0.49868058  0.60179551
   0.58406713  0.83296841  0.39791903
   0.50198589  0.74968075  0.60089933
   0.75224656 -0.00154739  0.60169489
   0.75261876  0.49881284  0.60193792
   0.58578096  0.57961086  0.39777317
   0.24655994  0.25195837  0.60033485
   0.24796040  0.75040013  0.60541872
   0.24833190  0.00170130  0.60198434
   0.08021184  0.83436368  0.39608469
  -0.00192212  0.00219109  0.60207521
   0.08262907  0.58325692  0.39743257
   0.08429984  0.33320479  0.39805728
   0.91645729  0.41656426  0.49972115
   0.33427082  0.58089711  0.40237686
   0.83315336  0.83331436  0.40270400
   0.91583331  0.16581204  0.49963219
   0.66739047  0.66594354  0.49989684
   0.83321995  0.58327290  0.40318480
   0.75115202  0.25000285  0.59591346
   0.66631704  0.41460408  0.49978156
   0.83182432  0.33313739  0.40290900
   0.66718867  0.16773499  0.49940439
   0.83195321  0.08478320  0.40394694
  -0.00070965  0.25044373  0.59604582
   0.16854477  0.41546694  0.49979159
   0.91766391  0.66637683  0.49963328
  -0.00092686  0.50181407  0.59659500
   0.41834999  0.41359436  0.50002825
   0.58261390  0.33428461  0.40335360
   0.41527675  0.16759712  0.49961355
   0.91592028  0.91802098  0.50003265
  -0.00069063  0.74869072  0.59658556
   0.33309307  0.08474119  0.40364349
   0.16829690  0.16639869  0.49938921
   0.33412907  0.33419677  0.40334244
   0.41633060  0.91793726  0.49976242
   0.75220757  0.74884911  0.59664562
Direct configuration=    10
   0.08089194  0.08564523  0.39694867
   0.24691418  0.50094984  0.60219246
   0.33326683  0.83388927  0.39577830
   0.16545280  0.91951747  0.49935347
   0.66807988  0.91521759  0.49947385
   0.58229074  0.08649606  0.39853939
   0.50110282 -0.00067228  0.60155973
   0.16546775  0.66535551  0.49936081
   0.50166291  0.24945106  0.60022434
   0.41889919  0.66473887  0.49885036
   0.50193197  0.49858942  0.60208847
   0.58413189  0.83302391  0.39774750
   0.50194871  0.74975440  0.60101306
   0.75228602 -0.00162990  0.60187311
   0.75310903  0.49857336  0.60208302
   0.58572432  0.57953166  0.39763705
   0.24655587  0.25202518  0.60038626
   0.24789610  0.75039795  0.60602462
   0.24824283  0.00181426  0.60216498
   0.08014706  0.83446116  0.39566877
  -0.00209958  0.00228127  0.60227821
   0.08264314  0.58308578  0.39711524
   0.08432638  0.33328378  0.39787061
   0.91663598  0.41644152  0.49975418
   0.33413575  0.58092881  0.40256988
   0.83286184  0.83364727  0.40264826
   0.91591874  0.16579626  0.49951691
   0.66758249  0.66563156  0.49982225
   0.83308889  0.58335816  0.40314303
   0.75138220  0.24997417  0.59575377
   0.66651450  0.41446160  0.49976561
   0.83174668  0.33310175  0.40297491
   0.66715586  0.16751385  0.49936001
   0.83176792  0.08488453  0.40405442
  -0.00096842  0.25069631  0.59582908
   0.16850384  0.41534138  0.49968944
   0.91789460  0.66610487  0.49942418
  -0.00114605  0.50187027  0.59642499
   0.41838558  0.41348368  0.50027339
   0.58245130  0.33431803  0.40369335
   0.41549175  0.16747696  0.49972421
   0.91599521  0.91808227  0.50014137
  -0.00080580  0.74881957  0.59641120
   0.33311351  0.08477719  0.40379017
   0.16814262  0.16669875  0.49928563
   0.33416827  0.33427765  0.40358892
   0.41664543  0.91786324  0.49977545
   0.75246449  0.74866950  0.59635311
Direct configuration=    11
   0.08060592  0.08588445  0.39644037
   0.24696931  0.50086676  0.60253767
   0.33313965  0.83388820  0.39510988
   0.16525843  0.91922286  0.49925040
   0.66787231  0.91574222  0.49933821
   0.58210606  0.08670423  0.39845068
   0.50126618 -0.00055485  0.60179677
   0.16556690  0.66545890  0.49925159
   0.50164127  0.24929263  0.60066299
   0.41904673  0.66461901  0.49886515
   0.50186269  0.49844988  0.60253688
   0.58423101  0.83310886  0.39748496
   0.50189180  0.74986713  0.60118715
   0.75234643 -0.00175619  0.60214589
   0.75385944  0.49820681  0.60230512
   0.58563763  0.57941042  0.39742871
   0.24654965  0.25212743  0.60046495
   0.24779768  0.75039461  0.60695202
   0.24810651  0.00198716  0.60244146
   0.08004792  0.83461036  0.39503216
  -0.00237120  0.00241931  0.60258894
   0.08266467  0.58282383  0.39662952
   0.08436698  0.33340467  0.39758487
   0.91690948  0.41625367  0.49980473
   0.33392901  0.58097732  0.40286532
   0.83241564  0.83415683  0.40256295
   0.91604950  0.16577212  0.49934045
   0.66787640  0.66515405  0.49970808
   0.83288829  0.58348866  0.40307909
   0.75173453  0.24993026  0.59550934
   0.66681673  0.41424353  0.49974119
   0.83162784  0.33304719  0.40307579
   0.66710565  0.16717538  0.49929206
   0.83148430  0.08503964  0.40421892
  -0.00136449  0.25108291  0.59549734
   0.16844119  0.41514919  0.49953309
   0.91824771  0.66568859  0.49910412
  -0.00148154  0.50195630  0.59616477
   0.41844005  0.41331428  0.50064860
   0.58220243  0.33436918  0.40421337
   0.41582084  0.16729304  0.49989359
   0.91610990  0.91817609  0.50030778
  -0.00098208  0.74901680  0.59614433
   0.33314481  0.08483229  0.40401468
   0.16790648  0.16715803  0.49912710
   0.33422826  0.33440144  0.40396619
   0.41712733  0.91774994  0.49979539
   0.75285774  0.74839457  0.59590540
Direct configuration=    12
   0.08050110  0.08612181  0.39609350
   0.24711316  0.50103150  0.60274080
   0.33300031  0.83392533  0.39453161
   0.16585048  0.91899341  0.49916045
   0.66796164  0.91586089  0.49922409
   0.58197977  0.08683217  0.39844663
   0.50126342 -0.00088242  0.60190179
   0.16588084  0.66544395  0.49920821
   0.50188241  0.24947002  0.60100552
   0.41894923  0.66494349  0.49899038
   0.50201001  0.49831753  0.60285009
   0.58399820  0.83312896  0.39732351
   0.50207708  0.74980505  0.60119905
   0.75244399 -0.00174733  0.60227459
   0.75340007  0.49850371  0.60242700
   0.58552648  0.57962783  0.39733194
   0.24628258  0.25214953  0.60041834
   0.24759143  0.75038627  0.60771509
   0.24814762  0.00201305  0.60249562
   0.08005136  0.83442688  0.39458514
  -0.00225262  0.00224171  0.60274941
   0.08241586  0.58323297  0.39624100
   0.08410103  0.33338267  0.39740891
   0.91694131  0.41614132  0.49957928
   0.33342633  0.58138616  0.40313306
   0.83254682  0.83414900  0.40253183
   0.91644414  0.16567957  0.49918289
   0.66787489  0.66505440  0.49960286
   0.83291701  0.58335356  0.40301487
   0.75135615  0.24991623  0.59530089
   0.66705614  0.41440819  0.49991635
   0.83181210  0.33312205  0.40317778
   0.66699050  0.16678261  0.49949193
   0.83148588  0.08499855  0.40431168
  -0.00087807  0.25077105  0.59523766
   0.16848551  0.41511740  0.49948210
   0.91836123  0.66557253  0.49870388
  -0.00127432  0.50200085  0.59587968
   0.41830901  0.41324097  0.50122767
   0.58203378  0.33437400  0.40454403
   0.41614694  0.16723912  0.50014598
   0.91602351  0.91817107  0.50034053
  -0.00081513  0.74914396  0.59592674
   0.33299416  0.08479508  0.40417428
   0.16778555  0.16690865  0.49904609
   0.33403302  0.33458040  0.40436221
   0.41706873  0.91743800  0.49986634
   0.75269940  0.74844628  0.59549676
Direct configuration=    13
   0.08047509  0.08618073  0.39600740
   0.24714887  0.50107239  0.60279121
   0.33296573  0.83393454  0.39438808
   0.16599743  0.91893646  0.49913813
   0.66798381  0.91589034  0.49919576
   0.58194843  0.08686393  0.39844563
   0.50126274 -0.00096372  0.60192785
   0.16595875  0.66544024  0.49919744
   0.50194226  0.24951405  0.60109054
   0.41892503  0.66502403  0.49902146
   0.50204658  0.49828468  0.60292783
   0.58394042  0.83313395  0.39728344
   0.50212306  0.74978965  0.60120200
   0.75246820 -0.00174513  0.60230653
   0.75328605  0.49857741  0.60245725
   0.58549889  0.57968179  0.39730792
   0.24621629  0.25215502  0.60040677
   0.24754023  0.75038420  0.60790449
   0.24815783  0.00201947  0.60250907
   0.08005221  0.83438134  0.39447419
  -0.00222319  0.00219763  0.60278924
   0.08235411  0.58333452  0.39614456
   0.08403502  0.33337720  0.39736524
   0.91694921  0.41611344  0.49952332
   0.33330156  0.58148764  0.40319951
   0.83257937  0.83414706  0.40252411
   0.91654209  0.16565660  0.49914378
   0.66787452  0.66502967  0.49957675
   0.83292414  0.58332003  0.40299893
   0.75126224  0.24991274  0.59524915
   0.66711556  0.41444906  0.49995982
   0.83185783  0.33314063  0.40320309
   0.66696192  0.16668512  0.49954154
   0.83148627  0.08498835  0.40433470
  -0.00075734  0.25069364  0.59517321
   0.16849651  0.41510951  0.49946944
   0.91838941  0.66554373  0.49860454
  -0.00122289  0.50201191  0.59580892
   0.41827648  0.41322278  0.50137139
   0.58199192  0.33437520  0.40462610
   0.41622787  0.16722574  0.50020862
   0.91600207  0.91816983  0.50034866
  -0.00077370  0.74917552  0.59587273
   0.33295676  0.08478584  0.40421389
   0.16775553  0.16684676  0.49902598
   0.33398455  0.33462481  0.40446050
   0.41705418  0.91736058  0.49988394
   0.75266010  0.74845911  0.59539534
Direct configuration=    14
   0.08057436  0.08585639  0.39587020
   0.24716709  0.50116122  0.60284988
   0.33274961  0.83404016  0.39406980
   0.16623164  0.91891820  0.49903971
   0.66803376  0.91537177  0.49911860
   0.58185345  0.08681411  0.39852421
   0.50120813 -0.00093111  0.60189309
   0.16593287  0.66548785  0.49925243
   0.50186880  0.24934938  0.60133715
   0.41899894  0.66496793  0.49918872
   0.50200510  0.49866736  0.60307754
   0.58370308  0.83321364  0.39726533
   0.50189732  0.74963364  0.60113725
   0.75241837 -0.00181295  0.60230396
   0.75309664  0.49857755  0.60239682
   0.58528984  0.57979845  0.39737534
   0.24647252  0.25217421  0.60029746
   0.24772523  0.75045384  0.60832253
   0.24837081  0.00153523  0.60240496
   0.07995335  0.83459976  0.39433326
  -0.00194990  0.00214401  0.60271787
   0.08217542  0.58351579  0.39596668
   0.08396751  0.33351480  0.39729546
   0.91687691  0.41627132  0.49933499
   0.33332660  0.58162454  0.40336103
   0.83270387  0.83396411  0.40248113
   0.91679850  0.16524130  0.49911052
   0.66772202  0.66534414  0.49946165
   0.83293005  0.58330450  0.40286335
   0.75130975  0.24981165  0.59518509
   0.66685747  0.41470352  0.50014802
   0.83165576  0.33335124  0.40320050
   0.66707815  0.16681029  0.49980609
   0.83169838  0.08485730  0.40437206
  -0.00075752  0.25052404  0.59505273
   0.16851378  0.41522577  0.49951375
   0.91844349  0.66567225  0.49832169
  -0.00105780  0.50215314  0.59552588
   0.41833149  0.41342913  0.50181143
   0.58195590  0.33456988  0.40481218
   0.41613058  0.16713511  0.50047761
   0.91634762  0.91805417  0.50023996
  -0.00060757  0.74902101  0.59573475
   0.33281545  0.08476292  0.40430222
   0.16811155  0.16633731  0.49900085
   0.33353757  0.33483296  0.40478311
   0.41694390  0.91733735  0.49990597
   0.75259015  0.74860979  0.59515515
Direct configuration=    15
   0.08059107  0.08580181  0.39584711
   0.24717016  0.50117617  0.60285975
   0.33271324  0.83405794  0.39401625
   0.16627105  0.91891513  0.49902315
   0.66804217  0.91528451  0.49910562
   0.58183747  0.08680573  0.39853743
   0.50119894 -0.00092562  0.60188724
   0.16592851  0.66549586  0.49926169
   0.50185644  0.24932167  0.60137865
   0.41901138  0.66495849  0.49921687
   0.50199812  0.49873176  0.60310273
   0.58366314  0.83322704  0.39726228
   0.50185933  0.74960738  0.60112635
   0.75240998 -0.00182436  0.60230353
   0.75306477  0.49857757  0.60238665
   0.58525466  0.57981808  0.39738669
   0.24651564  0.25217744  0.60027907
   0.24775636  0.75046556  0.60839288
   0.24840665  0.00145375  0.60238745
   0.07993671  0.83463651  0.39430954
  -0.00190391  0.00213498  0.60270586
   0.08214535  0.58354630  0.39593675
   0.08395616  0.33353796  0.39728372
   0.91686474  0.41629788  0.49930330
   0.33333082  0.58164758  0.40338821
   0.83272482  0.83393332  0.40247390
   0.91684165  0.16517142  0.49910492
   0.66769636  0.66539705  0.49944228
   0.83293104  0.58330189  0.40284053
   0.75131774  0.24979464  0.59517431
   0.66681404  0.41474634  0.50017969
   0.83162175  0.33338669  0.40320006
   0.66709771  0.16683135  0.49985061
   0.83173407  0.08483525  0.40437834
  -0.00075755  0.25049550  0.59503246
   0.16851668  0.41524533  0.49952121
   0.91845259  0.66569388  0.49827409
  -0.00103002  0.50217690  0.59547826
   0.41834075  0.41346386  0.50188548
   0.58194984  0.33460264  0.40484350
   0.41611420  0.16711986  0.50052288
   0.91640577  0.91803470  0.50022167
  -0.00057961  0.74899501  0.59571153
   0.33279167  0.08475906  0.40431708
   0.16817146  0.16625158  0.49899662
   0.33346236  0.33486799  0.40483740
   0.41692534  0.91733345  0.49990968
   0.75257838  0.74863514  0.59511473
Direct configuration=    16
   0.08056352  0.08587444  0.39582215
   0.24726539  0.50128528  0.60290904
   0.33273188  0.83396950  0.39386566
   0.16634165  0.91865009  0.49890631
   0.66803596  0.91528472  0.49900748
   0.58175664  0.08695184  0.39874394
   0.50118389 -0.00100699  0.60181577
   0.16592195  0.66557016  0.49931763
   0.50188485  0.24930038  0.60160944
   0.41890436  0.66494832  0.49932006
   0.50194715  0.49865752  0.60323089
   0.58348003  0.83329276  0.39727011
   0.50184645  0.74967409  0.60105376
   0.75257237 -0.00197266  0.60221702
   0.75348920  0.49841944  0.60220817
   0.58505019  0.57993821  0.39752787
   0.24655379  0.25206484  0.60019036
   0.24775404  0.75040179  0.60864899
   0.24856756  0.00134607  0.60223142
   0.07991262  0.83465577  0.39429555
  -0.00186658  0.00202292  0.60252931
   0.08224455  0.58355909  0.39586846
   0.08394894  0.33348945  0.39727497
   0.91689078  0.41623558  0.49920221
   0.33341185  0.58159812  0.40354792
   0.83259252  0.83393624  0.40237534
   0.91681694  0.16516985  0.49908997
   0.66764163  0.66547888  0.49931462
   0.83273290  0.58343589  0.40265032
   0.75147259  0.24969862  0.59525573
   0.66678160  0.41479591  0.50029417
   0.83145373  0.33334942  0.40317864
   0.66725565  0.16688755  0.50002477
   0.83155135  0.08495668  0.40440044
  -0.00083793  0.25063125  0.59493510
   0.16849013  0.41530380  0.49958658
   0.91857394  0.66574799  0.49812560
  -0.00112587  0.50217909  0.59519201
   0.41842119  0.41354472  0.50212247
   0.58186544  0.33464698  0.40504204
   0.41615608  0.16700457  0.50066813
   0.91655609  0.91798081  0.50009120
  -0.00054954  0.74899054  0.59563323
   0.33265838  0.08485806  0.40435817
   0.16825829  0.16632464  0.49899840
   0.33327858  0.33494621  0.40517174
   0.41697445  0.91734415  0.49986687
   0.75258884  0.74857740  0.59500997
Direct configuration=    17
   0.08054341  0.08592745  0.39580393
   0.24733490  0.50136492  0.60294502
   0.33274549  0.83390494  0.39375575
   0.16639317  0.91845664  0.49882103