  48  48   0   0
  0.5349325E+02  0.1100258E-08  0.1100258E-08  0.2449179E-08  0.3500000E-15
  1.000000000000000E-004
  CAR 
 unknown system                          
      6.34730198     -9.76225847  301     -1.10228187      1.00000000
     -9.762  0.0000E+00  0.0000E+00
     -9.709  0.0000E+00  0.0000E+00
     -9.655  0.0000E+00  0.0000E+00
     -9.601  0.0000E+00  0.0000E+00
     -9.547  0.0000E+00  0.0000E+00
     -9.494  0.0000E+00  0.0000E+00
     -9.440  0.0000E+00  0.0000E+00
     -9.386  0.0000E+00  0.0000E+00
     -9.333  0.6203E-17  0.3331E-18
     -9.279  0.2525E-14  0.1359E-15
     -9.225  0.5652E-12  0.3049E-13
     -9.172  0.7214E-10  0.3904E-11
     -9.118  0.5258E-08  0.2863E-09
     -9.064  0.2194E-06  0.1207E-07
     -9.010  0.5251E-05  0.2940E-06
     -8.957  0.7227E-04  0.4175E-05
     -8.903  0.5736E-03  0.3497E-04
     -8.849  0.2633E-02  0.1764E-03
     -8.796  0.7044E-02  0.5546E-03
     -8.742  0.1128E-01  0.1160E-02
     -8.688  0.1206E-01  0.1808E-02
     -8.635  0.1157E-01  0.2429E-02
     -8.581  0.1187E-01  0.3066E-02
     -8.527  0.9912E-02  0.3598E-02
     -8.473  0.5356E-02  0.3886E-02
     -8.420  0.1748E-02  0.3980E-02
     -8.366  0.3433E-03  0.3998E-02
     -8.312  0.8905E-04  0.4003E-02
     -8.259  0.3488E-03  0.4022E-02
     -8.205  0.1418E-02  0.4098E-02
     -8.151  0.3602E-02  0.4291E-02
     -8.098  0.6212E-02  0.4625E-02
     -8.044  0.8592E-02  0.5086E-02
     -7.990  0.1142E-01  0.5699E-02
     -7.937  0.1476E-01  0.6492E-02
     -7.883  0.1669E-01  0.7388E-02
     -7.829  0.1646E-01  0.8272E-02
     -7.775  0.1642E-01  0.9153E-02
     -7.722  0.1815E-01  0.1013E-01
     -7.668  0.1943E-01  0.1117E-01
     -7.614  0.1925E-01  0.1221E-01
     -7.561  0.1979E-01  0.1327E-01
     -7.507  0.2009E-01  0.1435E-01
     -7.453  0.1731E-01  0.1528E-01
     -7.400  0.1404E-01  0.1603E-01
     -7.346  0.1652E-01  0.1692E-01
     -7.292  0.2461E-01  0.1824E-01
     -7.238  0.3005E-01  0.1985E-01
     -7.185  0.2882E-01  0.2140E-01
     -7.131  0.2779E-01  0.2289E-01
     -7.077  0.3413E-01  0.2473E-01
     -7.024  0.4548E-01  0.2717E-01
     -6.970  0.5608E-01  0.3018E-01
     -6.916  0.6374E-01  0.3360E-01
     -6.863  0.6813E-01  0.3726E-01
     -6.809  0.7050E-01  0.4105E-01
     -6.755  0.7432E-01  0.4504E-01
     -6.701  0.8114E-01  0.4939E-01
     -6.648  0.8776E-01  0.5411E-01
     -6.594  0.9195E-01  0.5904E-01
     -6.540  0.9480E-01  0.6413E-01
     -6.487  0.9819E-01  0.6941E-01
     -6.433  0.1055E+00  0.7507E-01
     -6.379  0.1188E+00  0.8145E-01
     -6.326  0.1345E+00  0.8867E-01
     -6.272  0.1462E+00  0.9652E-01
     -6.218  0.1510E+00  0.1046E+00
     -6.164  0.1509E+00  0.1127E+00
     -6.111  0.1474E+00  0.1206E+00
     -6.057  0.1432E+00  0.1283E+00
     -6.003  0.1435E+00  0.1360E+00
     -5.950  0.1478E+00  0.1440E+00
     -5.896  0.1499E+00  0.1520E+00
     -5.842  0.1485E+00  0.1600E+00
     -5.789  0.1465E+00  0.1679E+00
     -5.735  0.1449E+00  0.1756E+00
     -5.681  0.1436E+00  0.1834E+00
     -5.627  0.1431E+00  0.1910E+00
     -5.574  0.1444E+00  0.1988E+00
     -5.520  0.1492E+00  0.2068E+00
     -5.466  0.1578E+00  0.2153E+00
     -5.413  0.1675E+00  0.2243E+00
     -5.359  0.1733E+00  0.2336E+00
     -5.305  0.1719E+00  0.2428E+00
     -5.252  0.1658E+00  0.2517E+00
     -5.198  0.1607E+00  0.2603E+00
     -5.144  0.1586E+00  0.2689E+00
     -5.090  0.1576E+00  0.2773E+00
     -5.037  0.1577E+00  0.2858E+00
     -4.983  0.1609E+00  0.2944E+00
     -4.929  0.1673E+00  0.3034E+00
     -4.876  0.1741E+00  0.3128E+00
     -4.822  0.1781E+00  0.3223E+00
     -4.768  0.1786E+00  0.3319E+00
     -4.715  0.1773E+00  0.3414E+00
     -4.661  0.1758E+00  0.3509E+00
     -4.607  0.1739E+00  0.3602E+00
     -4.554  0.1729E+00  0.3695E+00
     -4.500  0.1730E+00  0.3788E+00
     -4.446  0.1734E+00  0.3881E+00
     -4.392  0.1743E+00  0.3975E+00
     -4.339  0.1752E+00  0.4069E+00
     -4.285  0.1733E+00  0.4162E+00
     -4.231  0.1696E+00  0.4253E+00
     -4.178  0.1693E+00  0.4344E+00
     -4.124  0.1729E+00  0.4437E+00
     -4.070  0.1754E+00  0.4531E+00
     -4.017  0.1752E+00  0.4625E+00
     -3.963  0.1762E+00  0.4720E+00
     -3.909  0.1806E+00  0.4817E+00
     -3.855  0.1866E+00  0.4917E+00
     -3.802  0.1912E+00  0.5019E+00
     -3.748  0.1916E+00  0.5122E+00
     -3.694  0.1887E+00  0.5224E+00
     -3.641  0.1888E+00  0.5325E+00
     -3.587  0.1956E+00  0.5430E+00
     -3.533  0.2035E+00  0.5539E+00
     -3.480  0.2049E+00  0.5649E+00
     -3.426  0.1998E+00  0.5757E+00
     -3.372  0.1952E+00  0.5861E+00
     -3.318  0.1943E+00  0.5966E+00
     -3.265  0.1935E+00  0.6070E+00
     -3.211  0.1910E+00  0.6172E+00
     -3.157  0.1888E+00  0.6274E+00
     -3.104  0.1889E+00  0.6375E+00
     -3.050  0.1899E+00  0.6477E+00
     -2.996  0.1890E+00  0.6578E+00
     -2.943  0.1867E+00  0.6679E+00
     -2.889  0.1858E+00  0.6778E+00
     -2.835  0.1861E+00  0.6878E+00
     -2.781  0.1871E+00  0.6979E+00
     -2.728  0.1898E+00  0.7081E+00
     -2.674  0.1929E+00  0.7184E+00
     -2.620  0.1930E+00  0.7288E+00
     -2.567  0.1893E+00  0.7390E+00
     -2.513  0.1846E+00  0.7489E+00
     -2.459  0.1807E+00  0.7586E+00
     -2.406  0.1774E+00  0.7681E+00
     -2.352  0.1762E+00  0.7776E+00
     -2.298  0.1802E+00  0.7872E+00
     -2.244  0.1868E+00  0.7973E+00
     -2.191  0.1888E+00  0.8074E+00
     -2.137  0.1877E+00  0.8175E+00
     -2.083  0.1918E+00  0.8278E+00
     -2.030  0.2002E+00  0.8385E+00
     -1.976  0.2045E+00  0.8495E+00
     -1.922  0.2003E+00  0.8603E+00
     -1.869  0.1908E+00  0.8705E+00
     -1.815  0.1827E+00  0.8803E+00
     -1.761  0.1788E+00  0.8899E+00
     -1.707  0.1784E+00  0.8995E+00
     -1.654  0.1823E+00  0.9093E+00
     -1.600  0.1887E+00  0.9194E+00
     -1.546  0.1922E+00  0.9298E+00
     -1.493  0.1942E+00  0.9402E+00
     -1.439  0.2005E+00  0.9510E+00
     -1.385  0.2072E+00  0.9621E+00
     -1.332  0.2043E+00  0.9731E+00
     -1.278  0.1893E+00  0.9832E+00
     -1.224  0.1684E+00  0.9923E+00
     -1.170  0.1453E+00  0.1000E+01
     -1.117  0.1199E+00  0.1007E+01
     -1.063  0.9401E-01  0.1012E+01
     -1.009  0.6963E-01  0.1015E+01
     -0.956  0.4722E-01  0.1018E+01
     -0.902  0.2924E-01  0.1019E+01
     -0.848  0.1926E-01  0.1020E+01
     -0.795  0.1706E-01  0.1021E+01
     -0.741  0.1857E-01  0.1022E+01
     -0.687  0.1987E-01  0.1023E+01
     -0.634  0.2127E-01  0.1025E+01
     -0.580  0.2602E-01  0.1026E+01
     -0.526  0.3389E-01  0.1028E+01
     -0.472  0.4143E-01  0.1030E+01
     -0.419  0.4406E-01  0.1032E+01
     -0.365  0.3883E-01  0.1034E+01
     -0.311  0.3188E-01  0.1036E+01
     -0.258  0.3382E-01  0.1038E+01
     -0.204  0.4201E-01  0.1040E+01
     -0.150  0.4298E-01  0.1043E+01
     -0.097  0.3394E-01  0.1044E+01
     -0.043  0.2361E-01  0.1046E+01
      0.011  0.1862E-01  0.1047E+01
      0.065  0.2158E-01  0.1048E+01
      0.118  0.3029E-01  0.1049E+01
      0.172  0.3702E-01  0.1051E+01
      0.226  0.3755E-01  0.1053E+01
      0.279  0.3604E-01  0.1055E+01
      0.333  0.3669E-01  0.1057E+01
      0.387  0.3808E-01  0.1059E+01
      0.440  0.3844E-01  0.1061E+01
      0.494  0.3925E-01  0.1064E+01
      0.548  0.4203E-01  0.1066E+01
      0.602  0.4433E-01  0.1068E+01
      0.655  0.4416E-01  0.1071E+01
      0.709  0.4242E-01  0.1073E+01
      0.763  0.3890E-01  0.1075E+01
      0.816  0.3239E-01  0.1077E+01
      0.870  0.2436E-01  0.1078E+01
      0.924  0.2004E-01  0.1079E+01
      0.977  0.2061E-01  0.1080E+01
      1.031  0.2211E-01  0.1081E+01
      1.085  0.2287E-01  0.1083E+01
      1.139  0.2336E-01  0.1084E+01
      1.192  0.2240E-01  0.1085E+01
      1.246  0.1881E-01  0.1086E+01
      1.300  0.1386E-01  0.1087E+01
      1.353  0.1024E-01  0.1087E+01
      1.407  0.9537E-02  0.1088E+01
      1.461  0.1297E-01  0.1089E+01
      1.514  0.2165E-01  0.1090E+01
      1.568  0.3219E-01  0.1091E+01
      1.622  0.3834E-01  0.1093E+01
      1.676  0.3921E-01  0.1096E+01
      1.729  0.3872E-01  0.1098E+01
      1.783  0.3857E-01  0.1100E+01
      1.837  0.3573E-01  0.1102E+01
      1.890  0.2756E-01  0.1103E+01
      1.944  0.1931E-01  0.1104E+01
      1.998  0.1772E-01  0.1105E+01
      2.051  0.2039E-01  0.1106E+01
      2.105  0.2278E-01  0.1107E+01
      2.159  0.2657E-01  0.1109E+01
      2.213  0.3361E-01  0.1111E+01
      2.266  0.4111E-01  0.1113E+01
      2.320  0.4518E-01  0.1115E+01
      2.374  0.4440E-01  0.1118E+01
      2.427  0.3994E-01  0.1120E+01
      2.481  0.3521E-01  0.1122E+01
      2.535  0.3399E-01  0.1124E+01
      2.588  0.3843E-01  0.1126E+01
      2.642  0.4793E-01  0.1128E+01
      2.696  0.5490E-01  0.1131E+01
      2.750  0.5108E-01  0.1134E+01
      2.803  0.3853E-01  0.1136E+01
      2.857  0.2482E-01  0.1137E+01
      2.911  0.1577E-01  0.1138E+01
      2.964  0.1316E-01  0.1139E+01
      3.018  0.1306E-01  0.1140E+01
      3.072  0.1300E-01  0.1140E+01
      3.125  0.1624E-01  0.1141E+01
      3.179  0.2343E-01  0.1142E+01
      3.233  0.2870E-01  0.1144E+01
      3.286  0.2671E-01  0.1145E+01
      3.340  0.2016E-01  0.1146E+01
      3.394  0.1496E-01  0.1147E+01
      3.448  0.1314E-01  0.1148E+01
      3.501  0.1491E-01  0.1149E+01
      3.555  0.2020E-01  0.1150E+01
      3.609  0.2830E-01  0.1151E+01
      3.662  0.3739E-01  0.1153E+01
      3.716  0.4363E-01  0.1156E+01
      3.770  0.4372E-01  0.1158E+01
      3.823  0.3724E-01  0.1160E+01
      3.877  0.2799E-01  0.1162E+01
      3.931  0.2148E-01  0.1163E+01
      3.985  0.2087E-01  0.1164E+01
      4.038  0.2326E-01  0.1165E+01
      4.092  0.2444E-01  0.1166E+01
      4.146  0.2560E-01  0.1168E+01
      4.199  0.2670E-01  0.1169E+01
      4.253  0.2458E-01  0.1171E+01
      4.307  0.1987E-01  0.1172E+01
      4.360  0.1854E-01  0.1173E+01
      4.414  0.2436E-01  0.1174E+01
      4.468  0.3236E-01  0.1176E+01
      4.522  0.3910E-01  0.1178E+01
      4.575  0.4876E-01  0.1180E+01
      4.629  0.5834E-01  0.1183E+01
      4.683  0.5635E-01  0.1186E+01
      4.736  0.4362E-01  0.1189E+01
      4.790  0.3379E-01  0.1191E+01
      4.844  0.3563E-01  0.1193E+01
      4.897  0.4661E-01  0.1195E+01
      4.951  0.5782E-01  0.1198E+01
      5.005  0.6498E-01  0.1202E+01
      5.059  0.6997E-01  0.1205E+01
      5.112  0.7142E-01  0.1209E+01
      5.166  0.6798E-01  0.1213E+01
      5.220  0.6308E-01  0.1216E+01
      5.273  0.5619E-01  0.1219E+01
      5.327  0.4364E-01  0.1222E+01
      5.381  0.2697E-01  0.1223E+01
      5.434  0.1226E-01  0.1224E+01
      5.488  0.3801E-02  0.1224E+01
      5.542  0.7538E-03  0.1224E+01
      5.596  0.9142E-04  0.1224E+01
      5.649  0.6589E-05  0.1224E+01
      5.703  0.2774E-06  0.1224E+01
      5.757  0.6751E-08  0.1224E+01
      5.810  0.9435E-10  0.1224E+01
      5.864  0.7536E-12  0.1224E+01
      5.918  0.3432E-14  0.1224E+01
      5.971  0.6892E-17  0.1224E+01
      6.025  0.0000E+00  0.1224E+01
      6.079  0.0000E+00  0.1224E+01
      6.133  0.0000E+00  0.1224E+01
      6.186  0.0000E+00  0.1224E+01
      6.240  0.0000E+00  0.1224E+01
      6.294  0.0000E+00  0.1224E+01
      6.347  0.0000E+00  0.1224E+01
