   48   48  500    1
  0.5349325E+02  0.1100258E-08  0.1100258E-08  0.2449179E-08  0.3500000E-15
  1.000000000000000E-004
  CAR 
 unknown system                          
    504      6    306
 
  0.2500000E+00  0.2500000E+00  0.0000000E+00  0.1666667E+00
    1       -8.751560   1.000000
    2       -7.913314   1.000000
    3       -7.677927   1.000000
    4       -7.517062   1.000000
    5       -7.310677   1.000000
    6       -7.215582   1.000000
    7       -7.049493   1.000000
    8       -6.979975   1.000000
    9       -6.942353   1.000000
   10       -6.900709   1.000000
   11       -6.832699   1.000000
   12       -6.766303   1.000000
   13       -6.717787   1.000000
   14       -6.673411   1.000000
   15       -6.601004   1.000000
   16       -6.565606   1.000000
   17       -6.535874   1.000000
   18       -6.489119   1.000000
   19       -6.454025   1.000000
   20       -6.402039   1.000000
   21       -6.384593   1.000000
   22       -6.353970   1.000000
   23       -6.307519   1.000000
   24       -6.293947   1.000000
   25       -6.253884   1.000000
   26       -6.223524   1.000000
   27       -6.199225   1.000000
   28       -6.163806   1.000000
   29       -6.139130   1.000000
   30       -6.084932   1.000000
   31       -6.076161   1.000000
   32       -6.038171   1.000000
   33       -6.022512   1.000000
   34       -5.979552   1.000000
   35       -5.949170   1.000000
   36       -5.932683   1.000000
   37       -5.904212   1.000000
   38       -5.899018   1.000000
   39       -5.856832   1.000000
   40       -5.826923   1.000000
   41       -5.791764   1.000000
   42       -5.766982   1.000000
   43       -5.756977   1.000000
   44       -5.728823   1.000000
   45       -5.694009   1.000000
   46       -5.657020   1.000000
   47       -5.642847   1.000000
   48       -5.631781   1.000000
   49       -5.592724   1.000000
   50       -5.574424   1.000000
   51       -5.559570   1.000000
   52       -5.500795   1.000000
   53       -5.488779   1.000000
   54       -5.481431   1.000000
   55       -5.432610   1.000000
   56       -5.403801   1.000000
   57       -5.395458   1.000000
   58       -5.379440   1.000000
   59       -5.346334   1.000000
   60       -5.328911   1.000000
   61       -5.295929   1.000000
   62       -5.270327   1.000000
   63       -5.250585   1.000000
   64       -5.245577   1.000000
   65       -5.198612   1.000000
   66       -5.169485   1.000000
   67       -5.142920   1.000000
   68       -5.110947   1.000000
   69       -5.095882   1.000000
   70       -5.068442   1.000000
   71       -5.053611   1.000000
   72       -5.015723   1.000000
   73       -5.003774   1.000000
   74       -4.978146   1.000000
   75       -4.958421   1.000000
   76       -4.909863   1.000000
   77       -4.898882   1.000000
   78       -4.858697   1.000000
   79       -4.854723   1.000000
   80       -4.825315   1.000000
   81       -4.806292   1.000000
   82       -4.782266   1.000000
   83       -4.760115   1.000000
   84       -4.740757   1.000000
   85       -4.729247   1.000000
   86       -4.698555   1.000000
   87       -4.667477   1.000000
   88       -4.656809   1.000000
   89       -4.628368   1.000000
   90       -4.604967   1.000000
   91       -4.585122   1.000000
   92       -4.565841   1.000000
   93       -4.527976   1.000000
   94       -4.507526   1.000000
   95       -4.487130   1.000000
   96       -4.471045   1.000000
   97       -4.449660   1.000000
   98       -4.415368   1.000000
   99       -4.394590   1.000000
  100       -4.383474   1.000000
  101       -4.377479   1.000000
  102       -4.336956   1.000000
  103       -4.317728   1.000000
  104       -4.310293   1.000000
  105       -4.276661   1.000000
  106       -4.248208   1.000000
  107       -4.237811   1.000000
  108       -4.216629   1.000000
  109       -4.180989   1.000000
  110       -4.169640   1.000000
  111       -4.154125   1.000000
  112       -4.133742   1.000000
  113       -4.095447   1.000000
  114       -4.086130   1.000000
  115       -4.061719   1.000000
  116       -4.042828   1.000000
  117       -4.007359   1.000000
  118       -3.986725   1.000000
  119       -3.964767   1.000000
  120       -3.943324   1.000000
  121       -3.919129   1.000000
  122       -3.894919   1.000000
  123       -3.877039   1.000000
  124       -3.863188   1.000000
  125       -3.841135   1.000000
  126       -3.817840   1.000000
  127       -3.798098   1.000000
  128       -3.777761   1.000000
  129       -3.767842   1.000000
  130       -3.732030   1.000000
  131       -3.723179   1.000000
  132       -3.704984   1.000000
  133       -3.696450   1.000000
  134       -3.667144   1.000000
  135       -3.638011   1.000000
  136       -3.608647   1.000000
  137       -3.589504   1.000000
  138       -3.571217   1.000000
  139       -3.549512   1.000000
  140       -3.536793   1.000000
  141       -3.518526   1.000000
  142       -3.501762   1.000000
  143       -3.475914   1.000000
  144       -3.466818   1.000000
  145       -3.420168   1.000000
  146       -3.409225   1.000000
  147       -3.395836   1.000000
  148       -3.371689   1.000000
  149       -3.348894   1.000000
  150       -3.337839   1.000000
  151       -3.312680   1.000000
  152       -3.288319   1.000000
  153       -3.266661   1.000000
  154       -3.241753   1.000000
  155       -3.225153   1.000000
  156       -3.216489   1.000000
  157       -3.184290   1.000000
  158       -3.165661   1.000000
  159       -3.145080   1.000000
  160       -3.113613   1.000000
  161       -3.099632   1.000000
  162       -3.076757   1.000000
  163       -3.063815   1.000000
  164       -3.044251   1.000000
  165       -3.017209   1.000000
  166       -3.001257   1.000000
  167       -2.987749   1.000000
  168       -2.939762   1.000000
  169       -2.918578   1.000000
  170       -2.905974   1.000000
  171       -2.886054   1.000000
  172       -2.862893   1.000000
  173       -2.855798   1.000000
  174       -2.838032   1.000000
  175       -2.819266   1.000000
  176       -2.795806   1.000000
  177       -2.779693   1.000000
  178       -2.756789   1.000000
  179       -2.735852   1.000000
  180       -2.726500   1.000000
  181       -2.691885   1.000000
  182       -2.670372   1.000000
  183       -2.653834   1.000000
  184       -2.623608   1.000000
  185       -2.607137   1.000000
  186       -2.580734   1.000000
  187       -2.542474   1.000000
  188       -2.531312   1.000000
  189       -2.510597   1.000000
  190       -2.484914   1.000000
  191       -2.447169   1.000000
  192       -2.433220   1.000000
  193       -2.418304   1.000000
  194       -2.392645   1.000000
  195       -2.356768   1.000000
  196       -2.339325   1.000000
  197       -2.319099   1.000000
  198       -2.299848   1.000000
  199       -2.277095   1.000000
  200       -2.267747   1.000000
  201       -2.240308   1.000000
  202       -2.207877   1.000000
  203       -2.204458   1.000000
  204       -2.175265   1.000000
  205       -2.142137   1.000000
  206       -2.135410   1.000000
  207       -2.109919   1.000000
  208       -2.079642   1.000000
  209       -2.068195   1.000000
  210       -2.051974   1.000000
  211       -2.031538   1.000000
  212       -2.004110   1.000000
  213       -1.991779   1.000000
  214       -1.975249   1.000000
  215       -1.951944   1.000000
  216       -1.938078   1.000000
  217       -1.931361   1.000000
  218       -1.892509   1.000000
  219       -1.864879   1.000000
  220       -1.822943   1.000000
  221       -1.801924   1.000000
  222       -1.797012   1.000000
  223       -1.780770   1.000000
  224       -1.746392   1.000000
  225       -1.727107   1.000000
  226       -1.678242   1.000000
  227       -1.637567   1.000000
  228       -1.617816   1.000000
  229       -1.604650   1.000000
  230       -1.591694   1.000000
  231       -1.570430   1.000000
  232       -1.538711   1.000000
  233       -1.529584   1.000000
  234       -1.516790   1.000000
  235       -1.474121   1.000000
  236       -1.460980   1.000000
  237       -1.427880   0.999998
  238       -1.414746   0.999995
  239       -1.385300   0.999969
  240       -1.376362   0.999947
  241       -1.365579   0.999902
  242       -1.344771   0.999697
  243       -1.336121   0.999528
  244       -1.323558   0.999124
  245       -1.288746   0.995818
  246       -1.260514   0.987381
  247       -1.244285   0.977690
  248       -1.220108   0.952175
  249       -1.190075   0.892804
  250       -1.162875   0.804254
  251       -1.144843   0.726379
  252       -1.136738   0.686970
  253       -1.117731   0.586476
  254       -1.053118   0.243441
  255       -1.034082   0.167400
  256       -0.461714   0.000000
  257       -0.422964   0.000000
  258       -0.213086   0.000000
  259       -0.171952   0.000000
  260       -0.087703   0.000000
  261        0.093064   0.000000
  262        0.172988   0.000000
  263        0.317221   0.000000
  264        0.367449   0.000000
  265        0.461453   0.000000
  266        0.579729   0.000000
  267        0.663784   0.000000
  268        0.703398   0.000000
  269        0.775915   0.000000
  270        0.951360   0.000000
  271        0.995697   0.000000
  272        1.111676   0.000000
  273        1.542568   0.000000
  274        1.602753   0.000000
  275        1.721708   0.000000
  276        1.808261   0.000000
  277        2.013599   0.000000
  278        2.123155   0.000000
  279        2.267677   0.000000
  280        2.396795   0.000000
  281        2.456948   0.000000
  282        2.599758   0.000000
  283        2.635556   0.000000
  284        2.712211   0.000000
  285        2.760942   0.000000
  286        2.827576   0.000000
  287        3.239314   0.000000
  288        3.376966   0.000000
  289        3.657609   0.000000
  290        3.690929   0.000000
  291        3.770287   0.000000
  292        3.849047   0.000000
  293        4.025392   0.000000
  294        4.265707   0.000000
  295        4.412546   0.000000
  296        4.615167   0.000000
  297        4.673896   0.000000
  298        4.706781   0.000000
  299        4.912690   0.000000
  300        4.978414   0.000000
  301        5.053279   0.000000
  302        5.134624   0.000000
  303        5.174602   0.000000
  304        5.196889   0.000000
  305        5.285810   0.000000
  306        5.347302   0.000000
 
  0.0000000E+00  0.2500000E+00  0.0000000E+00  0.1666667E+00
    1       -8.746021   1.000000
    2       -7.939716   1.000000
    3       -7.710915   1.000000
    4       -7.465413   1.000000
    5       -7.296985   1.000000
    6       -7.209686   1.000000
    7       -7.070118   1.000000
    8       -6.993674   1.000000
    9       -6.933044   1.000000
   10       -6.900176   1.000000
   11       -6.840086   1.000000
   12       -6.738739   1.000000
   13       -6.703398   1.000000
   14       -6.680920   1.000000
   15       -6.629530   1.000000
   16       -6.578898   1.000000
   17       -6.510728   1.000000
   18       -6.474351   1.000000
   19       -6.440173   1.000000
   20       -6.418564   1.000000
   21       -6.377887   1.000000
   22       -6.352719   1.000000
   23       -6.311220   1.000000
   24       -6.273148   1.000000
   25       -6.245241   1.000000
   26       -6.221023   1.000000
   27       -6.190771   1.000000
   28       -6.170818   1.000000
   29       -6.153858   1.000000
   30       -6.104409   1.000000
   31       -6.073342   1.000000
   32       -6.043081   1.000000
   33       -6.037400   1.000000
   34       -5.996605   1.000000
   35       -5.962836   1.000000
   36       -5.947195   1.000000
   37       -5.902395   1.000000
   38       -5.890710   1.000000
   39       -5.853854   1.000000
   40       -5.827606   1.000000
   41       -5.802667   1.000000
   42       -5.765514   1.000000
   43       -5.725304   1.000000
   44       -5.712995   1.000000
   45       -5.697261   1.000000
   46       -5.654349   1.000000
   47       -5.642388   1.000000
   48       -5.606899   1.000000
   49       -5.591576   1.000000
   50       -5.561479   1.000000
   51       -5.543127   1.000000
   52       -5.490650   1.000000
   53       -5.466569   1.000000
   54       -5.442135   1.000000
   55       -5.428884   1.000000
   56       -5.412857   1.000000
   57       -5.385770   1.000000
   58       -5.360536   1.000000
   59       -5.335927   1.000000
   60       -5.326660   1.000000
   61       -5.310842   1.000000
   62       -5.289778   1.000000
   63       -5.259761   1.000000
   64       -5.242421   1.000000
   65       -5.220330   1.000000
   66       -5.184918   1.000000
   67       -5.158242   1.000000
   68       -5.142305   1.000000
   69       -5.115083   1.000000
   70       -5.093960   1.000000
   71       -5.059832   1.000000
   72       -5.024750   1.000000
   73       -5.007776   1.000000
   74       -4.981183   1.000000
   75       -4.945747   1.000000
   76       -4.925929   1.000000
   77       -4.910261   1.000000
   78       -4.867003   1.000000
   79       -4.848749   1.000000
   80       -4.821936   1.000000
   81       -4.799971   1.000000
   82       -4.791534   1.000000
   83       -4.772978   1.000000
   84       -4.731834   1.000000
   85       -4.704823   1.000000
   86       -4.682137   1.000000
   87       -4.666601   1.000000
   88       -4.658070   1.000000
   89       -4.632136   1.000000
   90       -4.620316   1.000000
   91       -4.591037   1.000000
   92       -4.566753   1.000000
   93       -4.552904   1.000000
   94       -4.531262   1.000000
   95       -4.508090   1.000000
   96       -4.484141   1.000000
   97       -4.461738   1.000000
   98       -4.431471   1.000000
   99       -4.420925   1.000000
  100       -4.406590   1.000000
  101       -4.378590   1.000000
  102       -4.350370   1.000000
  103       -4.342995   1.000000
  104       -4.324202   1.000000
  105       -4.300602   1.000000
  106       -4.272045   1.000000
  107       -4.210621   1.000000
  108       -4.201121   1.000000
  109       -4.182410   1.000000
  110       -4.162842   1.000000
  111       -4.128574   1.000000
  112       -4.110427   1.000000
  113       -4.095303   1.000000
  114       -4.065889   1.000000
  115       -4.037281   1.000000
  116       -4.020037   1.000000
  117       -3.995035   1.000000
  118       -3.967504   1.000000
  119       -3.946352   1.000000
  120       -3.930641   1.000000
  121       -3.918696   1.000000
  122       -3.890795   1.000000
  123       -3.865759   1.000000
  124       -3.845560   1.000000
  125       -3.827541   1.000000
  126       -3.807480   1.000000
  127       -3.787374   1.000000
  128       -3.757074   1.000000
  129       -3.747962   1.000000
  130       -3.706455   1.000000
  131       -3.701404   1.000000
  132       -3.684273   1.000000
  133       -3.652831   1.000000
  134       -3.638334   1.000000
  135       -3.627172   1.000000
  136       -3.610574   1.000000
  137       -3.590177   1.000000
  138       -3.568602   1.000000
  139       -3.549504   1.000000
  140       -3.530857   1.000000
  141       -3.514038   1.000000
  142       -3.496215   1.000000
  143       -3.482905   1.000000
  144       -3.451908   1.000000
  145       -3.443122   1.000000
  146       -3.416411   1.000000
  147       -3.405221   1.000000
  148       -3.388623   1.000000
  149       -3.366341   1.000000
  150       -3.338439   1.000000
  151       -3.315682   1.000000
  152       -3.299484   1.000000
  153       -3.282670   1.000000
  154       -3.259854   1.000000
  155       -3.230846   1.000000
  156       -3.212730   1.000000
  157       -3.193658   1.000000
  158       -3.165357   1.000000
  159       -3.154767   1.000000
  160       -3.136929   1.000000
  161       -3.116652   1.000000
  162       -3.078141   1.000000
  163       -3.067162   1.000000
  164       -3.038970   1.000000
  165       -3.017844   1.000000
  166       -3.007985   1.000000
  167       -2.980190   1.000000
  168       -2.954090   1.000000
  169       -2.947137   1.000000
  170       -2.932145   1.000000
  171       -2.905725   1.000000
  172       -2.886803   1.000000
  173       -2.868690   1.000000
  174       -2.836647   1.000000
  175       -2.803072   1.000000
  176       -2.790095   1.000000
  177       -2.762171   1.000000
  178       -2.745876   1.000000
  179       -2.715273   1.000000
  180       -2.707951   1.000000
  181       -2.678720   1.000000
  182       -2.660813   1.000000
  183       -2.640361   1.000000
  184       -2.620541   1.000000
  185       -2.610618   1.000000
  186       -2.583708   1.000000
  187       -2.563535   1.000000
  188       -2.549878   1.000000
  189       -2.514479   1.000000
  190       -2.492134   1.000000
  191       -2.461206   1.000000
  192       -2.440009   1.000000
  193       -2.412509   1.000000
  194       -2.388675   1.000000
  195       -2.372797   1.000000
  196       -2.367217   1.000000
  197       -2.346646   1.000000
  198       -2.305965   1.000000
  199       -2.270324   1.000000
  200       -2.256468   1.000000
  201       -2.241152   1.000000
  202       -2.223304   1.000000
  203       -2.209113   1.000000
  204       -2.200787   1.000000
  205       -2.145234   1.000000
  206       -2.121808   1.000000
  207       -2.085215   1.000000
  208       -2.076216   1.000000
  209       -2.062143   1.000000
  210       -2.032162   1.000000
  211       -2.022184   1.000000
  212       -2.002995   1.000000
  213       -1.991244   1.000000
  214       -1.964039   1.000000
  215       -1.943304   1.000000
  216       -1.935480   1.000000
  217       -1.903615   1.000000
  218       -1.889009   1.000000
  219       -1.865567   1.000000
  220       -1.838850   1.000000
  221       -1.801289   1.000000
  222       -1.777848   1.000000
  223       -1.760017   1.000000
  224       -1.727835   1.000000
  225       -1.708799   1.000000
  226       -1.677197   1.000000
  227       -1.645705   1.000000
  228       -1.632392   1.000000
  229       -1.621443   1.000000
  230       -1.584921   1.000000
  231       -1.573104   1.000000
  232       -1.559869   1.000000
  233       -1.531237   1.000000
  234       -1.491631   1.000000
  235       -1.474998   1.000000
  236       -1.465202   1.000000
  237       -1.433254   0.999999
  238       -1.425727   0.999998
  239       -1.403479   0.999990
  240       -1.382265   0.999962
  241       -1.365855   0.999903
  242       -1.353083   0.999805
  243       -1.334177   0.999480
  244       -1.309812   0.998332
  245       -1.282960   0.994693
  246       -1.263248   0.988589
  247       -1.237623   0.972191
  248       -1.220367   0.952537
  249       -1.203044   0.922920
  250       -1.158210   0.785511
  251       -1.148755   0.744484
  252       -1.119900   0.598383
  253       -1.105707   0.519319
  254       -1.088861   0.424734
  255       -1.019586   0.121102
  256       -0.510208   0.000000
  257       -0.401911   0.000000
  258       -0.197288   0.000000
  259       -0.137995   0.000000
  260       -0.040204   0.000000
  261        0.084916   0.000000
  262        0.174097   0.000000
  263        0.252946   0.000000
  264        0.373395   0.000000
  265        0.474937   0.000000
  266        0.571991   0.000000
  267        0.682746   0.000000
  268        0.711822   0.000000
  269        0.751626   0.000000
  270        0.939799   0.000000
  271        1.030939   0.000000
  272        1.151957   0.000000
  273        1.527265   0.000000
  274        1.585851   0.000000
  275        1.685597   0.000000
  276        1.773727   0.000000
  277        1.986593   0.000000
  278        2.194467   0.000000
  279        2.293480   0.000000
  280        2.324417   0.000000
  281        2.387458   0.000000
  282        2.640881   0.000000
  283        2.667313   0.000000
  284        2.744985   0.000000
  285        2.770147   0.000000
  286        2.812950   0.000000
  287        3.277459   0.000000
  288        3.318092   0.000000
  289        3.656306   0.000000
  290        3.737986   0.000000
  291        3.784289   0.000000
  292        3.826684   0.000000
  293        4.022445   0.000000
  294        4.263911   0.000000
  295        4.412138   0.000000
  296        4.573974   0.000000
  297        4.643091   0.000000
  298        4.736704   0.000000
  299        4.895600   0.000000
  300        5.009214   0.000000
  301        5.076398   0.000000
  302        5.120766   0.000000
  303        5.176813   0.000000
  304        5.263371   0.000000
  305        5.280195   0.000000
  306        5.332974   0.000000
 
 -0.2500000E+00  0.2775558E-16  0.0000000E+00  0.1666667E+00
    1       -8.762258   1.000000
    2       -7.863136   1.000000
    3       -7.671327   1.000000
    4       -7.576383   1.000000
    5       -7.323257   1.000000
    6       -7.267797   1.000000
    7       -7.023842   1.000000
    8       -6.967762   1.000000
    9       -6.925940   1.000000
   10       -6.859405   1.000000
   11       -6.814427   1.000000
   12       -6.753348   1.000000
   13       -6.711053   1.000000
   14       -6.696987   1.000000
   15       -6.638824   1.000000
   16       -6.556535   1.000000
   17       -6.522378   1.000000
   18       -6.502645   1.000000
   19       -6.433753   1.000000
   20       -6.420161   1.000000
   21       -6.360555   1.000000
   22       -6.339511   1.000000
   23       -6.313400   1.000000
   24       -6.272793   1.000000
   25       -6.261845   1.000000
   26       -6.198440   1.000000
   27       -6.189532   1.000000
   28       -6.164745   1.000000
   29       -6.133172   1.000000
   30       -6.108859   1.000000
   31       -6.080558   1.000000
   32       -6.012094   1.000000
   33       -5.997327   1.000000
   34       -5.974870   1.000000
   35       -5.953217   1.000000
   36       -5.926074   1.000000
   37       -5.890011   1.000000
   38       -5.885504   1.000000
   39       -5.847143   1.000000
   40       -5.829967   1.000000
   41       -5.803330   1.000000
   42       -5.797135   1.000000
   43       -5.747269   1.000000
   44       -5.718371   1.000000
   45       -5.697062   1.000000
   46       -5.670873   1.000000
   47       -5.649969   1.000000
   48       -5.630998   1.000000
   49       -5.598089   1.000000
   50       -5.562549   1.000000
   51       -5.548616   1.000000
   52       -5.517808   1.000000
   53       -5.505099   1.000000
   54       -5.480682   1.000000
   55       -5.468388   1.000000
   56       -5.462971   1.000000
   57       -5.411388   1.000000
   58       -5.400365   1.000000
   59       -5.376608   1.000000
   60       -5.344212   1.000000
   61       -5.328244   1.000000
   62       -5.282202   1.000000
   63       -5.260146   1.000000
   64       -5.216625   1.000000
   65       -5.211553   1.000000
   66       -5.178742   1.000000
   67       -5.150538   1.000000
   68       -5.129179   1.000000
   69       -5.096532   1.000000
   70       -5.079978   1.000000
   71       -5.041751   1.000000
   72       -5.007171   1.000000
   73       -4.997314   1.000000
   74       -4.952163   1.000000
   75       -4.936388   1.000000
   76       -4.916451   1.000000
   77       -4.895224   1.000000
   78       -4.864573   1.000000
   79       -4.855688   1.000000
   80       -4.816638   1.000000
   81       -4.810554   1.000000
   82       -4.782302   1.000000
   83       -4.761269   1.000000
   84       -4.740461   1.000000
   85       -4.725682   1.000000
   86       -4.688172   1.000000
   87       -4.674772   1.000000
   88       -4.646483   1.000000
   89       -4.633785   1.000000
   90       -4.606283   1.000000
   91       -4.574308   1.000000
   92       -4.569626   1.000000
   93       -4.542136   1.000000
   94       -4.509067   1.000000
   95       -4.482838   1.000000
   96       -4.472674   1.000000
   97       -4.443957   1.000000
   98       -4.420425   1.000000
   99       -4.404062   1.000000
  100       -4.370528   1.000000
  101       -4.362560   1.000000
  102       -4.341906   1.000000
  103       -4.312125   1.000000
  104       -4.295820   1.000000
  105       -4.256483   1.000000
  106       -4.246553   1.000000
  107       -4.227444   1.000000
  108       -4.204564   1.000000
  109       -4.186524   1.000000
  110       -4.161225   1.000000
  111       -4.146171   1.000000
  112       -4.128053   1.000000
  113       -4.109344   1.000000
  114       -4.068925   1.000000
  115       -4.055963   1.000000
  116       -4.034062   1.000000
  117       -4.014337   1.000000
  118       -3.986574   1.000000
  119       -3.972516   1.000000
  120       -3.947852   1.000000
  121       -3.915227   1.000000
  122       -3.897928   1.000000
  123       -3.876611   1.000000
  124       -3.847160   1.000000
  125       -3.837332   1.000000
  126       -3.807785   1.000000
  127       -3.796853   1.000000
  128       -3.778510   1.000000
  129       -3.768006   1.000000
  130       -3.755146   1.000000
  131       -3.734788   1.000000
  132       -3.702997   1.000000
  133       -3.668549   1.000000
  134       -3.646168   1.000000
  135       -3.622572   1.000000
  136       -3.605697   1.000000
  137       -3.597445   1.000000
  138       -3.568740   1.000000
  139       -3.552101   1.000000
  140       -3.522729   1.000000
  141       -3.512427   1.000000
  142       -3.503330   1.000000
  143       -3.487169   1.000000
  144       -3.461879   1.000000
  145       -3.439801   1.000000
  146       -3.424918   1.000000
  147       -3.397539   1.000000
  148       -3.372740   1.000000
  149       -3.359563   1.000000
  150       -3.335802   1.000000
  151       -3.322379   1.000000
  152       -3.307424   1.000000
  153       -3.271400   1.000000
  154       -3.256120   1.000000
  155       -3.239914   1.000000
  156       -3.193334   1.000000
  157       -3.176086   1.000000
  158       -3.158499   1.000000
  159       -3.142361   1.000000
  160       -3.127332   1.000000
  161       -3.102145   1.000000
  162       -3.091693   1.000000
  163       -3.070621   1.000000
  164       -3.042254   1.000000
  165       -3.030049   1.000000
  166       -3.005742   1.000000
  167       -2.982241   1.000000
  168       -2.943190   1.000000
  169       -2.928538   1.000000
  170       -2.901024   1.000000
  171       -2.880879   1.000000
  172       -2.857729   1.000000
  173       -2.847993   1.000000
  174       -2.815439   1.000000
  175       -2.810800   1.000000
  176       -2.782833   1.000000
  177       -2.771855   1.000000
  178       -2.758031   1.000000
  179       -2.720695   1.000000
  180       -2.702744   1.000000
  181       -2.690161   1.000000
  182       -2.665691   1.000000
  183       -2.646933   1.000000
  184       -2.624110   1.000000
  185       -2.610175   1.000000
  186       -2.589904   1.000000
  187       -2.569672   1.000000
  188       -2.542492   1.000000
  189       -2.507552   1.000000
  190       -2.495598   1.000000
  191       -2.453550   1.000000
  192       -2.427587   1.000000
  193       -2.418749   1.000000
  194       -2.386217   1.000000
  195       -2.367974   1.000000
  196       -2.342188   1.000000
  197       -2.328512   1.000000
  198       -2.290810   1.000000
  199       -2.272596   1.000000
  200       -2.257616   1.000000
  201       -2.228727   1.000000
  202       -2.212354   1.000000
  203       -2.191057   1.000000
  204       -2.182117   1.000000
  205       -2.151500   1.000000
  206       -2.128239   1.000000
  207       -2.105855   1.000000
  208       -2.091086   1.000000
  209       -2.070390   1.000000
  210       -2.052603   1.000000
  211       -2.025530   1.000000
  212       -2.014795   1.000000
  213       -1.998117   1.000000
  214       -1.973539   1.000000
  215       -1.960434   1.000000
  216       -1.935144   1.000000
  217       -1.919795   1.000000
  218       -1.906204   1.000000
  219       -1.872895   1.000000
  220       -1.853886   1.000000
  221       -1.819764   1.000000
  222       -1.785021   1.000000
  223       -1.768143   1.000000
  224       -1.735812   1.000000
  225       -1.716919   1.000000
  226       -1.693110   1.000000
  227       -1.638665   1.000000
  228       -1.631502   1.000000
  229       -1.601424   1.000000
  230       -1.587511   1.000000
  231       -1.559921   1.000000
  232       -1.528773   1.000000
  233       -1.507584   1.000000
  234       -1.484549   1.000000
  235       -1.470011   1.000000
  236       -1.441169   0.999999
  237       -1.421095   0.999997
  238       -1.412815   0.999994
  239       -1.405595   0.999991
  240       -1.374692   0.999942
  241       -1.368780   0.999918
  242       -1.347036   0.999731
  243       -1.339154   0.999596
  244       -1.316971   0.998802
  245       -1.300455   0.997465
  246       -1.281652   0.994405
  247       -1.255594   0.984927
  248       -1.234283   0.969034
  249       -1.209014   0.934405
  250       -1.193019   0.900292
  251       -1.158585   0.787055
  252       -1.104171   0.510656
  253       -1.079204   0.372071
  254       -1.058385   0.267367
  255       -1.005678   0.085941
  256       -0.426514   0.000000
  257       -0.387742   0.000000
  258       -0.207043   0.000000
  259       -0.161731   0.000000
  260       -0.127272   0.000000
  261       -0.033506   0.000000
  262        0.178108   0.000000
  263        0.302901   0.000000
  264        0.416075   0.000000
  265        0.518020   0.000000
  266        0.558536   0.000000
  267        0.647598   0.000000
  268        0.690465   0.000000
  269        0.801910   0.000000
  270        0.900215   0.000000
  271        1.014167   0.000000
  272        1.096467   0.000000
  273        1.484052   0.000000
  274        1.544760   0.000000
  275        1.754265   0.000000
  276        1.866447   0.000000
  277        2.025713   0.000000
  278        2.246072   0.000000
  279        2.282891   0.000000
  280        2.389096   0.000000
  281        2.525353   0.000000
  282        2.558677   0.000000
  283        2.628817   0.000000
  284        2.669106   0.000000
  285        2.703012   0.000000