<?xml version="1.0" encoding="ISO-8859-1"?>
<modeling>
 <generator>
  <i name="program" type="string">vasp </i>
  <i name="version" type="string">5.4.1  </i>
  <i name="subversion" type="string">24Jun15 (build Mar 14 2019 10:18:33) complex                          parallel </i>
  <i name="platform" type="string">INTEL-19.0.2+OPENMPI-3.1.3 </i>
  <i name="date" type="string">2023 01 30 </i>
  <i name="time" type="string">23:53:27 </i>
 </generator>
 <incar>
  <i type="int" name="ISTART">     0</i>
  <i type="string" name="PREC">normal</i>
  <i type="string" name="ALGO"> Fast</i>
  <i type="int" name="NELM">   500</i>
  <i type="int" name="IBRION">     2</i>
  <i type="int" name="NFREE">     2</i>
  <i name="EDIFF">      0.00000100</i>
  <i name="EDIFFG">     -0.02000000</i>
  <i type="int" name="NSW">   500</i>
  <i type="int" name="ISIF">     0</i>
  <i type="int" name="ISYM">     2</i>
  <i name="ENCUT">    400.00000000</i>
  <i name="POTIM">      0.35000000</i>
  <i type="string" name="LREAL"> Auto</i>
  <i type="logical" name="LPLANE"> T  </i>
  <i type="int" name="ISMEAR">     0</i>
  <i name="SIGMA">      0.10000000</i>
  <i type="int" name="NWRITE">     1</i>
  <i type="logical" name="LWAVE"> F  </i>
  <i type="logical" name="LCHARG"> F  </i>
  <i type="logical" name="LVTOT"> F  </i>
  <i type="logical" name="LORBIT"> F  </i>
  <i type="logical" name="LAECHG"> F  </i>
  <v type="int" name="KPOINT_BSE">    -1     0     0     0</v>
  <i type="int" name="NELM">   500</i>
  <i type="string" name="GGA"> PE          ! optPBE-vdW XC-functional</i>
  <i type="int" name="VOSKOWN">     1</i>
  <i type="logical" name="LDIPOL"> T  </i>
  <i type="logical" name="LMONO"> F  </i>
  <i type="int" name="IDIPOL">     3</i>
  <v name="DIPOL">      0.00000000      0.00000000      0.50000000</v>
 </incar>
 <kpoints>
  <generation param="Monkhorst-Pack">
   <v type="int" name="divisions">       2        2        1 </v>
   <v name="usershift">      0.00000000       0.00000000       0.00000000 </v>
   <v name="genvec1">      0.50000000      -0.00000000       0.00000000 </v>
   <v name="genvec2">      0.00000000       0.50000000       0.00000000 </v>
   <v name="genvec3">      0.00000000       0.00000000       1.00000000 </v>
   <v name="shift">      0.50000000       0.50000000       0.00000000 </v>
  </generation>
  <varray name="kpointlist" >
   <v>       0.25000000       0.25000000       0.00000000 </v>
   <v>       0.00000000       0.25000000       0.00000000 </v>
   <v>      -0.25000000       0.00000000       0.00000000 </v>
   <v>      -0.25000000       0.25000000       0.00000000 </v>
   <v>       0.50000000      -0.25000000       0.00000000 </v>
   <v>      -0.25000000       0.50000000       0.00000000 </v>
  </varray>
  <varray name="weights" >
   <v>       0.16666667 </v>
   <v>       0.16666667 </v>
   <v>       0.16666667 </v>
   <v>       0.16666667 </v>
   <v>       0.16666667 </v>
   <v>       0.16666667 </v>
  </varray>
 </kpoints>
 <parameters>
  <separator name="general" >
   <i type="string" name="SYSTEM">unknown system</i>
   <i type="logical" name="LCOMPAT"> F  </i>
  </separator>
  <separator name="electronic" >
   <i type="string" name="PREC">normal</i>
   <i name="ENMAX">    400.00000000</i>
   <i name="ENAUG">    416.23000000</i>
   <i name="EDIFF">      0.00000100</i>
   <i type="int" name="IALGO">    68</i>
   <i type="int" name="IWAVPR">    11</i>
   <i type="int" name="NBANDS">   306</i>
   <i name="NELECT">    504.00000000</i>
   <i type="int" name="TURBO">     0</i>
   <i type="int" name="IRESTART">     0</i>
   <i type="int" name="NREBOOT">     0</i>
   <i type="int" name="NMIN">     0</i>
   <i name="EREF">      0.00000000</i>
   <separator name="electronic smearing" >
    <i type="int" name="ISMEAR">     0</i>
    <i name="SIGMA">      0.10000000</i>
    <i name="KSPACING">      0.50000000</i>
    <i type="logical" name="KGAMMA"> T  </i>
   </separator>
   <separator name="electronic projectors" >
    <i type="logical" name="LREAL"> T  </i>
    <v name="ROPT">     -0.00050000     -0.00050000</v>
    <i type="int" name="LMAXPAW">  -100</i>
    <i type="int" name="LMAXMIX">     2</i>
    <i type="logical" name="NLSPLINE"> F  </i>
   </separator>
   <separator name="electronic startup" >
    <i type="int" name="ISTART">     0</i>
    <i type="int" name="ICHARG">     2</i>
    <i type="int" name="INIWAV">     1</i>
   </separator>
   <separator name="electronic spin" >
    <i type="int" name="ISPIN">     1</i>
    <i type="logical" name="LNONCOLLINEAR"> F  </i>
    <v name="MAGMOM">      1.00000000      1.00000000      1.00000000      1.00000000      1.00000000      1.00000000      1.00000000      1.00000000      1.00000000      1.00000000      1.00000000      1.00000000      1.00000000      1.00000000      1.00000000      1.00000000      1.00000000      1.00000000      1.00000000      1.00000000
      1.00000000      1.00000000      1.00000000      1.00000000      1.00000000      1.00000000      1.00000000      1.00000000      1.00000000      1.00000000      1.00000000      1.00000000      1.00000000      1.00000000      1.00000000      1.00000000      1.00000000      1.00000000      1.00000000      1.00000000
      1.00000000      1.00000000      1.00000000      1.00000000      1.00000000      1.00000000      1.00000000      1.00000000</v>
    <i name="NUPDOWN">     -1.00000000</i>
    <i type="logical" name="LSORBIT"> F  </i>
    <v name="SAXIS">      0.00000000      0.00000000      1.00000000</v>
    <i type="logical" name="LSPIRAL"> F  </i>
    <v name="QSPIRAL">      0.00000000      0.00000000      0.00000000</v>
    <i type="logical" name="LZEROZ"> F  </i>
   </separator>
   <separator name="electronic exchange-correlation" >
    <i type="logical" name="LASPH"> F  </i>
    <i type="logical" name="LMETAGGA"> F  </i>
   </separator>
   <separator name="electronic convergence" >
    <i type="int" name="NELM">   500</i>
    <i type="int" name="NELMDL">    -5</i>
    <i type="int" name="NELMIN">     2</i>
    <i name="ENINI">    400.00000000</i>
    <separator name="electronic convergence detail" >
     <i type="logical" name="LDIAG"> T  </i>
     <i type="logical" name="LSUBROT"> F  </i>
     <i name="WEIMIN">      0.00100000</i>
     <i name="EBREAK">      0.00000000</i>
     <i name="DEPER">      0.30000000</i>
     <i type="int" name="NRMM">     4</i>
     <i name="TIME">      0.40000000</i>
    </separator>
   </separator>
   <separator name="electronic mixer" >
    <i name="AMIX">      0.40000000</i>
    <i name="BMIX">      1.00000000</i>
    <i name="AMIN">      0.10000000</i>
    <i name="AMIX_MAG">      1.60000000</i>
    <i name="BMIX_MAG">      1.00000000</i>
    <separator name="electronic mixer details" >
     <i type="int" name="IMIX">     4</i>
     <i type="logical" name="MIXFIRST"> F  </i>
     <i type="int" name="MAXMIX">   -45</i>
     <i name="WC">    100.00000000</i>
     <i type="int" name="INIMIX">     1</i>
     <i type="int" name="MIXPRE">     1</i>
     <i type="int" name="MREMOVE">     5</i>
    </separator>
   </separator>
   <separator name="electronic dipolcorrection" >
    <i type="logical" name="LDIPOL"> T  </i>
    <i type="logical" name="LMONO"> F  </i>
    <i type="int" name="IDIPOL">     3</i>
    <i name="EPSILON">      1.00000000</i>
    <v name="DIPOL">      0.00000000      0.00000000      0.50000000</v>
    <i name="EFIELD">      0.00000000</i>
   </separator>
  </separator>
  <separator name="grids" >
   <i type="int" name="NGX">    54</i>
   <i type="int" name="NGY">    54</i>
   <i type="int" name="NGZ">   120</i>
   <i type="int" name="NGXF">   108</i>
   <i type="int" name="NGYF">   108</i>
   <i type="int" name="NGZF">   240</i>
   <i type="logical" name="ADDGRID"> F  </i>
  </separator>
  <separator name="ionic" >
   <i type="int" name="NSW">   500</i>
   <i type="int" name="IBRION">     2</i>
   <i type="int" name="ISIF">     0</i>
   <i name="PSTRESS">      0.00000000</i>
   <i name="EDIFFG">     -0.02000000</i>
   <i type="int" name="NFREE">     2</i>
   <i name="POTIM">      0.35000000</i>
   <i name="SMASS">     -3.00000000</i>
   <i name="SCALEE">      1.00000000</i>
  </separator>
  <separator name="ionic md" >
   <i name="TEBEG">      0.00010000</i>
   <i name="TEEND">      0.00010000</i>
   <i type="int" name="NBLOCK">     1</i>
   <i type="int" name="KBLOCK">   500</i>
   <i type="int" name="NPACO">   256</i>
   <i name="APACO">     16.00000000</i>
  </separator>
  <separator name="symmetry" >
   <i type="int" name="ISYM">     2</i>
   <i name="SYMPREC">      0.00001000</i>
  </separator>
  <separator name="dos" >
   <i type="logical" name="LORBIT"> F  </i>
   <v name="RWIGS">     -1.00000000     -1.00000000</v>
   <i type="int" name="NEDOS">   301</i>
   <i name="EMIN">     10.00000000</i>
   <i name="EMAX">    -10.00000000</i>
   <i name="EFERMI">      0.00000000</i>
  </separator>
  <separator name="writing" >
   <i type="int" name="NWRITE">     1</i>
   <i type="logical" name="LWAVE"> F  </i>
   <i type="logical" name="LCHARG"> F  </i>
   <i type="logical" name="LPARD"> F  </i>
   <i type="logical" name="LVTOT"> F  </i>
   <i type="logical" name="LVHAR"> F  </i>
   <i type="logical" name="LELF"> F  </i>
   <i type="logical" name="LOPTICS"> F  </i>
   <v name="STM">      0.00000000      0.00000000      0.00000000      0.00000000      0.00000000      0.00000000      0.00000000</v>
  </separator>
  <separator name="performance" >
   <i type="int" name="NPAR">     6</i>
   <i type="int" name="NSIM">     4</i>
   <i type="int" name="NBLK">    -1</i>
   <i type="logical" name="LPLANE"> T  </i>
   <i type="logical" name="LSCALAPACK"> T  </i>
   <i type="logical" name="LSCAAWARE"> F  </i>
   <i type="logical" name="LSCALU"> F  </i>
   <i type="logical" name="LASYNC"> F  </i>
   <i type="logical" name="LORBITALREAL"> F  </i>
  </separator>
  <separator name="miscellaneous" >
   <i type="int" name="IDIOT">     3</i>
   <i type="logical" name="LMUSIC"> F  </i>
   <v name="POMASS">    196.96600000    106.42000000</v>
   <v name="DARWINR">      0.00000000      0.00000000</v>
   <v name="DARWINV">      1.00000000      1.00000000</v>
   <i type="logical" name="LCORR"> T  </i>
  </separator>
  <i type="logical" name="GGA_COMPAT"> T  </i>
  <i type="logical" name="LBERRY"> F  </i>
  <i type="int" name="ICORELEVEL">     0</i>
  <i type="logical" name="LDAU"> F  </i>
  <i type="int" name="I_CONSTRAINED_M">     0</i>
  <separator name="electronic exchange-correlation" >
   <i type="string" name="GGA">PE</i>
   <i type="int" name="VOSKOWN">     1</i>
   <i type="logical" name="LHFCALC"> F  </i>
   <i type="string" name="PRECFOCK"></i>
   <i type="logical" name="LSYMGRAD"> F  </i>
   <i type="logical" name="LHFONE"> F  </i>
   <i type="logical" name="LRHFCALC"> F  </i>
   <i type="logical" name="LTHOMAS"> F  </i>
   <i type="logical" name="LMODELHF"> F  </i>
   <i name="ENCUT4O">     -1.00000000</i>
   <i type="int" name="EXXOEP">     0</i>
   <i type="int" name="FOURORBIT">     0</i>
   <i name="AEXX">      0.00000000</i>
   <i name="HFALPHA">      0.00000000</i>
   <i name="MCALPHA">      0.00000000</i>
   <i name="ALDAX">      1.00000000</i>
   <i name="AGGAX">      1.00000000</i>
   <i name="ALDAC">      1.00000000</i>
   <i name="AGGAC">      1.00000000</i>
   <i type="int" name="NKREDX">     1</i>
   <i type="int" name="NKREDY">     1</i>
   <i type="int" name="NKREDZ">     1</i>
   <i type="logical" name="SHIFTRED"> F  </i>
   <i type="logical" name="ODDONLY"> F  </i>
   <i type="logical" name="EVENONLY"> F  </i>
   <i type="int" name="LMAXFOCK">     0</i>
   <i type="int" name="NMAXFOCKAE">     0</i>
   <i type="logical" name="LFOCKAEDFT"> F  </i>
   <i name="HFSCREEN">      0.00000000</i>
   <i name="HFSCREENC">      0.00000000</i>
   <i type="int" name="NBANDSGWLOW">     0</i>
  </separator>
  <separator name="vdW DFT" >
   <i type="logical" name="LUSE_VDW"> F  </i>
   <i name="Zab_VDW">     -0.84910000</i>
   <i name="PARAM1">      0.12340000</i>
   <i name="PARAM2">      1.00000000</i>
   <i name="PARAM3">      0.00000000</i>
  </separator>
  <separator name="model GW" >
   <i type="int" name="MODEL_GW">     0</i>
   <i name="MODEL_EPS0">     32.09595293</i>
   <i name="MODEL_ALPHA">      1.00000000</i>
  </separator>
  <separator name="linear response parameters" >
   <i type="logical" name="LEPSILON"> F  </i>
   <i type="logical" name="LRPA"> F  </i>
   <i type="logical" name="LNABLA"> F  </i>
   <i type="logical" name="LVEL"> F  </i>
   <i type="int" name="KINTER">     0</i>
   <i name="CSHIFT">      0.10000000</i>
   <i name="OMEGAMAX">     -1.00000000</i>
   <i name="DEG_THRESHOLD">      0.00200000</i>
  </separator>
  <separator name="orbital magnetization" >
   <i type="logical" name="NUCIND"> F  </i>
   <v name="MAGPOS">      0.00000000      0.00000000      0.00000000</v>
   <i type="logical" name="LNICSALL"> T  </i>
   <i type="logical" name="ORBITALMAG"> F  </i>
   <i type="logical" name="LMAGBLOCH"> F  </i>
   <i type="logical" name="LCHIMAG"> F  </i>
   <i type="logical" name="LGAUGE"> T  </i>
   <i type="int" name="MAGATOM">     0</i>
   <v name="MAGDIPOL">      0.00000000      0.00000000      0.00000000</v>
   <v name="AVECCONST">      0.00000000      0.00000000      0.00000000</v>
  </separator>
  <separator name="response functions" >
   <i type="logical" name="LADDER"> F  </i>
   <i type="logical" name="LFXC"> F  </i>
   <i type="logical" name="LHARTREE"> T  </i>
   <i type="int" name="IBSE">     0</i>
   <v type="int" name="KPOINT">    -1     0     0     0</v>
   <i type="logical" name="LTCTE"> F  </i>
   <i type="logical" name="LTETE"> F  </i>
   <i type="logical" name="LTRIPLET"> F  </i>
   <i type="logical" name="LFXCEPS"> F  </i>
   <i type="logical" name="LFXHEG"> F  </i>
   <i type="int" name="NATURALO">     0</i>
   <i type="logical" name="L2ORDER"> F  </i>
   <i type="logical" name="LUSEW"> F  </i>
   <i name="ENCUTGW">     -2.00000000</i>
   <i name="ENCUTGWSOFT">     -2.00000000</i>
   <i name="ENCUTLF">     -1.00000000</i>
   <i type="int" name="LMAXMP2">    -1</i>
   <i name="SCISSOR">      0.00000000</i>
   <i type="int" name="NOMEGA">     0</i>
   <i type="int" name="NOMEGAR">     0</i>
   <i type="int" name="NBANDSGW">    -1</i>
   <i type="int" name="NBANDSO">    -1</i>
   <i type="int" name="NBANDSV">    -1</i>
   <i type="int" name="NELM">   500</i>
   <i type="int" name="NELMHF">     1</i>
   <i type="int" name="DIM">     3</i>
   <i type="int" name="ANTIRES">     0</i>
   <i name="OMEGAMAX">    -30.00000000</i>
   <i name="OMEGAMIN">    -30.00000000</i>
   <i name="OMEGATL">   -200.00000000</i>
   <i type="int" name="OMEGAGRID">     0</i>
   <i name="CSHIFT">     -0.10000000</i>
   <i type="logical" name="SELFENERGY"> F  </i>
   <i type="logical" name="LSPECTRAL"> F  </i>
   <i type="logical" name="LSPECTRALGW"> F  </i>
   <i type="logical" name="LSINGLES"> F  </i>
   <i type="logical" name="LFERMIGW"> F  </i>
   <i type="logical" name="ODDONLYGW"> F  </i>
   <i type="logical" name="EVENONLYGW"> F  </i>
   <i type="int" name="NKREDLFX">     1</i>
   <i type="int" name="NKREDLFY">     1</i>
   <i type="int" name="NKREDLFZ">     1</i>
   <i type="int" name="MAXMEM">  1800</i>
   <i type="int" name="TELESCOPE">     0</i>
   <i type="int" name="TAUPAR">     1</i>
   <i type="int" name="OMEGAPAR">    -1</i>
   <i name="LAMBDA">      1.00000000</i>
  </separator>
  <separator name="External order field" >
   <i name="OFIELD_KAPPA">      0.00000000</i>
   <v name="OFIELD_K">      0.00000000      0.00000000      0.00000000</v>
   <i name="OFIELD_Q6_NEAR">      0.00000000</i>
   <i name="OFIELD_Q6_FAR">      0.00000000</i>
   <i name="OFIELD_A">      0.00000000</i>
  </separator>
 </parameters>
 <atominfo>
  <atoms>      48 </atoms>
  <types>       2 </types>
  <array name="atoms" >
   <dimension dim="1">ion</dimension>
   <field type="string">element</field>
   <field type="int">atomtype</field>
   <set>
    <rc><c>Au</c><c>   1</c></rc>
    <rc><c>Au</c><c>   1</c></rc>
    <rc><c>Au</c><c>   1</c></rc>
    <rc><c>Au</c><c>   1</c></rc>
    <rc><c>Au</c><c>   1</c></rc>
    <rc><c>Au</c><c>   1</c></rc>
    <rc><c>Au</c><c>   1</c></rc>
    <rc><c>Au</c><c>   1</c></rc>
    <rc><c>Au</c><c>   1</c></rc>
    <rc><c>Au</c><c>   1</c></rc>
    <rc><c>Au</c><c>   1</c></rc>
    <rc><c>Au</c><c>   1</c></rc>
    <rc><c>Au</c><c>   1</c></rc>
    <rc><c>Au</c><c>   1</c></rc>
    <rc><c>Au</c><c>   1</c></rc>
    <rc><c>Au</c><c>   1</c></rc>
    <rc><c>Au</c><c>   1</c></rc>
    <rc><c>Au</c><c>   1</c></rc>
    <rc><c>Au</c><c>   1</c></rc>
    <rc><c>Au</c><c>   1</c></rc>
    <rc><c>Au</c><c>   1</c></rc>
    <rc><c>Au</c><c>   1</c></rc>
    <rc><c>Au</c><c>   1</c></rc>
    <rc><c>Au</c><c>   1</c></rc>
    <rc><c>Pd</c><c>   2</c></rc>
    <rc><c>Pd</c><c>   2</c></rc>
    <rc><c>Pd</c><c>   2</c></rc>
    <rc><c>Pd</c><c>   2</c></rc>
    <rc><c>Pd</c><c>   2</c></rc>
    <rc><c>Pd</c><c>   2</c></rc>
    <rc><c>Pd</c><c>   2</c></rc>
    <rc><c>Pd</c><c>   2</c></rc>
    <rc><c>Pd</c><c>   2</c></rc>
    <rc><c>Pd</c><c>   2</c></rc>
    <rc><c>Pd</c><c>   2</c></rc>
    <rc><c>Pd</c><c>   2</c></rc>
    <rc><c>Pd</c><c>   2</c></rc>
    <rc><c>Pd</c><c>   2</c></rc>
    <rc><c>Pd</c><c>   2</c></rc>
    <rc><c>Pd</c><c>   2</c></rc>
    <rc><c>Pd</c><c>   2</c></rc>
    <rc><c>Pd</c><c>   2</c></rc>
    <rc><c>Pd</c><c>   2</c></rc>
    <rc><c>Pd</c><c>   2</c></rc>
    <rc><c>Pd</c><c>   2</c></rc>
    <rc><c>Pd</c><c>   2</c></rc>
    <rc><c>Pd</c><c>   2</c></rc>
    <rc><c>Pd</c><c>   2</c></rc>
   </set>
  </array>
  <array name="atomtypes" >
   <dimension dim="1">type</dimension>
   <field type="int">atomspertype</field>
   <field type="string">element</field>
   <field>mass</field>
   <field>valence</field>
   <field type="string">pseudopotential</field>
   <set>
    <rc><c>  24</c><c>Au</c><c>    196.96600000</c><c>     11.00000000</c><c>  PAW_PBE Au 04Oct2007                  </c></rc>
    <rc><c>  24</c><c>Pd</c><c>    106.42000000</c><c>     10.00000000</c><c>  PAW_PBE Pd 04Jan2005                  </c></rc>
   </set>
  </array>
 </atominfo>
 <structure name="initialpos" >
  <crystal>
   <varray name="basis" >
    <v>      11.00258152       0.00000000       0.00000000 </v>
    <v>       5.50129076       9.52851510       0.00000000 </v>
    <v>       0.00000000       0.00000000      24.49178509 </v>
   </varray>
   <i name="volume">   2567.67623402 </i>
   <varray name="rec_basis" >
    <v>       0.09088776      -0.05247407       0.00000000 </v>
    <v>       0.00000000       0.10494815       0.00000000 </v>
    <v>       0.00000000       0.00000000       0.04083002 </v>
   </varray>
  </crystal>
  <varray name="positions" >
   <v>       0.16666667       0.41666667       0.50000000 </v>
   <v>       0.25000000       0.00000000       0.59169983 </v>
   <v>       0.00000000       0.50000000       0.59169983 </v>
   <v>       0.75000000       0.50000000       0.59169983 </v>
   <v>       0.00000000       0.00000000       0.59169983 </v>
   <v>       0.91666667       0.91666667       0.50000000 </v>
   <v>       0.83333333       0.33333333       0.40830017 </v>
   <v>       0.75000000       0.00000000       0.59169983 </v>
   <v>       0.16666667       0.16666667       0.50000000 </v>
   <v>       0.50000000       0.50000000       0.59169983 </v>
   <v>       0.33333333       0.33333333       0.40830017 </v>
   <v>       0.41666667       0.66666667       0.50000000 </v>
   <v>       0.08333333       0.58333333       0.40830017 </v>
   <v>       0.33333333       0.58333333       0.40830017 </v>
   <v>       0.33333333       0.83333333       0.40830017 </v>
   <v>       0.50000000       0.75000000       0.59169983 </v>
   <v>       0.66666667       0.91666667       0.50000000 </v>
   <v>       0.58333333       0.08333333       0.40830017 </v>
   <v>       0.41666667       0.16666667       0.50000000 </v>
   <v>       0.50000000       0.00000000       0.59169983 </v>
   <v>       0.41666667       0.41666667       0.50000000 </v>
   <v>       0.50000000       0.25000000       0.59169983 </v>
   <v>       0.58333333       0.83333333       0.40830017 </v>
   <v>       0.25000000       0.25000000       0.59169983 </v>
   <v>       0.16666667       0.66666667       0.50000000 </v>
   <v>       0.33333333       0.08333333       0.40830017 </v>
   <v>       0.00000000       0.75000000       0.59169983 </v>
   <v>       0.08333333       0.83333333       0.40830017 </v>
   <v>       0.91666667       0.16666667       0.50000000 </v>
   <v>       0.00000000       0.25000000       0.59169983 </v>
   <v>       0.91666667       0.41666667       0.50000000 </v>
   <v>       0.08333333       0.33333333       0.40830017 </v>
   <v>       0.25000000       0.50000000       0.59169983 </v>
   <v>       0.91666667       0.66666667       0.50000000 </v>
   <v>       0.16666667       0.91666667       0.50000000 </v>
   <v>       0.66666667       0.16666667       0.50000000 </v>
   <v>       0.25000000       0.75000000       0.59169983 </v>
   <v>       0.08333333       0.08333333       0.40830017 </v>
   <v>       0.66666667       0.66666667       0.50000000 </v>
   <v>       0.83333333       0.08333333       0.40830017 </v>
   <v>       0.66666667       0.41666667       0.50000000 </v>
   <v>       0.83333333       0.58333333       0.40830017 </v>
   <v>       0.75000000       0.25000000       0.59169983 </v>
   <v>       0.41666667       0.91666667       0.50000000 </v>
   <v>       0.83333333       0.83333333       0.40830017 </v>
   <v>       0.58333333       0.58333333       0.40830017 </v>
   <v>       0.58333333       0.33333333       0.40830017 </v>
   <v>       0.75000000       0.75000000       0.59169983 </v>
  </varray>
  <varray name="selective"  type="logical" >
   <v type="logical" >  T  T  T </v>
   <v type="logical" >  T  T  T </v>
   <v type="logical" >  T  T  T </v>
   <v type="logical" >  T  T  T </v>
   <v type="logical" >  T  T  T </v>
   <v type="logical" >  T  T  T </v>
   <v type="logical" >  F  F  F </v>
   <v type="logical" >  T  T  T </v>
   <v type="logical" >  T  T  T </v>
   <v type="logical" >  T  T  T </v>
   <v type="logical" >  F  F  F </v>
   <v type="logical" >  T  T  T </v>
   <v type="logical" >  F  F  F </v>
   <v type="logical" >  F  F  F </v>
   <v type="logical" >  F  F  F </v>
   <v type="logical" >  T  T  T </v>
   <v type="logical" >  T  T  T </v>
   <v type="logical" >  F  F  F </v>
   <v type="logical" >  T  T  T </v>
   <v type="logical" >  T  T  T </v>
   <v type="logical" >  T  T  T </v>
   <v type="logical" >  T  T  T </v>
   <v type="logical" >  F  F  F </v>
   <v type="logical" >  T  T  T </v>
   <v type="logical" >  T  T  T </v>
   <v type="logical" >  F  F  F </v>
   <v type="logical" >  T  T  T </v>
   <v type="logical" >  F  F  F </v>
   <v type="logical" >  T  T  T </v>
   <v type="logical" >  T  T  T </v>
   <v type="logical" >  T  T  T </v>
   <v type="logical" >  F  F  F </v>
   <v type="logical" >  T  T  T </v>
   <v type="logical" >  T  T  T </v>
   <v type="logical" >  T  T  T </v>
   <v type="logical" >  T  T  T </v>
   <v type="logical" >  T  T  T </v>
   <v type="logical" >  F  F  F </v>
   <v type="logical" >  T  T  T </v>
   <v type="logical" >  F  F  F </v>
   <v type="logical" >  T  T  T </v>
   <v type="logical" >  F  F  F </v>
   <v type="logical" >  T  T  T </v>
   <v type="logical" >  T  T  T </v>
   <v type="logical" >  F  F  F </v>
   <v type="logical" >  F  F  F </v>
   <v type="logical" >  F  F  F </v>
   <v type="logical" >  T  T  T </v>
  </varray>
  <nose>
   <v>      -3.00000000       0.00000000       0.00010000       0.00010000 </v>
  </nose>
 </structure>
 <calculation>
  <scstep>
   <time name="dav">    6.77    6.79</time>
   <time name="total">    6.82    6.85</time>
   <dipole>
    <v name="dipole">      0.00000000       0.00000000      -0.00000222 </v>
    <i name="Tr[quadrupol]"> -10356.34531039 </i>
    <i name="Echarged">      0.00000000 </i>
    <i name="Edipol_quadrupol">      0.00000000 </i>
    <i name="Eion">      0.00000000 </i>
   </dipole>
   <energy>
    <i name="alphaZ">    805.86936534 </i>
    <i name="ewald"> 199933.81903201 </i>
    <i name="hartreedc">-242347.22359898 </i>
    <i name="XCdc">   -327.69296608 </i>
    <i name="pawpsdc">  40340.05962942 </i>
    <i name="pawaedc"> -38292.62782345 </i>
    <i name="eentropy">     -0.11890300 </i>
    <i name="bandstr">   1428.05013996 </i>
    <i name="atom">  41659.78587232 </i>
    <i name="e_fr_energy">   3199.92074755 </i>
    <i name="e_wo_entrp">   3200.03965054 </i>
    <i name="e_0_energy">   3199.98019904 </i>
   </energy>
  </scstep>
  <scstep>
   <time name="dav">    8.16    8.18</time>
   <time name="total">    8.17    8.19</time>
   <dipole>
    <v name="dipole">      0.00000000       0.00000000      -0.00000222 </v>
    <i name="Tr[quadrupol]"> -10356.34531039 </i>
    <i name="Echarged">      0.00000000 </i>
    <i name="Edipol_quadrupol">      0.00000000 </i>
    <i name="Eion">      0.00000000 </i>
   </dipole>
   <energy>
    <i name="e_fr_energy">     14.55999452 </i>
    <i name="e_wo_entrp">     14.69006520 </i>
    <i name="e_0_energy">     14.62502986 </i>
   </energy>
  </scstep>
  <scstep>
   <time name="dav">    7.83    7.85</time>
   <time name="total">    7.83    7.85</time>
   <dipole>
    <v name="dipole">      0.00000000       0.00000000      -0.00000222 </v>
    <i name="Tr[quadrupol]"> -10356.34531039 </i>
    <i name="Echarged">      0.00000000 </i>
    <i name="Edipol_quadrupol">      0.00000000 </i>
    <i name="Eion">      0.00000000 </i>
   </dipole>
   <energy>
    <i name="e_fr_energy">   -201.27804375 </i>
    <i name="e_wo_entrp">   -201.08736842 </i>
    <i name="e_0_energy">   -201.18270609 </i>
   </energy>
  </scstep>
  <scstep>
   <time name="dav">    7.91    8.01</time>
   <time name="total">    7.91    8.01</time>
   <dipole>
    <v name="dipole">      0.00000000       0.00000000      -0.00000222 </v>
    <i name="Tr[quadrupol]"> -10356.34531039 </i>
    <i name="Echarged">      0.00000000 </i>
    <i name="Edipol_quadrupol">      0.00000000 </i>
    <i name="Eion">      0.00000000 </i>
   </dipole>
   <energy>
    <i name="e_fr_energy">   -207.05940549 </i>
    <i name="e_wo_entrp">   -206.86257465 </i>
    <i name="e_0_energy">   -206.96099007 </i>
   </energy>
  </scstep>
  <scstep>
   <time name="dav">    8.22    8.24</time>
   <time name="total">    8.46    8.49</time>
   <dipole>
    <v name="dipole">      0.00000000       0.00000000      -0.00000222 </v>
    <i name="Tr[quadrupol]"> -10356.34531039 </i>
    <i name="Echarged">      0.00000000 </i>
    <i name="Edipol_quadrupol">      0.00000000 </i>
    <i name="Eion">      0.00000000 </i>
   </dipole>
   <energy>
    <i name="e_fr_energy">   -207.25368347 </i>
    <i name="e_wo_entrp">   -207.05683593 </i>
    <i name="e_0_energy">   -207.15525970 </i>
   </energy>
  </scstep>
  <scstep>
   <time name="diag">    1.21    1.21</time>
   <time name="diis">    3.37    3.38</time>
   <time name="orth">    0.29    0.29</time>
   <time name="total">    5.16    5.18</time>
   <dipole>
    <v name="dipole">      0.00000000       0.00000000      -1.01134124 </v>
    <i name="Tr[quadrupol]"> -10358.41333226 </i>
    <i name="Echarged">      0.00000000 </i>
    <i name="Edipol_quadrupol">      0.00000000 </i>
    <i name="Eion">      0.00000000 </i>
   </dipole>
   <energy>
    <i name="e_fr_energy">   -205.23216085 </i>
    <i name="e_wo_entrp">   -204.97449380 </i>
    <i name="e_0_energy">   -205.10332733 </i>
   </energy>
  </scstep>
  <scstep>
   <time name="diag">    1.22    1.22</time>
   <time name="diis">    3.33    3.34</time>
   <time name="orth">    0.29    0.29</time>
   <time name="total">    5.13    5.14</time>
   <dipole>
    <v name="dipole">      0.00000000       0.00000000       1.28407485 </v>
    <i name="Tr[quadrupol]"> -10356.52290577 </i>
    <i name="Echarged">      0.00000000 </i>
    <i name="Edipol_quadrupol">      0.00000000 </i>
    <i name="Eion">      0.00000000 </i>
   </dipole>
   <energy>
    <i name="e_fr_energy">   -213.79349020 </i>
    <i name="e_wo_entrp">   -213.56561662 </i>
    <i name="e_0_energy">   -213.67955341 </i>
   </energy>
  </scstep>
  <scstep>
   <time name="diag">    1.23    1.24</time>
   <time name="diis">    3.35    3.36</time>
   <time name="orth">    0.29    0.29</time>
   <time name="total">    5.16    5.18</time>
   <dipole>
    <v name="dipole">      0.00000000       0.00000000      -1.64079552 </v>
    <i name="Tr[quadrupol]"> -10357.56566894 </i>
    <i name="Echarged">      0.00000000 </i>
    <i name="Edipol_quadrupol">      0.00000000 </i>
    <i name="Eion">      0.00000000 </i>
   </dipole>
   <energy>
    <i name="e_fr_energy">   -221.16091474 </i>
    <i name="e_wo_entrp">   -220.91836924 </i>
    <i name="e_0_energy">   -221.03964199 </i>
   </energy>
  </scstep>
  <scstep>
   <time name="diag">    1.20    1.21</time>
   <time name="diis">    3.38    3.39</time>
   <time name="orth">    0.29    0.29</time>
   <time name="total">    5.16    5.18</time>
   <dipole>
    <v name="dipole">      0.00000000       0.00000000       0.31804470 </v>
    <i name="Tr[quadrupol]"> -10358.99686919 </i>
    <i name="Echarged">      0.00000000 </i>
    <i name="Edipol_quadrupol">      0.00000000 </i>
    <i name="Eion">      0.00000000 </i>
   </dipole>
   <energy>
    <i name="e_fr_energy">   -215.64785643 </i>
    <i name="e_wo_entrp">   -215.43640739 </i>
    <i name="e_0_energy">   -215.54213191 </i>
   </energy>
  </scstep>
  <scstep>
   <time name="diag">    1.21    1.21</time>
   <time name="diis">    3.42    3.43</time>
   <time name="orth">    0.29    0.29</time>
   <time name="total">    5.20    5.21</time>
   <dipole>
    <v name="dipole">      0.00000000       0.00000000      -0.52702706 </v>
    <i name="Tr[quadrupol]"> -10357.68789257 </i>
    <i name="Echarged">      0.00000000 </i>
    <i name="Edipol_quadrupol">      0.00000000 </i>
    <i name="Eion">      0.00000000 </i>
   </dipole>
   <energy>
    <i name="e_fr_energy">   -201.53709856 </i>
    <i name="e_wo_entrp">   -201.34723593 </i>
    <i name="e_0_energy">   -201.44216725 </i>
   </energy>
  </scstep>
  <scstep>
   <time name="diag">    1.21    1.21</time>
   <time name="diis">    3.29    3.39</time>
   <time name="orth">    0.29    0.29</time>
   <time name="total">    5.07    5.17</time>
   <dipole>
    <v name="dipole">      0.00000000       0.00000000      -0.12303003 </v>
    <i name="Tr[quadrupol]"> -10359.04829137 </i>
    <i name="Echarged">      0.00000000 </i>
    <i name="Edipol_quadrupol">      0.00000000 </i>
    <i name="Eion">      0.00000000 </i>
   </dipole>
   <energy>
    <i name="e_fr_energy">   -195.31461822 </i>
    <i name="e_wo_entrp">   -195.10876837 </i>
    <i name="e_0_energy">   -195.21169330 </i>
   </energy>
  </scstep>
  <scstep>
   <time name="diag">    1.21    1.22</time>
   <time name="diis">    3.35    3.36</time>
   <time name="orth">    0.29    0.29</time>
   <time name="total">    5.13    5.16</time>
   <dipole>
    <v name="dipole">      0.00000000       0.00000000      -0.17478236 </v>
    <i name="Tr[quadrupol]"> -10358.75773452 </i>
    <i name="Echarged">      0.00000000 </i>
    <i name="Edipol_quadrupol">      0.00000000 </i>
    <i name="Eion">      0.00000000 </i>
   </dipole>
   <energy>
    <i name="e_fr_energy">   -190.99647175 </i>
    <i name="e_wo_entrp">   -190.79513400 </i>
    <i name="e_0_energy">   -190.89580287 </i>
   </energy>
  </scstep>
  <scstep>
   <time name="diag">    1.21    1.21</time>
   <time name="diis">    3.31    3.32</time>
   <time name="orth">    0.28    0.29</time>
   <time name="total">    5.09    5.11</time>
   <dipole>
    <v name="dipole">      0.00000000       0.00000000      -0.16155606 </v>
    <i name="Tr[quadrupol]"> -10359.08195732 </i>
    <i name="Echarged">      0.00000000 </i>
    <i name="Edipol_quadrupol">      0.00000000 </i>
    <i name="Eion">      0.00000000 </i>
   </dipole>
   <energy>
    <i name="e_fr_energy">   -189.71387021 </i>
    <i name="e_wo_entrp">   -189.45952486 </i>
    <i name="e_0_energy">   -189.58669754 </i>
   </energy>
  </scstep>
  <scstep>
   <time name="diag">    1.23    1.24</time>
   <time name="diis">    3.40    3.41</time>
   <time name="orth">    0.29    0.29</time>
   <time name="total">    5.21    5.23</time>
   <dipole>
    <v name="dipole">      0.00000000       0.00000000      -0.10367912 </v>
    <i name="Tr[quadrupol]"> -10359.32381809 </i>
    <i name="Echarged">      0.00000000 </i>
    <i name="Edipol_quadrupol">      0.00000000 </i>
    <i name="Eion">      0.00000000 </i>
   </dipole>
   <energy>
    <i name="e_fr_energy">   -189.39769067 </i>
    <i name="e_wo_entrp">   -189.13307056 </i>
    <i name="e_0_energy">   -189.26538061 </i>
   </energy>
  </scstep>
  <scstep>
   <time name="diag">    1.22    1.22</time>
   <time name="diis">    3.31    3.32</time>
   <time name="orth">    0.28    0.28</time>
   <time name="total">    5.09    5.12</time>
   <dipole>
    <v name="dipole">      0.00000000       0.00000000      -0.07150219 </v>
    <i name="Tr[quadrupol]"> -10359.50302949 </i>
    <i name="Echarged">      0.00000000 </i>
    <i name="Edipol_quadrupol">      0.00000000 </i>
    <i name="Eion">      0.00000000 </i>
   </dipole>
   <energy>
    <i name="e_fr_energy">   -189.44068768 </i>
    <i name="e_wo_entrp">   -189.18557715 </i>
    <i name="e_0_energy">   -189.31313241 </i>
   </energy>
  </scstep>
  <scstep>
   <time name="diag">    1.20    1.21</time>
   <time name="diis">    3.40    3.41</time>
   <time name="orth">    0.28    0.28</time>
   <time name="total">    5.17    5.19</time>
   <dipole>
    <v name="dipole">      0.00000000       0.00000000      -0.06132278 </v>
    <i name="Tr[quadrupol]"> -10359.88087895 </i>
    <i name="Echarged">      0.00000000 </i>
    <i name="Edipol_quadrupol">      0.00000000 </i>
    <i name="Eion">      0.00000000 </i>
   </dipole>
   <energy>
    <i name="e_fr_energy">   -189.41714941 </i>
    <i name="e_wo_entrp">   -189.16339440 </i>
    <i name="e_0_energy">   -189.29027190 </i>
   </energy>
  </scstep>
  <scstep>
   <time name="diag">    1.20    1.20</time>
   <time name="diis">    3.38    3.39</time>
   <time name="orth">    0.28    0.28</time>
   <time name="total">    5.15    5.16</time>
   <dipole>
    <v name="dipole">      0.00000000       0.00000000      -0.07300054 </v>
    <i name="Tr[quadrupol]"> -10360.08872896 </i>
    <i name="Echarged">      0.00000000 </i>
    <i name="Edipol_quadrupol">      0.00000000 </i>
    <i name="Eion">      0.00000000 </i>
   </dipole>
   <energy>
    <i name="e_fr_energy">   -189.17188438 </i>
    <i name="e_wo_entrp">   -188.91018217 </i>
    <i name="e_0_energy">   -189.04103327 </i>
   </energy>
  </scstep>
  <scstep>
   <time name="diag">    1.21    1.21</time>
   <time name="diis">    3.40    3.41</time>
   <time name="orth">    0.28    0.28</time>
   <time name="total">    5.17    5.19</time>
   <dipole>
    <v name="dipole">      0.00000000       0.00000000      -0.08402415 </v>
    <i name="Tr[quadrupol]"> -10360.38418427 </i>
    <i name="Echarged">      0.00000000 </i>
    <i name="Edipol_quadrupol">      0.00000000 </i>
    <i name="Eion">      0.00000000 </i>
   </dipole>
   <energy>
    <i name="e_fr_energy">   -189.02452943 </i>
    <i name="e_wo_entrp">   -188.75866624 </i>
    <i name="e_0_energy">   -188.89159784 </i>
   </energy>
  </scstep>
  <scstep>
   <time name="diag">    1.20    1.24</time>
   <time name="diis">    3.33    3.38</time>
   <time name="orth">    0.28    0.28</time>
   <time name="total">    5.09    5.20</time>
   <dipole>
    <v name="dipole">      0.00000000       0.00000000      -0.07192350 </v>
    <i name="Tr[quadrupol]"> -10360.53298046 </i>
    <i name="Echarged">      0.00000000 </i>
    <i name="Edipol_quadrupol">      0.00000000 </i>
    <i name="Eion">      0.00000000 </i>
   </dipole>
   <energy>
    <i name="e_fr_energy">   -188.96523040 </i>
    <i name="e_wo_entrp">   -188.68823008 </i>
    <i name="e_0_energy">   -188.82673024 </i>
   </energy>
  </scstep>
  <scstep>
   <time name="diag">    1.20    1.21</time>
   <time name="diis">    3.36    3.37</time>
   <time name="orth">    0.28    0.28</time>
   <time name="total">    5.13    5.14</time>
   <dipole>
    <v name="dipole">      0.00000000       0.00000000      -0.05300479 </v>
    <i name="Tr[quadrupol]"> -10360.61561437 </i>
    <i name="Echarged">      0.00000000 </i>
    <i name="Edipol_quadrupol">      0.00000000 </i>
    <i name="Eion">      0.00000000 </i>
   </dipole>
   <energy>
    <i name="e_fr_energy">   -188.95371434 </i>
    <i name="e_wo_entrp">   -188.67617490 </i>
    <i name="e_0_energy">   -188.81494462 </i>
   </energy>
  </scstep>
  <scstep>
   <time name="diag">    1.20    1.20</time>
   <time name="diis">    3.37    3.38</time>
   <time name="orth">    0.28    0.28</time>
   <time name="total">    5.14    5.15</time>
   <dipole>
    <v name="dipole">      0.00000000       0.00000000      -0.04797531 </v>
    <i name="Tr[quadrupol]"> -10360.67967792 </i>
    <i name="Echarged">      0.00000000 </i>
    <i name="Edipol_quadrupol">      0.00000000 </i>
    <i name="Eion">      0.00000000 </i>
   </dipole>
   <energy>
    <i name="e_fr_energy">   -188.94968806 </i>
    <i name="e_wo_entrp">   -188.67094247 </i>
    <i name="e_0_energy">   -188.81031526 </i>
   </energy>
  </scstep>
  <scstep>
   <time name="diag">    1.20    1.20</time>
   <time name="diis">    3.35    3.36</time>
   <time name="orth">    0.28    0.28</time>
   <time name="total">    5.11    5.13</time>
   <dipole>
    <v name="dipole">      0.00000000       0.00000000      -0.04633432 </v>
    <i name="Tr[quadrupol]"> -10360.75960078 </i>
    <i name="Echarged">      0.00000000 </i>
    <i name="Edipol_quadrupol">      0.00000000 </i>
    <i name="Eion">      0.00000000 </i>
   </dipole>
   <energy>
    <i name="e_fr_energy">   -188.94821217 </i>
    <i name="e_wo_entrp">   -188.67003082 </i>
    <i name="e_0_energy">   -188.80912150 </i>
   </energy>
  </scstep>
  <scstep>
   <time name="diag">    1.20    1.20</time>
   <time name="diis">    3.37    3.38</time>
   <time name="orth">    0.28    0.28</time>
   <time name="total">    5.14    5.16</time>
   <dipole>
    <v name="dipole">      0.00000000       0.00000000      -0.04576401 </v>
    <i name="Tr[quadrupol]"> -10360.90907157 </i>
    <i name="Echarged">      0.00000000 </i>
    <i name="Edipol_quadrupol">      0.00000000 </i>
    <i name="Eion">      0.00000000 </i>
   </dipole>
   <energy>
    <i name="e_fr_energy">   -188.94612499 </i>
    <i name="e_wo_entrp">   -188.66784195 </i>
    <i name="e_0_energy">   -188.80698347 </i>
   </energy>
  </scstep>
  <scstep>
   <time name="diag">    1.20    1.21</time>
   <time name="diis">    3.32    3.34</time>
   <time name="orth">    0.28    0.28</time>
   <time name="total">    5.08    5.11</time>
   <dipole>
    <v name="dipole">      0.00000000       0.00000000      -0.04250868 </v>
    <i name="Tr[quadrupol]"> -10361.06395216 </i>
    <i name="Echarged">      0.00000000 </i>
    <i name="Edipol_quadrupol">      0.00000000 </i>
    <i name="Eion">      0.00000000 </i>
   </dipole>
   <energy>
    <i name="e_fr_energy">   -188.94490305 </i>
    <i name="e_wo_entrp">   -188.66588284 </i>
    <i name="e_0_energy">   -188.80539294 </i>
   </energy>
  </scstep>
  <scstep>
   <time name="diag">    1.20    1.20</time>
   <time name="diis">    3.36    3.37</time>
   <time name="orth">    0.27    0.28</time>
   <time name="total">    5.12    5.14</time>
   <dipole>
    <v name="dipole">      0.00000000       0.00000000      -0.03948918 </v>
    <i name="Tr[quadrupol]"> -10361.11851629 </i>
    <i name="Echarged">      0.00000000 </i>
    <i name="Edipol_quadrupol">      0.00000000 </i>
    <i name="Eion">      0.00000000 </i>
   </dipole>
   <energy>
    <i name="e_fr_energy">   -188.94448007 </i>
    <i name="e_wo_entrp">   -188.66447555 </i>
    <i name="e_0_energy">   -188.80447781 </i>
   </energy>
  </scstep>
  <scstep>
   <time name="diag">    1.20    1.20</time>
   <time name="diis">    3.37    3.38</time>
   <time name="orth">    0.28    0.29</time>
   <time name="total">    5.14    5.19</time>
   <dipole>
    <v name="dipole">      0.00000000       0.00000000      -0.03495367 </v>
    <i name="Tr[quadrupol]"> -10361.19664003 </i>
    <i name="Echarged">      0.00000000 </i>
    <i name="Edipol_quadrupol">      0.00000000 </i>
    <i name="Eion">      0.00000000 </i>
   </dipole>
   <energy>
    <i name="e_fr_energy">   -188.94473818 </i>
    <i name="e_wo_entrp">   -188.66452640 </i>
    <i name="e_0_energy">   -188.80463229 </i>
   </energy>
  </scstep>
  <scstep>
   <time name="diag">    1.20    1.24</time>
   <time name="diis">    3.40    3.40</time>
   <time name="orth">    0.28    0.28</time>
   <time name="total">    5.16    5.21</time>
   <dipole>
    <v name="dipole">      0.00000000       0.00000000      -0.03219775 </v>
    <i name="Tr[quadrupol]"> -10361.26782411 </i>
    <i name="Echarged">      0.00000000 </i>
    <i name="Edipol_quadrupol">      0.00000000 </i>
    <i name="Eion">      0.00000000 </i>
   </dipole>
   <energy>
    <i name="e_fr_energy">   -188.94495769 </i>
    <i name="e_wo_entrp">   -188.66459590 </i>
    <i name="e_0_energy">   -188.80477679 </i>
   </energy>
  </scstep>
  <scstep>
   <time name="diag">    1.20    1.21</time>
   <time name="diis">    3.37    3.38</time>
   <time name="orth">    0.28    0.28</time>
   <time name="total">    5.13    5.15</time>
   <dipole>
    <v name="dipole">      0.00000000       0.00000000      -0.03008101 </v>
    <i name="Tr[quadrupol]"> -10361.32602551 </i>
    <i name="Echarged">      0.00000000 </i>
    <i name="Edipol_quadrupol">      0.00000000 </i>
    <i name="Eion">      0.00000000 </i>
   </dipole>
   <energy>
    <i name="e_fr_energy">   -188.94530275 </i>
    <i name="e_wo_entrp">   -188.66495039 </i>
    <i name="e_0_energy">   -188.80512657 </i>
   </energy>
  </scstep>
  <scstep>
   <time name="diag">    1.20    1.20</time>
   <time name="diis">    3.38    3.39</time>
   <time name="orth">    0.28    0.28</time>
   <time name="total">    5.15    5.16</time>
   <dipole>
    <v name="dipole">      0.00000000       0.00000000      -0.02775083 </v>
    <i name="Tr[quadrupol]"> -10361.39208080 </i>
    <i name="Echarged">      0.00000000 </i>
    <i name="Edipol_quadrupol">      0.00000000 </i>
    <i name="Eion">      0.00000000 </i>
   </dipole>
   <energy>
    <i name="e_fr_energy">   -188.94577995 </i>
    <i name="e_wo_entrp">   -188.66572725 </i>
    <i name="e_0_energy">   -188.80575360 </i>
   </energy>
  </scstep>
  <scstep>
   <time name="diag">    1.20    1.20</time>
   <time name="diis">    3.34    3.35</time>
   <time name="orth">    0.28    0.28</time>
   <time name="total">    5.10    5.12</time>
   <dipole>
    <v name="dipole">      0.00000000       0.00000000      -0.02469159 </v>
    <i name="Tr[quadrupol]"> -10361.46122635 </i>
    <i name="Echarged">      0.00000000 </i>
    <i name="Edipol_quadrupol">      0.00000000 </i>
    <i name="Eion">      0.00000000 </i>
   </dipole>
   <energy>
    <i name="e_fr_energy">   -188.94641634 </i>
    <i name="e_wo_entrp">   -188.66630659 </i>
    <i name="e_0_energy">   -188.80636146 </i>
   </energy>
  </scstep>
  <scstep>
   <time name="diag">    1.20    1.21</time>
   <time name="diis">    3.27    3.29</time>
   <time name="orth">    0.27    0.28</time>
   <time name="total">    5.04    5.07</time>
   <dipole>
    <v name="dipole">      0.00000000       0.00000000      -0.02223887 </v>
    <i name="Tr[quadrupol]"> -10361.50790312 </i>
    <i name="Echarged">      0.00000000 </i>
    <i name="Edipol_quadrupol">      0.00000000 </i>
    <i name="Eion">      0.00000000 </i>
   </dipole>
   <energy>
    <i name="e_fr_energy">   -188.94689939 </i>
    <i name="e_wo_entrp">   -188.66673815 </i>
    <i name="e_0_energy">   -188.80681877 </i>
   </energy>
  </scstep>
  <scstep>
   <time name="diag">    1.20    1.21</time>
   <time name="diis">    3.34    3.35</time>
   <time name="orth">    0.28    0.28</time>
   <time name="total">    5.10    5.13</time>
   <dipole>
    <v name="dipole">      0.00000000       0.00000000      -0.01858526 </v>
    <i name="Tr[quadrupol]"> -10361.57722746 </i>
    <i name="Echarged">      0.00000000 </i>
    <i name="Edipol_quadrupol">      0.00000000 </i>
    <i name="Eion">      0.00000000 </i>
   </dipole>
   <energy>
    <i name="e_fr_energy">   -188.94754825 </i>
    <i name="e_wo_entrp">   -188.66743940 </i>
    <i name="e_0_energy">   -188.80749383 </i>
   </energy>
  </scstep>
  <scstep>
   <time name="diag">    1.20    1.20</time>
   <time name="diis">    2.61    2.62</time>
   <time name="orth">    0.27    0.28</time>
   <time name="total">    4.38    4.39</time>
   <dipole>
    <v name="dipole">      0.00000000       0.00000000      -0.01773722 </v>
    <i name="Tr[quadrupol]"> -10361.59160953 </i>
    <i name="Echarged">      0.00000000 </i>
    <i name="Edipol_quadrupol">      0.00000000 </i>
    <i name="Eion">      0.00000000 </i>
   </dipole>
   <energy>
    <i name="e_fr_energy">   -188.94767346 </i>
    <i name="e_wo_entrp">   -188.66753887 </i>
    <i name="e_0_energy">   -188.80760616 </i>
   </energy>
  </scstep>
  <scstep>
   <time name="diag">    1.20    1.20</time>
   <time name="diis">    2.50    2.51</time>
   <time name="orth">    0.27    0.28</time>
   <time name="total">    4.27    4.28</time>
   <dipole>
    <v name="dipole">      0.00000000       0.00000000      -0.01637205 </v>
    <i name="Tr[quadrupol]"> -10361.61186679 </i>
    <i name="Echarged">      0.00000000 </i>
    <i name="Edipol_quadrupol">      0.00000000 </i>
    <i name="Eion">      0.00000000 </i>
   </dipole>
   <energy>
    <i name="e_fr_energy">   -188.94786101 </i>
    <i name="e_wo_entrp">   -188.66776065 </i>
    <i name="e_0_energy">   -188.80781083 </i>
   </energy>
  </scstep>
  <scstep>
   <time name="diag">    1.19    1.27</time>
   <time name="diis">    2.20    2.21</time>
   <time name="orth">    0.28    0.28</time>
   <time name="total">    3.96    4.05</time>
   <dipole>
    <v name="dipole">      0.00000000       0.00000000      -0.01561432 </v>
    <i name="Tr[quadrupol]"> -10361.62005341 </i>
    <i name="Echarged">      0.00000000 </i>
    <i name="Edipol_quadrupol">      0.00000000 </i>
    <i name="Eion">      0.00000000 </i>
   </dipole>
   <energy>
    <i name="e_fr_energy">   -188.94793763 </i>
    <i name="e_wo_entrp">   -188.66784248 </i>
    <i name="e_0_energy">   -188.80789006 </i>
   </energy>
  </scstep>
  <scstep>
   <time name="diag">    1.20    1.20</time>
   <time name="diis">    2.09    2.09</time>
   <time name="orth">    0.27    0.28</time>
   <time name="total">    3.85    3.87</time>
   <dipole>
    <v name="dipole">      0.00000000       0.00000000      -0.01487973 </v>
    <i name="Tr[quadrupol]"> -10361.62652757 </i>
    <i name="Echarged">      0.00000000 </i>
    <i name="Edipol_quadrupol">      0.00000000 </i>
    <i name="Eion">      0.00000000 </i>
   </dipole>
   <energy>
    <i name="e_fr_energy">   -188.94799437 </i>
    <i name="e_wo_entrp">   -188.66788489 </i>
    <i name="e_0_energy">   -188.80793963 </i>
   </energy>
  </scstep>
  <scstep>
   <time name="diag">    1.20    1.21</time>
   <time name="diis">    2.08    2.08</time>
   <time name="orth">    0.27    0.27</time>
   <time name="total">    3.85    3.86</time>
   <dipole>
    <v name="dipole">      0.00000000       0.00000000      -0.01423654 </v>
    <i name="Tr[quadrupol]"> -10361.63183634 </i>
    <i name="Echarged">      0.00000000 </i>
    <i name="Edipol_quadrupol">      0.00000000 </i>
    <i name="Eion">      0.00000000 </i>
   </dipole>
   <energy>
    <i name="e_fr_energy">   -188.94803473 </i>
    <i name="e_wo_entrp">   -188.66791833 </i>
    <i name="e_0_energy">   -188.80797653 </i>
   </energy>
  </scstep>
  <scstep>
   <time name="diag">    1.20    1.21</time>
   <time name="diis">    2.04    2.04</time>
   <time name="orth">    0.27    0.28</time>
   <time name="total">    3.80    3.82</time>
   <dipole>
    <v name="dipole">      0.00000000       0.00000000      -0.01378305 </v>
    <i name="Tr[quadrupol]"> -10361.63553981 </i>
    <i name="Echarged">      0.00000000 </i>
    <i name="Edipol_quadrupol">      0.00000000 </i>
    <i name="Eion">      0.00000000 </i>
   </dipole>
   <energy>
    <i name="e_fr_energy">   -188.94805463 </i>
    <i name="e_wo_entrp">   -188.66794626 </i>
    <i name="e_0_energy">   -188.80800044 </i>
   </energy>
  </scstep>
  <scstep>
   <time name="diag">    1.20    1.21</time>
   <time name="diis">    1.90    1.91</time>
   <time name="orth">    0.27    0.28</time>
   <time name="total">    3.67    3.68</time>
   <dipole>
    <v name="dipole">      0.00000000       0.00000000      -0.01329027 </v>
    <i name="Tr[quadrupol]"> -10361.63994828 </i>
    <i name="Echarged">      0.00000000 </i>
    <i name="Edipol_quadrupol">      0.00000000 </i>
    <i name="Eion">      0.00000000 </i>
   </dipole>
   <energy>
    <i name="e_fr_energy">   -188.94806695 </i>
    <i name="e_wo_entrp">   -188.66796682 </i>
    <i name="e_0_energy">   -188.80801689 </i>
   </energy>
  </scstep>
  <scstep>
   <time name="diag">    1.20    1.20</time>
   <time name="diis">    1.61    1.61</time>
   <time name="orth">    0.27    0.27</time>
   <time name="total">    3.37    3.38</time>
   <dipole>
    <v name="dipole">      0.00000000       0.00000000      -0.01311010 </v>
    <i name="Tr[quadrupol]"> -10361.64162447 </i>
    <i name="Echarged">      0.00000000 </i>
    <i name="Edipol_quadrupol">      0.00000000 </i>
    <i name="Eion">      0.00000000 </i>
   </dipole>
   <energy>
    <i name="e_fr_energy">   -188.94806911 </i>
    <i name="e_wo_entrp">   -188.66796804 </i>
    <i name="e_0_energy">   -188.80801858 </i>
   </energy>
  </scstep>
  <scstep>
   <time name="diag">    1.19    1.20</time>
   <time name="diis">    1.52    1.52</time>
   <time name="orth">    0.27    0.27</time>
   <time name="total">    3.28    3.29</time>
   <dipole>
    <v name="dipole">      0.00000000       0.00000000      -0.01289891 </v>
    <i name="Tr[quadrupol]"> -10361.64364807 </i>
    <i name="Echarged">      0.00000000 </i>
    <i name="Edipol_quadrupol">      0.00000000 </i>
    <i name="Eion">      0.00000000 </i>
   </dipole>
   <energy>
    <i name="e_fr_energy">   -188.94807088 </i>
    <i name="e_wo_entrp">   -188.66796827 </i>
    <i name="e_0_energy">   -188.80801958 </i>
   </energy>
  </scstep>
  <scstep>
   <time name="diag">    1.20    1.20</time>
   <time name="diis">    1.52    1.52</time>
   <time name="orth">    0.27    0.28</time>
   <time name="total">    3.28    3.29</time>
   <dipole>
    <v name="dipole">      0.00000000       0.00000000      -0.01268514 </v>
    <i name="Tr[quadrupol]"> -10361.64585059 </i>
    <i name="Echarged">      0.00000000 </i>
    <i name="Edipol_quadrupol">      0.00000000 </i>
    <i name="Eion">      0.00000000 </i>
   </dipole>
   <energy>
    <i name="e_fr_energy">   -188.94807216 </i>
    <i name="e_wo_entrp">   -188.66797079 </i>
    <i name="e_0_energy">   -188.80802147 </i>
   </energy>
  </scstep>
  <scstep>
   <time name="diag">    1.20    1.20</time>
   <time name="diis">    1.40    1.41</time>
   <time name="orth">    0.27    0.28</time>
   <time name="total">    2.93    2.94</time>
   <dipole>
    <v name="dipole">      0.00000000       0.00000000      -0.01257984 </v>
    <i name="Tr[quadrupol]"> -10361.64698447 </i>
    <i name="Echarged">      0.00000000 </i>
    <i name="Edipol_quadrupol">      0.00000000 </i>
    <i name="Eion">      0.00000000 </i>
   </dipole>
   <energy>
    <i name="alphaZ">    805.87533206 </i>
    <i name="ewald"> 199933.81903201 </i>
    <i name="hartreedc">-242118.21592942 </i>
    <i name="XCdc">   -343.59367033 </i>
    <i name="pawpsdc">  49327.01942379 </i>
    <i name="pawaedc"> -47405.59687986 </i>
    <i name="eentropy">     -0.28010085 </i>
    <i name="bandstr">  -2047.76115242 </i>
    <i name="atom">  41659.78587232 </i>
    <i name="e_fr_energy">   -188.94807269 </i>
    <i name="e_wo_entrp">   -188.66797184 </i>
    <i name="e_0_energy">   -188.80802227 </i>
   </energy>
  </scstep>
  <structure>
   <crystal>
    <varray name="basis" >
     <v>      11.00258152       0.00000000       0.00000000 </v>
     <v>       5.50129076       9.52851510       0.00000000 </v>
     <v>       0.00000000       0.00000000      24.49178509 </v>
    </varray>
    <i name="volume">   2567.67623402 </i>
    <varray name="rec_basis" >
     <v>       0.09088776      -0.05247407       0.00000000 </v>
     <v>       0.00000000       0.10494815       0.00000000 </v>
     <v>       0.00000000       0.00000000       0.04083002 </v>
    </varray>
   </crystal>
   <varray name="positions" >
    <v>       0.16666667       0.41666667       0.50000000 </v>
    <v>       0.25000000       0.00000000       0.59169983 </v>
    <v>       0.00000000       0.50000000       0.59169983 </v>
    <v>       0.75000000       0.50000000       0.59169983 </v>
    <v>       0.00000000       0.00000000       0.59169983 </v>
    <v>       0.91666667       0.91666667       0.50000000 </v>
    <v>       0.83333333       0.33333333       0.40830017 </v>
    <v>       0.75000000       0.00000000       0.59169983 </v>
    <v>       0.16666667       0.16666667       0.50000000 </v>
    <v>       0.50000000       0.50000000       0.59169983 </v>
    <v>       0.33333333       0.33333333       0.40830017 </v>
    <v>       0.41666667       0.66666667       0.50000000 </v>
    <v>       0.08333333       0.58333333       0.40830017 </v>
    <v>       0.33333333       0.58333333       0.40830017 </v>
    <v>       0.33333333       0.83333333       0.40830017 </v>
    <v>       0.50000000       0.75000000       0.59169983 </v>
    <v>       0.66666667       0.91666667       0.50000000 </v>
    <v>       0.58333333       0.08333333       0.40830017 </v>
    <v>       0.41666667       0.16666667       0.50000000 </v>
    <v>       0.50000000       0.00000000       0.59169983 </v>
    <v>       0.41666667       0.41666667       0.50000000 </v>
    <v>       0.50000000       0.25000000       0.59169983 </v>
    <v>       0.58333333       0.83333333       0.40830017 </v>
    <v>       0.25000000       0.25000000       0.59169983 </v>
    <v>       0.16666667       0.66666667       0.50000000 </v>
    <v>       0.33333333       0.08333333       0.40830017 </v>
    <v>       0.00000000       0.75000000       0.59169983 </v>
    <v>       0.08333333       0.83333333       0.40830017 </v>
    <v>       0.91666667       0.16666667       0.50000000 </v>
    <v>       0.00000000       0.25000000       0.59169983 </v>
    <v>       0.91666667       0.41666667       0.50000000 </v>
    <v>       0.08333333       0.33333333       0.40830017 </v>
    <v>       0.25000000       0.50000000       0.59169983 </v>
    <v>       0.91666667       0.66666667       0.50000000 </v>
    <v>       0.16666667       0.91666667       0.50000000 </v>
    <v>       0.66666667       0.16666667       0.50000000 </v>
    <v>       0.25000000       0.75000000       0.59169983 </v>
    <v>       0.08333333       0.08333333       0.40830017 </v>
    <v>       0.66666667       0.66666667       0.50000000 </v>
    <v>       0.83333333       0.08333333       0.40830017 </v>
    <v>       0.66666667       0.41666667       0.50000000 </v>
    <v>       0.83333333       0.58333333       0.40830017 </v>
    <v>       0.75000000       0.25000000       0.59169983 </v>
    <v>       0.41666667       0.91666667       0.50000000 </v>
    <v>       0.83333333       0.83333333       0.40830017 </v>
    <v>       0.58333333       0.58333333       0.40830017 </v>
    <v>       0.58333333       0.33333333       0.40830017 </v>
    <v>       0.75000000       0.75000000       0.59169983 </v>
   </varray>
  </structure>
  <varray name="forces" >
   <v>      -0.35959363       0.53213085      -0.00947807 </v>
   <v>      -0.29055514      -0.16178800       1.37239594 </v>
   <v>      -0.00648994       0.34402586       1.32518659 </v>
   <v>       0.13868031      -0.22295049       1.09542553 </v>
   <v>       0.12844047       0.05756469       1.32767290 </v>
   <v>       0.34207727      -0.20389842      -0.51052501 </v>
   <v>      -0.04706889       0.04346393      -1.03698421 </v>
   <v>       0.17494991      -0.05983058       1.58682417 </v>
   <v>      -0.64079032      -0.15525778      -0.56897486 </v>
   <v>      -0.08861889      -0.07390247       1.57880414 </v>
   <v>      -0.08864690      -0.19763544      -1.85537096 </v>
   <v>       0.08794391       0.24222288      -0.02900391 </v>
   <v>      -0.39693735       0.34320220      -1.36787807 </v>
   <v>       0.12826801       0.09456935      -1.61216841 </v>
   <v>      -0.11400697       0.34487495      -1.33199209 </v>
   <v>       0.11740104       0.07086044       1.34682289 </v>
   <v>       0.07906410      -0.63588280      -0.08169504 </v>
   <v>       0.36309598       0.08008500      -1.59393205 </v>
   <v>      -0.06410752      -0.32763412      -0.35756095 </v>
   <v>      -0.00079008      -0.30898642       1.64186360 </v>
   <v>       0.35799268       0.04535069       0.03486366 </v>
   <v>       0.28305337       0.13405004       1.65007464 </v>
   <v>      -0.00466413      -0.30545971      -1.36439625 </v>
   <v>      -0.13715658       0.23067106       1.89143190 </v>
   <v>      -0.14888113       0.36187927       0.33688828 </v>
   <v>      -0.27773259       0.05472988      -0.88195635 </v>
   <v>       0.07257576      -0.23918566       0.65310371 </v>
   <v>      -0.13127359       0.30841384      -0.64420561 </v>
   <v>      -0.09184059       0.20899001      -0.09097818 </v>
   <v>      -0.26596661       0.02565969       0.68774229 </v>
   <v>      -0.22769266       0.13742903      -0.20709382 </v>
   <v>      -0.18235859      -0.11156564      -0.82002286 </v>
   <v>      -0.02692204       0.33939465       0.89217644 </v>
   <v>      -0.19301605      -0.02751626      -0.04549115 </v>
   <v>      -0.17032730      -0.01478608      -0.18018971 </v>
   <v>       0.58004858       0.30106419      -0.19878935 </v>
   <v>      -0.28697069      -0.07223763       0.70808051 </v>
   <v>      -0.01263857      -0.04716181      -0.62119054 </v>
   <v>       0.27554600      -0.23138754      -0.21777097 </v>
   <v>       0.11776432      -0.07653624      -0.61561897 </v>
   <v>       0.22938007      -0.33200376      -0.25388494 </v>
   <v>       0.00738440      -0.01869611      -0.49315565 </v>
   <v>       0.17673088       0.02746992       0.56744823 </v>
   <v>      -0.12271227      -0.07529518      -0.19958523 </v>
   <v>       0.16033543      -0.06753632      -0.80022623 </v>
   <v>       0.18943952      -0.17068096      -0.71201535 </v>
   <v>       0.23983716      -0.07535990      -0.73791940 </v>
   <v>       0.12774986      -0.11492708       0.74324879 </v>
  </varray>
  <energy>
   <i name="e_fr_energy">   -188.94807269 </i>
   <i name="e_wo_entrp">   -188.80802227 </i>
   <i name="e_0_energy">     -0.28010085 </i>
  </energy>
  <time name="totalsc">  220.81  222.01</time>
 </calculation>
 <calculation>
  <scstep>
   <time name="dav">    6.75    6.85</time>
   <time name="total">    7.04    7.14</time>
   <dipole>
    <v name="dipole">      0.00000000       0.00000000      -0.01244116 </v>
    <i name="Tr[quadrupol]"> -10349.31361703 </i>
    <i name="Echarged">      0.00000000 </i>
    <i name="Edipol_quadrupol">      0.00000000 </i>
    <i name="Eion">      0.00000000 </i>
   </dipole>
   <energy>
    <i name="alphaZ">    805.88054219 </i>
    <i name="ewald"> 198481.79420991 </i>
    <i name="hartreedc">-240674.93497665 </i>
    <i name="XCdc">   -344.78288635 </i>
    <i name="pawpsdc">  49327.01633380 </i>
    <i name="pawaedc"> -47405.59376215 </i>
    <i name="eentropy">     -0.27800332 </i>
    <i name="bandstr">  -2038.45530098 </i>
    <i name="atom">  41659.78587232 </i>
    <i name="e_fr_energy">   -189.56797122 </i>
    <i name="e_wo_entrp">   -189.28996791 </i>
    <i name="e_0_energy">   -189.42896956 </i>
   </energy>
  </scstep>
  <scstep>
   <time name="diag">    1.21    1.21</time>
   <time name="diis">    3.38    3.42</time>
   <time name="orth">    0.27    0.28</time>
   <time name="total">    5.15    5.19</time>
   <dipole>
    <v name="dipole">      0.00000000       0.00000000       0.03101378 </v>
    <i name="Tr[quadrupol]"> -10349.19355458 </i>
    <i name="Echarged">      0.00000000 </i>
    <i name="Edipol_quadrupol">      0.00000000 </i>
    <i name="Eion">      0.00000000 </i>
   </dipole>
   <energy>
    <i name="e_fr_energy">   -189.80575104 </i>
    <i name="e_wo_entrp">   -189.52283973 </i>
    <i name="e_0_energy">   -189.66429538 </i>
   </energy>
  </scstep>
  <scstep>
   <time name="diag">    1.20    1.21</time>
   <time name="diis">    3.50    3.51</time>
   <time name="orth">    0.27    0.28</time>
   <time name="total">    5.27    5.28</time>
   <dipole>
    <v name="dipole">      0.00000000       0.00000000      -0.11006398 </v>
    <i name="Tr[quadrupol]"> -10349.41453239 </i>
    <i name="Echarged">      0.00000000 </i>
    <i name="Edipol_quadrupol">      0.00000000 </i>
    <i name="Eion">      0.00000000 </i>
   </dipole>
   <energy>
    <i name="e_fr_energy">   -189.93152678 </i>
    <i name="e_wo_entrp">   -189.67493420 </i>
    <i name="e_0_energy">   -189.80323049 </i>
   </energy>
  </scstep>
  <scstep>
   <time name="diag">    1.20    1.21</time>
   <time name="diis">    3.35    3.36</time>
   <time name="orth">    0.27    0.28</time>
   <time name="total">    5.11    5.13</time>
   <dipole>
    <v name="dipole">      0.00000000       0.00000000       0.01904814 </v>
    <i name="Tr[quadrupol]"> -10349.45413334 </i>
    <i name="Echarged">      0.00000000 </i>
    <i name="Edipol_quadrupol">      0.00000000 </i>
    <i name="Eion">      0.00000000 </i>
   </dipole>
   <energy>
    <i name="e_fr_energy">   -189.81859183 </i>
    <i name="e_wo_entrp">   -189.53200464 </i>
    <i name="e_0_energy">   -189.67529824 </i>
   </energy>
  </scstep>
  <scstep>
   <time name="diag">    1.19    1.20</time>
   <time name="diis">    3.39    3.40</time>
   <time name="orth">    0.27    0.28</time>
   <time name="total">    5.14    5.16</time>
   <dipole>
    <v name="dipole">      0.00000000       0.00000000      -0.02151343 </v>
    <i name="Tr[quadrupol]"> -10349.34623513 </i>
    <i name="Echarged">      0.00000000 </i>
    <i name="Edipol_quadrupol">      0.00000000 </i>
    <i name="Eion">      0.00000000 </i>
   </dipole>
   <energy>
    <i name="e_fr_energy">   -189.79163824 </i>
    <i name="e_wo_entrp">   -189.51821511 </i>
    <i name="e_0_energy">   -189.65492668 </i>
   </energy>
  </scstep>
  <scstep>
   <time name="diag">    1.20    1.20</time>
   <time name="diis">    3.34    3.35</time>
   <time name="orth">    0.28    0.28</time>
   <time name="total">    5.10    5.12</time>
   <dipole>
    <v name="dipole">      0.00000000       0.00000000       0.01463893 </v>
    <i name="Tr[quadrupol]"> -10349.37053653 </i>
    <i name="Echarged">      0.00000000 </i>
    <i name="Edipol_quadrupol">      0.00000000 </i>
    <i name="Eion">      0.00000000 </i>
   </dipole>
   <energy>
    <i name="e_fr_energy">   -189.79012553 </i>
    <i name="e_wo_entrp">   -189.50684656 </i>
    <i name="e_0_energy">   -189.64848605 </i>
   </energy>
  </scstep>
  <scstep>
   <time name="diag">    1.20    1.20</time>
   <time name="diis">    3.42    3.43</time>
   <time name="orth">    0.27    0.28</time>
   <time name="total">    5.18    5.20</time>
   <dipole>
    <v name="dipole">      0.00000000       0.00000000       0.00326088 </v>
    <i name="Tr[quadrupol]"> -10349.36061291 </i>
    <i name="Echarged">      0.00000000 </i>
    <i name="Edipol_quadrupol">      0.00000000 </i>
    <i name="Eion">      0.00000000 </i>
   </dipole>
   <energy>
    <i name="e_fr_energy">   -189.78238439 </i>
    <i name="e_wo_entrp">   -189.50362837 </i>
    <i name="e_0_energy">   -189.64300638 </i>
   </energy>
  </scstep>
  <scstep>
   <time name="diag">    1.21    1.21</time>
   <time name="diis">    3.33    3.35</time>
   <time name="orth">    0.27    0.28</time>
   <time name="total">    5.10    5.12</time>
   <dipole>
    <v name="dipole">      0.00000000       0.00000000      -0.00155425 </v>
    <i name="Tr[quadrupol]"> -10349.34863696 </i>
    <i name="Echarged">      0.00000000 </i>
    <i name="Edipol_quadrupol">      0.00000000 </i>
    <i name="Eion">      0.00000000 </i>
   </dipole>
   <energy>
    <i name="e_fr_energy">   -189.78104672 </i>
    <i name="e_wo_entrp">   -189.50135919 </i>
    <i name="e_0_energy">   -189.64120296 </i>
   </energy>
  </scstep>
  <scstep>
   <time name="diag">    1.20    1.20</time>
   <time name="diis">    3.28    3.38</time>
   <time name="orth">    0.27    0.28</time>
   <time name="total">    5.04    5.15</time>
   <dipole>
    <v name="dipole">      0.00000000       0.00000000      -0.00446018 </v>
    <i name="Tr[quadrupol]"> -10349.34367320 </i>
    <i name="Echarged">      0.00000000 </i>
    <i name="Edipol_quadrupol">      0.00000000 </i>
    <i name="Eion">      0.00000000 </i>
   </dipole>
   <energy>
    <i name="e_fr_energy">   -189.78044103 </i>
    <i name="e_wo_entrp">   -189.50154459 </i>
    <i name="e_0_energy">   -189.64099281 </i>
   </energy>
  </scstep>
  <scstep>
   <time name="diag">    1.20    1.21</time>
   <time name="diis">    3.32    3.32</time>
   <time name="orth">    0.27    0.27</time>
   <time name="total">    5.08    5.10</time>
   <dipole>
    <v name="dipole">      0.00000000       0.00000000      -0.00426609 </v>
    <i name="Tr[quadrupol]"> -10349.33942890 </i>
    <i name="Echarged">      0.00000000 </i>
    <i name="Edipol_quadrupol">      0.00000000 </i>
    <i name="Eion">      0.00000000 </i>
   </dipole>
   <energy>
    <i name="e_fr_energy">   -189.78041146 </i>
    <i name="e_wo_entrp">   -189.50151099 </i>
    <i name="e_0_energy">   -189.64096123 </i>
   </energy>
  </scstep>
  <scstep>
   <time name="diag">    1.20    1.20</time>
   <time name="diis">    3.43    3.44</time>
   <time name="orth">    0.27    0.27</time>
   <time name="total">    5.19    5.20</time>
   <dipole>
    <v name="dipole">      0.00000000       0.00000000      -0.00278112 </v>
    <i name="Tr[quadrupol]"> -10349.33928431 </i>
    <i name="Echarged">      0.00000000 </i>
    <i name="Edipol_quadrupol">      0.00000000 </i>
    <i name="Eion">      0.00000000 </i>
   </dipole>
   <energy>
    <i name="e_fr_energy">   -189.78026051 </i>
    <i name="e_wo_entrp">   -189.50114145 </i>
    <i name="e_0_energy">   -189.64070098 </i>
   </energy>
  </scstep>
  <scstep>
   <time name="diag">    1.21    1.21</time>
   <time name="diis">    3.35    3.36</time>
   <time name="orth">    0.27    0.28</time>
   <time name="total">    5.12    5.14</time>
   <dipole>
    <v name="dipole">      0.00000000       0.00000000      -0.00292627 </v>
    <i name="Tr[quadrupol]"> -10349.33999351 </i>
    <i name="Echarged">      0.00000000 </i>
    <i name="Edipol_quadrupol">      0.00000000 </i>
    <i name="Eion">      0.00000000 </i>
   </dipole>
   <energy>
    <i name="e_fr_energy">   -189.78026040 </i>
    <i name="e_wo_entrp">   -189.50103603 </i>
    <i name="e_0_energy">   -189.64064821 </i>
   </energy>
  </scstep>
  <scstep>
   <time name="diag">    1.20    1.20</time>
   <time name="diis">    3.33    3.33</time>
   <time name="orth">    0.27    0.28</time>
   <time name="total">    5.09    5.10</time>
   <dipole>
    <v name="dipole">      0.00000000       0.00000000      -0.00301655 </v>
    <i name="Tr[quadrupol]"> -10349.34168340 </i>
    <i name="Echarged">      0.00000000 </i>
    <i name="Edipol_quadrupol">      0.00000000 </i>
    <i name="Eion">      0.00000000 </i>
   </dipole>
   <energy>
    <i name="e_fr_energy">   -189.78025349 </i>
    <i name="e_wo_entrp">   -189.50096021 </i>
    <i name="e_0_energy">   -189.64060685 </i>
   </energy>
  </scstep>
  <scstep>
   <time name="diag">    1.21    1.22</time>
   <time name="diis">    2.80    2.82</time>
   <time name="orth">    0.27    0.27</time>
   <time name="total">    4.57    4.61</time>
   <dipole>
    <v name="dipole">      0.00000000       0.00000000      -0.00300880 </v>
    <i name="Tr[quadrupol]"> -10349.34274425 </i>
    <i name="Echarged">      0.00000000 </i>
    <i name="Edipol_quadrupol">      0.00000000 </i>
    <i name="Eion">      0.00000000 </i>
   </dipole>
   <energy>
    <i name="e_fr_energy">   -189.78025152 </i>
    <i name="e_wo_entrp">   -189.50093648 </i>
    <i name="e_0_energy">   -189.64059400 </i>
   </energy>
  </scstep>
  <scstep>
   <time name="diag">    1.20    1.20</time>
   <time name="diis">    2.17    2.18</time>
   <time name="orth">    0.28    0.28</time>
   <time name="total">    3.69    3.71</time>
   <dipole>
    <v name="dipole">      0.00000000       0.00000000      -0.00313750 </v>
    <i name="Tr[quadrupol]"> -10349.34396729 </i>
    <i name="Echarged">      0.00000000 </i>
    <i name="Edipol_quadrupol">      0.00000000 </i>
    <i name="Eion">      0.00000000 </i>
   </dipole>
   <energy>
    <i name="alphaZ">    805.87218424 </i>
    <i name="ewald"> 198481.79420991 </i>
    <i name="hartreedc">-240676.55431293 </i>
    <i name="XCdc">   -344.75562008 </i>
    <i name="pawpsdc">  49079.53001655 </i>
    <i name="pawaedc"> -47156.49676990 </i>
    <i name="eentropy">     -0.27929190 </i>
    <i name="bandstr">  -2038.67653914 </i>
    <i name="atom">  41659.78587232 </i>
    <i name="e_fr_energy">   -189.78025093 </i>
    <i name="e_wo_entrp">   -189.50095903 </i>
    <i name="e_0_energy">   -189.64060498 </i>
   </energy>
  </scstep>
  <structure>
   <crystal>
    <varray name="basis" >
     <v>      11.00258152       0.00000000       0.00000000 </v>
     <v>       5.50129076       9.52851510       0.00000000 </v>
     <v>       0.00000000       0.00000000      24.49178509 </v>
    </varray>
    <i name="volume">   2567.67623402 </i>
    <varray name="rec_basis" >
     <v>       0.09088776      -0.05247407       0.00000000 </v>
     <v>       0.00000000       0.10494815       0.00000000 </v>
     <v>       0.00000000       0.00000000       0.04083002 </v>
    </varray>
   </crystal>
   <varray name="positions" >
    <v>       0.16462002       0.41855258       0.49998693 </v>
    <v>       0.24939490      -0.00057339       0.59359212 </v>
    <v>      -0.00062955       0.50121926       0.59352703 </v>
    <v>       0.75082072       0.49920984       0.59321023 </v>
    <v>       0.00029221       0.00020401       0.59353046 </v>
    <v>       0.91807791       0.91594403       0.49929608 </v>
    <v>       0.83333333       0.33333333       0.40830017 </v>
    <v>       0.75064299      -0.00021204       0.59388778 </v>
    <v>       0.16497503       0.16611642       0.49921548 </v>
    <v>       0.49985896       0.49973808       0.59387672 </v>
    <v>       0.33333333       0.33333333       0.40830017 </v>
    <v>       0.41650736       0.66752512       0.49996001 </v>
    <v>       0.08333333       0.58333333       0.40830017 </v>
    <v>       0.33333333       0.58333333       0.40830017 </v>
    <v>       0.33333333       0.83333333       0.40830017 </v>
    <v>       0.50023477       0.75025114       0.59355686 </v>
    <v>       0.66803615       0.91441304       0.49988736 </v>
    <v>       0.58333333       0.08333333       0.40830017 </v>
    <v>       0.41705049       0.16550550       0.49950699 </v>
    <v>       0.50054511      -0.00109507       0.59396367 </v>
    <v>       0.41768508       0.41682739       0.50004807 </v>
    <v>       0.50063122       0.25047508       0.59397499 </v>
    <v>       0.58333333       0.83333333       0.40830017 </v>
    <v>       0.24917027       0.25081752       0.59430778 </v>
    <v>       0.16556845       0.66794920       0.50046451 </v>
    <v>       0.33333333       0.08333333       0.40830017 </v>
    <v>       0.00064660       0.74915231       0.59260035 </v>
    <v>       0.08333333       0.83333333       0.40830017 </v>
    <v>       0.91601444       0.16740734       0.49987456 </v>
    <v>      -0.00086179       0.25009094       0.59264811 </v>
    <v>       0.91572429       0.41715373       0.49971445 </v>
    <v>       0.08333333       0.33333333       0.40830017 </v>
    <v>       0.24931595       0.50120284       0.59292998 </v>
    <v>       0.91612301       0.66656915       0.49993728 </v>
    <v>       0.16617009       0.91661426       0.49975155 </v>
    <v>       0.66791349       0.16773366       0.49972590 </v>
    <v>       0.24924722       0.74974398       0.59267615 </v>
    <v>       0.08333333       0.08333333       0.40830017 </v>
    <v>       0.66792242       0.66584661       0.49969973 </v>
    <v>       0.83333333       0.08333333       0.40830017 </v>
    <v>       0.66795902       0.41549002       0.49964994 </v>
    <v>       0.83333333       0.58333333       0.40830017 </v>
    <v>       0.75049376       0.25009736       0.59248224 </v>
    <v>       0.41642346       0.91639981       0.49972481 </v>
    <v>       0.83333333       0.83333333       0.40830017 </v>
    <v>       0.58333333       0.58333333       0.40830017 </v>
    <v>       0.58333333       0.33333333       0.40830017 </v>
    <v>       0.75059575       0.74959269       0.59272464 </v>
   </varray>
  </structure>
  <varray name="forces" >
   <v>      -0.18896306       0.15039365       0.38481727 </v>
   <v>      -0.14628426      -0.03716581       0.95191129 </v>
   <v>      -0.01078386       0.16728949       1.00444705 </v>
   <v>       0.04253192      -0.10526174       0.82515887 </v>
   <v>       0.00531384       0.00926677       0.94610018 </v>
   <v>       0.14227818      -0.01008139       0.04290996 </v>
   <v>      -0.03419027       0.03402962      -1.13317714 </v>
   <v>       0.14171904      -0.06753927       1.05025025 </v>
   <v>      -0.25329713      -0.04304480       0.08722097 </v>
   <v>      -0.00271106       0.02199943       1.12303724 </v>
   <v>      -0.09594567      -0.16157524      -1.77056716 </v>
   <v>       0.13654070       0.07102716       0.35134675 </v>
   <v>      -0.36374259       0.37145395      -1.37430805 </v>
   <v>       0.09855930       0.10489711      -1.54855936 </v>
   <v>      -0.12350275       0.34105374      -1.38246620 </v>
   <v>       0.05987473      -0.03563482       0.96747300 </v>
   <v>       0.11404922      -0.24253767       0.34453055 </v>
   <v>       0.40236096       0.05389848      -1.55853931 </v>
   <v>      -0.08094439      -0.14058146       0.35980041 </v>
   <v>       0.02063090      -0.07659997       1.11220573 </v>
   <v>       0.17233027      -0.00643062       0.38787216 </v>
   <v>       0.08244560       0.01513404       1.11910789 </v>
   <v>      -0.01727782      -0.30454862      -1.40685560 </v>
   <v>      -0.08064638       0.09844547       1.20614877 </v>
   <v>      -0.05443404       0.17246810       0.34424285 </v>
   <v>      -0.28259049       0.04543139      -0.94454402 </v>
   <v>       0.02560060      -0.06519578       0.51797564 </v>
   <v>      -0.09801203       0.26786115      -0.73047327 </v>
   <v>      -0.06802037       0.05134668       0.13158595 </v>
   <v>      -0.09226525       0.01933983       0.49664792 </v>
   <v>      -0.12368612       0.12379017       0.10485412 </v>
   <v>      -0.16565959      -0.08735324      -0.85544088 </v>
   <v>      -0.00799587       0.15647455       0.65878015 </v>
   <v>      -0.12653244      -0.05801928       0.13966652 </v>
   <v>      -0.11413785       0.03802087       0.12774819 </v>
   <v>       0.27414386       0.04329298       0.17750509 </v>
   <v>      -0.14255221      -0.05790391       0.56310186 </v>
   <v>      -0.05972139      -0.07198748      -0.72525671 </v>
   <v>       0.08144398      -0.21979363       0.11153820 </v>
   <v>       0.11864233      -0.06983909      -0.67696151 </v>
   <v>       0.12437188      -0.08443123       0.09741113 </v>
   <v>       0.01977131      -0.02211882      -0.55486970 </v>
   <v>       0.10917971       0.00672288       0.46445273 </v>
   <v>      -0.07271235      -0.02443647       0.22774801 </v>
   <v>       0.15323372      -0.07594871      -0.86436041 </v>
   <v>       0.17480913      -0.16908116      -0.71366620 </v>
   <v>       0.22206391      -0.06234423      -0.79192418 </v>
   <v>       0.08471413      -0.06418307       0.60437296 </v>
  </varray>
  <energy>
   <i name="e_fr_energy">   -189.78025093 </i>
   <i name="e_wo_entrp">   -189.64060498 </i>
   <i name="e_0_energy">     -0.27929190 </i>
  </energy>
  <time name="totalsc">   79.32   79.82</time>
 </calculation>
 <calculation>
  <scstep>
   <time name="dav">    6.76    6.87</time>
   <time name="total">    7.06    7.16</time>
   <dipole>
    <v name="dipole">      0.00000000       0.00000000      -0.00327399 </v>
    <i name="Tr[quadrupol]"> -10319.60738803 </i>
    <i name="Echarged">      0.00000000 </i>
    <i name="Edipol_quadrupol">      0.00000000 </i>
    <i name="Eion">      0.00000000 </i>
   </dipole>
   <energy>
    <i name="alphaZ">    805.87571632 </i>
    <i name="ewald"> 194957.54595671 </i>
    <i name="hartreedc">-237169.97621619 </i>
    <i name="XCdc">   -347.14856995 </i>
    <i name="pawpsdc">  49079.39456512 </i>
    <i name="pawaedc"> -47156.36093924 </i>
    <i name="eentropy">     -0.27445429 </i>
    <i name="bandstr">  -2018.02062863 </i>
    <i name="atom">  41659.78587232 </i>
    <i name="e_fr_energy">   -189.17869783 </i>
    <i name="e_wo_entrp">   -188.90424354 </i>
    <i name="e_0_energy">   -189.04147068 </i>
   </energy>
  </scstep>
  <scstep>
   <time name="diag">    1.21    1.21</time>
   <time name="diis">    3.40    3.41</time>
   <time name="orth">    0.27    0.27</time>
   <time name="total">    5.16    5.18</time>
   <dipole>
    <v name="dipole">      0.00000000       0.00000000       0.07994682 </v>
    <i name="Tr[quadrupol]"> -10319.24234237 </i>
    <i name="Echarged">      0.00000000 </i>
    <i name="Edipol_quadrupol">      0.00000000 </i>
    <i name="Eion">      0.00000000 </i>
   </dipole>
   <energy>
    <i name="e_fr_energy">   -190.61910275 </i>
    <i name="e_wo_entrp">   -190.34281156 </i>
    <i name="e_0_energy">   -190.48095715 </i>
   </energy>
  </scstep>
  <scstep>
   <time name="diag">    1.20    1.20</time>
   <time name="diis">    3.39    3.40</time>
   <time name="orth">    0.27    0.27</time>
   <time name="total">    5.15    5.16</time>
   <dipole>
    <v name="dipole">      0.00000000       0.00000000      -0.11709617 </v>
    <i name="Tr[quadrupol]"> -10319.83012146 </i>
    <i name="Echarged">      0.00000000 </i>
    <i name="Edipol_quadrupol">      0.00000000 </i>
    <i name="Eion">      0.00000000 </i>
   </dipole>
   <energy>
    <i name="e_fr_energy">   -190.92025849 </i>
    <i name="e_wo_entrp">   -190.66312024 </i>
    <i name="e_0_energy">   -190.79168936 </i>
   </energy>
  </scstep>
  <scstep>
   <time name="diag">    1.20    1.21</time>
   <time name="diis">    3.38    3.39</time>
   <time name="orth">    0.27    0.27</time>
   <time name="total">    5.14    5.16</time>
   <dipole>
    <v name="dipole">      0.00000000       0.00000000       0.04568220 </v>
    <i name="Tr[quadrupol]"> -10319.72447739 </i>
    <i name="Echarged">      0.00000000 </i>
    <i name="Edipol_quadrupol">      0.00000000 </i>
    <i name="Eion">      0.00000000 </i>
   </dipole>
   <energy>
[...]
       <r>    -9.2790     0.0000     0.0000 </r>
       <r>    -9.2253     0.0000     0.0000 </r>
       <r>    -9.1716     0.0000     0.0000 </r>
       <r>    -9.1179     0.0000     0.0000 </r>
       <r>    -9.0642     0.0001     0.0000 </r>
       <r>    -9.0105     0.0026     0.0001 </r>
       <r>    -8.9568     0.0361     0.0021 </r>
       <r>    -8.9031     0.2868     0.0175 </r>
       <r>    -8.8494     1.3167     0.0882 </r>
       <r>    -8.7957     3.5221     0.2773 </r>
       <r>    -8.7420     5.6376     0.5800 </r>
       <r>    -8.6883     6.0285     0.9038 </r>
       <r>    -8.6346     5.7831     1.2143 </r>
       <r>    -8.5809     5.9333     1.5329 </r>
       <r>    -8.5272     4.9560     1.7991 </r>
       <r>    -8.4735     2.6778     1.9428 </r>
       <r>    -8.4198     0.8741     1.9898 </r>
       <r>    -8.3661     0.1716     1.9990 </r>
       <r>    -8.3124     0.0445     2.0014 </r>
       <r>    -8.2587     0.1744     2.0108 </r>
       <r>    -8.2050     0.7090     2.0488 </r>
       <r>    -8.1513     1.8009     2.1455 </r>
       <r>    -8.0976     3.1058     2.3123 </r>
       <r>    -8.0439     4.2961     2.5430 </r>
       <r>    -7.9902     5.7108     2.8497 </r>
       <r>    -7.9365     7.3791     3.2459 </r>
       <r>    -7.8828     8.3434     3.6939 </r>
       <r>    -7.8291     8.2285     4.1358 </r>
       <r>    -7.7754     8.2107     4.5767 </r>
       <r>    -7.7217     9.0770     5.0641 </r>
       <r>    -7.6680     9.7167     5.5859 </r>
       <r>    -7.6143     9.6240     6.1027 </r>
       <r>    -7.5606     9.8957     6.6341 </r>
       <r>    -7.5069    10.0447     7.1735 </r>
       <r>    -7.4532     8.6563     7.6383 </r>
       <r>    -7.3995     7.0199     8.0152 </r>
       <r>    -7.3458     8.2578     8.4587 </r>
       <r>    -7.2921    12.3063     9.1195 </r>
       <r>    -7.2384    15.0257     9.9264 </r>
       <r>    -7.1847    14.4087    10.7001 </r>
       <r>    -7.1310    13.8948    11.4462 </r>
       <r>    -7.0773    17.0664    12.3627 </r>
       <r>    -7.0236    22.7402    13.5838 </r>
       <r>    -6.9699    28.0396    15.0895 </r>
       <r>    -6.9162    31.8704    16.8009 </r>
       <r>    -6.8625    34.0665    18.6302 </r>
       <r>    -6.8088    35.2490    20.5230 </r>
       <r>    -6.7551    37.1598    22.5184 </r>
       <r>    -6.7014    40.5717    24.6971 </r>
       <r>    -6.6477    43.8809    27.0534 </r>
       <r>    -6.5940    45.9733    29.5221 </r>
       <r>    -6.5403    47.3976    32.0673 </r>
       <r>    -6.4866    49.0970    34.7037 </r>
       <r>    -6.4329    52.7682    37.5373 </r>
       <r>    -6.3793    59.3899    40.7265 </r>
       <r>    -6.3256    67.2346    44.3369 </r>
       <r>    -6.2719    73.0940    48.2619 </r>
       <r>    -6.2182    75.4976    52.3160 </r>
       <r>    -6.1645    75.4266    56.3663 </r>
       <r>    -6.1108    73.6778    60.3227 </r>
       <r>    -6.0571    71.5758    64.1662 </r>
       <r>    -6.0034    71.7460    68.0189 </r>
       <r>    -5.9497    73.8876    71.9865 </r>
       <r>    -5.8960    74.9323    76.0103 </r>
       <r>    -5.8423    74.2692    79.9984 </r>
       <r>    -5.7886    73.2560    83.9322 </r>
       <r>    -5.7349    72.4304    87.8216 </r>
       <r>    -5.6812    71.7895    91.6766 </r>
       <r>    -5.6275    71.5261    95.5174 </r>
       <r>    -5.5738    72.1932    99.3941 </r>
       <r>    -5.5201    74.5775   103.3988 </r>
       <r>    -5.4664    78.9161   107.6365 </r>
       <r>    -5.4127    83.7679   112.1347 </r>
       <r>    -5.3590    86.6529   116.7878 </r>
       <r>    -5.3053    85.9724   121.4044 </r>
       <r>    -5.2516    82.9115   125.8566 </r>
       <r>    -5.1979    80.3618   130.1719 </r>
       <r>    -5.1442    79.3059   134.4306 </r>
       <r>    -5.0905    78.7883   138.6614 </r>
       <r>    -5.0368    78.8255   142.8942 </r>
       <r>    -4.9831    80.4517   147.2143 </r>
       <r>    -4.9294    83.6370   151.7055 </r>
       <r>    -4.8757    87.0290   156.3788 </r>
       <r>    -4.8220    89.0580   161.1611 </r>
       <r>    -4.7683    89.3114   165.9570 </r>
       <r>    -4.7146    88.6687   170.7184 </r>
       <r>    -4.6609    87.8805   175.4375 </r>
       <r>    -4.6072    86.9705   180.1076 </r>
       <r>    -4.5535    86.4398   184.7493 </r>
       <r>    -4.4998    86.5062   189.3946 </r>
       <r>    -4.4461    86.6850   194.0495 </r>
       <r>    -4.3924    87.1694   198.7303 </r>
       <r>    -4.3387    87.5877   203.4337 </r>
       <r>    -4.2850    86.6517   208.0867 </r>
       <r>    -4.2313    84.8222   212.6416 </r>
       <r>    -4.1776    84.6473   217.1870 </r>
       <r>    -4.1239    86.4661   221.8301 </r>
       <r>    -4.0702    87.7160   226.5403 </r>
       <r>    -4.0165    87.6214   231.2455 </r>
       <r>    -3.9628    88.1112   235.9769 </r>
       <r>    -3.9091    90.2951   240.8256 </r>
       <r>    -3.8554    93.2806   245.8346 </r>
       <r>    -3.8017    95.5826   250.9673 </r>
       <r>    -3.7480    95.7835   256.1107 </r>
       <r>    -3.6943    94.3365   261.1764 </r>
       <r>    -3.6406    94.4178   266.2465 </r>
       <r>    -3.5869    97.7945   271.4980 </r>
       <r>    -3.5332   101.7711   276.9629 </r>
       <r>    -3.4795   102.4534   282.4645 </r>
       <r>    -3.4258    99.8842   287.8282 </r>
       <r>    -3.3721    97.6177   293.0701 </r>
       <r>    -3.3184    97.1479   298.2868 </r>
       <r>    -3.2647    96.7551   303.4824 </r>
       <r>    -3.2110    95.4858   308.6098 </r>
       <r>    -3.1573    94.4143   313.6797 </r>
       <r>    -3.1036    94.4307   318.7505 </r>
       <r>    -3.0499    94.9460   323.8490 </r>
       <r>    -2.9962    94.5228   328.9247 </r>
       <r>    -2.9425    93.3281   333.9363 </r>
       <r>    -2.8888    92.8779   338.9237 </r>
       <r>    -2.8351    93.0637   343.9211 </r>
       <r>    -2.7814    93.5400   348.9441 </r>
       <r>    -2.7278    94.9026   354.0402 </r>
       <r>    -2.6741    96.4574   359.2198 </r>
       <r>    -2.6204    96.4947   364.4015 </r>
       <r>    -2.5667    94.6670   369.4849 </r>
       <r>    -2.5130    92.3002   374.4413 </r>
       <r>    -2.4593    90.3321   379.2920 </r>
       <r>    -2.4056    88.6859   384.0543 </r>
       <r>    -2.3519    88.1019   388.7853 </r>
       <r>    -2.2982    90.0929   393.6231 </r>
       <r>    -2.2445    93.3777   398.6374 </r>
       <r>    -2.1908    94.3949   403.7062 </r>
       <r>    -2.1371    93.8597   408.7464 </r>
       <r>    -2.0834    95.9017   413.8961 </r>
       <r>    -2.0297   100.1054   419.2716 </r>
       <r>    -1.9760   102.2296   424.7612 </r>
       <r>    -1.9223   100.1510   430.1392 </r>
       <r>    -1.8686    95.4092   435.2625 </r>
       <r>    -1.8149    91.3331   440.1670 </r>
       <r>    -1.7612    89.4015   444.9677 </r>
       <r>    -1.7075    89.2131   449.7583 </r>
       <r>    -1.6538    91.1372   454.6523 </r>
       <r>    -1.6001    94.3565   459.7191 </r>
       <r>    -1.5464    96.1237   464.8808 </r>
       <r>    -1.4927    97.1041   470.0951 </r>
       <r>    -1.4390   100.2332   475.4775 </r>
       <r>    -1.3853   103.6238   481.0419 </r>
       <r>    -1.3316   102.1371   486.5265 </r>
       <r>    -1.2779    94.6321   491.6081 </r>
       <r>    -1.2242    84.2115   496.1302 </r>
       <r>    -1.1705    72.6556   500.0317 </r>
       <r>    -1.1168    59.9437   503.2506 </r>
       <r>    -1.0631    47.0070   505.7748 </r>
       <r>    -1.0094    34.8150   507.6443 </r>
       <r>    -0.9557    23.6106   508.9121 </r>
       <r>    -0.9020    14.6217   509.6973 </r>
       <r>    -0.8483     9.6301   510.2144 </r>
       <r>    -0.7946     8.5305   510.6725 </r>
       <r>    -0.7409     9.2839   511.1710 </r>
       <r>    -0.6872     9.9331   511.7044 </r>
       <r>    -0.6335    10.6372   512.2756 </r>
       <r>    -0.5798    13.0090   512.9742 </r>
       <r>    -0.5261    16.9457   513.8842 </r>
       <r>    -0.4724    20.7166   514.9966 </r>
       <r>    -0.4187    22.0319   516.1797 </r>
       <r>    -0.3650    19.4167   517.2223 </r>
       <r>    -0.3113    15.9381   518.0782 </r>
       <r>    -0.2576    16.9082   518.9861 </r>
       <r>    -0.2039    21.0048   520.1141 </r>
       <r>    -0.1502    21.4894   521.2680 </r>
       <r>    -0.0965    16.9701   522.1793 </r>
       <r>    -0.0428    11.8040   522.8131 </r>
       <r>     0.0109     9.3113   523.3131 </r>
       <r>     0.0646    10.7896   523.8925 </r>
       <r>     0.1183    15.1461   524.7059 </r>
       <r>     0.1720    18.5083   525.6997 </r>
       <r>     0.2257    18.7760   526.7080 </r>
       <r>     0.2794    18.0216   527.6757 </r>
       <r>     0.3331    18.3433   528.6607 </r>
       <r>     0.3868    19.0402   529.6831 </r>
       <r>     0.4405    19.2194   530.7152 </r>
       <r>     0.4942    19.6262   531.7691 </r>
       <r>     0.5479    21.0159   532.8976 </r>
       <r>     0.6016    22.1644   534.0878 </r>
       <r>     0.6553    22.0810   535.2735 </r>
       <r>     0.7090    21.2090   536.4124 </r>
       <r>     0.7627    19.4510   537.4569 </r>
       <r>     0.8164    16.1970   538.3267 </r>
       <r>     0.8701    12.1787   538.9806 </r>
       <r>     0.9237    10.0188   539.5186 </r>
       <r>     0.9774    10.3067   540.0721 </r>
       <r>     1.0311    11.0533   540.6656 </r>
       <r>     1.0848    11.4362   541.2797 </r>
       <r>     1.1385    11.6797   541.9069 </r>
       <r>     1.1922    11.2001   542.5084 </r>
       <r>     1.2459     9.4073   543.0135 </r>
       <r>     1.2996     6.9275   543.3855 </r>
       <r>     1.3533     5.1210   543.6605 </r>
       <r>     1.4070     4.7685   543.9166 </r>
       <r>     1.4607     6.4847   544.2648 </r>
       <r>     1.5144    10.8226   544.8459 </r>
       <r>     1.5681    16.0931   545.7101 </r>
       <r>     1.6218    19.1694   546.7395 </r>
       <r>     1.6755    19.6057   547.7923 </r>
       <r>     1.7292    19.3624   548.8320 </r>
       <r>     1.7829    19.2853   549.8676 </r>
       <r>     1.8366    17.8652   550.8269 </r>
       <r>     1.8903    13.7821   551.5670 </r>
       <r>     1.9440     9.6527   552.0854 </r>
       <r>     1.9977     8.8580   552.5610 </r>
       <r>     2.0514    10.1948   553.1085 </r>
       <r>     2.1051    11.3907   553.7201 </r>
       <r>     2.1588    13.2838   554.4334 </r>
       <r>     2.2125    16.8067   555.3359 </r>
       <r>     2.2662    20.5566   556.4398 </r>
       <r>     2.3199    22.5885   557.6528 </r>
       <r>     2.3736    22.2013   558.8449 </r>
       <r>     2.4273    19.9686   559.9172 </r>
       <r>     2.4810    17.6060   560.8626 </r>
       <r>     2.5347    16.9962   561.7753 </r>
       <r>     2.5884    19.2151   562.8071 </r>
       <r>     2.6421    23.9668   564.0941 </r>
       <r>     2.6958    27.4514   565.5682 </r>
       <r>     2.7495    25.5414   566.9398 </r>
       <r>     2.8032    19.2648   567.9743 </r>
       <r>     2.8569    12.4111   568.6407 </r>
       <r>     2.9106     7.8862   569.0642 </r>
       <r>     2.9643     6.5821   569.4176 </r>
       <r>     3.0180     6.5296   569.7683 </r>
       <r>     3.0717     6.5020   570.1174 </r>
       <r>     3.1254     8.1190   570.5534 </r>
       <r>     3.1791    11.7144   571.1824 </r>
       <r>     3.2328    14.3489   571.9529 </r>
       <r>     3.2865    13.3559   572.6701 </r>
       <r>     3.3402    10.0799   573.2114 </r>
       <r>     3.3939     7.4782   573.6130 </r>
       <r>     3.4476     6.5707   573.9658 </r>
       <r>     3.5013     7.4552   574.3662 </r>
       <r>     3.5550    10.0997   574.9085 </r>
       <r>     3.6087    14.1517   575.6684 </r>
       <r>     3.6624    18.6941   576.6723 </r>
       <r>     3.7161    21.8165   577.8438 </r>
       <r>     3.7698    21.8586   579.0176 </r>
       <r>     3.8235    18.6181   580.0173 </r>
       <r>     3.8772    13.9939   580.7688 </r>
       <r>     3.9309    10.7395   581.3455 </r>
       <r>     3.9846    10.4349   581.9058 </r>
       <r>     4.0383    11.6310   582.5304 </r>
       <r>     4.0920    12.2190   583.1865 </r>
       <r>     4.1457    12.8002   583.8739 </r>
       <r>     4.1994    13.3506   584.5908 </r>
       <r>     4.2531    12.2878   585.2506 </r>
       <r>     4.3068     9.9335   585.7840 </r>
       <r>     4.3605     9.2695   586.2818 </r>
       <r>     4.4142    12.1801   586.9358 </r>
       <r>     4.4679    16.1785   587.8046 </r>
       <r>     4.5216    19.5500   588.8544 </r>
       <r>     4.5753    24.3812   590.1637 </r>
       <r>     4.6289    29.1684   591.7300 </r>
       <r>     4.6826    28.1731   593.2428 </r>
       <r>     4.7363    21.8110   594.4140 </r>
       <r>     4.7900    16.8957   595.3213 </r>
       <r>     4.8437    17.8131   596.2778 </r>
       <r>     4.8974    23.3033   597.5292 </r>
       <r>     4.9511    28.9099   599.0816 </r>
       <r>     5.0048    32.4890   600.8262 </r>
       <r>     5.0585    34.9836   602.7048 </r>
       <r>     5.1122    35.7086   604.6223 </r>
       <r>     5.1659    33.9901   606.4475 </r>
       <r>     5.2196    31.5421   608.1413 </r>
       <r>     5.2733    28.0939   609.6499 </r>
       <r>     5.3270    21.8220   610.8217 </r>
       <r>     5.3807    13.4863   611.5459 </r>
       <r>     5.4344     6.1303   611.8751 </r>
       <r>     5.4881     1.9005   611.9771 </r>
       <r>     5.5418     0.3769   611.9974 </r>
       <r>     5.5955     0.0457   611.9998 </r>
       <r>     5.6492     0.0033   612.0000 </r>
       <r>     5.7029     0.0001   612.0000 </r>
       <r>     5.7566     0.0000   612.0000 </r>
       <r>     5.8103     0.0000   612.0000 </r>
       <r>     5.8640     0.0000   612.0000 </r>
       <r>     5.9177     0.0000   612.0000 </r>
       <r>     5.9714     0.0000   612.0000 </r>
       <r>     6.0251     0.0000   612.0000 </r>
       <r>     6.0788     0.0000   612.0000 </r>
       <r>     6.1325     0.0000   612.0000 </r>
       <r>     6.1862     0.0000   612.0000 </r>
       <r>     6.2399     0.0000   612.0000 </r>
       <r>     6.2936     0.0000   612.0000 </r>
       <r>     6.3473     0.0000   612.0000 </r>
      </set>
     </set>
    </array>
   </total>
  </dos>
 </calculation>
 <structure name="finalpos" >
  <crystal>
   <varray name="basis" >
    <v>      11.00258152       0.00000000       0.00000000 </v>
    <v>       5.50129076       9.52851510       0.00000000 </v>
    <v>       0.00000000       0.00000000      24.49178509 </v>
   </varray>
   <i name="volume">   2567.67623402 </i>
   <varray name="rec_basis" >
    <v>       0.09088776      -0.05247407       0.00000000 </v>
    <v>       0.00000000       0.10494815       0.00000000 </v>
    <v>       0.00000000       0.00000000       0.04083002 </v>
   </varray>
  </crystal>
  <varray name="positions" >
   <v>       0.16456583       0.41679472       0.50992355 </v>
   <v>       0.24922449      -0.00031528       0.60953266 </v>
   <v>      -0.00098595       0.50295322       0.61009666 </v>
   <v>       0.75184021       0.49811837       0.60733223 </v>
   <v>       0.00057705       0.00044002       0.60808377 </v>
   <v>       0.91913347       0.91505235       0.50503662 </v>
   <v>       0.83333333       0.33333333       0.40830017 </v>
   <v>       0.75307008      -0.00141605       0.61159413 </v>
   <v>       0.16472216       0.16475970       0.50564490 </v>
   <v>       0.50010528       0.49966888       0.61400306 </v>
   <v>       0.33333333       0.33333333       0.40830017 </v>
   <v>       0.41908264       0.66617429       0.50894395 </v>
   <v>       0.08333333       0.58333333       0.40830017 </v>
   <v>       0.33333333       0.58333333       0.40830017 </v>
   <v>       0.33333333       0.83333333       0.40830017 </v>
   <v>       0.50143086       0.74959586       0.61060802 </v>
   <v>       0.66903151       0.91278737       0.50902653 </v>
   <v>       0.58333333       0.08333333       0.40830017 </v>
   <v>       0.41741678       0.16351374       0.51067341 </v>
   <v>       0.50113859      -0.00088284       0.61491488 </v>
   <v>       0.42063414       0.41457294       0.51041538 </v>
   <v>       0.50156684       0.25034114       0.61471428 </v>
   <v>       0.58333333       0.83333333       0.40830017 </v>
   <v>       0.24783368       0.25231043       0.61760950 </v>
   <v>       0.16685851       0.66652506       0.50735388 </v>
   <v>       0.33333333       0.08333333       0.40830017 </v>
   <v>       0.00163881       0.74910945       0.60260868 </v>
   <v>       0.08333333       0.83333333       0.40830017 </v>
   <v>       0.91540692       0.16682338       0.50607734 </v>
   <v>       0.00037942       0.25022210       0.60278702 </v>
   <v>       0.91408947       0.41821868       0.50654477 </v>
   <v>       0.08333333       0.33333333       0.40830017 </v>
   <v>       0.24952020       0.50168144       0.60632133 </v>
   <v>       0.91695120       0.66369017       0.50635310 </v>
   <v>       0.16640820       0.91625675       0.50695625 </v>
   <v>       0.66899337       0.16592640       0.50749129 </v>
   <v>       0.24959163       0.74859261       0.60420411 </v>
   <v>       0.08333333       0.08333333       0.40830017 </v>
   <v>       0.66907046       0.66360443       0.50687866 </v>
   <v>       0.83333333       0.08333333       0.40830017 </v>
   <v>       0.66927638       0.41419693       0.50625953 </v>
   <v>       0.83333333       0.58333333       0.40830017 </v>
   <v>       0.75093126       0.25002475       0.60263005 </v>
   <v>       0.41744769       0.91487396       0.50898952 </v>
   <v>       0.83333333       0.83333333       0.40830017 </v>
   <v>       0.58333333       0.58333333       0.40830017 </v>
   <v>       0.58333333       0.33333333       0.40830017 </v>
   <v>       0.75138183       0.74961193       0.60459876 </v>
  </varray>
  <varray name="selective"  type="logical" >
   <v type="logical" >  T  T  T </v>
   <v type="logical" >  T  T  T </v>
   <v type="logical" >  T  T  T </v>
   <v type="logical" >  T  T  T </v>
   <v type="logical" >  T  T  T </v>
   <v type="logical" >  T  T  T </v>
   <v type="logical" >  F  F  F </v>
   <v type="logical" >  T  T  T </v>
   <v type="logical" >  T  T  T </v>
   <v type="logical" >  T  T  T </v>
   <v type="logical" >  F  F  F </v>
   <v type="logical" >  T  T  T </v>
   <v type="logical" >  F  F  F </v>
   <v type="logical" >  F  F  F </v>
   <v type="logical" >  F  F  F </v>
   <v type="logical" >  T  T  T </v>
   <v type="logical" >  T  T  T </v>
   <v type="logical" >  F  F  F </v>
   <v type="logical" >  T  T  T </v>
   <v type="logical" >  T  T  T </v>
   <v type="logical" >  T  T  T </v>
   <v type="logical" >  T  T  T </v>
   <v type="logical" >  F  F  F </v>
   <v type="logical" >  T  T  T </v>
   <v type="logical" >  T  T  T </v>
   <v type="logical" >  F  F  F </v>
   <v type="logical" >  T  T  T </v>
   <v type="logical" >  F  F  F </v>
   <v type="logical" >  T  T  T </v>
   <v type="logical" >  T  T  T </v>
   <v type="logical" >  T  T  T </v>
   <v type="logical" >  F  F  F </v>
   <v type="logical" >  T  T  T </v>
   <v type="logical" >  T  T  T </v>
   <v type="logical" >  T  T  T </v>
   <v type="logical" >  T  T  T </v>
   <v type="logical" >  T  T  T </v>
   <v type="logical" >  F  F  F </v>
   <v type="logical" >  T  T  T </v>
   <v type="logical" >  F  F  F </v>
   <v type="logical" >  T  T  T </v>
   <v type="logical" >  F  F  F </v>
   <v type="logical" >  T  T  T </v>
   <v type="logical" >  T  T  T </v>
   <v type="logical" >  F  F  F </v>
   <v type="logical" >  F  F  F </v>
   <v type="logical" >  F  F  F </v>
   <v type="logical" >  T  T  T </v>
  </varray>
  <nose>
   <v>      -3.00000000       0.00000000       0.00010000       0.00010000 </v>
  </nose>
 </structure>
</modeling>
