unknown system                          
           1
    11.002582    0.000000    0.000000
     5.501291    9.528515    0.000000
     0.000000    0.000000   24.491785
   Au   Pd
  24  24
Direct configuration=     1
   0.16666667  0.41666667  0.50000000
   0.25000000  0.00000000  0.59169983
   0.00000000  0.50000000  0.59169983
   0.75000000  0.50000000  0.59169983
   0.00000000  0.00000000  0.59169983
   0.91666667  0.91666667  0.50000000
   0.83333333  0.33333333  0.40830017
   0.75000000  0.00000000  0.59169983
   0.16666667  0.16666667  0.50000000
   0.50000000  0.50000000  0.59169983
   0.33333333  0.33333333  0.40830017
   0.41666667  0.66666667  0.50000000
   0.08333333  0.58333333  0.40830017
   0.33333333  0.58333333  0.40830017
   0.33333333  0.83333333  0.40830017
   0.50000000  0.75000000  0.59169983
   0.66666667  0.91666667  0.50000000
   0.58333333  0.08333333  0.40830017
   0.41666667  0.16666667  0.50000000
   0.50000000  0.00000000  0.59169983
   0.41666667  0.41666667  0.50000000
   0.50000000  0.25000000  0.59169983
   0.58333333  0.83333333  0.40830017
   0.25000000  0.25000000  0.59169983
   0.16666667  0.66666667  0.50000000
   0.33333333  0.08333333  0.40830017
   0.00000000  0.75000000  0.59169983
   0.08333333  0.83333333  0.40830017
   0.91666667  0.16666667  0.50000000
   0.00000000  0.25000000  0.59169983
   0.91666667  0.41666667  0.50000000
   0.08333333  0.33333333  0.40830017
   0.25000000  0.50000000  0.59169983
   0.91666667  0.66666667  0.50000000
   0.16666667  0.91666667  0.50000000
   0.66666667  0.16666667  0.50000000
   0.25000000  0.75000000  0.59169983
   0.08333333  0.08333333  0.40830017
   0.66666667  0.66666667  0.50000000
   0.83333333  0.08333333  0.40830017
   0.66666667  0.41666667  0.50000000
   0.83333333  0.58333333  0.40830017
   0.75000000  0.25000000  0.59169983
   0.41666667  0.91666667  0.50000000
   0.83333333  0.83333333  0.40830017
   0.58333333  0.58333333  0.40830017
   0.58333333  0.33333333  0.40830017
   0.75000000  0.75000000  0.59169983
Direct configuration=     2
   0.16462002  0.41855258  0.49998693
   0.24939490 -0.00057339  0.59359212
  -0.00062955  0.50121926  0.59352703
   0.75082072  0.49920984  0.59321023
   0.00029221  0.00020401  0.59353046
   0.91807791  0.91594403  0.49929608
   0.83333333  0.33333333  0.40830017
   0.75064299 -0.00021204  0.59388778
   0.16497503  0.16611642  0.49921548
   0.49985896  0.49973808  0.59387672
   0.33333333  0.33333333  0.40830017
   0.41650736  0.66752512  0.49996001
   0.08333333  0.58333333  0.40830017
   0.33333333  0.58333333  0.40830017
   0.33333333  0.83333333  0.40830017
   0.50023477  0.75025114  0.59355686
   0.66803615  0.91441304  0.49988736
   0.58333333  0.08333333  0.40830017
   0.41705049  0.16550550  0.49950699
   0.50054511 -0.00109507  0.59396367
   0.41768508  0.41682739  0.50004807
   0.50063122  0.25047508  0.59397499
   0.58333333  0.83333333  0.40830017
   0.24917027  0.25081752  0.59430778
   0.16556845  0.66794920  0.50046451
   0.33333333  0.08333333  0.40830017
   0.00064660  0.74915231  0.59260035
   0.08333333  0.83333333  0.40830017
   0.91601444  0.16740734  0.49987456
  -0.00086179  0.25009094  0.59264811
   0.91572429  0.41715373  0.49971445
   0.08333333  0.33333333  0.40830017
   0.24931595  0.50120284  0.59292998
   0.91612301  0.66656915  0.49993728
   0.16617009  0.91661426  0.49975155
   0.66791349  0.16773366  0.49972590
   0.24924722  0.74974398  0.59267615
   0.08333333  0.08333333  0.40830017
   0.66792242  0.66584661  0.49969973
   0.83333333  0.08333333  0.40830017
   0.66795902  0.41549002  0.49964994
   0.83333333  0.58333333  0.40830017
   0.75049376  0.25009736  0.59248224
   0.41642346  0.91639981  0.49972481
   0.83333333  0.83333333  0.40830017
   0.58333333  0.58333333  0.40830017
   0.58333333  0.33333333  0.40830017
   0.75059575  0.74959269  0.59272464
Direct configuration=     3
   0.15959410  0.42318380  0.49995484
   0.24790898 -0.00198146  0.59823899
  -0.00217552  0.50421336  0.59801405
   0.75283616  0.49726947  0.59691929
   0.00100979  0.00070501  0.59802590
   0.92154348  0.91416948  0.49756746
   0.83333333  0.33333333  0.40830017
   0.75222197 -0.00073276  0.59926070
   0.16082092  0.16476519  0.49728896
   0.49951262  0.49909490  0.59922248
   0.33333333  0.33333333  0.40830017
   0.41611616  0.66963323  0.49986180
   0.08333333  0.58333333  0.40830017
   0.33333333  0.58333333  0.40830017
   0.33333333  0.83333333  0.40830017
   0.50081128  0.75086784  0.59811714
   0.67139916  0.90887886  0.49961074
   0.58333333  0.08333333  0.40830017
   0.41799302  0.16265406  0.49829630
   0.50188373 -0.00378423  0.59952295
   0.42018597  0.41722209  0.50016612
   0.50218131  0.25164174  0.59956207
   0.58333333  0.83333333  0.40830017
   0.24713272  0.25282508  0.60071209
   0.16287156  0.67109869  0.50160520
   0.33333333  0.08333333  0.40830017
   0.00223445  0.74707064  0.59481173
   0.08333333  0.83333333  0.40830017
   0.91441279  0.16922622  0.49956651
  -0.00297808  0.25031426  0.59497677
   0.91341010  0.41834979  0.49901324
   0.08333333  0.33333333  0.40830017
   0.24763613  0.50415665  0.59595085
   0.91478796  0.66632967  0.49978324
   0.16495065  0.91648558  0.49914144
   0.67097530  0.17035387  0.49905281
   0.24739863  0.74911529  0.59507368
   0.08333333  0.08333333  0.40830017
   0.67100615  0.66383281  0.49896237
   0.83333333  0.08333333  0.40830017
   0.67113263  0.41260054  0.49879029
   0.83333333  0.58333333  0.40830017
   0.75170627  0.25033643  0.59440360
   0.41582621  0.91574451  0.49904902
   0.83333333  0.83333333  0.40830017
   0.58333333  0.58333333  0.40830017
   0.58333333  0.33333333  0.40830017
   0.75205874  0.74859246  0.59524125
Direct configuration=     4
   0.15998030  0.42199666  0.50209108
   0.24769788 -0.00154858  0.60054775
  -0.00214247  0.50419206  0.60063134
   0.75243545  0.49741545  0.59900614
   0.00039820  0.00044529  0.60040150
   0.92031856  0.91558920  0.49902376
   0.83333333  0.33333333  0.40830017
   0.75320266 -0.00128834  0.60176922
   0.16092815  0.16518587  0.49903356
   0.49947738  0.50005240  0.60205301
   0.33333333  0.33333333  0.40830017
   0.41756454  0.66899279  0.50189611
   0.08333333  0.58333333  0.40830017
   0.33333333  0.58333333  0.40830017
   0.33333333  0.83333333  0.40830017
   0.50130072  0.74962542  0.60048974
   0.67189141  0.90970912  0.50166912
   0.58333333  0.08333333  0.40830017
   0.41749235  0.16260654  0.50086202
   0.50166943 -0.00275265  0.60224441
   0.42031967  0.41700732  0.50226096
   0.50195288  0.25101319  0.60227067
   0.58333333  0.83333333  0.40830017
   0.24690737  0.25293928  0.60360916
   0.16340858  0.67077297  0.50273388
   0.33333333  0.08333333  0.40830017
   0.00163837  0.74795550  0.59616602
   0.08333333  0.83333333  0.40830017
   0.91458070  0.16838906  0.50063587
  -0.00238987  0.25032236  0.59609879
   0.91288901  0.41907468  0.50018238
   0.08333333  0.33333333  0.40830017
   0.24781973  0.50391207  0.59752335
   0.91478463  0.66572089  0.50079046
   0.16438527  0.91704310  0.50039568
   0.67170966  0.16886770  0.50045525
   0.24757849  0.74878986  0.59650739
   0.08333333  0.08333333  0.40830017
   0.67098891  0.66210776  0.50014393
   0.83333333  0.08333333  0.40830017
   0.67083508  0.41388896  0.49996076
   0.83333333  0.58333333  0.40830017
   0.75199334  0.25017463  0.59559305
   0.41559718  0.91591936  0.50079416
   0.83333333  0.83333333  0.40830017
   0.58333333  0.58333333  0.40830017
   0.58333333  0.33333333  0.40830017
   0.75233152  0.74861588  0.59678010
Direct configuration=     5
   0.16113890  0.41843524  0.50849982
   0.24706458 -0.00024996  0.60747402
  -0.00204332  0.50412813  0.60848319
   0.75123330  0.49785340  0.60526669
  -0.00143656 -0.00033385  0.60752829
   0.91664382  0.91984836  0.50339266
   0.83333333  0.33333333  0.40830017
   0.75614475 -0.00295510  0.60929478
   0.16124984  0.16644792  0.50426734
   0.49937167  0.50292490  0.61054458
   0.33333333  0.33333333  0.40830017
   0.42190969  0.66707150  0.50799903
   0.08333333  0.58333333  0.40830017
   0.33333333  0.58333333  0.40830017
   0.33333333  0.83333333  0.40830017
   0.50276904  0.74589814  0.60760753
   0.67336818  0.91219989  0.50784425
   0.58333333  0.08333333  0.40830017
   0.41599032  0.16246400  0.50855919
   0.50102652  0.00034210  0.61040881
   0.42072077  0.41636303  0.50854549
   0.50126760  0.24912752  0.61039645
   0.58333333  0.83333333  0.40830017
   0.24623132  0.25328189  0.61230039
   0.16501965  0.66979583  0.50611993
   0.33333333  0.08333333  0.40830017
  -0.00014985  0.75061011  0.60022890
   0.08333333  0.83333333  0.40830017
   0.91508441  0.16587761  0.50384395
  -0.00062523  0.25034666  0.59946485
   0.91132574  0.42124933  0.50368978
   0.08333333  0.33333333  0.40830017
   0.24837054  0.50317835  0.60224084
   0.91477464  0.66389454  0.50381209
   0.16268912  0.91871568  0.50415839
   0.67391273  0.16440917  0.50466256
   0.24811808  0.74781359  0.60080853
   0.08333333  0.08333333  0.40830017
   0.67093719  0.65693263  0.50368861
   0.83333333  0.08333333  0.40830017
   0.66994243  0.41775424  0.50347214
   0.83333333  0.58333333  0.40830017
   0.75285458  0.24968923  0.59916141
   0.41491009  0.91644390  0.50602958
   0.83333333  0.83333333  0.40830017
   0.58333333  0.58333333  0.40830017
   0.58333333  0.33333333  0.40830017
   0.75314988  0.74868614  0.60139666
Direct configuration=     6
   0.16329466  0.41744224  0.50943604
   0.24853678 -0.00132257  0.60852642
  -0.00186483  0.50353958  0.60984633
   0.75270349  0.49739647  0.60649968
   0.00088951 -0.00001929  0.60867661
   0.91921989  0.91589011  0.50457856
   0.83333333  0.33333333  0.40830017
   0.75295454 -0.00134513  0.61092065
   0.16250638  0.16642434  0.50524739
   0.49974109  0.49890902  0.61220503
   0.33333333  0.33333333  0.40830017
   0.41882868  0.66757618  0.50859408
   0.08333333  0.58333333  0.40830017
   0.33333333  0.58333333  0.40830017
   0.33333333  0.83333333  0.40830017
   0.50155221  0.75074208  0.60906792
   0.66918428  0.91294930  0.50871527
   0.58333333  0.08333333  0.40830017
   0.41685453  0.16387013  0.50981040
   0.50118239 -0.00174789  0.61187541
   0.42139084  0.41443275  0.50960316
   0.50203171  0.25050655  0.61179093
   0.58333333  0.83333333  0.40830017
   0.24667275  0.25277949  0.61414676
   0.16547723  0.66862204  0.50640410
   0.33333333  0.08333333  0.40830017
   0.00065663  0.74945547  0.60097127
   0.08333333  0.83333333  0.40830017
   0.91548531  0.16763506  0.50485197
  -0.00047501  0.25056399  0.60041469
   0.91416028  0.41847011  0.50518020
   0.08333333  0.33333333  0.40830017
   0.24915387  0.50197634  0.60372845
   0.91618429  0.66424341  0.50487686
   0.16481827  0.91758524  0.50567673
   0.66836694  0.16761049  0.50603742
   0.24793188  0.74959925  0.60204474
   0.08333333  0.08333333  0.40830017
   0.66923734  0.66330840  0.50521238
   0.83333333  0.08333333  0.40830017
   0.66918407  0.41427142  0.50483831
   0.83333333  0.58333333  0.40830017
   0.75066984  0.25045177  0.60007655
   0.41664266  0.91563896  0.50771687
   0.83333333  0.83333333  0.40830017
   0.58333333  0.58333333  0.40830017
   0.58333333  0.33333333  0.40830017
   0.75121435  0.74923805  0.60254895
Direct configuration=     7
   0.16330882  0.41743571  0.50944218
   0.24854645 -0.00132961  0.60853333
  -0.00186366  0.50353571  0.60985529
   0.75271315  0.49739346  0.60650778
   0.00090479 -0.00001722  0.60868416
   0.91923681  0.91586411  0.50458635
   0.83333333  0.33333333  0.40830017
   0.75293359 -0.00133455  0.61093133
   0.16251463  0.16642419  0.50525383
   0.49974352  0.49888264  0.61221593
   0.33333333  0.33333333  0.40830017
   0.41880845  0.66757949  0.50859799
   0.08333333  0.58333333  0.40830017
   0.33333333  0.58333333  0.40830017
   0.33333333  0.83333333  0.40830017
   0.50154422  0.75077389  0.60907752
   0.66915680  0.91295422  0.50872100
   0.58333333  0.08333333  0.40830017
   0.41686020  0.16387936  0.50981862
   0.50118341 -0.00176162  0.61188505
   0.42139524  0.41442007  0.50961011
   0.50203673  0.25051560  0.61180009
   0.58333333  0.83333333  0.40830017
   0.24667565  0.25277619  0.61415889
   0.16548023  0.66861433  0.50640597
   0.33333333  0.08333333  0.40830017
   0.00066193  0.74944788  0.60097615
   0.08333333  0.83333333  0.40830017
   0.91548794  0.16764660  0.50485859
  -0.00047402  0.25056541  0.60042093
   0.91417890  0.41845186  0.50518999
   0.08333333  0.33333333  0.40830017
   0.24915902  0.50196845  0.60373822
   0.91619355  0.66424570  0.50488385
   0.16483225  0.91757781  0.50568670
   0.66833052  0.16763151  0.50604645
   0.24793066  0.74961098  0.60205286
   0.08333333  0.08333333  0.40830017
   0.66922617  0.66335028  0.50522239
   0.83333333  0.08333333  0.40830017
   0.66917909  0.41424855  0.50484729
   0.83333333  0.58333333  0.40830017
   0.75065549  0.25045678  0.60008256
   0.41665404  0.91563367  0.50772796
   0.83333333  0.83333333  0.40830017
   0.58333333  0.58333333  0.40830017
   0.58333333  0.33333333  0.40830017
   0.75120164  0.74924167  0.60255651
Direct configuration=     8
   0.16428204  0.41760849  0.50942866
   0.24885761 -0.00070609  0.60878536
  -0.00155389  0.50344275  0.61007655
   0.75168352  0.49817357  0.60667651
   0.00039925  0.00078119  0.60872946
   0.91861192  0.91581111  0.50496851
   0.83333333  0.33333333  0.40830017
   0.75239794 -0.00094598  0.61125604
   0.16473465  0.16514745  0.50526377
   0.49991890  0.49961269  0.61262777
   0.33333333  0.33333333  0.40830017
   0.41833262  0.66683895  0.50854536
   0.08333333  0.58333333  0.40830017
   0.33333333  0.58333333  0.40830017
   0.33333333  0.83333333  0.40830017
   0.50133094  0.74996043  0.60951065
   0.66815405  0.91380069  0.50857225
   0.58333333  0.08333333  0.40830017
   0.41684930  0.16428275  0.50992329
   0.50085803 -0.00099736  0.61248252
   0.42018771  0.41518646  0.50956497
   0.50171757  0.25001856  0.61245667
   0.58333333  0.83333333  0.40830017
   0.24765469  0.25196183  0.61490066
   0.16651698  0.66696833  0.50639852
   0.33333333  0.08333333  0.40830017
   0.00081119  0.74913016  0.60137329
   0.08333333  0.83333333  0.40830017
   0.91524588  0.16730131  0.50523114
  -0.00021446  0.25014484  0.60118457
   0.91399033  0.41871765  0.50577267
   0.08333333  0.33333333  0.40830017
   0.24911223  0.50180573  0.60457547
   0.91672005  0.66419943  0.50542618
   0.16586293  0.91739587  0.50628942
   0.66793563  0.16671022  0.50652677
   0.24885134  0.74925996  0.60274641
   0.08333333  0.08333333  0.40830017
   0.66869624  0.66463067  0.50599487
   0.83333333  0.08333333  0.40830017
   0.66881329  0.41443118  0.50540934
   0.83333333  0.58333333  0.40830017
   0.75069235  0.24998625  0.60067902
   0.41673866  0.91581075  0.50820348
   0.83333333  0.83333333  0.40830017
   0.58333333  0.58333333  0.40830017
   0.58333333  0.33333333  0.40830017
   0.75127711  0.74907982  0.60316124
Direct configuration=     9
   0.16453721  0.41765379  0.50942512
   0.24893920 -0.00054260  0.60885144
  -0.00147267  0.50341838  0.61013457
   0.75141355  0.49837811  0.60672076
   0.00026670  0.00099054  0.60874134
   0.91844807  0.91579722  0.50506871
   0.83333333  0.33333333  0.40830017
   0.75225749 -0.00084409  0.61134117
   0.16531672  0.16481270  0.50526638
   0.49996488  0.49980410  0.61273575
   0.33333333  0.33333333  0.40830017
   0.41820786  0.66664478  0.50853156
   0.08333333  0.58333333  0.40830017
   0.33333333  0.58333333  0.40830017
   0.33333333  0.83333333  0.40830017
   0.50127502  0.74974714  0.60962421
   0.66789113  0.91402263  0.50853325
   0.58333333  0.08333333  0.40830017
   0.41684644  0.16438852  0.50995073
   0.50077271 -0.00079698  0.61263917
   0.41987110  0.41538741  0.50955314
   0.50163388  0.24988823  0.61262882
   0.58333333  0.83333333  0.40830017
   0.24791139  0.25174830  0.61509515
   0.16678880  0.66653675  0.50639657
   0.33333333  0.08333333  0.40830017
   0.00085032  0.74904685  0.60147742
   0.08333333  0.83333333  0.40830017
   0.91518241  0.16721078  0.50532882
  -0.00014641  0.25003456  0.60138480
   0.91394088  0.41878734  0.50592545
   0.08333333  0.33333333  0.40830017
   0.24909997  0.50176306  0.60479499
   0.91685810  0.66418730  0.50556838
   0.16613317  0.91734817  0.50644745
   0.66783209  0.16646866  0.50665271
   0.24909273  0.74916793  0.60292826
   0.08333333  0.08333333  0.40830017
   0.66855729  0.66496638  0.50619741
   0.83333333  0.08333333  0.40830017
   0.66871738  0.41447907  0.50555671
   0.83333333  0.58333333  0.40830017
   0.75070201  0.24986288  0.60083541
   0.41676085  0.91585718  0.50832816
   0.83333333  0.83333333  0.40830017
   0.58333333  0.58333333  0.40830017
   0.58333333  0.33333333  0.40830017
   0.75129689  0.74903738  0.60331980
Direct configuration=    10
   0.16414078  0.41744564  0.50940261
   0.24887938 -0.00030940  0.60901999
  -0.00113748  0.50278958  0.61010230
   0.75140991  0.49825426  0.60673830
   0.00000944  0.00076756  0.60857938
   0.91859804  0.91583909  0.50517141
   0.83333333  0.33333333  0.40830017
   0.75279716 -0.00141451  0.61143428
   0.16514077  0.16509127  0.50522077
   0.49987467  0.49990975  0.61294673
   0.33333333  0.33333333  0.40830017
   0.41872413  0.66656371  0.50841700
   0.08333333  0.58333333  0.40830017
   0.33333333  0.58333333  0.40830017
   0.33333333  0.83333333  0.40830017
   0.50109309  0.74945903  0.60986210
   0.66847826  0.91376697  0.50844912
   0.58333333  0.08333333  0.40830017
   0.41679080  0.16458343  0.50987347
   0.50108727 -0.00105013  0.61312789
   0.42003570  0.41530263  0.50956991
   0.50118489  0.25040102  0.61308816
   0.58333333  0.83333333  0.40830017
   0.24776170  0.25201352  0.61562073
   0.16655318  0.66694079  0.50657630
   0.33333333  0.08333333  0.40830017
   0.00105761  0.74939198  0.60175993
   0.08333333  0.83333333  0.40830017
   0.91537510  0.16678226  0.50549270
  -0.00007128  0.25027405  0.60182526
   0.91387412  0.41895772  0.50624215
   0.08333333  0.33333333  0.40830017
   0.24928788  0.50174057  0.60538923
   0.91667846  0.66422360  0.50587252
   0.16590201  0.91707712  0.50677405
   0.66825862  0.16609562  0.50689294
   0.24913182  0.74893347  0.60336482
   0.08333333  0.08333333  0.40830017
   0.66842423  0.66451778  0.50657569
   0.83333333  0.08333333  0.40830017
   0.66869851  0.41497664  0.50578094
   0.83333333  0.58333333  0.40830017
   0.75064364  0.24993840  0.60133849
   0.41698599  0.91532638  0.50851832
   0.83333333  0.83333333  0.40830017
   0.58333333  0.58333333  0.40830017
   0.58333333  0.33333333  0.40830017
   0.75128509  0.74945999  0.60372976
Direct configuration=    11
   0.16397364  0.41735788  0.50939312
   0.24885416 -0.00021108  0.60909106
  -0.00099616  0.50252446  0.61008869
   0.75140838  0.49820205  0.60674569
  -0.00009902  0.00067355  0.60851110
   0.91866126  0.91585675  0.50521471
   0.83333333  0.33333333  0.40830017
   0.75302469 -0.00165501  0.61147354
   0.16506659  0.16520873  0.50520153
   0.49983663  0.49995430  0.61303569
   0.33333333  0.33333333  0.40830017
   0.41894180  0.66652953  0.50836870
   0.08333333  0.58333333  0.40830017
   0.33333333  0.58333333  0.40830017
   0.33333333  0.83333333  0.40830017
   0.50101638  0.74933756  0.60996239
   0.66872580  0.91365919  0.50841365
   0.58333333  0.08333333  0.40830017
   0.41676734  0.16466561  0.50984089
   0.50121990 -0.00115686  0.61333394
   0.42010510  0.41526688  0.50957698
   0.50099558  0.25061722  0.61328183
   0.58333333  0.83333333  0.40830017
   0.24769858  0.25212535  0.61584233
   0.16645384  0.66711114  0.50665208
   0.33333333  0.08333333  0.40830017
   0.00114500  0.74953750  0.60187904
   0.08333333  0.83333333  0.40830017
   0.91545634  0.16660159  0.50556180
  -0.00003960  0.25037502  0.60201097
   0.91384597  0.41902955  0.50637568
   0.08333333  0.33333333  0.40830017
   0.24936711  0.50173109  0.60563977
   0.91660272  0.66423891  0.50600075
   0.16580455  0.91696284  0.50691176
   0.66843845  0.16593833  0.50699423
   0.24914829  0.74883462  0.60354888
   0.08333333  0.08333333  0.40830017
   0.66836813  0.66432864  0.50673519
   0.83333333  0.08333333  0.40830017
   0.66869055  0.41518642  0.50587548
   0.83333333  0.58333333  0.40830017
   0.75061904  0.24997025  0.60155060
   0.41708091  0.91510258  0.50859849
   0.83333333  0.83333333  0.40830017
   0.58333333  0.58333333  0.40830017
   0.58333333  0.33333333  0.40830017
   0.75128011  0.74963817  0.60390260
Direct configuration=    12
   0.16373726  0.41761571  0.50951144
   0.24867676 -0.00021103  0.60918485
  -0.00110505  0.50281591  0.61000794
   0.75172428  0.49804009  0.60685350
   0.00022025  0.00068911  0.60841239
   0.91896217  0.91563139  0.50511035
   0.83333333  0.33333333  0.40830017
   0.75279477 -0.00155027  0.61152698
   0.16433412  0.16519859  0.50526598
   0.49970805  0.49971013  0.61319029
   0.33333333  0.33333333  0.40830017
   0.41877256  0.66671871  0.50841186
   0.08333333  0.58333333  0.40830017
   0.33333333  0.58333333  0.40830017
   0.33333333  0.83333333  0.40830017
   0.50093682  0.74961823  0.61014771
   0.66895107  0.91319174  0.50848665
   0.58333333  0.08333333  0.40830017
   0.41703074  0.16416129  0.50991593
   0.50141309 -0.00127994  0.61370598
   0.42032113  0.41512483  0.50975353
   0.50115104  0.25058543  0.61358610
   0.58333333  0.83333333  0.40830017
   0.24775606  0.25220657  0.61624970
   0.16637727  0.66722281  0.50696469
   0.33333333  0.08333333  0.40830017
   0.00154783  0.74913500  0.60211426
   0.08333333  0.83333333  0.40830017
   0.91549695  0.16691885  0.50570256
   0.00000444  0.25026280  0.60223820
   0.91373116  0.41880969  0.50647208
   0.08333333  0.33333333  0.40830017
   0.24928292  0.50188725  0.60586359
   0.91643602  0.66420671  0.50618130
   0.16592502  0.91673661  0.50703687
   0.66869475  0.16635946  0.50716722
   0.24908497  0.74877899  0.60377069
   0.08333333  0.08333333  0.40830017
   0.66871000  0.66400280  0.50685276
   0.83333333  0.08333333  0.40830017
   0.66907747  0.41475883  0.50595401
   0.83333333  0.58333333  0.40830017
   0.75052980  0.25003396  0.60190522
   0.41720222  0.91518990  0.50871298
   0.83333333  0.83333333  0.40830017
   0.58333333  0.58333333  0.40830017
   0.58333333  0.33333333  0.40830017
   0.75138444  0.74958489  0.60414628
Direct configuration=    13
   0.16366279  0.41769694  0.50954871
   0.24862088 -0.00021101  0.60921440
  -0.00113936  0.50290772  0.60998250
   0.75182381  0.49798907  0.60688747
   0.00032083  0.00069402  0.60838129
   0.91905697  0.91556039  0.50507747
   0.83333333  0.33333333  0.40830017
   0.75272233 -0.00151727  0.61154382
   0.16410336  0.16519540  0.50528629
   0.49966754  0.49963321  0.61323900
   0.33333333  0.33333333  0.40830017
   0.41871925  0.66677831  0.50842546
   0.08333333  0.58333333  0.40830017
   0.33333333  0.58333333  0.40830017
   0.33333333  0.83333333  0.40830017
   0.50091176  0.74970666  0.61020610
   0.66902203  0.91304447  0.50850964
   0.58333333  0.08333333  0.40830017
   0.41711373  0.16400241  0.50993956
   0.50147395 -0.00131871  0.61382319
   0.42038919  0.41508008  0.50980916
   0.50120001  0.25057541  0.61368196
   0.58333333  0.83333333  0.40830017
   0.24777417  0.25223216  0.61637804
   0.16635314  0.66725799  0.50706318
   0.33333333  0.08333333  0.40830017
   0.00167473  0.74900820  0.60218837
   0.08333333  0.83333333  0.40830017
   0.91550974  0.16701880  0.50574690
   0.00001832  0.25022745  0.60230979
   0.91369499  0.41874043  0.50650245
   0.08333333  0.33333333  0.40830017
   0.24925640  0.50193645  0.60593411
   0.91638351  0.66419656  0.50623819
   0.16596297  0.91666534  0.50707629
   0.66877549  0.16649214  0.50722172
   0.24906502  0.74876146  0.60384057
   0.08333333  0.08333333  0.40830017
   0.66881770  0.66390015  0.50688980
   0.83333333  0.08333333  0.40830017
   0.66919936  0.41462412  0.50597874
   0.83333333  0.58333333  0.40830017
   0.75050169  0.25005403  0.60201694
   0.41724043  0.91521741  0.50874905
   0.83333333  0.83333333  0.40830017
   0.58333333  0.58333333  0.40830017
   0.58333333  0.33333333  0.40830017
   0.75141731  0.74956811  0.60422305
Direct configuration=    14
   0.16404267  0.41745715  0.50969797
   0.24883147 -0.00020911  0.60928761
  -0.00108738  0.50301053  0.60997932
   0.75166141  0.49808029  0.60704683
   0.00023532  0.00070567  0.60831149
   0.91894310  0.91556542  0.50499873
   0.83333333  0.33333333  0.40830017
   0.75283162 -0.00142002  0.61154030
   0.16416959  0.16515230  0.50539608
   0.49974498  0.49975418  0.61337612
   0.33333333  0.33333333  0.40830017
   0.41875650  0.66668210  0.50858057
   0.08333333  0.58333333  0.40830017
   0.33333333  0.58333333  0.40830017
   0.33333333  0.83333333  0.40830017
   0.50106863  0.74964392  0.61031638
   0.66907607  0.91302891  0.50866039
   0.58333333  0.08333333  0.40830017
   0.41706198  0.16385525  0.51010760
   0.50120747 -0.00105490  0.61411197
   0.42032057  0.41496997  0.51001270
   0.50132507  0.25025183  0.61391870
   0.58333333  0.83333333  0.40830017
   0.24789017  0.25215951  0.61667354
   0.16653286  0.66695204  0.50725064
   0.33333333  0.08333333  0.40830017
   0.00159793  0.74907774  0.60239887
   0.08333333  0.83333333  0.40830017
   0.91534254  0.16711483  0.50586526
   0.00012602  0.25016285  0.60247881
   0.91377965  0.41851909  0.50648962
   0.08333333  0.33333333  0.40830017
   0.24924628  0.50181295  0.60600695
   0.91645805  0.66411764  0.50628725
   0.16622308  0.91655370  0.50705864
   0.66893462  0.16647167  0.50730177
   0.24925927  0.74870925  0.60399883
   0.08333333  0.08333333  0.40830017
   0.66886792  0.66374904  0.50687774
   0.83333333  0.08333333  0.40830017
   0.66928220  0.41438659  0.50602623
   0.83333333  0.58333333  0.40830017
   0.75062930  0.25001544  0.60228364
   0.41716054  0.91539897  0.50883046
   0.83333333  0.83333333  0.40830017
   0.58333333  0.58333333  0.40830017
   0.58333333  0.33333333  0.40830017
   0.75143657  0.74948137  0.60440044
Direct configuration=    15
   0.16420972  0.41735170  0.50976361
   0.24892408 -0.00020828  0.60931981
  -0.00106452  0.50305574  0.60997792
   0.75159000  0.49812041  0.60711691
   0.00019772  0.00071079  0.60828080
   0.91889303  0.91556763  0.50496410
   0.83333333  0.33333333  0.40830017
   0.75287968 -0.00137726  0.61153876
   0.16419871  0.16513335  0.50544436
   0.49977904  0.49980738  0.61343642
   0.33333333  0.33333333  0.40830017
   0.41877289  0.66663979  0.50864877
   0.08333333  0.58333333  0.40830017
   0.33333333  0.58333333  0.40830017
   0.33333333  0.83333333  0.40830017
   0.50113760  0.74961632  0.61036487
   0.66909983  0.91302207  0.50872668
   0.58333333  0.08333333  0.40830017
   0.41703922  0.16379054  0.51018149
   0.50109029 -0.00093889  0.61423895
   0.42029040  0.41492154  0.51010220
   0.50138006  0.25010954  0.61402280
   0.58333333  0.83333333  0.40830017
   0.24794118  0.25212756  0.61680349
   0.16661189  0.66681750  0.50733307
   0.33333333  0.08333333  0.40830017
   0.00156416  0.74910831  0.60249144
   0.08333333  0.83333333  0.40830017
   0.91526902  0.16715705  0.50591730
   0.00017338  0.25013445  0.60255314
   0.91381688  0.41842176  0.50648397
   0.08333333  0.33333333  0.40830017
   0.24924184  0.50175864  0.60603899
   0.91649083  0.66408294  0.50630883
   0.16633746  0.91650461  0.50705089
   0.66900459  0.16646267  0.50733697
   0.24934469  0.74868629  0.60406843
   0.08333333  0.08333333  0.40830017
   0.66889000  0.66368259  0.50687243
   0.83333333  0.08333333  0.40830017
   0.66931862  0.41428213  0.50604712
   0.83333333  0.58333333  0.40830017
   0.75068541  0.24999847  0.60240092
   0.41712541  0.91547881  0.50886626
   0.83333333  0.83333333  0.40830017
   0.58333333  0.58333333  0.40830017
   0.58333333  0.33333333  0.40830017
   0.75144504  0.74944322  0.60447845
Direct configuration=    16
   0.16441662  0.41694710  0.50985983
   0.24903027 -0.00029220  0.60939496
  -0.00104739  0.50282697  0.61001374
   0.75167749  0.49809209  0.60725783
   0.00038229  0.00055358  0.60819501
   0.91909063  0.91537345  0.50495752
   0.83333333  0.33333333  0.40830017
   0.75296865 -0.00150262  0.61153248
   0.16439737  0.16516054  0.50554983
   0.49989656  0.49967612  0.61361677
   0.33333333  0.33333333  0.40830017
   0.41899338  0.66640596  0.50878819
   0.08333333  0.58333333  0.40830017
   0.33333333  0.58333333  0.40830017
   0.33333333  0.83333333  0.40830017
   0.50132238  0.74966628  0.61045692
   0.66893250  0.91313381  0.50891320
   0.58333333  0.08333333  0.40830017
   0.41717825  0.16382445  0.51035584
   0.50114004 -0.00098989  0.61449170
   0.42050899  0.41465733  0.51026961
   0.50149095  0.25014065  0.61424584
   0.58333333  0.83333333  0.40830017
   0.24774601  0.25226447  0.61709043
   0.16660189  0.66679356  0.50740088
   0.33333333  0.08333333  0.40830017
   0.00136543  0.74940285  0.60261968
   0.08333333  0.83333333  0.40830017
   0.91539031  0.16688970  0.50600537
   0.00027429  0.25023940  0.60268429
   0.91405955  0.41836321  0.50648927
   0.08333333  0.33333333  0.40830017
   0.24948529  0.50153904  0.60614601
   0.91674724  0.66385914  0.50631367
   0.16630102  0.91646689  0.50700566
   0.66880202  0.16628316  0.50739199
   0.24940681  0.74878042  0.60418341
   0.08333333  0.08333333  0.40830017
   0.66882955  0.66372703  0.50684549
   0.83333333  0.08333333  0.40830017
   0.66905004  0.41436807  0.50611023
   0.83333333  0.58333333  0.40830017
   0.75072547  0.25011360  0.60259479
   0.41722062  0.91530494  0.50891854
   0.83333333  0.83333333  0.40830017
   0.58333333  0.58333333  0.40830017
   0.58333333  0.33333333  0.40830017
   0.75128704  0.74962544  0.60458966
Direct configuration=    17
   0.16442284  0.41693493  0.50986272
   0.24903347 -0.00029472  0.60939722
  -0.00104687  0.50282009  0.61001481
   0.75168012  0.49809124  0.60726207