       N       E                     dE             d eps       ncg     rms          rms(c)
DAV:   1     0.320140581451E+04    0.32014E+04   -0.18979E+05  3672   0.112E+03
DAV:   2     0.158855797267E+02   -0.31855E+04   -0.29296E+04  4380   0.263E+02
DAV:   3    -0.199603322020E+03   -0.21549E+03   -0.20058E+03  4164   0.651E+01
DAV:   4    -0.205384028697E+03   -0.57807E+01   -0.57102E+01  4260   0.107E+01
DAV:   5    -0.205564776216E+03   -0.18075E+00   -0.18014E+00  4428   0.194E+00    0.627E+01
RMM:   6    -0.207334442810E+03   -0.17697E+01   -0.95194E+01  3679   0.153E+01    0.602E+01
RMM:   7    -0.221153330635E+03   -0.13819E+02   -0.62195E+01  3681   0.120E+01    0.546E+01
RMM:   8    -0.214850651092E+03    0.63027E+01   -0.90083E+01  3680   0.143E+01    0.410E+01
RMM:   9    -0.210269696066E+03    0.45810E+01   -0.56329E+01  3681   0.120E+01    0.350E+01
RMM:  10    -0.196172123220E+03    0.14098E+02   -0.16357E+01  3682   0.689E+00    0.183E+01
RMM:  11    -0.192408796566E+03    0.37633E+01   -0.13287E+01  3681   0.568E+00    0.154E+01
RMM:  12    -0.188927367098E+03    0.34814E+01   -0.44070E+00  3681   0.326E+00    0.972E+00
RMM:  13    -0.188335340407E+03    0.59203E+00   -0.14138E+00  3680   0.182E+00    0.615E+00
RMM:  14    -0.188413757704E+03   -0.78417E-01   -0.71703E-01  3680   0.126E+00    0.671E+00
RMM:  15    -0.188416101418E+03   -0.23437E-02   -0.45380E-01  3681   0.107E+00    0.586E+00
RMM:  16    -0.188164558991E+03    0.25154E+00   -0.37411E-01  3681   0.965E-01    0.412E+00
RMM:  17    -0.188033832132E+03    0.13073E+00   -0.17206E-01  3680   0.631E-01    0.262E+00
RMM:  18    -0.187957248539E+03    0.76584E-01   -0.72590E-02  3683   0.406E-01    0.117E+00
RMM:  19    -0.187938337101E+03    0.18911E-01   -0.24584E-02  3681   0.233E-01    0.615E-01
RMM:  20    -0.187935574363E+03    0.27627E-02   -0.45783E-03  3685   0.100E-01    0.453E-01
RMM:  21    -0.187933835097E+03    0.17393E-02   -0.36196E-03  3681   0.889E-02    0.396E-01
RMM:  22    -0.187932658275E+03    0.11768E-02   -0.26965E-03  3684   0.791E-02    0.328E-01
RMM:  23    -0.187931794632E+03    0.86364E-03   -0.11256E-03  3681   0.513E-02    0.194E-01
RMM:  24    -0.187931527462E+03    0.26717E-03   -0.47507E-04  3682   0.336E-02    0.919E-02
RMM:  25    -0.187931745418E+03   -0.21796E-03   -0.28805E-04  3681   0.258E-02    0.986E-02
RMM:  26    -0.187931905536E+03   -0.16012E-03   -0.18077E-04  3679   0.187E-02    0.632E-02
RMM:  27    -0.187932295437E+03   -0.38990E-03   -0.80646E-05  3680   0.127E-02    0.396E-02
RMM:  28    -0.187932869823E+03   -0.57439E-03   -0.63341E-05  3672   0.106E-02    0.243E-02
RMM:  29    -0.187933438892E+03   -0.56907E-03   -0.38558E-05  3672   0.844E-03    0.235E-02
RMM:  30    -0.187934245409E+03   -0.80652E-03   -0.56909E-05  3672   0.104E-02    0.222E-02
RMM:  31    -0.187934693386E+03   -0.44798E-03   -0.30958E-05  3460   0.713E-03    0.174E-02
RMM:  32    -0.187934906261E+03   -0.21287E-03   -0.13770E-05  2983   0.466E-03    0.968E-03
RMM:  33    -0.187935050694E+03   -0.14443E-03   -0.53073E-06  2669   0.300E-03    0.600E-03
RMM:  34    -0.187935145078E+03   -0.94384E-04   -0.23941E-06  2386   0.216E-03    0.323E-03
RMM:  35    -0.187935230462E+03   -0.85383E-04   -0.14458E-06  2221   0.167E-03    0.264E-03
RMM:  36    -0.187935269928E+03   -0.39466E-04   -0.75398E-07  2151   0.118E-03    0.247E-03
RMM:  37    -0.187935309806E+03   -0.39879E-04   -0.95087E-07  2177   0.133E-03    0.206E-03
RMM:  38    -0.187935318476E+03   -0.86698E-05   -0.32598E-07  1593   0.695E-04    0.172E-03
RMM:  39    -0.187935322735E+03   -0.42590E-05   -0.15176E-07  1351   0.537E-04    0.840E-04
RMM:  40    -0.187935325293E+03   -0.25577E-05   -0.71072E-08  1209   0.436E-04    0.616E-04
RMM:  41    -0.187935328260E+03   -0.29670E-05   -0.94637E-08  1337   0.427E-04    0.438E-04
RMM:  42    -0.187935330424E+03   -0.21639E-05   -0.38465E-08   732   0.354E-04    0.337E-04
RMM:  43    -0.187935331492E+03   -0.10678E-05   -0.40209E-08   769   0.378E-04    0.253E-04
RMM:  44    -0.187935332129E+03   -0.63694E-06   -0.24218E-08   640   0.351E-04
   1 F= -.18793533E+03 E0= -.18781694E+03  d E =-.187935E+03
       N       E                     dE             d eps       ncg     rms          rms(c)
DAV:   1    -0.189054649947E+03   -0.11193E+01   -0.38258E+02  3684   0.300E+01    0.381E+00
RMM:   2    -0.189446895321E+03   -0.39225E+00   -0.40526E+00  3679   0.435E+00    0.226E+00
RMM:   3    -0.189595027218E+03   -0.14813E+00   -0.35640E-01  3707   0.103E+00    0.361E+00
RMM:   4    -0.189467101765E+03    0.12793E+00   -0.15233E-01  3687   0.610E-01    0.234E+00
RMM:   5    -0.189452848858E+03    0.14253E-01   -0.89720E-02  3682   0.469E-01    0.179E+00
RMM:   6    -0.189426197071E+03    0.26652E-01   -0.40365E-02  3686   0.333E-01    0.845E-01
RMM:   7    -0.189420522097E+03    0.56750E-02   -0.14146E-02  3681   0.191E-01    0.487E-01
RMM:   8    -0.189418373031E+03    0.21491E-02   -0.43513E-03  3682   0.105E-01    0.261E-01
RMM:   9    -0.189417810309E+03    0.56272E-03   -0.15201E-03  3686   0.614E-02    0.153E-01
RMM:  10    -0.189417692941E+03    0.11737E-03   -0.58396E-04  3686   0.378E-02    0.118E-01
RMM:  11    -0.189417566253E+03    0.12669E-03   -0.17849E-04  3687   0.214E-02    0.495E-02
RMM:  12    -0.189417567483E+03   -0.12298E-05   -0.47646E-05  3684   0.110E-02    0.402E-02
RMM:  13    -0.189417556236E+03    0.11247E-04   -0.24879E-05  3672   0.818E-03    0.185E-02
RMM:  14    -0.189417555314E+03    0.92175E-06   -0.90026E-06  3228   0.486E-03
   2 F= -.18941756E+03 E0= -.18930156E+03  d E =-.148222E+01
       N       E                     dE             d eps       ncg     rms          rms(c)
DAV:   1    -0.188028643742E+03    0.13889E+01   -0.35934E+03  3672   0.945E+01    0.908E+00
RMM:   2    -0.191448395331E+03   -0.34198E+01   -0.35614E+01  3681   0.130E+01    0.521E+00
RMM:   3    -0.191699795866E+03   -0.25140E+00   -0.19501E+00  3709   0.244E+00    0.632E+00
RMM:   4    -0.191510143333E+03    0.18965E+00   -0.59919E-01  3682   0.125E+00    0.584E+00
RMM:   5    -0.191534127724E+03   -0.23984E-01   -0.53521E-01  3684   0.111E+00    0.496E+00
RMM:   6    -0.191269537228E+03    0.26459E+00   -0.38512E-01  3682   0.100E+00    0.219E+00
RMM:   7    -0.191232121293E+03    0.37416E-01   -0.12865E-01  3681   0.569E-01    0.145E+00
RMM:   8    -0.191206738361E+03    0.25383E-01   -0.36651E-02  3684   0.306E-01    0.558E-01
RMM:   9    -0.191204105196E+03    0.26332E-02   -0.10863E-02  3682   0.163E-01    0.380E-01
RMM:  10    -0.191202897975E+03    0.12072E-02   -0.38535E-03  3687   0.968E-02    0.217E-01
RMM:  11    -0.191202798934E+03    0.99041E-04   -0.12745E-03  3683   0.564E-02    0.189E-01
RMM:  12    -0.191202588083E+03    0.21085E-03   -0.49743E-04  3684   0.368E-02    0.104E-01
RMM:  13    -0.191202533511E+03    0.54571E-04   -0.20653E-04  3683   0.227E-02    0.666E-02
RMM:  14    -0.191202502576E+03    0.30935E-04   -0.65098E-05  3680   0.131E-02    0.247E-02
RMM:  15    -0.191202509138E+03   -0.65624E-05   -0.18286E-05  3675   0.679E-03    0.168E-02
RMM:  16    -0.191202515127E+03   -0.59893E-05   -0.49495E-06  2867   0.363E-03    0.759E-03
RMM:  17    -0.191202522865E+03   -0.77378E-05   -0.14949E-06  2147   0.208E-03    0.627E-03
RMM:  18    -0.191202530046E+03   -0.71809E-05   -0.77602E-07  2093   0.159E-03    0.227E-03
RMM:  19    -0.191202537454E+03   -0.74084E-05   -0.36262E-07  2078   0.912E-04    0.219E-03
RMM:  20    -0.191202543160E+03   -0.57058E-05   -0.19820E-07  1558   0.670E-04    0.109E-03
RMM:  21    -0.191202551829E+03   -0.86689E-05   -0.27223E-07  1795   0.643E-04    0.149E-03
RMM:  22    -0.191202560349E+03   -0.85199E-05   -0.38621E-07  1800   0.694E-04    0.134E-03
RMM:  23    -0.191202566372E+03   -0.60232E-05   -0.37955E-07  1735   0.640E-04    0.630E-04
RMM:  24    -0.191202568190E+03   -0.18177E-05   -0.15597E-07  1203   0.441E-04    0.525E-04
RMM:  25    -0.191202569782E+03   -0.15915E-05   -0.12108E-07  1117   0.434E-04    0.283E-04
RMM:  26    -0.191202570400E+03   -0.61859E-06   -0.54322E-08   817   0.397E-04
   3 F= -.19120257E+03 E0= -.19109428E+03  d E =-.326724E+01
       N       E                     dE             d eps       ncg     rms          rms(c)
DAV:   1    -0.191195542362E+03    0.70274E-02   -0.19258E+01  3744   0.669E+00    0.574E-01
RMM:   2    -0.191215923223E+03   -0.20381E-01   -0.21215E-01  3685   0.995E-01    0.366E-01
RMM:   3    -0.191217571982E+03   -0.16488E-02   -0.13407E-02  3713   0.209E-01    0.537E-01
RMM:   4    -0.191215258297E+03    0.23137E-02   -0.34408E-03  3686   0.101E-01    0.281E-01
RMM:   5    -0.191217779257E+03   -0.25210E-02   -0.27870E-03  3683   0.802E-02    0.529E-01
RMM:   6    -0.191215274074E+03    0.25052E-02   -0.25927E-03  3687   0.775E-02    0.260E-01
RMM:   7    -0.191214733418E+03    0.54066E-03   -0.10250E-03  3680   0.511E-02    0.106E-01
RMM:   8    -0.191214628772E+03    0.10465E-03   -0.22405E-04  3680   0.237E-02    0.633E-02
RMM:   9    -0.191214582107E+03    0.46666E-04   -0.10031E-04  3683   0.158E-02    0.338E-02
RMM:  10    -0.191214570736E+03    0.11371E-04   -0.42238E-05  3678   0.991E-03    0.202E-02
RMM:  11    -0.191214567456E+03    0.32796E-05   -0.97683E-06  3589   0.490E-03    0.926E-03
RMM:  12    -0.191214567460E+03   -0.37035E-08   -0.16527E-06  2096   0.221E-03
   4 F= -.19121457E+03 E0= -.19110679E+03  d E =-.327924E+01
       N       E                     dE             d eps       ncg     rms          rms(c)
DAV:   1    -0.191332848045E+03   -0.11828E+00   -0.28491E+02  3672   0.261E+01    0.237E+00
RMM:   2    -0.191636970746E+03   -0.30412E+00   -0.32090E+00  3687   0.381E+00    0.145E+00
RMM:   3    -0.191732587794E+03   -0.95617E-01   -0.21647E-01  3703   0.802E-01    0.330E+00
RMM:   4    -0.191641019809E+03    0.91568E-01   -0.66148E-02  3687   0.414E-01    0.148E+00
RMM:   5    -0.191629314369E+03    0.11705E-01   -0.33313E-02  3681   0.288E-01    0.108E+00
RMM:   6    -0.191628371028E+03    0.94334E-03   -0.37251E-02  3684   0.305E-01    0.915E-01
RMM:   7    -0.191619943153E+03    0.84279E-02   -0.14440E-02  3681   0.191E-01    0.366E-01
RMM:   8    -0.191618814961E+03    0.11282E-02   -0.36124E-03  3681   0.947E-02    0.273E-01
RMM:   9    -0.191617802666E+03    0.10123E-02   -0.13893E-03  3682   0.594E-02    0.864E-02
RMM:  10    -0.191617772118E+03    0.30547E-04   -0.35979E-04  3683   0.295E-02    0.723E-02
RMM:  11    -0.191617718533E+03    0.53585E-04   -0.10811E-04  3683   0.160E-02    0.273E-02
RMM:  12    -0.191617723659E+03   -0.51263E-05   -0.35661E-05  3684   0.942E-03    0.289E-02
RMM:  13    -0.191617717869E+03    0.57909E-05   -0.12102E-05  3670   0.578E-03    0.922E-03
RMM:  14    -0.191617718873E+03   -0.10047E-05   -0.28364E-06  2477   0.281E-03    0.633E-03
RMM:  15    -0.191617719977E+03   -0.11039E-05   -0.11010E-06  2020   0.186E-03    0.242E-03
RMM:  16    -0.191617721034E+03   -0.10572E-05   -0.30235E-07  1982   0.990E-04    0.211E-03
RMM:  17    -0.191617722675E+03   -0.16404E-05   -0.16581E-07  1993   0.708E-04    0.137E-03
RMM:  18    -0.191617723942E+03   -0.12670E-05   -0.56248E-08  1081   0.478E-04    0.109E-03
RMM:  19    -0.191617724845E+03   -0.90364E-06   -0.14697E-08   636   0.421E-04
   5 F= -.19161772E+03 E0= -.19151251E+03  d E =-.403157E+00
       N       E                     dE             d eps       ncg     rms          rms(c)
DAV:   1    -0.191611905235E+03    0.58187E-02   -0.29135E+01  3672   0.834E+00    0.696E-01
RMM:   2    -0.191643544676E+03   -0.31639E-01   -0.33221E-01  3685   0.123E+00    0.478E-01
RMM:   3    -0.191656015735E+03   -0.12471E-01   -0.24122E-02  3704   0.265E-01    0.115E+00
RMM:   4    -0.191643460496E+03    0.12555E-01   -0.72992E-03  3687   0.137E-01    0.469E-01
RMM:   5    -0.191642088494E+03    0.13720E-02   -0.27886E-03  3682   0.849E-02    0.289E-01
RMM:   6    -0.191642360185E+03   -0.27169E-03   -0.39439E-03  3685   0.987E-02    0.286E-01
RMM:   7    -0.191641547698E+03    0.81249E-03   -0.16099E-03  3681   0.638E-02    0.113E-01
RMM:   8    -0.191641449847E+03    0.97852E-04   -0.36105E-04  3683   0.302E-02    0.880E-02
RMM:   9    -0.191641342495E+03    0.10735E-03   -0.14378E-04  3681   0.191E-02    0.298E-02
RMM:  10    -0.191641336861E+03    0.56340E-05   -0.39937E-05  3678   0.979E-03    0.226E-02
RMM:  11    -0.191641331411E+03    0.54501E-05   -0.12722E-05  3672   0.540E-03    0.847E-03
RMM:  12    -0.191641332187E+03   -0.77621E-06   -0.42847E-06  2750   0.334E-03
   6 F= -.19164133E+03 E0= -.19153680E+03  d E =-.426765E+00
       N       E                     dE             d eps       ncg     rms          rms(c)
DAV:   1    -0.191652165314E+03   -0.10834E-01   -0.32109E+01  3672   0.876E+00    0.755E-01
RMM:   2    -0.191686359684E+03   -0.34194E-01   -0.36289E-01  3687   0.128E+00    0.489E-01
RMM:   3    -0.191699441101E+03   -0.13081E-01   -0.25561E-02  3704   0.273E-01    0.116E+00
RMM:   4    -0.191686561219E+03    0.12880E-01   -0.78285E-03  3689   0.141E-01    0.486E-01
RMM:   5    -0.191685242173E+03    0.13190E-02   -0.35419E-03  3681   0.947E-02    0.325E-01
RMM:   6    -0.191685190826E+03    0.51347E-04   -0.40712E-03  3685   0.101E-01    0.277E-01
RMM:   7    -0.191684450871E+03    0.73995E-03   -0.15016E-03  3682   0.616E-02    0.119E-01
RMM:   8    -0.191684325738E+03    0.12513E-03   -0.35630E-04  3683   0.309E-02    0.797E-02
RMM:   9    -0.191684243193E+03    0.82544E-04   -0.13768E-04  3684   0.184E-02    0.363E-02
RMM:  10    -0.191684231093E+03    0.12101E-04   -0.44333E-05  3680   0.103E-02    0.235E-02
RMM:  11    -0.191684225340E+03    0.57522E-05   -0.14377E-05  3672   0.586E-03    0.920E-03
RMM:  12    -0.191684225818E+03   -0.47788E-06   -0.47045E-06  2920   0.347E-03
   7 F= -.19168423E+03 E0= -.19158054E+03  d E =-.428936E-01
       N       E                     dE             d eps       ncg     rms          rms(c)
DAV:   1    -0.191684029492E+03    0.19585E-03   -0.23171E+00  3720   0.235E+00    0.196E-01
RMM:   2    -0.191686492363E+03   -0.24629E-02   -0.26218E-02  3686   0.345E-01    0.132E-01
RMM:   3    -0.191687382714E+03   -0.89035E-03   -0.18537E-03  3704   0.737E-02    0.303E-01
RMM:   4    -0.191686480438E+03    0.90228E-03   -0.55056E-04  3690   0.375E-02    0.131E-01
RMM:   5    -0.191686403002E+03    0.77436E-04   -0.24066E-04  3681   0.247E-02    0.866E-02
RMM:   6    -0.191686407814E+03   -0.48118E-05   -0.30174E-04  3683   0.275E-02    0.778E-02
RMM:   7    -0.191686349500E+03    0.58314E-04   -0.11940E-04  3682   0.174E-02    0.320E-02
RMM:   8    -0.191686340863E+03    0.86373E-05   -0.25390E-05  3672   0.832E-03    0.204E-02
RMM:   9    -0.191686335535E+03    0.53275E-05   -0.98993E-06  3656   0.493E-03    0.106E-02
RMM:  10    -0.191686334315E+03    0.12203E-05   -0.33159E-06  2432   0.292E-03    0.629E-03
RMM:  11    -0.191686333961E+03    0.35461E-06   -0.13344E-06  1957   0.209E-03
   8 F= -.19168633E+03 E0= -.19158288E+03  d E =-.450018E-01
       N       E                     dE             d eps       ncg     rms          rms(c)
DAV:   1    -0.191689332925E+03   -0.29986E-02   -0.56005E+00  3672   0.362E+00    0.221E-01
RMM:   2    -0.191695116094E+03   -0.57832E-02   -0.60455E-02  3685   0.527E-01    0.190E-01
RMM:   3    -0.191695802402E+03   -0.68631E-03   -0.36140E-03  3723   0.107E-01    0.287E-01
RMM:   4    -0.191695101700E+03    0.70070E-03   -0.74880E-04  3681   0.446E-02    0.181E-01
RMM:   5    -0.191694935973E+03    0.16573E-03   -0.47958E-04  3683   0.348E-02    0.147E-01
RMM:   6    -0.191694843741E+03    0.92232E-04   -0.69205E-04  3682   0.411E-02    0.119E-01
RMM:   7    -0.191694758368E+03    0.85373E-04   -0.40766E-04  3686   0.319E-02    0.578E-02
RMM:   8    -0.191694732940E+03    0.25428E-04   -0.71125E-05  3682   0.138E-02    0.329E-02
RMM:   9    -0.191694718052E+03    0.14888E-04   -0.24582E-05  3677   0.782E-03    0.226E-02
RMM:  10    -0.191694708857E+03    0.91945E-05   -0.19181E-05  3678   0.665E-03    0.108E-02
RMM:  11    -0.191694707539E+03    0.13182E-05   -0.71998E-06  3671   0.403E-03    0.731E-03
RMM:  12    -0.191694707045E+03    0.49464E-06   -0.30522E-06  2139   0.280E-03
   9 F= -.19169471E+03 E0= -.19159116E+03  d E =-.837308E-02
       N       E                     dE             d eps       ncg     rms          rms(c)
DAV:   1    -0.191694057009E+03    0.65053E-03   -0.22669E+00  3684   0.230E+00    0.139E-01
RMM:   2    -0.191696393980E+03   -0.23370E-02   -0.24450E-02  3684   0.335E-01    0.120E-01
RMM:   3    -0.191696663314E+03   -0.26933E-03   -0.14590E-03  3724   0.679E-02    0.181E-01
RMM:   4    -0.191696378919E+03    0.28439E-03   -0.29403E-04  3683   0.280E-02    0.113E-01
RMM:   5    -0.191696316989E+03    0.61930E-04   -0.18624E-04  3682   0.217E-02    0.929E-02
RMM:   6    -0.191696279814E+03    0.37175E-04   -0.28048E-04  3681   0.261E-02    0.748E-02
RMM:   7    -0.191696247148E+03    0.32667E-04   -0.16745E-04  3686   0.204E-02    0.365E-02
RMM:   8    -0.191696236930E+03    0.10217E-04   -0.28386E-05  3678   0.872E-03    0.208E-02
RMM:   9    -0.191696231294E+03    0.56369E-05   -0.97494E-06  3672   0.492E-03    0.154E-02
RMM:  10    -0.191696227455E+03    0.38384E-05   -0.74881E-06  3668   0.418E-03    0.801E-03
RMM:  11    -0.191696226663E+03    0.79261E-06   -0.26621E-06  2109   0.263E-03
  10 F= -.19169623E+03 E0= -.19159262E+03  d E =-.989270E-02
       N       E                     dE             d eps       ncg     rms          rms(c)
DAV:   1    -0.191696875161E+03   -0.64771E-03   -0.61889E+00  3684   0.379E+00    0.202E-01
RMM:   2    -0.191703262225E+03   -0.63871E-02   -0.65860E-02  3683   0.555E-01    0.204E-01
RMM:   3    -0.191703508584E+03   -0.24636E-03   -0.38556E-03  3781   0.112E-01    0.221E-01
RMM:   4    -0.191703298557E+03    0.21003E-03   -0.60541E-04  3679   0.403E-02    0.204E-01
RMM:   5    -0.191703018551E+03    0.28001E-03   -0.36992E-04  3684   0.304E-02    0.153E-01
RMM:   6    -0.191702920952E+03    0.97599E-04   -0.81369E-04  3681   0.441E-02    0.138E-01
RMM:   7    -0.191702831843E+03    0.89109E-04   -0.68474E-04  3686   0.408E-02    0.756E-02
RMM:   8    -0.191702797961E+03    0.33882E-04   -0.11591E-04  3684   0.174E-02    0.418E-02
RMM:   9    -0.191702777582E+03    0.20379E-04   -0.26507E-05  3678   0.820E-03    0.319E-02
RMM:  10    -0.191702760160E+03    0.17422E-04   -0.31614E-05  3682   0.853E-03    0.165E-02
RMM:  11    -0.191702756700E+03    0.34593E-05   -0.17378E-05  3674   0.621E-03    0.102E-02
RMM:  12    -0.191702755761E+03    0.93960E-06   -0.89781E-06  3672   0.445E-03
  11 F= -.19170276E+03 E0= -.19159898E+03  d E =-.652910E-02
       N       E                     dE             d eps       ncg     rms          rms(c)
DAV:   1    -0.191699404987E+03    0.33517E-02   -0.61833E+00  3684   0.379E+00    0.199E-01
RMM:   2    -0.191705776761E+03   -0.63718E-02   -0.65680E-02  3683   0.555E-01    0.203E-01
RMM:   3    -0.191706012148E+03   -0.23539E-03   -0.38402E-03  3782   0.112E-01    0.219E-01
RMM:   4    -0.191705801815E+03    0.21033E-03   -0.59221E-04  3679   0.400E-02    0.202E-01
RMM:   5    -0.191705525295E+03    0.27652E-03   -0.35901E-04  3684   0.300E-02    0.153E-01
RMM:   6    -0.191705427110E+03    0.98185E-04   -0.81693E-04  3681   0.442E-02    0.138E-01
RMM:   7    -0.191705339341E+03    0.87769E-04   -0.69875E-04  3686   0.412E-02    0.756E-02
RMM:   8    -0.191705305586E+03    0.33755E-04   -0.11655E-04  3684   0.175E-02    0.421E-02
RMM:   9    -0.191705285141E+03    0.20445E-04   -0.26750E-05  3675   0.824E-03    0.326E-02
RMM:  10    -0.191705267470E+03    0.17671E-04   -0.31058E-05  3683   0.847E-03    0.176E-02
RMM:  11    -0.191705263722E+03    0.37483E-05   -0.16620E-05  3673   0.609E-03    0.110E-02
RMM:  12    -0.191705262527E+03    0.11949E-05   -0.10571E-05  3672   0.482E-03    0.323E-03
RMM:  13    -0.191705262694E+03   -0.16731E-06   -0.84550E-07  1956   0.162E-03
  12 F= -.19170526E+03 E0= -.19160128E+03  d E =-.903603E-02
       N       E                     dE             d eps       ncg     rms          rms(c)
DAV:   1    -0.191704897335E+03    0.36519E-03   -0.41177E+00  3684   0.312E+00    0.162E-01
RMM:   2    -0.191709174716E+03   -0.42774E-02   -0.44889E-02  3683   0.457E-01    0.152E-01
RMM:   3    -0.191709430500E+03   -0.25578E-03   -0.26226E-03  3748   0.915E-02    0.197E-01
RMM:   4    -0.191709140507E+03    0.28999E-03   -0.37640E-04  3674   0.321E-02    0.137E-01
RMM:   5    -0.191709018297E+03    0.12221E-03   -0.18806E-04  3686   0.221E-02    0.107E-01
RMM:   6    -0.191708943082E+03    0.75214E-04   -0.51764E-04  3681   0.352E-02    0.897E-02
RMM:   7    -0.191708933599E+03    0.94837E-05   -0.35675E-04  3687   0.293E-02    0.657E-02
RMM:   8    -0.191708908994E+03    0.24605E-04   -0.75268E-05  3685   0.139E-02    0.319E-02
RMM:   9    -0.191708897532E+03    0.11462E-04   -0.14962E-05  3672   0.619E-03    0.244E-02
RMM:  10    -0.191708887550E+03    0.99816E-05   -0.17525E-05  3678   0.641E-03    0.126E-02
RMM:  11    -0.191708885430E+03    0.21202E-05   -0.12200E-05  3672   0.519E-03    0.728E-03
RMM:  12    -0.191708885109E+03    0.32072E-06   -0.43433E-06  2904   0.321E-03
  13 F= -.19170889E+03 E0= -.19160469E+03  d E =-.362242E-02
       N       E                     dE             d eps       ncg     rms          rms(c)
DAV:   1    -0.191707512006E+03    0.13734E-02   -0.23939E+00  3684   0.238E+00    0.123E-01
RMM:   2    -0.191709994791E+03   -0.24828E-02   -0.26081E-02  3683   0.349E-01    0.116E-01
RMM:   3    -0.191710131487E+03   -0.13670E-03   -0.15186E-03  3749   0.697E-02    0.147E-01
RMM:   4    -0.191709971664E+03    0.15982E-03   -0.21470E-04  3675   0.243E-02    0.104E-01
RMM:   5    -0.191709901442E+03    0.70221E-04   -0.10672E-04  3685   0.166E-02    0.810E-02
RMM:   6    -0.191709858078E+03    0.43364E-04   -0.30873E-04  3681   0.272E-02    0.668E-02
RMM:   7    -0.191709856915E+03    0.11636E-05   -0.20628E-04  3687   0.223E-02    0.510E-02
RMM:   8    -0.191709841876E+03    0.15039E-04   -0.43541E-05  3682   0.106E-02    0.246E-02
RMM:   9    -0.191709835094E+03    0.67818E-05   -0.87644E-06  3617   0.474E-03    0.189E-02
RMM:  10    -0.191709829111E+03    0.59828E-05   -0.10254E-05  3672   0.491E-03    0.982E-03
RMM:  11    -0.191709827812E+03    0.12988E-05   -0.73362E-06  3655   0.402E-03    0.573E-03
RMM:  12    -0.191709827601E+03    0.21169E-06   -0.24197E-06  2018   0.251E-03
  14 F= -.19170983E+03 E0= -.19160546E+03  d E =-.456491E-02
       N       E                     dE             d eps       ncg     rms          rms(c)
DAV:   1    -0.191709069436E+03    0.75838E-03   -0.22674E+00  3684   0.232E+00    0.123E-01
RMM:   2    -0.191711487041E+03   -0.24176E-02   -0.25254E-02  3681   0.341E-01    0.120E-01
RMM:   3    -0.191711557317E+03   -0.70277E-04   -0.15407E-03  3735   0.697E-02    0.130E-01
RMM:   4    -0.191711471648E+03    0.85670E-04   -0.21943E-04  3678   0.246E-02    0.115E-01
RMM:   5    -0.191711368256E+03    0.10339E-03   -0.73491E-05  3686   0.139E-02    0.717E-02
RMM:   6    -0.191711368356E+03   -0.99433E-07   -0.24941E-04  3679   0.243E-02    0.836E-02
RMM:   7    -0.191711326855E+03    0.41501E-04   -0.23562E-04  3683   0.238E-02    0.388E-02
RMM:   8    -0.191711325116E+03    0.17393E-05   -0.41735E-05  3680   0.103E-02    0.240E-02
RMM:   9    -0.191711318724E+03    0.63921E-05   -0.77378E-06  3287   0.455E-03    0.169E-02
RMM:  10    -0.191711313668E+03    0.50560E-05   -0.91086E-06  3670   0.461E-03    0.943E-03
RMM:  11    -0.191711312607E+03    0.10612E-05   -0.49398E-06  3087   0.340E-03    0.613E-03
RMM:  12    -0.191711312380E+03    0.22616E-06   -0.27214E-06  2017   0.275E-03
  15 F= -.19171131E+03 E0= -.19160680E+03  d E =-.148478E-02
       N       E                     dE             d eps       ncg     rms          rms(c)
DAV:   1    -0.191711216189E+03    0.96417E-04   -0.22783E-01  3732   0.736E-01    0.385E-02
RMM:   2    -0.191711457361E+03   -0.24117E-03   -0.25304E-03  3681   0.108E-01    0.384E-02
RMM:   3    -0.191711460588E+03   -0.32270E-05   -0.15315E-04  3735   0.220E-02    0.386E-02
RMM:   4    -0.191711453852E+03    0.67359E-05   -0.20523E-05  3678   0.760E-03    0.357E-02
RMM:   5    -0.191711444706E+03    0.91458E-05   -0.66786E-06  3183   0.419E-03    0.232E-02
RMM:   6    -0.191711445876E+03   -0.11702E-05   -0.26267E-05  3680   0.794E-03    0.271E-02
RMM:   7    -0.191711441975E+03    0.39011E-05   -0.24615E-05  3674   0.769E-03    0.125E-02
RMM:   8    -0.191711441976E+03   -0.60390E-09   -0.40490E-06  2764   0.331E-03
  16 F= -.19171144E+03 E0= -.19160688E+03  d E =-.161438E-02
       N       E                     dE             d eps       ncg     rms          rms(c)
DAV:   1    -0.191710794354E+03    0.64762E-03   -0.17858E+00  3684   0.206E+00    0.102E-01
RMM:   2    -0.191712739464E+03   -0.19451E-02   -0.20056E-02  3679   0.304E-01    0.112E-01
RMM:   3    -0.191712722740E+03    0.16724E-04   -0.12667E-03  3758   0.633E-02    0.926E-02
RMM:   4    -0.191712679942E+03    0.42798E-04   -0.12771E-04  3677   0.196E-02    0.837E-02
RMM:   5    -0.191712652577E+03    0.27365E-04   -0.46427E-05  3684   0.108E-02    0.740E-02
RMM:   6    -0.191712633222E+03    0.19355E-04   -0.18598E-04  3682   0.209E-02    0.706E-02
RMM:   7    -0.191712605984E+03    0.27238E-04   -0.19688E-04  3681   0.216E-02    0.344E-02
RMM:   8    -0.191712608971E+03   -0.29867E-05   -0.37834E-05  3674   0.969E-03    0.246E-02
RMM:   9    -0.191712603787E+03    0.51838E-05   -0.53802E-06  2938   0.387E-03    0.172E-02
RMM:  10    -0.191712600258E+03    0.35295E-05   -0.51251E-06  3120   0.358E-03    0.126E-02
RMM:  11    -0.191712597855E+03    0.24027E-05   -0.63212E-06  3459   0.388E-03    0.575E-03
RMM:  12    -0.191712597629E+03    0.22555E-06   -0.36526E-06  2380   0.304E-03
  17 F= -.19171260E+03 E0= -.19160791E+03  d E =-.115565E-02
       N       E                     dE             d eps       ncg     rms          rms(c)
DAV:   1    -0.191711803372E+03    0.79448E-03   -0.13055E+00  3672   0.176E+00    0.858E-02
RMM:   2    -0.191713216989E+03   -0.14136E-02   -0.14558E-02  3679   0.260E-01    0.977E-02
RMM:   3    -0.191713195151E+03    0.21838E-04   -0.91297E-04  3765   0.538E-02    0.787E-02
RMM:   4    -0.191713164333E+03    0.30817E-04   -0.87882E-05  3676   0.163E-02    0.717E-02
RMM:   5    -0.191713145587E+03    0.18747E-04   -0.32630E-05  3681   0.909E-03    0.647E-02
RMM:   6    -0.191713133819E+03    0.11768E-04   -0.14484E-04  3683   0.184E-02    0.642E-02
RMM:   7    -0.191713110364E+03    0.23455E-04   -0.16149E-04  3677   0.195E-02    0.299E-02
RMM:   8    -0.191713112681E+03   -0.23178E-05   -0.28551E-05  3672   0.842E-03    0.214E-02
RMM:   9    -0.191713108588E+03    0.40938E-05   -0.39250E-06  2734   0.333E-03    0.151E-02
RMM:  10    -0.191713105643E+03    0.29450E-05   -0.44373E-06  2933   0.335E-03    0.107E-02
RMM:  11    -0.191713103963E+03    0.16793E-05   -0.49719E-06  3209   0.352E-03    0.497E-03
RMM:  12    -0.191713103852E+03    0.11139E-06   -0.27550E-06  2010   0.275E-03
  18 F= -.19171310E+03 E0= -.19160831E+03  d E =-.166188E-02
       N       E                     dE             d eps       ncg     rms          rms(c)
DAV:   1    -0.191712849910E+03    0.25405E-03   -0.32453E-01  3684   0.877E-01    0.426E-02
RMM:   2    -0.191713199546E+03   -0.34964E-03   -0.36139E-03  3679   0.130E-01    0.490E-02
RMM:   3    -0.191713192798E+03    0.67483E-05   -0.22649E-04  3767   0.268E-02    0.395E-02
RMM:   4    -0.191713185320E+03    0.74771E-05   -0.21680E-05  3676   0.808E-03    0.361E-02
RMM:   5    -0.191713180652E+03    0.46687E-05   -0.79424E-06  3381   0.451E-03    0.322E-02
RMM:   6    -0.191713179472E+03    0.11799E-05   -0.36957E-05  3682   0.934E-03    0.323E-02
RMM:   7    -0.191713174404E+03    0.50678E-05   -0.41320E-05  3673   0.988E-03    0.150E-02
RMM:   8    -0.191713175122E+03   -0.71843E-06   -0.70230E-06  3221   0.422E-03
  19 F= -.19171318E+03 E0= -.19160832E+03  d E =-.173315E-02
       N       E                     dE             d eps       ncg     rms          rms(c)
DAV:   1    -0.191712721293E+03    0.45311E-03   -0.12659E+00  3672   0.173E+00    0.837E-02
RMM:   2    -0.191714103770E+03   -0.13825E-02   -0.14262E-02  3679   0.256E-01    0.968E-02
RMM:   3    -0.191714076668E+03    0.27103E-04   -0.90825E-04  3759   0.534E-02    0.685E-02
RMM:   4    -0.191714042516E+03    0.34151E-04   -0.83475E-05  3674   0.162E-02    0.596E-02
RMM:   5    -0.191714049328E+03   -0.68114E-05   -0.29135E-05  3681   0.854E-03    0.674E-02
RMM:   6    -0.191714026043E+03    0.23285E-04   -0.12960E-04  3682   0.174E-02    0.529E-02
RMM:   7    -0.191714013279E+03    0.12764E-04   -0.12561E-04  3677   0.172E-02    0.236E-02
RMM:   8    -0.191714016869E+03   -0.35901E-05   -0.18493E-05  3672   0.678E-03    0.200E-02
RMM:   9    -0.191714013515E+03    0.33537E-05   -0.29453E-06  2471   0.292E-03    0.138E-02
RMM:  10    -0.191714010828E+03    0.26868E-05   -0.47172E-06  3011   0.344E-03    0.947E-03
RMM:  11    -0.191714009507E+03    0.13208E-05   -0.42877E-06  2769   0.331E-03    0.381E-03
RMM:  12    -0.191714009547E+03   -0.39880E-07   -0.17455E-06  1942   0.230E-03
  20 F= -.19171401E+03 E0= -.19160906E+03  d E =-.834425E-03
       N       E                     dE             d eps       ncg     rms          rms(c)
DAV:   1    -0.191713476459E+03    0.53305E-03   -0.96076E-01  3672   0.151E+00    0.702E-02
RMM:   2    -0.191714515039E+03   -0.10386E-02   -0.10694E-02  3679   0.223E-01    0.854E-02
RMM:   3    -0.191714485256E+03    0.29783E-04   -0.67002E-04  3777   0.460E-02    0.594E-02
RMM:   4    -0.191714460789E+03    0.24467E-04   -0.56559E-05  3675   0.134E-02    0.536E-02
RMM:   5    -0.191714465559E+03   -0.47700E-05   -0.20872E-05  3681   0.724E-03    0.603E-02
RMM:   6    -0.191714444636E+03    0.20923E-04   -0.12120E-04  3685   0.168E-02    0.462E-02
RMM:   7    -0.191714436240E+03    0.83953E-05   -0.10493E-04  3677   0.157E-02    0.217E-02
RMM:   8    -0.191714438311E+03   -0.20705E-05   -0.13319E-05  3664   0.578E-03    0.185E-02
RMM:   9    -0.191714435412E+03    0.28994E-05   -0.22727E-06  2255   0.258E-03    0.129E-02
RMM:  10    -0.191714433056E+03    0.23556E-05   -0.42854E-06  2849   0.330E-03    0.885E-03
RMM:  11    -0.191714431945E+03    0.11111E-05   -0.38442E-06  2527   0.319E-03    0.353E-03
RMM:  12    -0.191714432011E+03   -0.66044E-07   -0.16744E-06  1937   0.228E-03
  21 F= -.19171443E+03 E0= -.19160939E+03  d E =-.125689E-02
       N       E                     dE             d eps       ncg     rms          rms(c)
DAV:   1    -0.191710628171E+03    0.38038E-02   -0.38427E+00  3672   0.302E+00    0.141E-01
RMM:   2    -0.191714811418E+03   -0.41832E-02   -0.42813E-02  3679   0.445E-01    0.171E-01
RMM:   3    -0.191714706532E+03    0.10489E-03   -0.26863E-03  3769   0.922E-02    0.118E-01
RMM:   4    -0.191714597494E+03    0.10904E-03   -0.22603E-04  3674   0.268E-02    0.105E-01
RMM:   5    -0.191714631164E+03   -0.33670E-04   -0.95183E-05  3687   0.154E-02    0.126E-01
RMM:   6    -0.191714519653E+03    0.11151E-03   -0.46746E-04  3682   0.329E-02    0.955E-02
RMM:   7    -0.191714469788E+03    0.49865E-04   -0.41192E-04  3680   0.311E-02    0.429E-02
RMM:   8    -0.191714477300E+03   -0.75120E-05   -0.52166E-05  3675   0.114E-02    0.368E-02
RMM:   9    -0.191714465894E+03    0.11406E-04   -0.96013E-06  3498   0.512E-03    0.256E-02
RMM:  10    -0.191714457208E+03    0.86859E-05   -0.15806E-05  3672   0.608E-03    0.182E-02
RMM:  11    -0.191714452425E+03    0.47826E-05   -0.15905E-05  3675   0.590E-03    0.658E-03
RMM:  12    -0.191714452559E+03   -0.13391E-06   -0.50906E-06  3078   0.344E-03
  22 F= -.19171445E+03 E0= -.19160923E+03  d E =-.127744E-02
       N       E                     dE             d eps       ncg     rms          rms(c)
DAV:   1    -0.191713434118E+03    0.10183E-02   -0.11451E+00  3672   0.165E+00    0.777E-02
RMM:   2    -0.191714672084E+03   -0.12380E-02   -0.12790E-02  3679   0.243E-01    0.908E-02
RMM:   3    -0.191714644203E+03    0.27881E-04   -0.80283E-04  3769   0.503E-02    0.649E-02
RMM:   4    -0.191714613351E+03    0.30853E-04   -0.71293E-05  3675   0.150E-02    0.572E-02
RMM:   5    -0.191714620279E+03   -0.69280E-05   -0.26281E-05  3681   0.810E-03    0.656E-02
RMM:   6    -0.191714596076E+03    0.24203E-04   -0.12980E-04  3684   0.174E-02    0.503E-02
RMM:   7    -0.191714584474E+03    0.11602E-04   -0.11781E-04  3677   0.166E-02    0.242E-02
RMM:   8    -0.191714586799E+03   -0.23247E-05   -0.16719E-05  3672   0.646E-03    0.208E-02
RMM:   9    -0.191714583343E+03    0.34563E-05   -0.28813E-06  2438   0.286E-03    0.138E-02
RMM:  10    -0.191714581068E+03    0.22750E-05   -0.37754E-06  2639   0.315E-03    0.102E-02
RMM:  11    -0.191714579521E+03    0.15469E-05   -0.57500E-06  3330   0.376E-03    0.331E-03
RMM:  12    -0.191714579509E+03    0.12151E-07   -0.14344E-06  1946   0.203E-03
  23 F= -.19171458E+03 E0= -.19160945E+03  d E =-.140439E-02
       N       E                     dE             d eps       ncg     rms          rms(c)
DAV:   1    -0.191714093286E+03    0.48623E-03   -0.11764E+00  3672   0.168E+00    0.837E-02
RMM:   2    -0.191715346354E+03   -0.12531E-02   -0.12906E-02  3681   0.245E-01    0.909E-02
RMM:   3    -0.191715334589E+03    0.11765E-04   -0.79908E-04  3735   0.500E-02    0.755E-02
RMM:   4    -0.191715314172E+03    0.20417E-04   -0.90610E-05  3676   0.163E-02    0.740E-02
RMM:   5    -0.191715281408E+03    0.32764E-04   -0.32541E-05  3685   0.908E-03    0.557E-02
RMM:   6    -0.191715272161E+03    0.92475E-05   -0.16676E-04  3683   0.200E-02    0.470E-02
RMM:   7    -0.191715263902E+03    0.82587E-05   -0.10201E-04  3678   0.156E-02    0.249E-02
RMM:   8    -0.191715264227E+03   -0.32533E-06   -0.13456E-05  3666   0.587E-03    0.199E-02
RMM:   9    -0.191715260662E+03    0.35652E-05   -0.28124E-06  2449   0.285E-03    0.122E-02
RMM:  10    -0.191715258931E+03    0.17310E-05   -0.31131E-06  2308   0.292E-03    0.936E-03
RMM:  11    -0.191715257611E+03    0.13200E-05   -0.53884E-06  3216   0.371E-03    0.287E-03
RMM:  12    -0.191715257621E+03   -0.96334E-08   -0.10674E-06  1935   0.180E-03
  24 F= -.19171526E+03 E0= -.19161008E+03  d E =-.678112E-03
       N       E                     dE             d eps       ncg     rms          rms(c)
DAV:   1    -0.191714746229E+03    0.51138E-03   -0.68462E-01  3672   0.128E+00    0.633E-02
RMM:   2    -0.191715473562E+03   -0.72733E-03   -0.74911E-03  3681   0.187E-01    0.707E-02
RMM:   3    -0.191715462878E+03    0.10684E-04   -0.46278E-04  3736   0.381E-02    0.583E-02
RMM:   4    -0.191715451187E+03    0.11691E-04   -0.51460E-05  3675   0.123E-02    0.569E-02
RMM:   5    -0.191715431731E+03    0.19456E-04   -0.18733E-05  3681   0.692E-03    0.428E-02
RMM:   6    -0.191715428512E+03    0.32189E-05   -0.10269E-04  3686   0.157E-02    0.368E-02
RMM:   7    -0.191715423521E+03    0.49904E-05   -0.62451E-05  3679   0.122E-02    0.192E-02
RMM:   8    -0.191715423562E+03   -0.40971E-07   -0.78330E-06  3260   0.452E-03
  25 F= -.19171542E+03 E0= -.19161019E+03  d E =-.844054E-03
       N       E                     dE             d eps       ncg     rms          rms(c)
DAV:   1    -0.191715012719E+03    0.41080E-03   -0.79939E-01  3672   0.138E+00    0.695E-02
RMM:   2    -0.191715868273E+03   -0.85555E-03   -0.90036E-03  3680   0.203E-01    0.669E-02
RMM:   3    -0.191715876444E+03   -0.81705E-05   -0.55303E-04  3731   0.414E-02    0.633E-02
RMM:   4    -0.191715859378E+03    0.17066E-04   -0.64985E-05  3677   0.138E-02    0.573E-02
RMM:   5    -0.191715840458E+03    0.18920E-04   -0.19968E-05  3681   0.714E-03    0.425E-02
RMM:   6    -0.191715836371E+03    0.40869E-05   -0.90681E-05  3686   0.147E-02    0.353E-02
RMM:   7    -0.191715834314E+03    0.20574E-05   -0.58577E-05  3678   0.118E-02    0.206E-02
RMM:   8    -0.191715835523E+03   -0.12092E-05   -0.10852E-05  3574   0.518E-03    0.161E-02
RMM:   9    -0.191715833226E+03    0.22964E-05   -0.20904E-06  2197   0.250E-03    0.101E-02
RMM:  10    -0.191715831980E+03    0.12467E-05   -0.19268E-06  1953   0.233E-03    0.738E-03
RMM:  11    -0.191715831176E+03    0.80360E-06   -0.26265E-06  2044   0.276E-03
  26 F= -.19171583E+03 E0= -.19161062E+03  d E =-.407614E-03
