 vasp.5.4.1 24Jun15 (build Mar 14 2019 10:18:33) complex                        
  
 executed on INTEL-19.0.2+OPENMPI date 2022.07.15  15:19:28
 running on   36 total cores
 distrk:  each k-point on   36 cores,    1 groups
 distr:  one band on NCORES_PER_BAND=   6 cores,    6 groups


--------------------------------------------------------------------------------------------------------


 INCAR:
 POTCAR:    PAW_PBE Au 04Oct2007                  
 POTCAR:    PAW_PBE Pd 04Jan2005                  
 POTCAR:    PAW_PBE Au 04Oct2007                  
  local pseudopotential read in
  partial core-charges read in
  partial kinetic energy density read in
  atomic valenz-charges read in
  non local Contribution for L=           2  read in
    real space projection operators read in
  non local Contribution for L=           2  read in
    real space projection operators read in
  non local Contribution for L=           0  read in
    real space projection operators read in
  non local Contribution for L=           0  read in
    real space projection operators read in
  non local Contribution for L=           1  read in
    real space projection operators read in
  non local Contribution for L=           1  read in
    real space projection operators read in
    PAW grid and wavefunctions read in
 
   number of l-projection  operators is LMAX  =           6
   number of lm-projection operators is LMMAX =          18
 
 POTCAR:    PAW_PBE Pd 04Jan2005                  
  local pseudopotential read in
  partial core-charges read in
  partial kinetic energy density read in
  atomic valenz-charges read in
  non local Contribution for L=           2  read in
    real space projection operators read in
  non local Contribution for L=           2  read in
    real space projection operators read in
  non local Contribution for L=           0  read in
    real space projection operators read in
  non local Contribution for L=           0  read in
    real space projection operators read in
  non local Contribution for L=           1  read in
    real space projection operators read in
  non local Contribution for L=           1  read in
    real space projection operators read in
    PAW grid and wavefunctions read in
 
   number of l-projection  operators is LMAX  =           6
   number of lm-projection operators is LMMAX =          18
 
 Optimization of the real space projectors (new method)

 maximal supplied QI-value         = 15.12
 optimisation between [QCUT,QGAM] = [ 10.13, 20.41] = [ 28.73,116.64] Ry 
 Optimized for a Real-space Cutoff    1.51 Angstroem

   l    n(q)    QCUT    max X(q) W(low)/X(q) W(high)/X(q)  e(spline) 
   2      8    10.129    60.898    0.46E-03    0.46E-03    0.14E-06
   2      8    10.129    58.894    0.47E-03    0.47E-03    0.14E-06
   0      9    10.129   109.617    0.16E-03    0.11E-03    0.54E-07
   0      9    10.129    75.026    0.15E-03    0.11E-03    0.52E-07
   1      9    10.129    16.344    0.96E-04    0.15E-03    0.14E-06
   1      9    10.129    10.160    0.81E-04    0.12E-03    0.11E-06
 Optimization of the real space projectors (new method)

 maximal supplied QI-value         = 14.36
 optimisation between [QCUT,QGAM] = [ 10.20, 20.39] = [ 29.12,116.47] Ry 
 Optimized for a Real-space Cutoff    1.51 Angstroem

   l    n(q)    QCUT    max X(q) W(low)/X(q) W(high)/X(q)  e(spline) 
   2      8    10.197    59.108    0.26E-03    0.14E-03    0.96E-07
   2      8    10.197    58.101    0.27E-03    0.14E-03    0.98E-07
   0      9    10.197   102.235    0.54E-04    0.60E-05    0.72E-07
   0      9    10.197    58.388    0.52E-04    0.60E-05    0.68E-07
   1      9    10.197    22.191    0.18E-03    0.25E-03    0.79E-07
   1      9    10.197    15.590    0.15E-03    0.21E-03    0.69E-07
  PAW_PBE Au 04Oct2007                  :
 energy of atom  1       EATOM= -926.0867
 kinetic energy error for atom=    0.0062 (will be added to EATOM!!)
  PAW_PBE Pd 04Jan2005                  :
 energy of atom  2       EATOM= -809.7530
 kinetic energy error for atom=    0.0091 (will be added to EATOM!!)
 
 
 POSCAR: Au Pd                                   
  positions in cartesian coordinates
  No initial velocities read in
 exchange correlation table for  LEXCH =        8
   RHO(1)=    0.500       N(1)  =     2000
   RHO(2)=  100.500       N(2)  =     4000

 VTST: version 3.2, (02/03/18)

 CHAIN: initializing optimizer
 
 OPT: Using VASP Conjugate-Gradient optimizer
 CHAIN: Read ICHAIN            0
 
 POSCAR: Au Pd                                   
  positions in cartesian coordinates
  No initial velocities read in
 


--------------------------------------------------------------------------------------------------------


 ion  position               nearest neighbor table
   1  0.750  0.250  0.592-  27 2.75  23 2.75   3 2.75  22 2.75  30 2.75  47 2.75  45 2.75  19 2.75
                            32 2.75
   2  0.417  0.167  0.500-  42 2.75  37 2.75   7 2.75  36 2.75  12 2.75  40 2.75  21 2.75  11 2.75
                            32 2.75  41 2.75  19 2.75  13 2.75
   3  0.750  0.000  0.592-  32 2.75  14 2.75  19 2.75  24 2.75   1 2.75  48 2.75  37 2.75  22 2.75
                            12 2.75
   4  0.250  0.500  0.592-   5 2.75  36 2.75  19 2.75  24 2.75  34 2.75   7 2.75  44 2.75  47 2.75
                            40 2.75
   5  0.167  0.667  0.500-  18 2.75   4 2.75  24 2.75  14 2.75  36 2.75  38 2.75  40 2.75  17 2.75
                             8 2.75  43 2.75   6 2.75  34 2.75
   6  0.333  0.583  0.408-   8 2.75  15 2.75  39 2.75  41 2.75  43 2.75  35 2.75  18 2.75  36 2.75
                             5 2.75
   7  0.250  0.250  0.592-  40 2.75   2 2.75  10 2.75  37 2.75   4 2.75  44 2.75  19 2.75  45 2.75
                            11 2.75
   8  0.417  0.667  0.500-   6 2.75  47 2.75  34 2.75  21 2.75  36 2.75  38 2.75  27 2.75   5 2.75
                            29 2.75  39 2.75  16 2.75  35 2.75
   9  0.833  0.083  0.408-  23 2.75  15 2.75  26 2.75  31 2.75  43 2.75  25 2.75  13 2.75  14 2.75
                            32 2.75
  10  0.250  0.000  0.592-  11 2.75  21 2.75  16 2.75   7 2.75  34 2.75  45 2.75  37 2.75  22 2.75
                            38 2.75
  11  0.167  0.167  0.500-  25 2.75  10 2.75  45 2.75  20 2.75  38 2.75  40 2.75  21 2.75   2 2.75
                            23 2.75  46 2.75   7 2.75  42 2.75
  12  0.667  0.917  0.500-  33 2.75  48 2.75  37 2.75  32 2.75   2 2.75  17 2.75  29 2.75  21 2.75
                            14 2.75  13 2.75   3 2.75  31 2.75
  13  0.583  0.083  0.408-  32 2.75  31 2.75  15 2.75  33 2.75  41 2.75   9 2.75  42 2.75  12 2.75
                             2 2.75
  14  0.917  0.917  0.500-  31 2.75  24 2.75   3 2.75  23 2.75   5 2.75  17 2.75  32 2.75  12 2.75
                            38 2.75   9 2.75  22 2.75  43 2.75
  15  0.583  0.333  0.408-  27 2.75   9 2.75  13 2.75   6 2.75  35 2.75  26 2.75  41 2.75  32 2.75
                            36 2.75
  16  0.500  0.750  0.592-  21 2.75  29 2.75  10 2.75  30 2.75  37 2.75  47 2.75  34 2.75  48 2.75
                             8 2.75
  17  0.917  0.667  0.500-  28 2.75  44 2.75  48 2.75  12 2.75  40 2.75  14 2.75  20 2.75  29 2.75
                             5 2.75  31 2.75  18 2.75  24 2.75
  18  0.083  0.583  0.408-   5 2.75  31 2.75  41 2.75  43 2.75  46 2.75   6 2.75  28 2.75  40 2.75
                            17 2.75
  19  0.500  0.250  0.592-  36 2.75  32 2.75   3 2.75   4 2.75  37 2.75  47 2.75   1 2.75   7 2.75
                             2 2.75
  20  0.917  0.417  0.500-  26 2.75  45 2.75  30 2.75  11 2.75  29 2.75  17 2.75  23 2.75  40 2.75
                            27 2.75  28 2.75  44 2.75  46 2.75
  21  0.417  0.917  0.500-  39 2.75  16 2.75  10 2.75  11 2.75   8 2.75  29 2.75   2 2.75  38 2.75
                            12 2.75  42 2.75  37 2.75  33 2.75
  22  0.000  0.000  0.592-  23 2.75  38 2.75  24 2.75  34 2.75   1 2.75  45 2.75  10 2.75   3 2.75
                            14 2.75
  23  0.917  0.167  0.500-   9 2.75  22 2.75   1 2.75  20 2.75  14 2.75  27 2.75  38 2.75  32 2.75
                            11 2.75  26 2.75  25 2.75  45 2.75
  24  0.000  0.750  0.592-  14 2.75   5 2.75   3 2.75   4 2.75  22 2.75  44 2.75  34 2.75  48 2.75
                            17 2.75
  25  0.083  0.083  0.408-  11 2.75  26 2.75  39 2.75  43 2.75  46 2.75   9 2.75  42 2.75  38 2.75
                            23 2.75
  26  0.833  0.333  0.408-  20 2.75   9 2.75  25 2.75  28 2.75  35 2.75  15 2.75  46 2.75  23 2.75
                            27 2.75
  27  0.667  0.417  0.500-  15 2.75   1 2.75  47 2.75  23 2.75  29 2.75  32 2.75   8 2.75  36 2.75
                            20 2.75  35 2.75  26 2.75  30 2.75
  28  0.833  0.583  0.408-  17 2.75  26 2.75  31 2.75  33 2.75  46 2.75  35 2.75  18 2.75  20 2.75
                            29 2.75
  29  0.667  0.667  0.500-  35 2.75  30 2.75  16 2.75  21 2.75  27 2.75  12 2.75  20 2.75  17 2.75
                             8 2.75  33 2.75  28 2.75  48 2.75
  30  0.750  0.500  0.592-  29 2.75  20 2.75   1 2.75  16 2.75  45 2.75  48 2.75  47 2.75  44 2.75
                            27 2.75
  31  0.833  0.833  0.408-  14 2.75  13 2.75   9 2.75  18 2.75  28 2.75  33 2.75  43 2.75  17 2.75
                            12 2.75
  32  0.667  0.167  0.500-  13 2.75   3 2.75  19 2.75  14 2.75  12 2.75  27 2.75  36 2.75   2 2.75
                            23 2.75  15 2.75   1 2.75   9 2.75
  33  0.583  0.833  0.408-  12 2.75  13 2.75  28 2.75  35 2.75  42 2.75  39 2.75  31 2.75  29 2.75
                            21 2.75
  34  0.250  0.750  0.592-  38 2.75   8 2.75  10 2.75  22 2.75   4 2.75  47 2.75  16 2.75  24 2.75
                             5 2.75
  35  0.583  0.583  0.408-  29 2.75  26 2.75  15 2.75  33 2.75  39 2.75  28 2.75   6 2.75  27 2.75
                             8 2.75
  36  0.417  0.417  0.500-  41 2.75  19 2.75   4 2.75   8 2.75   2 2.75  32 2.75   5 2.75  40 2.75
                            27 2.75   6 2.75  15 2.75  47 2.75
  37  0.500  0.000  0.592-   2 2.75  12 2.75   7 2.75  16 2.75  19 2.75  48 2.75   3 2.75  10 2.75
                            21 2.75
  38  0.167  0.917  0.500-  43 2.75  34 2.75  22 2.75   5 2.75  23 2.75   8 2.75  11 2.75  14 2.75
                            21 2.75  25 2.75  39 2.75  10 2.75
  39  0.333  0.833  0.408-  21 2.75   6 2.75  25 2.75  35 2.75  42 2.75  33 2.75  43 2.75   8 2.75
                            38 2.75
  40  0.167  0.417  0.500-  46 2.75   7 2.75  44 2.75  11 2.75  17 2.75   5 2.75   2 2.75  20 2.75
                            36 2.75  18 2.75   4 2.75  41 2.75
  41  0.333  0.333  0.408-  36 2.75  13 2.75  18 2.75   6 2.75  42 2.75  15 2.75  46 2.75   2 2.75
                            40 2.75
  42  0.333  0.083  0.408-   2 2.75  33 2.75  39 2.75  41 2.75  46 2.75  13 2.75  25 2.75  21 2.75
                            11 2.75
  43  0.083  0.833  0.408-  38 2.75   9 2.75  18 2.75  25 2.75   6 2.75  31 2.75  39 2.75   5 2.75
                            14 2.75
  44  0.000  0.500  0.592-  17 2.75  40 2.75  24 2.75   7 2.75  45 2.75  48 2.75  30 2.75   4 2.75
                            20 2.75
  45  0.000  0.250  0.592-  20 2.75  11 2.75  10 2.75  22 2.75  30 2.75  44 2.75   1 2.75   7 2.75
                            23 2.75
  46  0.083  0.333  0.408-  40 2.75  25 2.75  28 2.75  18 2.75  42 2.75  41 2.75  26 2.75  11 2.75
                            20 2.75
  47  0.500  0.500  0.592-   8 2.75  27 2.75  16 2.75  19 2.75   1 2.75  34 2.75  30 2.75   4 2.75
                            36 2.75
  48  0.750  0.750  0.592-  12 2.75  17 2.75   3 2.75  30 2.75  37 2.75  44 2.75  24 2.75  16 2.75
                            29 2.75
 
  LATTYP: Found a hexagonal cell.
 ALAT       =    11.0025815153
 C/A-ratio  =     2.2260035120
  
  Lattice vectors:
  
 A1 = (   5.5012907576,  -9.5285150994,   0.0000000000)
 A2 = ( -11.0025815153,   0.0000000000,   0.0000000000)
 A3 = (   0.0000000000,   0.0000000000, -24.4917850943)


Analysis of symmetry for initial positions (statically):
=====================================================================
 Subroutine PRICEL returns:
 Original cell was already a primitive cell.
 

 Routine SETGRP: Setting up the symmetry group for a 
 hexagonal supercell.


 Subroutine GETGRP returns: Found  1 space group operations
 (whereof  1 operations were pure point group operations)
 out of a pool of 24 trial point group operations.


The static configuration has the point symmetry C_1 .


Analysis of symmetry for dynamics (positions and initial velocities):
=====================================================================
 Subroutine PRICEL returns:
 Original cell was already a primitive cell.
 

 Routine SETGRP: Setting up the symmetry group for a 
 hexagonal supercell.


 Subroutine GETGRP returns: Found  1 space group operations
 (whereof  1 operations were pure point group operations)
 out of a pool of 24 trial point group operations.


The dynamic configuration has the point symmetry C_1 .
 
 
 KPOINTS: Automatic mesh                          

Automatic generation of k-mesh.
Space group operators:
 irot       det(A)        alpha          n_x          n_y          n_z        tau_x        tau_y        tau_z
    1     1.000000     0.000000     1.000000     0.000000     0.000000     0.000000     0.000000     0.000000
 
 Subroutine IBZKPT returns following result:
 ===========================================
 
 Found      6 irreducible k-points:
 
 Following reciprocal coordinates:
            Coordinates               Weight
  0.250000  0.250000  0.000000     16.000000
  0.000000  0.250000  0.000000     16.000000
 -0.250000  0.000000  0.000000     16.000000
 -0.250000  0.250000  0.000000     16.000000
  0.500000 -0.250000  0.000000     16.000000
 -0.250000  0.500000  0.000000     16.000000
 
 Following cartesian coordinates:
            Coordinates               Weight
  0.022722  0.013119  0.000000     16.000000
  0.000000  0.026237  0.000000     16.000000
 -0.022722  0.013119  0.000000     16.000000
 -0.022722  0.039356  0.000000     16.000000
  0.045444 -0.052474  0.000000     16.000000
 -0.022722  0.065593  0.000000     16.000000
 


--------------------------------------------------------------------------------------------------------




 Dimension of arrays:
   k-points           NKPTS =      6   k-points in BZ     NKDIM =      6   number of bands    NBANDS=    306
   number of dos      NEDOS =    301   number of ions     NIONS =     48
   non local maximal  LDIM  =      6   non local SUM 2l+1 LMDIM =     18
   total plane-waves  NPLWV = 349920
   max r-space proj   IRMAX =   2009   max aug-charges    IRDMAX=   8532
   dimension x,y,z NGX =    54 NGY =   54 NGZ =  120
   dimension x,y,z NGXF=   108 NGYF=  108 NGZF=  240
   support grid    NGXF=   108 NGYF=  108 NGZF=  240
   ions per type =              24  24
 NGX,Y,Z   is equivalent  to a cutoff of   8.16,  8.16,  8.15 a.u.
 NGXF,Y,Z  is equivalent  to a cutoff of  16.32, 16.32, 16.29 a.u.


 I would recommend the setting:
   dimension x,y,z NGX =    54 NGY =   54 NGZ =  120
 SYSTEM =  unknown system                          
 POSCAR =  Au Pd                                   

 Startparameter for this run:
   NWRITE =      1    write-flag & timer
   PREC   = normal    normal or accurate (medium, high low for compatibility)
   ISTART =      0    job   : 0-new  1-cont  2-samecut
   ICHARG =      2    charge: 1-file 2-atom 10-const
   ISPIN  =      1    spin polarized calculation?
   LNONCOLLINEAR =      F non collinear calculations
   LSORBIT =      F    spin-orbit coupling
   INIWAV =      1    electr: 0-lowe 1-rand  2-diag
   LASPH  =      F    aspherical Exc in radial PAW
   METAGGA=      F    non-selfconsistent MetaGGA calc.

 Electronic Relaxation 1
   ENCUT  =  400.0 eV  29.40 Ry    5.42 a.u.  17.94 17.94 39.94*2*pi/ulx,y,z
   ENINI  =  400.0     initial cutoff
   ENAUG  =  416.2 eV  augmentation charge cutoff
   NELM   =    500;   NELMIN=  2; NELMDL= -5     # of ELM steps 
   EDIFF  = 0.1E-05   stopping-criterion for ELM
   LREAL  =      T    real-space projection
   NLSPLINE    = F    spline interpolate recip. space projectors
   LCOMPAT=      F    compatible to vasp.4.4
   GGA_COMPAT  = T    GGA compatible to vasp.4.4-vasp.4.6
   LMAXPAW     = -100 max onsite density
   LMAXMIX     =    2 max onsite mixed and CHGCAR
   VOSKOWN=      1    Vosko Wilk Nusair interpolation
   ROPT   =   -0.00050  -0.00050
 Ionic relaxation
   EDIFFG = -.2E-01   stopping-criterion for IOM
   NSW    =    500    number of steps for IOM
   NBLOCK =      1;   KBLOCK =    500    inner block; outer block 
   IBRION =      2    ionic relax: 0-MD 1-quasi-New 2-CG
   NFREE  =      2    steps in history (QN), initial steepest desc. (CG)
   ISIF   =      0    stress and relaxation
   IWAVPR =     11    prediction:  0-non 1-charg 2-wave 3-comb
   ISYM   =      2    0-nonsym 1-usesym 2-fastsym
   LCORR  =      T    Harris-Foulkes like correction to forces

   POTIM  = 0.3500    time-step for ionic-motion
   TEIN   =    0.0    initial temperature
   TEBEG  =    0.0;   TEEND  =   0.0 temperature during run
   SMASS  =  -3.00    Nose mass-parameter (am)
   estimated Nose-frequenzy (Omega)   =  0.10E-29 period in steps =****** mass=  -0.277E-26a.u.
   SCALEE = 1.0000    scale energy and forces
   NPACO  =    256;   APACO  = 16.0  distance and # of slots for P.C.
   PSTRESS=    0.0 pullay stress

  Mass of Ions in am
   POMASS = 196.97106.42
  Ionic Valenz
   ZVAL   =  11.00 10.00
  Atomic Wigner-Seitz radii
   RWIGS  =  -1.00 -1.00
  virtual crystal weights 
   VCA    =   1.00  1.00
   NELECT =     504.0000    total number of electrons
   NUPDOWN=      -1.0000    fix difference up-down

 DOS related values:
   EMIN   =  10.00;   EMAX   =-10.00  energy-range for DOS
   EFERMI =   0.00
   ISMEAR =     0;   SIGMA  =   0.10  broadening in eV -4-tet -1-fermi 0-gaus

 Electronic relaxation 2 (details)
   IALGO  =     68    algorithm
   LDIAG  =      T    sub-space diagonalisation (order eigenvalues)
   LSUBROT=      F    optimize rotation matrix (better conditioning)
   TURBO    =      0    0=normal 1=particle mesh
   IRESTART =      0    0=no restart 2=restart with 2 vectors
   NREBOOT  =      0    no. of reboots
   NMIN     =      0    reboot dimension
   EREF     =   0.00    reference energy to select bands
   IMIX   =      4    mixing-type and parameters
     AMIX     =   0.40;   BMIX     =  1.00
     AMIX_MAG =   1.60;   BMIX_MAG =  1.00
     AMIN     =   0.10
     WC   =   100.;   INIMIX=   1;  MIXPRE=   1;  MAXMIX= -45

 Intra band minimization:
   WEIMIN = 0.0010     energy-eigenvalue tresh-hold
   EBREAK =  0.82E-09  absolut break condition
   DEPER  =   0.30     relativ break condition  

   TIME   =   0.40     timestep for ELM

  volume/ion in A,a.u.               =      53.49       360.99
  Fermi-wavevector in a.u.,A,eV,Ry     =   0.951418  1.797920 12.315955  0.905197
  Thomas-Fermi vector in A             =   2.079887
 
 Write flags
   LWAVE  =      F    write WAVECAR
   LCHARG =      F    write CHGCAR
   LVTOT  =      F    write LOCPOT, total local potential
   LVHAR  =      F    write LOCPOT, Hartree potential only
   LELF   =      F    write electronic localiz. function (ELF)
   LORBIT =      0    0 simple, 1 ext, 2 COOP (PROOUT)


 Dipole corrections
   LMONO  =      F    monopole corrections only (constant potential shift)
   LDIPOL =      T    correct potential (dipole corrections)
   IDIPOL =      3    1-x, 2-y, 3-z, 4-all directions 
   EPSILON=  1.0000000 bulk dielectric constant

 Exchange correlation treatment:
   GGA     =    PE    GGA type
   LEXCH   =     8    internal setting for exchange type
   VOSKOWN=      1    Vosko Wilk Nusair interpolation
   LHFCALC =     F    Hartree Fock is set to
   LHFONE  =     F    Hartree Fock one center treatment
   AEXX    =    0.0000 exact exchange contribution

 Linear response parameters
   LEPSILON=     F    determine dielectric tensor
   LRPA    =     F    only Hartree local field effects (RPA)
   LNABLA  =     F    use nabla operator in PAW spheres
   LVEL    =     F    velocity operator in full k-point grid
   LINTERFAST=   F  fast interpolation
   KINTER  =     0    interpolate to denser k-point grid
   CSHIFT  =0.1000    complex shift for real part using Kramers Kronig
   OMEGAMAX=  -1.0    maximum frequency
   DEG_THRESHOLD= 0.2000000E-02 threshold for treating states as degnerate
   RTIME   =    0.100 relaxation time in fs

 Orbital magnetization related:
   ORBITALMAG=     F  switch on orbital magnetization
   LCHIMAG   =     F  perturbation theory with respect to B field
   DQ        =  0.001000  dq finite difference perturbation B field



--------------------------------------------------------------------------------------------------------


 conjugate gradient relaxation of ions
 charge density and potential will be updated during run
 non-spin polarized calculation
 RMM-DIIS sequential band-by-band and
  variant of blocked Davidson during initial phase
 perform sub-space diagonalisation
    before iterative eigenvector-optimisation
 modified Broyden-mixing scheme, WC =      100.0
 initial mixing is a Kerker type mixing with AMIX =  0.4000 and BMIX =      1.0000
 Hartree-type preconditioning will be used
 using additional bands           54
 real space projection scheme for non local part
 use partial core corrections
 calculate Harris-corrections to forces 
   (improved forces if not selfconsistent)
 use gradient corrections 
 use of overlap-Matrix (Vanderbilt PP)
 Gauss-broadening in eV      SIGMA  =   0.10


--------------------------------------------------------------------------------------------------------


  energy-cutoff  :      400.00
  volume of cell :     2567.68
      direct lattice vectors                 reciprocal lattice vectors
    11.002581515  0.000000000  0.000000000     0.090887761 -0.052474073  0.000000000
     5.501290758  9.528515099  0.000000000     0.000000000  0.104948147  0.000000000
     0.000000000  0.000000000 24.491785094     0.000000000  0.000000000  0.040830017

  length of vectors
    11.002581515 11.002581515 24.491785094     0.104948147  0.104948147  0.040830017


 
 k-points in units of 2pi/SCALE and weight: Automatic mesh                          
   0.02272194  0.01311852  0.00000000       0.167
   0.00000000  0.02623704  0.00000000       0.167
  -0.02272194  0.01311852  0.00000000       0.167
  -0.02272194  0.03935555  0.00000000       0.167
   0.04544388 -0.05247407  0.00000000       0.167
  -0.02272194  0.06559259  0.00000000       0.167
 
 k-points in reciprocal lattice and weights: Automatic mesh                          
   0.25000000  0.25000000  0.00000000       0.167
   0.00000000  0.25000000  0.00000000       0.167
  -0.25000000  0.00000000  0.00000000       0.167
  -0.25000000  0.25000000  0.00000000       0.167
   0.50000000 -0.25000000  0.00000000       0.167
  -0.25000000  0.50000000  0.00000000       0.167
 
 position of ions in fractional coordinates (direct lattice) 
   0.75000000  0.25000000  0.59169983
   0.41666667  0.16666667  0.50000000
   0.75000000  0.00000000  0.59169983
   0.25000000  0.50000000  0.59169983
   0.16666667  0.66666667  0.50000000
   0.33333333  0.58333333  0.40830017
   0.25000000  0.25000000  0.59169983
   0.41666667  0.66666667  0.50000000
   0.83333333  0.08333333  0.40830017
   0.25000000  0.00000000  0.59169983
   0.16666667  0.16666667  0.50000000
   0.66666667  0.91666667  0.50000000
   0.58333333  0.08333333  0.40830017
   0.91666667  0.91666667  0.50000000
   0.58333333  0.33333333  0.40830017
   0.50000000  0.75000000  0.59169983
   0.91666667  0.66666667  0.50000000
   0.08333333  0.58333333  0.40830017
   0.50000000  0.25000000  0.59169983
   0.91666667  0.41666667  0.50000000
   0.41666667  0.91666667  0.50000000
   0.00000000  0.00000000  0.59169983
   0.91666667  0.16666667  0.50000000
   0.00000000  0.75000000  0.59169983
   0.08333333  0.08333333  0.40830017
   0.83333333  0.33333333  0.40830017
   0.66666667  0.41666667  0.50000000
   0.83333333  0.58333333  0.40830017
   0.66666667  0.66666667  0.50000000
   0.75000000  0.50000000  0.59169983
   0.83333333  0.83333333  0.40830017
   0.66666667  0.16666667  0.50000000
   0.58333333  0.83333333  0.40830017
   0.25000000  0.75000000  0.59169983
   0.58333333  0.58333333  0.40830017
   0.41666667  0.41666667  0.50000000
   0.50000000  0.00000000  0.59169983
   0.16666667  0.91666667  0.50000000
   0.33333333  0.83333333  0.40830017
   0.16666667  0.41666667  0.50000000
   0.33333333  0.33333333  0.40830017
   0.33333333  0.08333333  0.40830017
   0.08333333  0.83333333  0.40830017
   0.00000000  0.50000000  0.59169983
   0.00000000  0.25000000  0.59169983
   0.08333333  0.33333333  0.40830017
   0.50000000  0.50000000  0.59169983
   0.75000000  0.75000000  0.59169983
 
 position of ions in cartesian coordinates  (Angst):
   9.62725883  2.38212877 14.49178509
   5.50129076  1.58808585 12.24589255
   8.25193614  0.00000000 14.49178509
   5.50129076  4.76425755 14.49178509
   5.50129076  6.35234340 12.24589255
   6.87661345  5.55830047 10.00000000
   4.12596807  2.38212877 14.49178509
   8.25193614  6.35234340 12.24589255
   9.62725883  0.79404292 10.00000000
   2.75064538  0.00000000 14.49178509
   2.75064538  1.58808585 12.24589255
  12.37790420  8.73447217 12.24589255
   6.87661345  0.79404292 10.00000000
  15.12854958  8.73447217 12.24589255
   8.25193614  3.17617170 10.00000000
   9.62725883  7.14638632 14.49178509
  13.75322689  6.35234340 12.24589255
   4.12596807  5.55830047 10.00000000
   6.87661345  2.38212877 14.49178509
  12.37790420  3.97021462 12.24589255
   9.62725883  8.73447217 12.24589255
   0.00000000  0.00000000 14.49178509
  11.00258152  1.58808585 12.24589255
   4.12596807  7.14638632 14.49178509
   1.37532269  0.79404292 10.00000000
  11.00258152  3.17617170 10.00000000
   9.62725883  3.97021462 12.24589255
  12.37790420  5.55830047 10.00000000
  11.00258152  6.35234340 12.24589255
  11.00258152  4.76425755 14.49178509
  13.75322689  7.94042925 10.00000000
   8.25193614  1.58808585 12.24589255
  11.00258152  7.94042925 10.00000000
   6.87661345  7.14638632 14.49178509
   9.62725883  5.55830047 10.00000000
   6.87661345  3.97021462 12.24589255
   5.50129076  0.00000000 14.49178509
   6.87661345  8.73447217 12.24589255
   8.25193614  7.94042925 10.00000000
   4.12596807  3.97021462 12.24589255
   5.50129076  3.17617170 10.00000000
   4.12596807  0.79404292 10.00000000
   5.50129076  7.94042925 10.00000000
   2.75064538  4.76425755 14.49178509
   1.37532269  2.38212877 14.49178509
   2.75064538  3.17617170 10.00000000
   8.25193614  4.76425755 14.49178509
  12.37790420  7.14638632 14.49178509
 


--------------------------------------------------------------------------------------------------------


 k-point  1 :   0.2500 0.2500 0.0000  plane waves:   46635
 k-point  2 :   0.0000 0.2500 0.0000  plane waves:   46635
 k-point  3 :  -0.2500 0.0000 0.0000  plane waves:   46635
 k-point  4 :  -0.2500 0.2500 0.0000  plane waves:   46644
 k-point  5 :   0.5000-0.2500 0.0000  plane waves:   46644
 k-point  6 :  -0.2500 0.5000 0.0000  plane waves:   46644

 maximum and minimum number of plane-waves per node :      7818     7732

 maximum number of plane-waves:     46644
 maximum index in each direction: 
   IXMAX=   18   IYMAX=   18   IZMAX=   39
   IXMIN=  -18   IYMIN=  -18   IZMIN=  -39

 WARNING: aliasing errors must be expected set NGX to  74 to avoid them
 WARNING: aliasing errors must be expected set NGY to  74 to avoid them
 WARNING: aliasing errors must be expected set NGZ to 158 to avoid them
 aliasing errors are usually negligible using standard VASP settings
 and one can safely disregard these warnings

 real space projection operators:
  total allocation   :      12803.06 KBytes
  max/ min on nodes  :       2145.66       2127.94


 parallel 3D FFT for wavefunctions:
    minimum data exchange during FFTs selected (reduces bandwidth)
 parallel 3D FFT for charge:
    minimum data exchange during FFTs selected (reduces bandwidth)


 total amount of memory used by VASP on root node    84353. kBytes
========================================================================

   base      :      30000. kBytes
   nonlr-proj:       4285. kBytes
   fftplans  :       4447. kBytes
   grid      :       6721. kBytes
   one-center:        124. kBytes
   wavefun   :      38776. kBytes
 
     INWAV:  cpu time    0.0000: real time    0.0000
 Broyden mixing: mesh for mixing (old mesh)
   NGX = 35   NGY = 35   NGZ = 79
  (NGX  =108   NGY  =108   NGZ  =240)
  gives a total of  96775 points

 initial charge density was supplied:
 charge density of overlapping atoms calculated
 number of electron     504.0000000 magnetization 
 keeping initial charge density in first step


--------------------------------------------------------------------------------------------------------


 Maximum index for non-local projection operator          355
 Maximum index for augmentation-charges          437 (set IRDMAX)


--------------------------------------------------------------------------------------------------------


 First call to EWALD:  gamma=   0.129
 Maximum number of real-space cells 4x 4x 2
 Maximum number of reciprocal cells 2x 2x 5

 FEWALD executed in parallel
    FEWALD:  cpu time    0.0027: real time    0.0030


----------------------------------------- Iteration    1(   1)  ---------------------------------------


    POTLOK:  cpu time    0.0502: real time    0.0506
    SETDIJ:  cpu time    0.0058: real time    0.0059
     EDDAV:  cpu time    8.5716: real time    8.6900
       DOS:  cpu time    0.0013: real time    0.0013
    --------------------------------------------
      LOOP:  cpu time    8.6363: real time    8.7602

 eigenvalue-minimisations  :  3672
 total energy-change (2. order) : 0.3201406E+04  (-0.1897869E+05)
 number of electron     504.0000000 magnetization 
 augmentation part      504.0000000 magnetization 

 DIPCOR: dipole corrections for dipol
 direction  3 min pos     1,
 dipolmoment           0.000000      0.000000     -0.000003 electrons x Angstroem
 Tr[quadrupol]    -10224.359758

 energy correction for charged system         0.000000 eV
 dipol+quadrupol energy correction           -0.000000 eV
 added-field ion interaction          0.000002 eV  (added to PSCEN)


 Free energy of the ion-electron system (eV)
  ---------------------------------------------------
  alpha Z        PSCENC =       805.86936616
  Ewald energy   TEWEN  =    200640.48718186
  -Hartree energ DENC   =   -243056.66739547
  -exchange      EXHF   =         0.00000000
  -V(xc)+E(xc)   XCENC  =      -327.49671368
  PAW double counting   =     40340.05962942   -38292.62782345
  entropy T*S    EENTRO =        -0.14002057
  eigenvalues    EBANDS =      1432.13571792
  atomic energy  EATOM  =     41659.78587232
  Solvation  Ediel_sol  =         0.00000000
  ---------------------------------------------------
  free energy    TOTEN  =      3201.40581451 eV

  energy without entropy =     3201.54583508  energy(sigma->0) =     3201.47582480


--------------------------------------------------------------------------------------------------------




----------------------------------------- Iteration    1(   2)  ---------------------------------------


     EDDAV:  cpu time   10.1479: real time   10.2067
       DOS:  cpu time    0.0014: real time    0.0014
    --------------------------------------------
      LOOP:  cpu time   10.1500: real time   10.2104

 eigenvalue-minimisations  :  4380
 total energy-change (2. order) :-0.3185520E+04  (-0.2929620E+04)
 number of electron     504.0000000 magnetization 
 augmentation part      504.0000000 magnetization 

 DIPCOR: dipole corrections for dipol
 direction  3 min pos     1,
 dipolmoment           0.000000      0.000000     -0.000003 electrons x Angstroem
 Tr[quadrupol]    -10224.359758

 energy correction for charged system         0.000000 eV
 dipol+quadrupol energy correction           -0.000000 eV
 added-field ion interaction          0.000002 eV  (added to PSCEN)


 Free energy of the ion-electron system (eV)
  ---------------------------------------------------
  alpha Z        PSCENC =       805.86936616
  Ewald energy   TEWEN  =    200640.48718186
  -Hartree energ DENC   =   -243056.66739547
  -exchange      EXHF   =         0.00000000
  -V(xc)+E(xc)   XCENC  =      -327.49671368
  PAW double counting   =     40340.05962942   -38292.62782345
  entropy T*S    EENTRO =        -0.13221630
  eigenvalues    EBANDS =     -1753.39232114
  atomic energy  EATOM  =     41659.78587232
  Solvation  Ediel_sol  =         0.00000000
  ---------------------------------------------------
  free energy    TOTEN  =        15.88557973 eV

  energy without entropy =       16.01779602  energy(sigma->0) =       15.95168788


--------------------------------------------------------------------------------------------------------




----------------------------------------- Iteration    1(   3)  ---------------------------------------


     EDDAV:  cpu time    9.7452: real time    9.8105
       DOS:  cpu time    0.0014: real time    0.0014
    --------------------------------------------
      LOOP:  cpu time    9.7478: real time    9.8149

 eigenvalue-minimisations  :  4164
 total energy-change (2. order) :-0.2154889E+03  (-0.2005808E+03)
 number of electron     504.0000000 magnetization 
 augmentation part      504.0000000 magnetization 

 DIPCOR: dipole corrections for dipol
 direction  3 min pos     1,
 dipolmoment           0.000000      0.000000     -0.000003 electrons x Angstroem
 Tr[quadrupol]    -10224.359758

 energy correction for charged system         0.000000 eV
 dipol+quadrupol energy correction           -0.000000 eV
 added-field ion interaction          0.000002 eV  (added to PSCEN)


 Free energy of the ion-electron system (eV)
  ---------------------------------------------------
  alpha Z        PSCENC =       805.86936616
  Ewald energy   TEWEN  =    200640.48718186
  -Hartree energ DENC   =   -243056.66739547
  -exchange      EXHF   =         0.00000000
  -V(xc)+E(xc)   XCENC  =      -327.49671368
  PAW double counting   =     40340.05962942   -38292.62782345
  entropy T*S    EENTRO =        -0.20783266
  eigenvalues    EBANDS =     -1968.80560652
  atomic energy  EATOM  =     41659.78587232
  Solvation  Ediel_sol  =         0.00000000
  ---------------------------------------------------
  free energy    TOTEN  =      -199.60332202 eV

  energy without entropy =     -199.39548936  energy(sigma->0) =     -199.49940569


--------------------------------------------------------------------------------------------------------




----------------------------------------- Iteration    1(   4)  ---------------------------------------


     EDDAV:  cpu time    9.9017: real time    9.9831
       DOS:  cpu time    0.0014: real time    0.0014
    --------------------------------------------
      LOOP:  cpu time    9.9037: real time    9.9872

 eigenvalue-minimisations  :  4260
 total energy-change (2. order) :-0.5780707E+01  (-0.5710245E+01)
 number of electron     504.0000000 magnetization 
 augmentation part      504.0000000 magnetization 

 DIPCOR: dipole corrections for dipol
 direction  3 min pos     1,
 dipolmoment           0.000000      0.000000     -0.000003 electrons x Angstroem
 Tr[quadrupol]    -10224.359758

 energy correction for charged system         0.000000 eV
 dipol+quadrupol energy correction           -0.000000 eV
 added-field ion interaction          0.000002 eV  (added to PSCEN)


 Free energy of the ion-electron system (eV)
  ---------------------------------------------------
  alpha Z        PSCENC =       805.86936616
  Ewald energy   TEWEN  =    200640.48718186
  -Hartree energ DENC   =   -243056.66739547
  -exchange      EXHF   =         0.00000000
  -V(xc)+E(xc)   XCENC  =      -327.49671368
  PAW double counting   =     40340.05962942   -38292.62782345
  entropy T*S    EENTRO =        -0.22086560
  eigenvalues    EBANDS =     -1974.57328026
  atomic energy  EATOM  =     41659.78587232
  Solvation  Ediel_sol  =         0.00000000
  ---------------------------------------------------
  free energy    TOTEN  =      -205.38402870 eV

  energy without entropy =     -205.16316310  energy(sigma->0) =     -205.27359590


--------------------------------------------------------------------------------------------------------




----------------------------------------- Iteration    1(   5)  ---------------------------------------


     EDDAV:  cpu time   10.1558: real time   10.2813
       DOS:  cpu time    0.0015: real time    0.0015
    CHARGE:  cpu time    0.2219: real time    0.2229
    MIXING:  cpu time    0.0023: real time    0.0024
    --------------------------------------------
      LOOP:  cpu time   10.3826: real time   10.5132

 eigenvalue-minimisations  :  4428
 total energy-change (2. order) :-0.1807475E+00  (-0.1801421E+00)
 number of electron     503.9998406 magnetization 
 augmentation part      191.3855549 magnetization 

 DIPCOR: dipole corrections for dipol
 direction  3 min pos     1,
 dipolmoment           0.000000      0.000000     -0.000003 electrons x Angstroem
 Tr[quadrupol]    -10224.359758

 energy correction for charged system         0.000000 eV
 dipol+quadrupol energy correction           -0.000000 eV
 added-field ion interaction          0.000002 eV  (added to PSCEN)


 Broyden mixing:
  rms(total) = 0.62749E+01    rms(broyden)= 0.62749E+01
  rms(prec ) = 0.64050E+01
  weight for this iteration     100.00

 Free energy of the ion-electron system (eV)
  ---------------------------------------------------
  alpha Z        PSCENC =       805.86936616
  Ewald energy   TEWEN  =    200640.48718186
  -Hartree energ DENC   =   -243056.66739547
  -exchange      EXHF   =         0.00000000
  -V(xc)+E(xc)   XCENC  =      -327.49671368
  PAW double counting   =     40340.05962942   -38292.62782345
  entropy T*S    EENTRO =        -0.22099368
  eigenvalues    EBANDS =     -1974.75389970
  atomic energy  EATOM  =     41659.78587232
  Solvation  Ediel_sol  =         0.00000000
  ---------------------------------------------------
  free energy    TOTEN  =      -205.56477622 eV

  energy without entropy =     -205.34378253  energy(sigma->0) =     -205.45427937


--------------------------------------------------------------------------------------------------------




----------------------------------------- Iteration    1(   6)  ---------------------------------------


    POTLOK:  cpu time    0.0460: real time    0.0463
    SETDIJ:  cpu time    0.0062: real time    0.0063
    EDDIAG:  cpu time    1.5211: real time    1.5283
  RMM-DIIS:  cpu time    4.5382: real time    4.5606
    ORTHCH:  cpu time    0.3760: real time    0.3778
       DOS:  cpu time    0.0014: real time    0.0014
    CHARGE:  cpu time    0.2292: real time    0.2302
    MIXING:  cpu time    0.0023: real time    0.0023
    --------------------------------------------
      LOOP:  cpu time    6.7210: real time    6.7572

 eigenvalue-minimisations  :  3679
 total energy-change (2. order) :-0.1769667E+01  (-0.9519432E+01)
 number of electron     503.9998431 magnetization 
 augmentation part      190.9508234 magnetization 

 DIPCOR: dipole corrections for dipol
 direction  3 min pos     1,
 dipolmoment           0.000000      0.000000     -1.342624 electrons x Angstroem
 Tr[quadrupol]    -10224.373401

 energy correction for charged system         0.000000 eV
 dipol+quadrupol energy correction           -0.063520 eV
 added-field ion interaction          0.850034 eV  (added to PSCEN)


 Broyden mixing:
  rms(total) = 0.60212E+01    rms(broyden)= 0.60210E+01
  rms(prec ) = 0.65630E+01
  weight for this iteration     100.00

 eigenvalues of (default mixing * dielectric matrix)
  average eigenvalue GAMMA=   0.5956
  0.5956

 Free energy of the ion-electron system (eV)
  ---------------------------------------------------
  alpha Z        PSCENC =       806.65587839
  Ewald energy   TEWEN  =    200640.48718186
  -Hartree energ DENC   =   -242759.81392432
  -exchange      EXHF   =         0.00000000
  -V(xc)+E(xc)   XCENC  =      -339.76949781
  PAW double counting   =     43942.62764675   -41954.17742864
  entropy T*S    EENTRO =        -0.27247175
  eigenvalues    EBANDS =     -2202.85769961
  atomic energy  EATOM  =     41659.78587232
  Solvation  Ediel_sol  =         0.00000000
  ---------------------------------------------------
  free energy    TOTEN  =      -207.33444281 eV

  energy without entropy =     -207.06197106  energy(sigma->0) =     -207.19820694


--------------------------------------------------------------------------------------------------------




----------------------------------------- Iteration    1(   7)  ---------------------------------------


    POTLOK:  cpu time    0.0455: real time    0.0464
    SETDIJ:  cpu time    0.0057: real time    0.0057
    EDDIAG:  cpu time    1.4993: real time    1.5089
  RMM-DIIS:  cpu time    4.5437: real time    4.5675
    ORTHCH:  cpu time    0.3755: real time    0.3776
       DOS:  cpu time    0.0014: real time    0.0014
    CHARGE:  cpu time    0.2303: real time    0.2314
    MIXING:  cpu time    0.0022: real time    0.0022
    --------------------------------------------
      LOOP:  cpu time    6.7042: real time    6.7433

 eigenvalue-minimisations  :  3681
 total energy-change (2. order) :-0.1381889E+02  (-0.6219472E+01)
 number of electron     503.9998388 magnetization 
 augmentation part      193.3786129 magnetization 

 DIPCOR: dipole corrections for dipol
 direction  3 min pos     1,
 dipolmoment           0.000000      0.000000      1.605091 electrons x Angstroem
 Tr[quadrupol]    -10224.838404

 energy correction for charged system         0.000000 eV
 dipol+quadrupol energy correction           -0.090783 eV
 added-field ion interaction         -1.016206 eV  (added to PSCEN)


 Broyden mixing:
  rms(total) = 0.54550E+01    rms(broyden)= 0.54547E+01
  rms(prec ) = 0.65559E+01
  weight for this iteration     100.00

 eigenvalues of (default mixing * dielectric matrix)
  average eigenvalue GAMMA=   0.7123
  1.1545  0.2701

 Free energy of the ion-electron system (eV)
  ---------------------------------------------------
  alpha Z        PSCENC =       804.76237589
  Ewald energy   TEWEN  =    200640.48718186
  -Hartree energ DENC   =   -242693.13047727
  -exchange      EXHF   =         0.00000000
  -V(xc)+E(xc)   XCENC  =      -341.95770556
  PAW double counting   =     45011.24999421   -43043.23800982
  entropy T*S    EENTRO =        -0.23819183
  eigenvalues    EBANDS =     -2258.87437043
  atomic energy  EATOM  =     41659.78587232
  Solvation  Ediel_sol  =         0.00000000
  ---------------------------------------------------
  free energy    TOTEN  =      -221.15333064 eV

  energy without entropy =     -220.91513881  energy(sigma->0) =     -221.03423472


--------------------------------------------------------------------------------------------------------




----------------------------------------- Iteration    1(   8)  ---------------------------------------


    POTLOK:  cpu time    0.0451: real time    0.0453
    SETDIJ:  cpu time    0.0054: real time    0.0054
    EDDIAG:  cpu time    1.5283: real time    1.5374
  RMM-DIIS:  cpu time    4.4963: real time    4.5183
    ORTHCH:  cpu time    0.3752: real time    0.3770
       DOS:  cpu time    0.0014: real time    0.0014
    CHARGE:  cpu time    0.2299: real time    0.2310
    MIXING:  cpu time    0.0022: real time    0.0022
    --------------------------------------------
      LOOP:  cpu time    6.6845: real time    6.7213

 eigenvalue-minimisations  :  3680
 total energy-change (2. order) : 0.6302680E+01  (-0.9008324E+01)
 number of electron     503.9998350 magnetization 
 augmentation part      197.4557503 magnetization 

 DIPCOR: dipole corrections for dipol
 direction  3 min pos     1,
 dipolmoment           0.000000      0.000000     -1.284699 electrons x Angstroem
 Tr[quadrupol]    -10225.451868

 energy correction for charged system         0.000000 eV
 dipol+quadrupol energy correction           -0.058158 eV
 added-field ion interaction          0.813361 eV  (added to PSCEN)


 Broyden mixing:
  rms(total) = 0.40966E+01    rms(broyden)= 0.40963E+01
  rms(prec ) = 0.46872E+01
  weight for this iteration     100.00

 eigenvalues of (default mixing * dielectric matrix)
  average eigenvalue GAMMA=   0.8395
  1.8960  0.4098  0.2126

 Free energy of the ion-electron system (eV)
  ---------------------------------------------------
  alpha Z        PSCENC =       806.62456795
  Ewald energy   TEWEN  =    200640.48718186
  -Hartree energ DENC   =   -242622.12886518
  -exchange      EXHF   =         0.00000000
  -V(xc)+E(xc)   XCENC  =      -344.47417369
  PAW double counting   =     46447.43529477   -44505.87020351
  entropy T*S    EENTRO =        -0.23509536
  eigenvalues    EBANDS =     -2296.47523024
  atomic energy  EATOM  =     41659.78587232
  Solvation  Ediel_sol  =         0.00000000
  ---------------------------------------------------
  free energy    TOTEN  =      -214.85065109 eV

  energy without entropy =     -214.61555573  energy(sigma->0) =     -214.73310341


--------------------------------------------------------------------------------------------------------




----------------------------------------- Iteration    1(   9)  ---------------------------------------


    POTLOK:  cpu time    0.0447: real time    0.0450
    SETDIJ:  cpu time    0.0054: real time    0.0054
    EDDIAG:  cpu time    1.4850: real time    1.4960
  RMM-DIIS:  cpu time    4.4895: real time    4.5115
    ORTHCH:  cpu time    0.3766: real time    0.3783
       DOS:  cpu time    0.0014: real time    0.0014
    CHARGE:  cpu time    0.2327: real time    0.2339
    MIXING:  cpu time    0.0024: real time    0.0025
    --------------------------------------------
      LOOP:  cpu time    6.6384: real time    6.6775

 eigenvalue-minimisations  :  3681
 total energy-change (2. order) : 0.4580955E+01  (-0.5632924E+01)
 number of electron     503.9998335 magnetization 
 augmentation part      199.0598961 magnetization 

 DIPCOR: dipole corrections for dipol
 direction  3 min pos     1,
 dipolmoment           0.000000      0.000000      0.005316 electrons x Angstroem
 Tr[quadrupol]    -10225.054993

 energy correction for charged system         0.000000 eV
 dipol+quadrupol energy correction           -0.000001 eV
 added-field ion interaction         -0.003366 eV  (added to PSCEN)


 Broyden mixing:
  rms(total) = 0.34961E+01    rms(broyden)= 0.34958E+01
  rms(prec ) = 0.38151E+01
  weight for this iteration     100.00

 eigenvalues of (default mixing * dielectric matrix)
  average eigenvalue GAMMA=   0.8065
  2.2433  0.3710  0.3710  0.2408

 Free energy of the ion-electron system (eV)
  ---------------------------------------------------
  alpha Z        PSCENC =       805.86599749
  Ewald energy   TEWEN  =    200640.48718186
  -Hartree energ DENC   =   -242563.19376530
  -exchange      EXHF   =         0.00000000
  -V(xc)+E(xc)   XCENC  =      -346.06359248
  PAW double counting   =     48272.26556137   -46357.20090441
  entropy T*S    EENTRO =        -0.19992411
  eigenvalues    EBANDS =     -2322.01612279
  atomic energy  EATOM  =     41659.78587232
  Solvation  Ediel_sol  =         0.00000000
  ---------------------------------------------------
  free energy    TOTEN  =      -210.26969607 eV

  energy without entropy =     -210.06977196  energy(sigma->0) =     -210.16973401


--------------------------------------------------------------------------------------------------------




----------------------------------------- Iteration    1(  10)  ---------------------------------------


    POTLOK:  cpu time    0.0446: real time    0.0448
    SETDIJ:  cpu time    0.0053: real time    0.0053
    EDDIAG:  cpu time    1.5087: real time    1.5207
  RMM-DIIS:  cpu time    4.5426: real time    4.5663
    ORTHCH:  cpu time    0.3728: real time    0.3745
       DOS:  cpu time    0.0014: real time    0.0015
    CHARGE:  cpu time    0.2282: real time    0.2294
    MIXING:  cpu time    0.0027: real time    0.0027
    --------------------------------------------
      LOOP:  cpu time    6.7070: real time    6.7485

 eigenvalue-minimisations  :  3682
 total energy-change (2. order) : 0.1409757E+02  (-0.1635734E+01)
 number of electron     503.9998336 magnetization 
 augmentation part      199.5691210 magnetization 

 DIPCOR: dipole corrections for dipol
 direction  3 min pos     1,
 dipolmoment           0.000000      0.000000     -0.390932 electrons x Angstroem
 Tr[quadrupol]    -10225.595678

 energy correction for charged system         0.000000 eV
 dipol+quadrupol energy correction           -0.005385 eV
 added-field ion interaction          0.247504 eV  (added to PSCEN)


 Broyden mixing:
  rms(total) = 0.18312E+01    rms(broyden)= 0.18311E+01
  rms(prec ) = 0.21393E+01
  weight for this iteration     100.00

 eigenvalues of (default mixing * dielectric matrix)
  average eigenvalue GAMMA=   0.7717
  2.2469  0.5235  0.5235  0.2240  0.3407

 Free energy of the ion-electron system (eV)
  ---------------------------------------------------
  alpha Z        PSCENC =       806.11148348
  Ewald energy   TEWEN  =    200640.48718186
  -Hartree energ DENC   =   -242587.58581982
  -exchange      EXHF   =         0.00000000
  -V(xc)+E(xc)   XCENC  =      -346.26661125
  PAW double counting   =     49148.80838729   -47242.97141053
  entropy T*S    EENTRO =        -0.17619451
  eigenvalues    EBANDS =     -2274.36501205
  atomic energy  EATOM  =     41659.78587232
  Solvation  Ediel_sol  =         0.00000000
  ---------------------------------------------------
  free energy    TOTEN  =      -196.17212322 eV

  energy without entropy =     -195.99592871  energy(sigma->0) =     -196.08402597


--------------------------------------------------------------------------------------------------------




----------------------------------------- Iteration    1(  11)  ---------------------------------------


    POTLOK:  cpu time    0.0447: real time    0.0451
    SETDIJ:  cpu time    0.0056: real time    0.0062
    EDDIAG:  cpu time    1.5002: real time    1.5075
  RMM-DIIS:  cpu time    4.4045: real time    4.5247
    ORTHCH:  cpu time    0.3708: real time    0.3725
       DOS:  cpu time    0.0014: real time    0.0014
    CHARGE:  cpu time    0.2279: real time    0.2290
    MIXING:  cpu time    0.0027: real time    0.0027
    --------------------------------------------
      LOOP:  cpu time    6.5585: real time    6.6932

 eigenvalue-minimisations  :  3681
 total energy-change (2. order) : 0.3763327E+01  (-0.1328748E+01)
 number of electron     503.9998348 magnetization 
 augmentation part      198.6108801 magnetization 

 DIPCOR: dipole corrections for dipol
 direction  3 min pos     1,
 dipolmoment           0.000000      0.000000     -0.270708 electrons x Angstroem
 Tr[quadrupol]    -10226.047918

 energy correction for charged system         0.000000 eV
 dipol+quadrupol energy correction           -0.002582 eV
 added-field ion interaction          0.171389 eV  (added to PSCEN)


 Broyden mixing:
  rms(total) = 0.15393E+01    rms(broyden)= 0.15390E+01
  rms(prec ) = 0.17646E+01
  weight for this iteration     100.00

 eigenvalues of (default mixing * dielectric matrix)
  average eigenvalue GAMMA=   0.7168
  2.2347  0.5959  0.5959  0.3789  0.2406  0.2547

 Free energy of the ion-electron system (eV)
  ---------------------------------------------------
  alpha Z        PSCENC =       806.03817084
  Ewald energy   TEWEN  =    200640.48718186
  -Hartree energ DENC   =   -242635.61395655
  -exchange      EXHF   =         0.00000000
  -V(xc)+E(xc)   XCENC  =      -345.46953150
  PAW double counting   =     49269.78184765   -47360.87351507
  entropy T*S    EENTRO =        -0.17349024
  eigenvalues    EBANDS =     -2226.37137587
  atomic energy  EATOM  =     41659.78587232
  Solvation  Ediel_sol  =         0.00000000
  ---------------------------------------------------
  free energy    TOTEN  =      -192.40879657 eV

  energy without entropy =     -192.23530632  energy(sigma->0) =     -192.32205144


--------------------------------------------------------------------------------------------------------




----------------------------------------- Iteration    1(  12)  ---------------------------------------


    POTLOK:  cpu time    0.0450: real time    0.0452
    SETDIJ:  cpu time    0.0053: real time    0.0053
    EDDIAG:  cpu time    1.5259: real time    1.5334
  RMM-DIIS:  cpu time    4.5430: real time    4.5742
    ORTHCH:  cpu time    0.3689: real time    0.3705
       DOS:  cpu time    0.0014: real time    0.0014
    CHARGE:  cpu time    0.2298: real time    0.2309
    MIXING:  cpu time    0.0028: real time    0.0029
    --------------------------------------------
      LOOP:  cpu time    6.7230: real time    6.7665

 eigenvalue-minimisations  :  3681
 total energy-change (2. order) : 0.3481429E+01  (-0.4407017E+00)
 number of electron     503.9998357 magnetization 
 augmentation part      197.9354374 magnetization 

 DIPCOR: dipole corrections for dipol
 direction  3 min pos     1,
 dipolmoment           0.000000      0.000000     -0.219254 electrons x Angstroem
 Tr[quadrupol]    -10226.289657

 energy correction for charged system         0.000000 eV
 dipol+quadrupol energy correction           -0.001694 eV
 added-field ion interaction          0.138813 eV  (added to PSCEN)


 Broyden mixing:
  rms(total) = 0.97184E+00    rms(broyden)= 0.97161E+00
  rms(prec ) = 0.10953E+01
  weight for this iteration     100.00

 eigenvalues of (default mixing * dielectric matrix)
  average eigenvalue GAMMA=   0.6726
  2.2557  0.5430  0.5430  0.4752  0.3933  0.2250  0.2732

 Free energy of the ion-electron system (eV)
  ---------------------------------------------------
  alpha Z        PSCENC =       806.00648329
  Ewald energy   TEWEN  =    200640.48718186
  -Hartree energ DENC   =   -242672.93928452
  -exchange      EXHF   =         0.00000000
  -V(xc)+E(xc)   XCENC  =      -344.65360602
  PAW double counting   =     49336.52058342   -47424.00733191
  entropy T*S    EENTRO =        -0.18744596
  eigenvalues    EBANDS =     -2189.93981958
  atomic energy  EATOM  =     41659.78587232
  Solvation  Ediel_sol  =         0.00000000
  ---------------------------------------------------
  free energy    TOTEN  =      -188.92736710 eV

  energy without entropy =     -188.73992114  energy(sigma->0) =     -188.83364412


--------------------------------------------------------------------------------------------------------




----------------------------------------- Iteration    1(  13)  ---------------------------------------


    POTLOK:  cpu time    0.0451: real time    0.0453
    SETDIJ:  cpu time    0.0054: real time    0.0054
    EDDIAG:  cpu time    1.4880: real time    1.4971
  RMM-DIIS:  cpu time    4.5484: real time    4.5732
    ORTHCH:  cpu time    0.3713: real time    0.3729
       DOS:  cpu time    0.0014: real time    0.0015
    CHARGE:  cpu time    0.2286: real time    0.2296
    MIXING:  cpu time    0.0028: real time    0.0028
    --------------------------------------------
      LOOP:  cpu time    6.6919: real time    6.7303

 eigenvalue-minimisations  :  3680
 total energy-change (2. order) : 0.5920267E+00  (-0.1413758E+00)
 number of electron     503.9998360 magnetization 
 augmentation part      197.7757146 magnetization 

 DIPCOR: dipole corrections for dipol
 direction  3 min pos     1,
 dipolmoment           0.000000      0.000000     -0.182684 electrons x Angstroem
 Tr[quadrupol]    -10226.620103

 energy correction for charged system         0.000000 eV
 dipol+quadrupol energy correction           -0.001176 eV
 added-field ion interaction          0.115660 eV  (added to PSCEN)


 Broyden mixing:
  rms(total) = 0.61451E+00    rms(broyden)= 0.61435E+00
  rms(prec ) = 0.65916E+00
  weight for this iteration     100.00

 eigenvalues of (default mixing * dielectric matrix)
  average eigenvalue GAMMA=   0.6898
  2.2261  0.7709  0.7709  0.6297  0.3303  0.3303  0.2302  0.2302

 Free energy of the ion-electron system (eV)
  ---------------------------------------------------
  alpha Z        PSCENC =       805.98384783
  Ewald energy   TEWEN  =    200640.48718186
  -Hartree energ DENC   =   -242689.63854313
  -exchange      EXHF   =         0.00000000
  -V(xc)+E(xc)   XCENC  =      -344.47667419
  PAW double counting   =     49378.28219099   -47464.83995297
  entropy T*S    EENTRO =        -0.21925043
  eigenvalues    EBANDS =     -2173.70001268
  atomic energy  EATOM  =     41659.78587232
  Solvation  Ediel_sol  =         0.00000000
  ---------------------------------------------------
  free energy    TOTEN  =      -188.33534041 eV

  energy without entropy =     -188.11608997  energy(sigma->0) =     -188.22571519


--------------------------------------------------------------------------------------------------------




----------------------------------------- Iteration    1(  14)  ---------------------------------------


    POTLOK:  cpu time    0.0467: real time    0.0471
    SETDIJ:  cpu time    0.0056: real time    0.0057
    EDDIAG:  cpu time    1.5162: real time    1.5233
  RMM-DIIS:  cpu time    4.5509: real time    4.5734
    ORTHCH:  cpu time    0.3709: real time    0.3727
       DOS:  cpu time    0.0013: real time    0.0014
    CHARGE:  cpu time    0.2258: real time    0.2271
    MIXING:  cpu time    0.0030: real time    0.0030
    --------------------------------------------
      LOOP:  cpu time    6.7214: real time    6.7583

 eigenvalue-minimisations  :  3680
 total energy-change (2. order) :-0.7841730E-01  (-0.7170275E-01)
 number of electron     503.9998364 magnetization 
 augmentation part      197.5130449 magnetization 

 DIPCOR: dipole corrections for dipol
 direction  3 min pos     1,
 dipolmoment           0.000000      0.000000     -0.152789 electrons x Angstroem
 Tr[quadrupol]    -10226.770863

 energy correction for charged system         0.000000 eV
 dipol+quadrupol energy correction           -0.000823 eV
 added-field ion interaction          0.096733 eV  (added to PSCEN)


 Broyden mixing:
  rms(total) = 0.67137E+00    rms(broyden)= 0.67129E+00
  rms(prec ) = 0.74544E+00
  weight for this iteration     100.00

 eigenvalues of (default mixing * dielectric matrix)
  average eigenvalue GAMMA=   0.7106
  2.2267  1.0032  1.0032  0.6279  0.3982  0.3982  0.2589  0.2589  0.2204

 Free energy of the ion-electron system (eV)
  ---------------------------------------------------
  alpha Z        PSCENC =       805.96527482
  Ewald energy   TEWEN  =    200640.48718186
  -Hartree energ DENC   =   -242704.53963111
  -exchange      EXHF   =         0.00000000
  -V(xc)+E(xc)   XCENC  =      -344.10530937
  PAW double counting   =     49384.02369023   -47468.18831403
  entropy T*S    EENTRO =        -0.20822735
  eigenvalues    EBANDS =     -2161.63429506
  atomic energy  EATOM  =     41659.78587232
  Solvation  Ediel_sol  =         0.00000000
  ---------------------------------------------------
  free energy    TOTEN  =      -188.41375770 eV

  energy without entropy =     -188.20553035  energy(sigma->0) =     -188.30964403


--------------------------------------------------------------------------------------------------------




----------------------------------------- Iteration    1(  15)  ---------------------------------------


    POTLOK:  cpu time    0.0457: real time    0.0461
    SETDIJ:  cpu time    0.0054: real time    0.0054
    EDDIAG:  cpu time    1.5137: real time    1.5222
  RMM-DIIS:  cpu time    4.5391: real time    4.5634
    ORTHCH:  cpu time    0.3723: real time    0.3740
       DOS:  cpu time    0.0014: real time    0.0014
    CHARGE:  cpu time    0.2283: real time    0.2295
    MIXING:  cpu time    0.0031: real time    0.0031
    --------------------------------------------
      LOOP:  cpu time    6.7098: real time    6.7485

 eigenvalue-minimisations  :  3681
 total energy-change (2. order) :-0.2343715E-02  (-0.4538002E-01)
 number of electron     503.9998361 magnetization 
 augmentation part      197.4607541 magnetization 

 DIPCOR: dipole corrections for dipol
 direction  3 min pos     1,
 dipolmoment           0.000000      0.000000     -0.126509 electrons x Angstroem
 Tr[quadrupol]    -10227.173209

 energy correction for charged system         0.000000 eV
 dipol+quadrupol energy correction           -0.000564 eV
 added-field ion interaction          0.080095 eV  (added to PSCEN)


 Broyden mixing:
  rms(total) = 0.58568E+00    rms(broyden)= 0.58561E+00
  rms(prec ) = 0.66380E+00
  weight for this iteration     100.00

 eigenvalues of (default mixing * dielectric matrix)
  average eigenvalue GAMMA=   0.7359
  2.1540  1.3235  1.3235  0.6414  0.4517  0.4517  0.2829  0.2829  0.2236  0.2236

 Free energy of the ion-electron system (eV)
  ---------------------------------------------------
  alpha Z        PSCENC =       805.94889502
  Ewald energy   TEWEN  =    200640.48718186
  -Hartree energ DENC   =   -242721.77470648
  -exchange      EXHF   =         0.00000000
  -V(xc)+E(xc)   XCENC  =      -343.94516753
  PAW double counting   =     49395.69420659   -47478.43624352
  entropy T*S    EENTRO =        -0.22018663
  eigenvalues    EBANDS =     -2145.95595305
  atomic energy  EATOM  =     41659.78587232
  Solvation  Ediel_sol  =         0.00000000
  ---------------------------------------------------
  free energy    TOTEN  =      -188.41610142 eV

  energy without entropy =     -188.19591479  energy(sigma->0) =     -188.30600811


--------------------------------------------------------------------------------------------------------




----------------------------------------- Iteration    1(  16)  ---------------------------------------


    POTLOK:  cpu time    0.0456: real time    0.0458
    SETDIJ:  cpu time    0.0053: real time    0.0053
    EDDIAG:  cpu time    1.5293: real time    1.5385
  RMM-DIIS:  cpu time    4.5595: real time    4.5822
    ORTHCH:  cpu time    0.3695: real time    0.3712
       DOS:  cpu time    0.0015: real time    0.0015
    CHARGE:  cpu time    0.2278: real time    0.2289
    MIXING:  cpu time    0.0033: real time    0.0033
    --------------------------------------------
      LOOP:  cpu time    6.7425: real time    6.7803

 eigenvalue-minimisations  :  3681
 total energy-change (2. order) : 0.2515424E+00  (-0.3741068E-01)
 number of electron     503.9998363 magnetization 
 augmentation part      197.3995872 magnetization 

 DIPCOR: dipole corrections for dipol
 direction  3 min pos     1,
 dipolmoment           0.000000      0.000000     -0.125074 electrons x Angstroem
 Tr[quadrupol]    -10227.558325

 energy correction for charged system         0.000000 eV
 dipol+quadrupol energy correction           -0.000551 eV
 added-field ion interaction          0.079186 eV  (added to PSCEN)


 Broyden mixing:
  rms(total) = 0.41198E+00    rms(broyden)= 0.41190E+00
  rms(prec ) = 0.48471E+00
  weight for this iteration     100.00

 eigenvalues of (default mixing * dielectric matrix)
  average eigenvalue GAMMA=   0.7273
  2.1257  1.4759  1.4759  0.5539  0.5032  0.5032  0.3448  0.3448  0.2350  0.2350
  0.2028

 Free energy of the ion-electron system (eV)
  ---------------------------------------------------
  alpha Z        PSCENC =       805.94799922
  Ewald energy   TEWEN  =    200640.48718186
  -Hartree energ DENC   =   -242743.95666838
  -exchange      EXHF   =         0.00000000
  -V(xc)+E(xc)   XCENC  =      -343.58406109
  PAW double counting   =     49401.93876926   -47482.01929547
  entropy T*S    EENTRO =        -0.22203470
  eigenvalues    EBANDS =     -2126.54232202
  atomic energy  EATOM  =     41659.78587232
  Solvation  Ediel_sol  =         0.00000000
  ---------------------------------------------------
  free energy    TOTEN  =      -188.16455899 eV

  energy without entropy =     -187.94252430  energy(sigma->0) =     -188.05354164


--------------------------------------------------------------------------------------------------------




----------------------------------------- Iteration    1(  17)  ---------------------------------------


    POTLOK:  cpu time    0.0459: real time    0.0462
    SETDIJ:  cpu time    0.0054: real time    0.0054
    EDDIAG:  cpu time    1.4872: real time    1.4953
  RMM-DIIS:  cpu time    4.4463: real time    4.5642
    ORTHCH:  cpu time    0.3690: real time    0.3709
       DOS:  cpu time    0.0014: real time    0.0014
    CHARGE:  cpu time    0.2278: real time    0.2289
    MIXING:  cpu time    0.0035: real time    0.0036
    --------------------------------------------
      LOOP:  cpu time    6.5873: real time    6.7199

 eigenvalue-minimisations  :  3680
 total energy-change (2. order) : 0.1307269E+00  (-0.1720616E-01)
 number of electron     503.9998364 magnetization 
 augmentation part      197.3265650 magnetization 

 DIPCOR: dipole corrections for dipol
 direction  3 min pos     1,
 dipolmoment           0.000000      0.000000     -0.122612 electrons x Angstroem
 Tr[quadrupol]    -10227.820316

 energy correction for charged system         0.000000 eV
 dipol+quadrupol energy correction           -0.000530 eV
 added-field ion interaction          0.077628 eV  (added to PSCEN)


 Broyden mixing:
  rms(total) = 0.26218E+00    rms(broyden)= 0.26212E+00
  rms(prec ) = 0.31602E+00
  weight for this iteration     100.00

 eigenvalues of (default mixing * dielectric matrix)
  average eigenvalue GAMMA=   0.7278
  2.1426  1.6070  1.6070  0.6109  0.6109  0.4393  0.4393  0.3449  0.2509  0.2509
  0.2152  0.2152

 Free energy of the ion-electron system (eV)
  ---------------------------------------------------
  alpha Z        PSCENC =       805.94646204
  Ewald energy   TEWEN  =    200640.48718186
  -Hartree energ DENC   =   -242756.62739984
  -exchange      EXHF   =         0.00000000
  -V(xc)+E(xc)   XCENC  =      -343.44063546
  PAW double counting   =     49415.97672425   -47495.04072579
  entropy T*S    EENTRO =        -0.21994947
  eigenvalues    EBANDS =     -2114.90136204
  atomic energy  EATOM  =     41659.78587232
  Solvation  Ediel_sol  =         0.00000000
  ---------------------------------------------------
  free energy    TOTEN  =      -188.03383213 eV

  energy without entropy =     -187.81388267  energy(sigma->0) =     -187.92385740


--------------------------------------------------------------------------------------------------------




----------------------------------------- Iteration    1(  18)  ---------------------------------------


    POTLOK:  cpu time    0.0455: real time    0.0466
    SETDIJ:  cpu time    0.0056: real time    0.0057
    EDDIAG:  cpu time    1.5153: real time    1.5237
  RMM-DIIS:  cpu time    4.5036: real time    4.5332
    ORTHCH:  cpu time    0.3689: real time    0.3706
       DOS:  cpu time    0.0014: real time    0.0015
    CHARGE:  cpu time    0.2258: real time    0.2269
    MIXING:  cpu time    0.0038: real time    0.0038
    --------------------------------------------
      LOOP:  cpu time    6.6706: real time    6.7161

 eigenvalue-minimisations  :  3683
 total energy-change (2. order) : 0.7658359E-01  (-0.7259000E-02)
 number of electron     503.9998364 magnetization 
 augmentation part      197.2486978 magnetization 

 DIPCOR: dipole corrections for dipol
 direction  3 min pos     1,
 dipolmoment           0.000000      0.000000     -0.104929 electrons x Angstroem
 Tr[quadrupol]    -10228.113373

 energy correction for charged system         0.000000 eV
 dipol+quadrupol energy correction           -0.000388 eV
 added-field ion interaction          0.066432 eV  (added to PSCEN)


 Broyden mixing:
  rms(total) = 0.11706E+00    rms(broyden)= 0.11701E+00
  rms(prec ) = 0.13821E+00
  weight for this iteration     100.00

 eigenvalues of (default mixing * dielectric matrix)
  average eigenvalue GAMMA=   0.7190
  2.1927  1.6418  1.6418  0.6596  0.6596  0.4301  0.4301  0.4528  0.3159  0.2658
  0.2271  0.2271  0.2027

 Free energy of the ion-electron system (eV)
  ---------------------------------------------------
  alpha Z        PSCENC =       805.93540805
  Ewald energy   TEWEN  =    200640.48718186
  -Hartree energ DENC   =   -242770.44805569
  -exchange      EXHF   =         0.00000000
  -V(xc)+E(xc)   XCENC  =      -343.31106356
  PAW double counting   =     49437.77990653   -47515.98603021
  entropy T*S    EENTRO =        -0.23594339
  eigenvalues    EBANDS =     -2101.96452444
  atomic energy  EATOM  =     41659.78587232
  Solvation  Ediel_sol  =         0.00000000
  ---------------------------------------------------
  free energy    TOTEN  =      -187.95724854 eV

  energy without entropy =     -187.72130515  energy(sigma->0) =     -187.83927684


--------------------------------------------------------------------------------------------------------




----------------------------------------- Iteration    1(  19)  ---------------------------------------


    POTLOK:  cpu time    0.0450: real time    0.0452
    SETDIJ:  cpu time    0.0055: real time    0.0055
    EDDIAG:  cpu time    1.5060: real time    1.5131
  RMM-DIIS:  cpu time    4.5021: real time    4.5298
    ORTHCH:  cpu time    0.3685: real time    0.3703
       DOS:  cpu time    0.0014: real time    0.0014
    CHARGE:  cpu time    0.2273: real time    0.2284
    MIXING:  cpu time    0.0038: real time    0.0038
    --------------------------------------------
      LOOP:  cpu time    6.6605: real time    6.7001

 eigenvalue-minimisations  :  3681
 total energy-change (2. order) : 0.1891144E-01  (-0.2458391E-02)
 number of electron     503.9998364 magnetization 
 augmentation part      197.1998991 magnetization 

 DIPCOR: dipole corrections for dipol
 direction  3 min pos     1,
 dipolmoment           0.000000      0.000000     -0.084089 electrons x Angstroem
 Tr[quadrupol]    -10228.264696

 energy correction for charged system         0.000000 eV
 dipol+quadrupol energy correction           -0.000249 eV
 added-field ion interaction          0.053238 eV  (added to PSCEN)


 Broyden mixing:
  rms(total) = 0.61538E-01    rms(broyden)= 0.61515E-01
  rms(prec ) = 0.69043E-01
  weight for this iteration     100.00

 eigenvalues of (default mixing * dielectric matrix)
  average eigenvalue GAMMA=   0.7194
  2.2434  1.6522  1.6522  0.7339  0.7339  0.4761  0.4761  0.5066  0.3412  0.3412
  0.2574  0.2359  0.2175  0.2033

 Free energy of the ion-electron system (eV)
  ---------------------------------------------------
  alpha Z        PSCENC =       805.92235288
  Ewald energy   TEWEN  =    200640.48718186
  -Hartree energ DENC   =   -242777.56937596
  -exchange      EXHF   =         0.00000000
  -V(xc)+E(xc)   XCENC  =      -343.24785798
  PAW double counting   =     49449.13211693   -47526.99168312
  entropy T*S    EENTRO =        -0.23549432
  eigenvalues    EBANDS =     -2095.22144971
  atomic energy  EATOM  =     41659.78587232
  Solvation  Ediel_sol  =         0.00000000
  ---------------------------------------------------
  free energy    TOTEN  =      -187.93833710 eV

  energy without entropy =     -187.70284278  energy(sigma->0) =     -187.82058994


--------------------------------------------------------------------------------------------------------




----------------------------------------- Iteration    1(  20)  ---------------------------------------


    POTLOK:  cpu time    0.0449: real time    0.0451
    SETDIJ:  cpu time    0.0055: real time    0.0055
    EDDIAG:  cpu time    1.5318: real time    1.5393
  RMM-DIIS:  cpu time    4.5677: real time    4.5906
    ORTHCH:  cpu time    0.3690: real time    0.3706
       DOS:  cpu time    0.0014: real time    0.0014
    CHARGE:  cpu time    0.2281: real time    0.2293
    MIXING:  cpu time    0.0039: real time    0.0040
    --------------------------------------------
      LOOP:  cpu time    6.7532: real time    6.7888

 eigenvalue-minimisations  :  3685
 total energy-change (2. order) : 0.2762738E-02  (-0.4578263E-03)
 number of electron     503.9998365 magnetization 
 augmentation part      197.1822587 magnetization 

 DIPCOR: dipole corrections for dipol
 direction  3 min pos     1,
 dipolmoment           0.000000      0.000000     -0.067612 electrons x Angstroem
 Tr[quadrupol]    -10228.388378

 energy correction for charged system         0.000000 eV
 dipol+quadrupol energy correction           -0.000161 eV
 added-field ion interaction          0.042806 eV  (added to PSCEN)


 Broyden mixing:
  rms(total) = 0.45338E-01    rms(broyden)= 0.45333E-01
  rms(prec ) = 0.50163E-01
  weight for this iteration     100.00

 eigenvalues of (default mixing * dielectric matrix)
  average eigenvalue GAMMA=   0.7339
  2.2510  1.6837  1.6837  0.8966  0.8966  0.5488  0.5488  0.4519  0.4519  0.3714
  0.3084  0.2610  0.2339  0.2181  0.2029

 Free energy of the ion-electron system (eV)
  ---------------------------------------------------
  alpha Z        PSCENC =       805.91200902
  Ewald energy   TEWEN  =    200640.48718186
  -Hartree energ DENC   =   -242782.45651580
  -exchange      EXHF   =         0.00000000
  -V(xc)+E(xc)   XCENC  =      -343.22445624
  PAW double counting   =     49455.45642164   -47533.21145724
  entropy T*S    EENTRO =        -0.23846713
  eigenvalues    EBANDS =     -2090.44616279
  atomic energy  EATOM  =     41659.78587232
  Solvation  Ediel_sol  =         0.00000000
  ---------------------------------------------------
  free energy    TOTEN  =      -187.93557436 eV

  energy without entropy =     -187.69710723  energy(sigma->0) =     -187.81634080


--------------------------------------------------------------------------------------------------------




----------------------------------------- Iteration    1(  21)  ---------------------------------------


    POTLOK:  cpu time    0.0449: real time    0.0451
    SETDIJ:  cpu time    0.0053: real time    0.0053
    EDDIAG:  cpu time    1.4805: real time    1.4876
  RMM-DIIS:  cpu time    4.4884: real time    4.5634
    ORTHCH:  cpu time    0.3678: real time    0.3695
       DOS:  cpu time    0.0014: real time    0.0014
    CHARGE:  cpu time    0.2288: real time    0.2298
    MIXING:  cpu time    0.0040: real time    0.0040
    --------------------------------------------
      LOOP:  cpu time    6.6219: real time    6.7090

 eigenvalue-minimisations  :  3681
 total energy-change (2. order) : 0.1739266E-02  (-0.3619550E-03)
 number of electron     503.9998365 magnetization 
 augmentation part      197.1613586 magnetization 

 DIPCOR: dipole corrections for dipol
 direction  3 min pos     1,
 dipolmoment           0.000000      0.000000     -0.062307 electrons x Angstroem
 Tr[quadrupol]    -10228.524134

 energy correction for charged system         0.000000 eV
 dipol+quadrupol energy correction           -0.000137 eV
 added-field ion interaction          0.039447 eV  (added to PSCEN)


 Broyden mixing:
  rms(total) = 0.39637E-01    rms(broyden)= 0.39632E-01
  rms(prec ) = 0.45067E-01
  weight for this iteration     100.00

 eigenvalues of (default mixing * dielectric matrix)
  average eigenvalue GAMMA=   0.7693
  2.3550  1.9464  1.9464  0.8488  0.8488  0.7499  0.7499  0.4577  0.4577  0.4499
  0.2971  0.2971  0.2423  0.2423  0.2165  0.2029

 Free energy of the ion-electron system (eV)
  ---------------------------------------------------
  alpha Z        PSCENC =       805.90867497
  Ewald energy   TEWEN  =    200640.48718186
  -Hartree energ DENC   =   -242787.80088368
  -exchange      EXHF   =         0.00000000
  -V(xc)+E(xc)   XCENC  =      -343.19557875
  PAW double counting   =     49460.15629790   -47537.80206268
  entropy T*S    EENTRO =        -0.23527362
  eigenvalues    EBANDS =     -2085.23806342
  atomic energy  EATOM  =     41659.78587232
  Solvation  Ediel_sol  =         0.00000000
  ---------------------------------------------------
  free energy    TOTEN  =      -187.93383510 eV

  energy without entropy =     -187.69856148  energy(sigma->0) =     -187.81619829


--------------------------------------------------------------------------------------------------------




----------------------------------------- Iteration    1(  22)  ---------------------------------------


    POTLOK:  cpu time    0.0451: real time    0.0453
    SETDIJ:  cpu time    0.0054: real time    0.0054
    EDDIAG:  cpu time    1.5117: real time    1.5190
  RMM-DIIS:  cpu time    4.5590: real time    4.5837
    ORTHCH:  cpu time    0.3687: real time    0.3703
       DOS:  cpu time    0.0014: real time    0.0015
    CHARGE:  cpu time    0.2263: real time    0.2274
    MIXING:  cpu time    0.0041: real time    0.0042
    --------------------------------------------
      LOOP:  cpu time    6.7226: real time    6.7598

 eigenvalue-minimisations  :  3684
 total energy-change (2. order) : 0.1176822E-02  (-0.2696525E-03)
 number of electron     503.9998365 magnetization 
 augmentation part      197.1412111 magnetization 

 DIPCOR: dipole corrections for dipol
 direction  3 min pos     1,
 dipolmoment           0.000000      0.000000     -0.058512 electrons x Angstroem
 Tr[quadrupol]    -10228.774831

 energy correction for charged system         0.000000 eV
 dipol+quadrupol energy correction           -0.000121 eV
 added-field ion interaction          0.037045 eV  (added to PSCEN)


 Broyden mixing:
  rms(total) = 0.32788E-01    rms(broyden)= 0.32785E-01
  rms(prec ) = 0.39861E-01
  weight for this iteration     100.00

 eigenvalues of (default mixing * dielectric matrix)
  average eigenvalue GAMMA=   0.7623
  2.2985  1.9986  1.9986  1.1246  0.7799  0.7799  0.6400  0.6400  0.4386  0.4386
  0.3219  0.3219  0.2620  0.2620  0.2331  0.2181  0.2029

 Free energy of the ion-electron system (eV)
  ---------------------------------------------------
  alpha Z        PSCENC =       805.90628848
  Ewald energy   TEWEN  =    200640.48718186
  -Hartree energ DENC   =   -242797.18087650
  -exchange      EXHF   =         0.00000000
  -V(xc)+E(xc)   XCENC  =      -343.15769056
  PAW double counting   =     49467.33303616   -47544.86036903
  entropy T*S    EENTRO =        -0.23478861
  eigenvalues    EBANDS =     -2076.01131239
  atomic energy  EATOM  =     41659.78587232
  Solvation  Ediel_sol  =         0.00000000
  ---------------------------------------------------
  free energy    TOTEN  =      -187.93265827 eV

  energy without entropy =     -187.69786967  energy(sigma->0) =     -187.81526397


--------------------------------------------------------------------------------------------------------




----------------------------------------- Iteration    1(  23)  ---------------------------------------


    POTLOK:  cpu time    0.0463: real time    0.0469
    SETDIJ:  cpu time    0.0054: real time    0.0054
    EDDIAG:  cpu time    1.5022: real time    1.5093
  RMM-DIIS:  cpu time    4.4660: real time    4.5913
    ORTHCH:  cpu time    0.3684: real time    0.3705
       DOS:  cpu time    0.0014: real time    0.0014
    CHARGE:  cpu time    0.2255: real time    0.2266
    MIXING:  cpu time    0.0044: real time    0.0045
    --------------------------------------------
      LOOP:  cpu time    6.6205: real time    6.7606

 eigenvalue-minimisations  :  3681
 total energy-change (2. order) : 0.8636425E-03  (-0.1125622E-03)
 number of electron     503.9998365 magnetization 
 augmentation part      197.1395710 magnetization 

 DIPCOR: dipole corrections for dipol
 direction  3 min pos     1,
 dipolmoment           0.000000      0.000000     -0.054182 electrons x Angstroem
 Tr[quadrupol]    -10228.849936

 energy correction for charged system         0.000000 eV
 dipol+quadrupol energy correction           -0.000103 eV
[...]
    275       1.7015      0.00000
    276       1.7884      0.00000
    277       2.0539      0.00000
    278       2.1674      0.00000
    279       2.2640      0.00000
    280       2.3463      0.00000
    281       2.4787      0.00000
    282       2.5760      0.00000
    283       2.6498      0.00000
    284       2.9580      0.00000
    285       3.2068      0.00000
    286       3.2408      0.00000
    287       3.5347      0.00000
    288       3.5905      0.00000
    289       3.6891      0.00000
    290       3.9821      0.00000
    291       4.0372      0.00000
    292       4.1947      0.00000
    293       4.4988      0.00000
    294       4.5363      0.00000
    295       4.5926      0.00000
    296       4.6376      0.00000
    297       4.7268      0.00000
    298       4.8302      0.00000
    299       4.8984      0.00000
    300       4.9073      0.00000
    301       4.9428      0.00000
    302       5.0413      0.00000
    303       5.0713      0.00000
    304       5.0992      0.00000
    305       5.1896      0.00000
    306       5.2310      0.00000


--------------------------------------------------------------------------------------------------------


 soft charge-density along one line, spin component           1
         0         1         2         3         4         5         6         7         8         9
 total charge-density along one line
 
 pseudopotential strength for first ion, spin component:           1
 -8.032   0.001   0.001   0.003   0.001  -8.179   0.001   0.001
  0.001  -7.960  -0.001   0.000  -0.007   0.001  -8.109  -0.001
  0.001  -0.001  -7.957   0.001   0.002   0.001  -0.001  -8.106
  0.003   0.000   0.001  -7.962   0.003   0.003   0.000   0.001
  0.001  -0.007   0.002   0.003  -8.033   0.001  -0.007   0.002
 -8.179   0.001   0.001   0.003   0.001  -8.310   0.001   0.001
  0.001  -8.109  -0.001   0.000  -0.007   0.001  -8.241  -0.001
  0.001  -0.001  -8.106   0.001   0.002   0.001  -0.001  -8.239
  0.003   0.000   0.001  -8.110   0.003   0.003   0.000   0.001
  0.001  -0.007   0.002   0.003  -8.180   0.001  -0.007   0.002
  0.000  -0.003  -0.023  -0.001   0.001   0.000  -0.003  -0.023
  0.000  -0.004  -0.034  -0.002   0.001   0.000  -0.004  -0.033
 -0.001   0.005   0.003   0.000   0.006  -0.001   0.005   0.003
  0.000  -0.006   0.007  -0.001  -0.000   0.000  -0.006   0.007
 -0.006   0.000   0.001   0.005  -0.002  -0.006   0.000   0.001
 -0.001   0.005   0.004   0.000   0.007  -0.001   0.005   0.004
  0.000  -0.007   0.008  -0.001  -0.000   0.000  -0.007   0.008
 -0.007   0.000   0.001   0.005  -0.002  -0.007   0.000   0.001
 total augmentation occupancy for first ion, spin component:           1
  4.380  -0.022   0.004   0.037   0.060  -2.543   0.015   0.005  -0.039  -0.046   0.015  -0.008  -0.014  -0.000   0.052  -0.001
 -0.022   4.034  -0.024  -0.050   0.004   0.016  -1.789  -0.010   0.055  -0.068   0.087  -0.005   0.136  -0.006  -0.004  -0.002
  0.004  -0.024   4.353  -0.095  -0.004   0.005  -0.010  -2.258   0.087   0.018   0.961  -0.129  -0.025   0.218  -0.037   0.005
  0.037  -0.050  -0.095   4.109   0.012  -0.038   0.055   0.087  -1.855   0.008   0.064  -0.034  -0.004  -0.027   0.143   0.000
  0.060   0.004  -0.004   0.012   4.362  -0.046  -0.069   0.018   0.009  -2.541  -0.053   0.011   0.008   0.006   0.054   0.006
 -2.543   0.016   0.005  -0.038  -0.046   2.593  -0.011  -0.011   0.039   0.037  -0.016   0.009   0.013   0.002  -0.040  -0.000
  0.015  -1.789  -0.010   0.055  -0.069  -0.011   1.512   0.035  -0.058   0.117  -0.079   0.007  -0.128   0.007   0.004   0.005
  0.005  -0.010  -2.258   0.087   0.018  -0.011   0.035   2.104  -0.081  -0.029  -0.906   0.150   0.017  -0.228   0.030  -0.001
 -0.039   0.055   0.087  -1.855   0.009   0.039  -0.058  -0.081   1.570  -0.024  -0.055   0.030   0.004   0.024  -0.133  -0.000
 -0.046  -0.068   0.018   0.008  -2.541   0.037   0.117  -0.029  -0.024   2.604   0.049  -0.012  -0.014  -0.005  -0.044  -0.001
  0.015   0.087   0.961   0.064  -0.053  -0.016  -0.079  -0.906  -0.055   0.049   2.412  -0.499  -0.006  -0.115  -0.007   0.000
 -0.008  -0.005  -0.129  -0.034   0.011   0.009   0.007   0.150   0.030  -0.012  -0.499   0.146   0.022   0.050   0.010  -0.001
 -0.014   0.136  -0.025  -0.004   0.008   0.013  -0.128   0.017   0.004  -0.014  -0.006   0.022   0.186  -0.006  -0.000  -0.006
 -0.000  -0.006   0.218  -0.027   0.006   0.002   0.007  -0.228   0.024  -0.005  -0.115   0.050  -0.006   0.093  -0.002   0.000
  0.052  -0.004  -0.037   0.143   0.054  -0.040   0.004   0.030  -0.133  -0.044  -0.007   0.010  -0.000  -0.002   0.192   0.000
 -0.001  -0.002   0.005   0.000   0.006  -0.000   0.005  -0.001  -0.000  -0.001   0.000  -0.001  -0.006   0.000   0.000   0.000
  0.000  -0.007   0.002  -0.000  -0.000  -0.000   0.001   0.005  -0.001   0.000   0.008  -0.002   0.000  -0.003   0.000  -0.000
 -0.008   0.000   0.003  -0.002  -0.004   0.003  -0.000  -0.002   0.005   0.003   0.000  -0.000   0.000   0.000  -0.006  -0.000


------------------------ aborting loop because EDIFF is reached ----------------------------------------


    CHARGE:  cpu time    0.2213: real time    0.2226
    FORLOC:  cpu time    0.0158: real time    0.0159
    FORNL :  cpu time    1.7246: real time    1.7330
    FORCOR:  cpu time    0.0594: real time    0.0609
    FORHAR:  cpu time    0.0247: real time    0.0249
    MIXING:  cpu time    0.0033: real time    0.0033
    OFIELD:  cpu time    0.0001: real time    0.0001

 VOLUME and BASIS-vectors are now :
 -----------------------------------------------------------------------------
  energy-cutoff  :      400.00
  volume of cell :     2567.68
      direct lattice vectors                 reciprocal lattice vectors
    11.002581515  0.000000000  0.000000000     0.090887761 -0.052474073  0.000000000
     5.501290758  9.528515099  0.000000000     0.000000000  0.104948147  0.000000000
     0.000000000  0.000000000 24.491785094     0.000000000  0.000000000  0.040830017

  length of vectors
    11.002581515 11.002581515 24.491785094     0.104948147  0.104948147  0.040830017


 FORCES acting on ions
    electron-ion (+dipol)            ewald-force                    non-local-force                 convergence-correction
 -----------------------------------------------------------------------------------------------
   0.140E+01 -.159E+02 -.221E+04   -.103E+01 0.170E+02 0.221E+04   -.366E+00 -.107E+01 0.333E+00   -.402E-02 -.966E-03 -.169E-02
   -.642E+01 -.435E+01 0.234E+02   0.675E+01 0.535E+01 -.240E+02   -.339E+00 -.101E+01 0.584E+00   0.834E-03 0.480E-02 -.640E-02
   0.101E+02 -.575E+01 -.223E+04   -.109E+02 0.536E+01 0.223E+04   0.772E+00 0.393E+00 -.271E-01   0.315E-03 0.330E-02 -.184E-02
   -.113E+02 -.121E+01 -.221E+04   0.115E+02 0.153E+01 0.221E+04   -.142E+00 -.311E+00 0.237E+00   0.200E-02 -.186E-02 -.535E-02
   0.803E+01 0.684E+01 0.355E+02   -.758E+01 -.678E+01 -.355E+02   -.459E+00 -.609E-01 -.522E-01   0.386E-02 -.502E-02 -.651E-02
   -.281E+01 -.782E+01 0.233E+04   0.298E+01 0.811E+01 -.233E+04   -.167E+00 -.291E+00 0.704E-01   -.354E-03 -.102E-02 0.256E-02
   -.889E+00 -.630E+01 -.229E+04   0.211E+00 0.638E+01 0.229E+04   0.676E+00 -.815E-01 -.110E+00   0.216E-02 0.180E-02 -.518E-02
   0.368E+01 -.476E+00 0.527E+02   -.342E+01 0.248E-01 -.526E+02   -.248E+00 0.457E+00 -.793E-01   -.539E-02 -.649E-02 -.104E-02
   -.127E+02 0.489E+01 0.230E+04   0.134E+02 -.519E+01 -.230E+04   -.702E+00 0.295E+00 -.121E+00   0.175E-02 0.215E-02 -.275E-02
   -.349E+01 0.516E+01 -.227E+04   0.321E+01 -.519E+01 0.227E+04   0.272E+00 0.228E-01 0.352E-02   -.199E-03 -.818E-03 -.791E-02
   -.695E+01 0.391E+01 -.308E+01   0.676E+01 -.387E+01 0.199E+01   0.189E+00 -.406E-01 0.110E+01   0.257E-02 -.368E-03 -.115E-01
   -.855E+01 -.127E+02 0.317E+02   0.845E+01 0.124E+02 -.317E+02   0.109E+00 0.326E+00 -.789E-01   0.105E-02 0.434E-02 -.606E-02
   0.126E+02 0.650E+01 0.231E+04   -.132E+02 -.695E+01 -.231E+04   0.545E+00 0.453E+00 -.116E-01   -.952E-03 0.470E-02 -.277E-03
   0.106E+01 -.534E+01 0.108E+02   -.658E+00 0.555E+01 -.120E+02   -.408E+00 -.211E+00 0.122E+01   0.200E-02 0.189E-02 -.727E-02
   -.482E+01 -.311E+01 0.225E+04   0.513E+01 0.358E+01 -.225E+04   -.304E+00 -.481E+00 -.612E+00   -.171E-02 -.628E-04 0.101E-01
   -.225E+01 0.165E+02 -.228E+04   0.288E+01 -.169E+02 0.228E+04   -.637E+00 0.406E+00 0.783E-01   -.430E-02 0.950E-04 -.312E-03
   -.170E+02 -.445E+01 0.149E+02   0.164E+02 0.398E+01 -.148E+02   0.591E+00 0.460E+00 -.619E-01   0.246E-02 -.365E-02 -.657E-02
   0.109E+02 0.242E+01 0.230E+04   -.113E+02 -.269E+01 -.230E+04   0.466E+00 0.271E+00 -.432E-01   0.230E-02 -.255E-02 -.358E-03
   -.751E+01 -.621E+01 -.220E+04   0.772E+01 0.618E+01 0.220E+04   -.209E+00 0.263E-01 0.180E+00   -.854E-04 0.285E-02 -.326E-02
   -.203E+01 0.134E+01 0.327E+02   0.180E+01 -.838E+00 -.326E+02   0.235E+00 -.494E+00 -.704E-01   0.811E-03 -.911E-03 -.923E-02
   0.459E+01 0.241E+00 0.730E+01   -.475E+01 -.614E+00 -.837E+01   0.158E+00 0.365E+00 0.107E+01   -.278E-02 0.414E-02 -.867E-02
   0.710E+00 -.594E+01 -.226E+04   0.108E+00 0.563E+01 0.226E+04   -.820E+00 0.317E+00 -.116E-01   -.692E-03 -.163E-02 -.117E-01
   0.141E+02 0.108E+02 0.267E+02   -.143E+02 -.107E+02 -.271E+02   0.191E+00 -.686E-01 0.478E+00   -.340E-02 0.975E-03 -.951E-02
   0.230E+01 0.976E+01 -.231E+04   -.267E+01 -.101E+02 0.231E+04   0.375E+00 0.340E+00 -.312E+00   0.150E-02 -.364E-03 0.692E-03
   -.107E+02 -.199E+01 0.201E+04   0.109E+02 0.161E+01 -.201E+04   -.244E+00 0.376E+00 -.154E+01   -.600E-04 0.516E-03 -.354E-02
   -.118E+02 -.144E+01 0.203E+04   0.120E+02 0.196E+01 -.203E+04   -.177E+00 -.511E+00 -.169E+01   -.463E-03 -.116E-02 0.284E-03
   0.643E+01 0.702E+01 0.427E+02   -.664E+01 -.673E+01 -.428E+02   0.225E+00 -.289E+00 0.432E-01   -.548E-02 -.288E-02 -.126E-02
   0.652E+01 -.149E+01 0.203E+04   -.699E+01 0.148E+01 -.202E+04   0.476E+00 0.140E-01 -.146E+01   0.198E-02 -.287E-02 -.113E-02
   0.455E+01 -.338E+01 0.238E+01   -.457E+01 0.298E+01 -.283E+01   0.199E-01 0.396E+00 0.453E+00   -.337E-03 -.239E-02 -.444E-02
   0.435E+01 -.452E+00 -.197E+04   -.415E+01 0.624E+00 0.197E+04   -.199E+00 -.172E+00 0.175E+01   -.270E-02 -.989E-03 -.286E-02
   0.339E+01 0.656E+01 0.202E+04   -.367E+01 -.683E+01 -.202E+04   0.285E+00 0.259E+00 -.140E+01   0.114E-02 0.322E-03 -.344E-02
   -.250E+00 0.325E+01 0.486E+02   0.247E+00 -.270E+01 -.485E+02   0.727E-02 -.560E+00 -.410E-01   -.270E-03 0.524E-02 -.222E-02
   0.646E+01 0.552E+01 0.202E+04   -.655E+01 -.610E+01 -.202E+04   0.814E-01 0.575E+00 -.152E+01   -.121E-02 0.128E-02 -.418E-02
   -.684E+01 0.124E+02 -.196E+04   0.695E+01 -.124E+02 0.195E+04   -.113E+00 -.106E-01 0.133E+01   -.547E-03 -.198E-02 -.707E-02
   -.139E+02 -.675E+01 0.201E+04   0.146E+02 0.702E+01 -.201E+04   -.633E+00 -.264E+00 -.184E+01   -.293E-02 -.295E-02 0.449E-02
   0.288E+01 0.164E+01 0.501E+02   -.278E+01 -.195E+01 -.500E+02   -.938E-01 0.322E+00 -.916E-01   0.311E-03 -.221E-03 0.176E-03
   -.579E+01 0.444E+01 -.197E+04   0.597E+01 -.465E+01 0.197E+04   -.177E+00 0.200E+00 0.132E+01   0.288E-03 0.295E-02 -.385E-02
   0.204E+01 -.159E+01 -.125E+02   -.215E+01 0.141E+01 0.118E+02   0.118E+00 0.186E+00 0.783E+00   0.281E-03 -.363E-03 -.720E-02
   -.328E+01 -.123E+02 0.202E+04   0.332E+01 0.125E+02 -.202E+04   -.347E-01 -.264E+00 -.167E+01   -.196E-02 0.560E-03 -.266E-02
   -.851E+01 -.189E+01 0.112E+02   0.876E+01 0.180E+01 -.117E+02   -.257E+00 0.919E-01 0.463E+00   0.385E-02 -.117E-02 -.482E-02
   0.134E+02 0.504E+01 0.199E+04   -.138E+02 -.506E+01 -.199E+04   0.393E+00 0.163E-01 -.195E+01   0.101E-02 0.133E-02 0.612E-02
   0.106E+02 0.254E+01 0.202E+04   -.110E+02 -.245E+01 -.202E+04   0.390E+00 -.842E-01 -.142E+01   -.418E-03 0.198E-02 -.107E-02
   -.624E+01 -.788E+01 0.200E+04   0.657E+01 0.823E+01 -.200E+04   -.334E+00 -.357E+00 -.133E+01   0.234E-02 0.128E-03 -.244E-02
   0.108E+02 0.168E+01 -.198E+04   -.111E+02 -.170E+01 0.197E+04   0.321E+00 0.192E-01 0.160E+01   0.459E-02 -.154E-02 -.572E-02
   0.660E+01 -.161E+02 -.199E+04   -.648E+01 0.166E+02 0.198E+04   -.130E+00 -.483E+00 0.122E+01   0.125E-02 -.155E-02 -.707E-02
   0.252E+01 0.775E+01 0.202E+04   -.247E+01 -.781E+01 -.202E+04   -.541E-01 0.620E-01 -.154E+01   0.128E-02 -.122E-02 -.174E-02
   -.439E+01 -.353E+00 -.193E+04   0.447E+01 0.336E+00 0.193E+04   -.830E-01 0.213E-01 0.178E+01   -.281E-02 -.139E-02 -.459E-02
   0.851E+01 0.910E+01 -.198E+04   -.880E+01 -.943E+01 0.198E+04   0.297E+00 0.326E+00 0.130E+01   0.645E-03 0.250E-02 -.324E-02
 -----------------------------------------------------------------------------------------------
   0.146E+00 0.947E-01 0.187E+01   -.380E-12 -.497E-13 -.250E-11   -.137E+00 -.116E+00 -.168E+01   -.503E-03 -.553E-03 -.164E+00
 
 
 POSITION                                       TOTAL-FORCE (eV/Angst)
 -----------------------------------------------------------------------------------
      9.64609      2.41675     14.70937        -0.005304     -0.003978      0.003723
      5.51215      1.61735     12.22774        -0.007651     -0.004157     -0.005321
      8.24247     -0.00791     14.76807         0.001265      0.003954      0.001399
      5.50903      4.77176     14.72203        -0.004564      0.002145      0.002924
      5.51161      6.34782     12.21959        -0.000227     -0.003570      0.009804
      6.88559      5.57274      9.63290        -0.000140      0.000209      0.006789
      4.10927      2.39577     14.82837        -0.000340      0.001807     -0.005646
      8.25043      6.33927     12.20274         0.005213     -0.000278      0.006485
      9.64973      0.78393      9.68268         0.002600      0.002981      0.002034
      2.75667     -0.00741     14.81555        -0.003859     -0.005110      0.001413
      2.75204      1.59816     12.25406         0.002827      0.001435     -0.004231
     12.36861      8.72992     12.22709         0.002271      0.004401      0.003611
      6.85305      0.77403      9.67370         0.001314      0.003409      0.003873
     15.13376      8.74190     12.22898        -0.007631      0.000164      0.002657
      8.26378      3.18722      9.74463         0.004264     -0.001071     -0.016448
      9.65064      7.12309     14.79379        -0.003883     -0.001197     -0.004727
     13.74340      6.34188     12.24282        -0.006473     -0.015934      0.002389
      4.10280      5.54314      9.69714        -0.005936      0.000766     -0.001581
      6.88811      2.39199     14.70482         0.001779     -0.005523      0.001842
     12.36257      3.98449     12.22839         0.009069      0.006129      0.002490
      9.61214      8.72109     12.24227         0.000383     -0.003601     -0.005266
      0.01989     -0.00932     14.81979        -0.003452      0.001158      0.010361
     10.98835      1.59449     12.22624         0.004666      0.007960      0.005241
      4.11366      7.12684     14.88188         0.004177      0.003727     -0.016949
      1.38814      0.77561      9.86361        -0.002087      0.001881      0.002159
     11.02494      3.19424      9.82908        -0.000132      0.002804      0.001674
      9.60597      3.96443     12.20746         0.003300      0.000156     -0.003254
     12.35941      5.55656      9.84204        -0.000052      0.007147      0.003605
     10.98015      6.33749     12.25686         0.003431     -0.002147     -0.006769
     11.02533      4.76681     14.60523        -0.000812     -0.000154     -0.000568
     13.74285      7.92367      9.82297        -0.000419     -0.008367      0.004795
      8.24844      1.60429     12.19841         0.003618     -0.004938     -0.002468
     10.99194      7.91878      9.84610        -0.001934     -0.004775      0.004688
      6.88945      7.13654     14.62937        -0.000890      0.002757      0.005466
      9.64916      5.57346      9.84722         0.003866      0.001555     -0.014950
      6.88065      3.96942     12.20200         0.000532      0.008835     -0.001607
      5.50203     -0.00329     14.64822         0.004284     -0.000778      0.000103
      6.87116      8.74328     12.26868         0.004829      0.003544      0.002111
      8.25675      7.95691      9.84102         0.004110      0.003090     -0.002885
      4.13718      3.97797     12.24388        -0.003963      0.001388     -0.001529
      5.48132      3.17379      9.84775        -0.005098     -0.005760     -0.009725
      4.11160      0.79415      9.84803         0.000483      0.004067     -0.001491
      5.51359      7.94352      9.84927        -0.003945     -0.000165     -0.001645
      2.73137      4.76814     14.63238         0.002751      0.000103      0.001354
      1.38061      2.39586     14.65197        -0.005921     -0.003522      0.006357
      2.74315      3.16081      9.84985         0.001124     -0.001098      0.001998
      8.26966      4.77428     14.55939        -0.000272      0.002981      0.002567
     12.37449      7.14161     14.63739         0.002828     -0.004429      0.003150
 -----------------------------------------------------------------------------------
    total drift:                                0.008394     -0.021905      0.025410


--------------------------------------------------------------------------------------------------------



  FREE ENERGIE OF THE ION-ELECTRON SYSTEM (eV)
  ---------------------------------------------------
  free  energy   TOTEN  =      -191.71583118 eV

  energy  without entropy=     -191.50540053  energy(sigma->0) =     -191.61061585
 
 d Force = 0.3874137E-03[ 0.186E-03, 0.589E-03]  d Energy = 0.4076136E-03-0.202E-04
 d Force = 0.1288329E+02[ 0.129E+02, 0.129E+02]  d Ewald  = 0.1288330E+02-0.550E-05


--------------------------------------------------------------------------------------------------------


    POTLOK:  cpu time    0.0511: real time    0.0523


--------------------------------------------------------------------------------------------------------


 stress matrix after NEB project (eV)
      0.00000      0.00000      0.00000
      0.00000      0.00000      0.00000
      0.00000      0.00000      0.00000
  FORCES: max atom, RMS     0.017850    0.008292
  FORCE total and by dimension    0.057448    0.016949
  Stress total and by dimension    0.000000    0.000000
 Conjugate gradient step on ions:
 trial-energy change:   -0.000408  1 .order   -0.000387   -0.000589   -0.000186
  (g-gl).g = 0.264E-03      g.g   = 0.256E-03  gl.gl    = 0.459E-03
 g(Force)  = 0.256E-03   g(Stress)= 0.000E+00 ortho     =-0.275E-05
 gamma     =   0.57544
 trial     =   2.31607
 opt step  =   3.07760  (harmonic =   3.38152) maximal distance =0.00505172
 next E    =  -191.715862   (d E  =  -0.00044)


--------------------------------------------------------------------------------------------------------


  
 reached required accuracy - stopping structural energy minimisation
     LOOP+:  cpu time   70.9584: real time   71.5372
    4ORBIT:  cpu time    0.0000: real time    0.0000

 total amount of memory used by VASP on root node    84353. kBytes
========================================================================

   base      :      30000. kBytes
   nonlr-proj:       4285. kBytes
   fftplans  :       4447. kBytes
   grid      :       6721. kBytes
   one-center:        124. kBytes
   wavefun   :      38776. kBytes
 
  
  
 General timing and accounting informations for this job:
 ========================================================
  
                  Total CPU time used (sec):     2378.115
                            User time (sec):     2265.961
                          System time (sec):      112.154
                         Elapsed time (sec):     2398.982
  
                   Maximum memory used (kb):      989856.
                   Average memory used (kb):           0.
  
                          Minor page faults:      1041397
                          Major page faults:            0
                 Voluntary context switches:        14027
