unknown system                          
           1
    11.002582    0.000000    0.000000
     5.501291    9.528515    0.000000
     0.000000    0.000000   24.491785
   Au   Pd
  24  24
Direct configuration=     1
   0.75000000  0.25000000  0.59169983
   0.41666667  0.16666667  0.50000000
   0.75000000  0.00000000  0.59169983
   0.25000000  0.50000000  0.59169983
   0.16666667  0.66666667  0.50000000
   0.33333333  0.58333333  0.40830017
   0.25000000  0.25000000  0.59169983
   0.41666667  0.66666667  0.50000000
   0.83333333  0.08333333  0.40830017
   0.25000000  0.00000000  0.59169983
   0.16666667  0.16666667  0.50000000
   0.66666667  0.91666667  0.50000000
   0.58333333  0.08333333  0.40830017
   0.91666667  0.91666667  0.50000000
   0.58333333  0.33333333  0.40830017
   0.50000000  0.75000000  0.59169983
   0.91666667  0.66666667  0.50000000
   0.08333333  0.58333333  0.40830017
   0.50000000  0.25000000  0.59169983
   0.91666667  0.41666667  0.50000000
   0.41666667  0.91666667  0.50000000
   0.00000000  0.00000000  0.59169983
   0.91666667  0.16666667  0.50000000
   0.00000000  0.75000000  0.59169983
   0.08333333  0.08333333  0.40830017
   0.83333333  0.33333333  0.40830017
   0.66666667  0.41666667  0.50000000
   0.83333333  0.58333333  0.40830017
   0.66666667  0.66666667  0.50000000
   0.75000000  0.50000000  0.59169983
   0.83333333  0.83333333  0.40830017
   0.66666667  0.16666667  0.50000000
   0.58333333  0.83333333  0.40830017
   0.25000000  0.75000000  0.59169983
   0.58333333  0.58333333  0.40830017
   0.41666667  0.41666667  0.50000000
   0.50000000  0.00000000  0.59169983
   0.16666667  0.91666667  0.50000000
   0.33333333  0.83333333  0.40830017
   0.16666667  0.41666667  0.50000000
   0.33333333  0.33333333  0.40830017
   0.33333333  0.08333333  0.40830017
   0.08333333  0.83333333  0.40830017
   0.00000000  0.50000000  0.59169983
   0.00000000  0.25000000  0.59169983
   0.08333333  0.33333333  0.40830017
   0.50000000  0.50000000  0.59169983
   0.75000000  0.75000000  0.59169983
Direct configuration=     2
   0.74926476  0.25189346  0.59355546
   0.41619766  0.16807224  0.49952581
   0.74902007 -0.00022364  0.59396658
   0.25022349  0.50006938  0.59359526
   0.16773795  0.66687679  0.49995101
   0.33362741  0.58355344  0.40612779
   0.24895592  0.25064692  0.59395789
   0.41760174  0.66580867  0.49996581
   0.83429287  0.08295979  0.40613963
   0.24967318 -0.00021981  0.59396974
   0.16592263  0.16712885  0.49917877
   0.66662804  0.91538083  0.49993981
   0.58284933  0.08290765  0.40611141
   0.91719814  0.91671346  0.49918864
   0.58340401  0.33407396  0.40671967
   0.50132889  0.74890749  0.59379904
   0.91550229  0.66548537  0.49994355
   0.08294994  0.58270329  0.40613603
   0.50026592  0.25041506  0.59356904
   0.91572789  0.41766977  0.49997826
   0.41704385  0.91588904  0.49920455
   0.00132760 -0.00028672  0.59397708
   0.91661277  0.16758678  0.49959624
   0.00000776  0.74917047  0.59427994
   0.08408688  0.08272415  0.40713585
   0.83332304  0.33432588  0.40719160
   0.66602880  0.41746797  0.50002841
   0.83257929  0.58338889  0.40718002
   0.66720282  0.66560765  0.49976387
   0.75024718  0.50022751  0.59260638
   0.83323883  0.83280617  0.40683621
   0.66597431  0.16798866  0.49995058
   0.58357767  0.83240460  0.40713159
   0.25028213  0.74986403  0.59296187
   0.58410557  0.58372258  0.40734940
   0.41723068  0.41621272  0.50002797
   0.50053802 -0.00054827  0.59323346
   0.16688646  0.91632102  0.49948145
   0.33307788  0.83404197  0.40710840
   0.16693575  0.41637247  0.49971175
   0.33256186  0.33318252  0.40726421
   0.33276223  0.08344909  0.40696464
   0.08347517  0.83402543  0.40708065
  -0.00073002  0.49986089  0.59289576
  -0.00048140  0.25092123  0.59311297
   0.08349362  0.33301594  0.40712536
   0.50043603  0.50001612  0.59258194
   0.74980310  0.74941826  0.59289866
Direct configuration=     3
   0.74705905  0.25757383  0.59912234
   0.41479066  0.17228895  0.49810323
   0.74608030 -0.00089457  0.60076682
   0.25089394  0.50027753  0.59928157
   0.17095180  0.66750718  0.49980405
   0.33450965  0.58421378  0.39961065
   0.24582369  0.25258767  0.60073206
   0.42040695  0.66323469  0.49986325
   0.83717148  0.08183915  0.39965800
   0.24869274 -0.00087924  0.60077948
   0.16369053  0.16851540  0.49671507
   0.66651217  0.91152331  0.49975924
   0.58139731  0.08163059  0.39954513
   0.91879257  0.91685383  0.49675454
   0.58361603  0.33629582  0.40197816
   0.50531556  0.74562996  0.60009666
   0.91200916  0.66194146  0.49977420
   0.08179975  0.58081316  0.39964362
   0.50106367  0.25166025  0.59917666
   0.91291156  0.42067907  0.49991304
   0.41817539  0.91355617  0.49681821
   0.00531038 -0.00114689  0.60080881
   0.91645106  0.17034711  0.49838496
   0.00003104  0.74668189  0.60202026
   0.08634754  0.08089661  0.40364289
   0.83329215  0.33730353  0.40386589
   0.66411520  0.41987186  0.50011363
   0.83031714  0.58355556  0.40381957
   0.66881126  0.66243059  0.49905548
   0.75098870  0.50091003  0.59532602
   0.83295531  0.83122467  0.40244433
   0.66389725  0.17195462  0.49980234
   0.58431066  0.82961840  0.40362584
   0.25112850  0.74945612  0.59674800
   0.58642229  0.58489034  0.40449708
   0.41892270  0.41485088  0.50011186
   0.50215210 -0.00219308  0.59783435
   0.16754583  0.91528410  0.49792581
   0.33231153  0.83616789  0.40353309
   0.16774299  0.41548989  0.49884700
   0.33024744  0.33273008  0.40415635
   0.33104893  0.08379636  0.40295804
   0.08390068  0.83610171  0.40342210
  -0.00292010  0.49944356  0.59648356
  -0.00192561  0.25368492  0.59735240
   0.08397449  0.33206375  0.40360094
   0.50174414  0.50006446  0.59522827
   0.74921240  0.74767305  0.59649514
Direct configuration=     4
   0.74689387  0.25799921  0.59953922
   0.41468529  0.17260472  0.49799670
   0.74586015 -0.00094481  0.60127607
   0.25094415  0.50029312  0.59970739
   0.17119247  0.66755438  0.49979304
   0.33457572  0.58426323  0.39912260
   0.24558913  0.25273300  0.60123935
   0.42061702  0.66304194  0.49985557
   0.83738704  0.08175523  0.39917262
   0.24861932 -0.00092862  0.60128943
   0.16352338  0.16861923  0.49653057
   0.66650349  0.91123444  0.49974572
   0.58128857  0.08153496  0.39905341
   0.91891197  0.91686434  0.49657226
   0.58363191  0.33646221  0.40162309
   0.50561411  0.74538452  0.60056827
   0.91174758  0.66167607  0.49976152
   0.08171362  0.58067161  0.39915743
   0.50112341  0.25175349  0.59959660
   0.91270066  0.42090443  0.49990816
   0.41826013  0.91338147  0.49663950
   0.00560864 -0.00121131  0.60132041
   0.91643896  0.17055382  0.49829425
   0.00003279  0.74649553  0.60259990
   0.08651683  0.08075975  0.40338132
   0.83328984  0.33752651  0.40361684
   0.66397190  0.42005188  0.50012001
   0.83014774  0.58356804  0.40356792
   0.66893171  0.66219267  0.49900243
   0.75104423  0.50096115  0.59552969
   0.83293408  0.83110624  0.40211544
   0.66374171  0.17225162  0.49979123
   0.58436556  0.82940975  0.40336331
   0.25119188  0.74942558  0.59703153
   0.58659578  0.58497779  0.40428348
   0.41904941  0.41474890  0.50011814
   0.50227297 -0.00231625  0.59817889
   0.16759521  0.91520644  0.49780931
   0.33225414  0.83632709  0.40326535
   0.16780344  0.41542380  0.49878225
   0.33007412  0.33269620  0.40392361
   0.33092063  0.08382237  0.40265800
   0.08393254  0.83625719  0.40314813
  -0.00308410  0.49941231  0.59675223
  -0.00203376  0.25389188  0.59766988
   0.08401050  0.33199245  0.40333701
   0.50184210  0.50006808  0.59542644
   0.74916817  0.74754236  0.59676447
Direct configuration=     5
   0.74928979  0.25528225  0.60054195
   0.41598825  0.16974415  0.49872327
   0.74854480 -0.00126341  0.60210101
   0.25053347  0.50044177  0.60067628
   0.16934495  0.66590302  0.49976520
   0.33388801  0.58481862  0.39770430
   0.24667768  0.25141637  0.60227407
   0.41996081  0.66414770  0.49986454
   0.83578335  0.08311759  0.39762720
   0.25094501 -0.00075697  0.60209729
   0.16549515  0.16763553  0.49766663
   0.66632655  0.91445308  0.49989373
   0.58204486  0.08130100  0.39778430
   0.91693188  0.91706731  0.49742494
   0.58413436  0.33539406  0.40054699
   0.50404020  0.74681764  0.60174219
   0.91606801  0.66393219  0.49986506
   0.08147120  0.58175926  0.39801513
   0.50020989  0.25111793  0.60068092
   0.91453715  0.41749766  0.49998718
   0.41695782  0.91478748  0.49766911
   0.00216684 -0.00044871  0.60221272
   0.91489899  0.16962714  0.49886808
  -0.00083651  0.74756386  0.60373277
   0.08578659  0.08140547  0.40195745
   0.83390370  0.33699791  0.40264674
   0.66491606  0.41797676  0.50002406
   0.83112821  0.58326356  0.40220955
   0.66573310  0.66357418  0.49945750
   0.75156726  0.50083403  0.59640045
   0.83301430  0.83092302  0.40124505
   0.66579858  0.16978533  0.49973679
   0.58429764  0.82999283  0.40204956
   0.25199701  0.74884290  0.59763623
   0.58539065  0.58534060  0.40326982
   0.41783449  0.41619261  0.50004336
   0.49992632 -0.00138370  0.59843428
   0.16781280  0.91641275  0.49864938
   0.33294415  0.83530208  0.40195104
   0.16688080  0.41771086  0.49923614
   0.33056779  0.33314669  0.40280679
   0.33160200  0.08355910  0.40137878
   0.08478790  0.83419863  0.40183744
  -0.00275971  0.49980570  0.59752285
  -0.00188250  0.25318561  0.59815676
   0.08284747  0.33244915  0.40212110
   0.50070863  0.50132903  0.59612787
   0.74979429  0.74779841  0.59763614
Direct configuration=     6
   0.75005713  0.25441210  0.60086309
   0.41640554  0.16882800  0.49895597
   0.74940461 -0.00136545  0.60236521
   0.25040194  0.50048937  0.60098659
   0.16875325  0.66537413  0.49975628
   0.33366776  0.58499649  0.39725006
   0.24702631  0.25099469  0.60260546
   0.41975065  0.66450185  0.49986741
   0.83526974  0.08355391  0.39713225
   0.25168985 -0.00070200  0.60235602
   0.16612665  0.16732048  0.49803047
   0.66626988  0.91548391  0.49994114
   0.58228708  0.08122607  0.39737785
   0.91629772  0.91713231  0.49769803
   0.58429528  0.33505196  0.40020235
   0.50353612  0.74727663  0.60211817
   0.91745171  0.66465475  0.49989822
   0.08139355  0.58210760  0.39764929
   0.49991732  0.25091438  0.60102819
   0.91512532  0.41640658  0.50001248
   0.41654072  0.91523778  0.49799886
   0.00106453 -0.00020447  0.60249849
   0.91440579  0.16933036  0.49905186
  -0.00111492  0.74790601  0.60409559
   0.08555272  0.08161227  0.40150142
   0.83410030  0.33682861  0.40233605
   0.66521845  0.41731216  0.49999333
   0.83144222  0.58316604  0.40177451
   0.66470868  0.66401663  0.49960324
   0.75173477  0.50079332  0.59667933
   0.83303999  0.83086434  0.40096630
   0.66645734  0.16899545  0.49971936
   0.58427589  0.83017958  0.40162881
   0.25225486  0.74865629  0.59782990
   0.58500469  0.58545679  0.40294518
   0.41744538  0.41665499  0.50001941
   0.49917476 -0.00108503  0.59851607
   0.16788248  0.91679910  0.49891842
   0.33316514  0.83497380  0.40153011
   0.16658531  0.41844333  0.49938151
   0.33072589  0.33329097  0.40244910
   0.33182022  0.08347478  0.40096909
   0.08506184  0.83353934  0.40141767
  -0.00265582  0.49993169  0.59776966
  -0.00183406  0.25295941  0.59831269
   0.08247499  0.33259542  0.40173168
   0.50034561  0.50173287  0.59635251
   0.74999482  0.74788041  0.59791531
Direct configuration=     7
   0.74971640  0.25386684  0.60120224
   0.41653771  0.16902268  0.49919122
   0.74926036 -0.00102244  0.60256506
   0.24995735  0.50050703  0.60130525
   0.16847584  0.66618263  0.49969706
   0.33364142  0.58478658  0.39671422
   0.24716817  0.25113040  0.60293987
   0.41799405  0.66516335  0.49970618
   0.83530477  0.08335615  0.39660071
   0.25082077 -0.00066376  0.60258530
   0.16664913  0.16728868  0.49852698
   0.66640647  0.91564587  0.49996127
   0.58248702  0.08133306  0.39695495
   0.91677555  0.91742396  0.49799595
   0.58400344  0.33481192  0.39989191
   0.50316914  0.74774079  0.60261296
   0.91677284  0.66501374  0.49991584
   0.08158777  0.58229494  0.39716338
   0.50019741  0.25043363  0.60123860
   0.91535877  0.41759395  0.49991385
   0.41659260  0.91554716  0.49838910
   0.00142721 -0.00055159  0.60265264
   0.91511457  0.16731538  0.49918191
  -0.00070488  0.74817654  0.60458385
   0.08511077  0.08184708  0.40122310
   0.83426452  0.33633808  0.40195599
   0.66518010  0.41634775  0.49994602
   0.83183561  0.58316518  0.40164694
   0.66592802  0.66470827  0.49984778
   0.75169725  0.50070575  0.59690005
   0.83303156  0.83119801  0.40079620
   0.66617907  0.16844116  0.49969662
   0.58412843  0.83076933  0.40136260
   0.25151226  0.74928642  0.59783394
   0.58443870  0.58533084  0.40258595
   0.41740303  0.41636344  0.49988127
   0.49965250 -0.00080389  0.59837677
   0.16671281  0.91704011  0.49934730
   0.33343445  0.83466293  0.40116946
   0.16703917  0.41771610  0.49958334
   0.33124846  0.33329145  0.40227007
   0.33206641  0.08348164  0.40064498
   0.08463978  0.83339992  0.40123432
  -0.00217733  0.50000853  0.59788040
  -0.00090003  0.25185126  0.59837255
   0.08244367  0.33258735  0.40146931
   0.50058978  0.50130604  0.59654574
   0.74982712  0.74855976  0.59793899
Direct configuration=     8
   0.74962484  0.25372034  0.60129336
   0.41657322  0.16907499  0.49925443
   0.74922160 -0.00093027  0.60261876
   0.24983788  0.50051177  0.60139087
   0.16840131  0.66639987  0.49968115
   0.33363435  0.58473018  0.39657024
   0.24720629  0.25116686  0.60302973
   0.41752205  0.66534110  0.49966286
   0.83531418  0.08330302  0.39645789
   0.25058725 -0.00065349  0.60264691
   0.16678952  0.16728013  0.49866039
   0.66644318  0.91568939  0.49996668
   0.58254075  0.08136181  0.39684132
   0.91690394  0.91750232  0.49807599
   0.58392502  0.33474742  0.39980850
   0.50307053  0.74786551  0.60274592
   0.91659043  0.66511020  0.49992058
   0.08163996  0.58234527  0.39703282
   0.50027267  0.25030446  0.60129514
   0.91542150  0.41791300  0.49988735
   0.41660654  0.91563029  0.49849396
   0.00152466 -0.00064486  0.60269405
   0.91530502  0.16677395  0.49921685
  -0.00059471  0.74824922  0.60471505
   0.08499202  0.08191018  0.40114831
   0.83430865  0.33620628  0.40185387
   0.66516980  0.41608861  0.49993330
   0.83194131  0.58316495  0.40161266
   0.66625566  0.66489411  0.49991349
   0.75168717  0.50068222  0.59695936
   0.83302930  0.83128767  0.40075050
   0.66610430  0.16829223  0.49969051
   0.58408881  0.83092779  0.40129107
   0.25131272  0.74945573  0.59783502
   0.58428661  0.58529700  0.40248943
   0.41739165  0.41628510  0.49984415
   0.49978087 -0.00072834  0.59833934
   0.16639852  0.91710488  0.49946253
   0.33350681  0.83457940  0.40107256
   0.16716113  0.41752070  0.49963757
   0.33138888  0.33329158  0.40222197
   0.33213256  0.08348349  0.40055789
   0.08452637  0.83336246  0.40118505
  -0.00204876  0.50002917  0.59791015
  -0.00064906  0.25155350  0.59838863
   0.08243525  0.33258519  0.40139881
   0.50065539  0.50119135  0.59659766
   0.74978205  0.74874229  0.59794536
Direct configuration=     9
   0.74941166  0.25383091  0.60143687
   0.41649592  0.16949761  0.49922094
   0.74908843 -0.00090827  0.60275214
   0.24994071  0.50054737  0.60150330
   0.16807211  0.66648677  0.49958708
   0.33359623  0.58458799  0.39619078
   0.24732824  0.25119847  0.60331128
   0.41775409  0.66538886  0.49950738
   0.83549348  0.08298885  0.39616250
   0.25029792 -0.00073353  0.60283801
   0.16637722  0.16743452  0.49871946
   0.66662607  0.91562918  0.49982776
   0.58253605  0.08147739  0.39661537
   0.91701199  0.91713408  0.49814815
   0.58388578  0.33467439  0.39965775
   0.50301448  0.74786590  0.60297234
   0.91637352  0.66533382  0.49988533
   0.08186716  0.58215491  0.39680021
   0.50022472  0.25052866  0.60137177
   0.91515548  0.41789573  0.49976533
   0.41669774  0.91525205  0.49853707
   0.00180801 -0.00079028  0.60286803
   0.91566496  0.16714316  0.49917090
  -0.00042626  0.74828307  0.60506322
   0.08510742  0.08181628  0.40125370
   0.83421618  0.33601630  0.40183471
   0.66530095  0.41608315  0.49985925
   0.83184934  0.58324491  0.40166402
   0.66627889  0.66490901  0.49998446
   0.75172856  0.50042970  0.59693613
   0.83302221  0.83152691  0.40077533
   0.66570034  0.16825092  0.49961043
   0.58396804  0.83108221  0.40133469
   0.25114658  0.74944709  0.59781577
   0.58436093  0.58520100  0.40249691
   0.41736313  0.41615762  0.49976009
   0.50006496 -0.00066090  0.59825340
   0.16623961  0.91727698  0.49953059
   0.33339190  0.83477284  0.40110492
   0.16751617  0.41727071  0.49968317
   0.33148854  0.33317558  0.40225284
   0.33205032  0.08358298  0.40060235
   0.08419988  0.83364745  0.40122446
  -0.00204051  0.50013158  0.59790790
  -0.00056658  0.25132663  0.59828527
   0.08280478  0.33238386  0.40143121
   0.50073052  0.50098455  0.59656515
   0.74978206  0.74904104  0.59792028
Direct configuration=    10
   0.74927604  0.25390125  0.60152816
   0.41644674  0.16976647  0.49919963
   0.74900371 -0.00089428  0.60283699
   0.25000612  0.50057002  0.60157482
   0.16786270  0.66654204  0.49952724
   0.33357198  0.58449753  0.39594939
   0.24740583  0.25121858  0.60349039
   0.41790171  0.66541924  0.49940848
   0.83560754  0.08278898  0.39597458
   0.25011386 -0.00078445  0.60295958
   0.16611493  0.16753274  0.49875703
   0.66674242  0.91559087  0.49973938
   0.58253306  0.08155092  0.39647162
   0.91708073  0.91689981  0.49819405
   0.58386082  0.33462793  0.39956185
   0.50297882  0.74786615  0.60311638
   0.91623553  0.66547608  0.49986291
   0.08201170  0.58203381  0.39665224
   0.50019422  0.25067128  0.60142051
   0.91498626  0.41788475  0.49968770
   0.41675576  0.91501143  0.49856450
   0.00198827 -0.00088279  0.60297871
   0.91589394  0.16737803  0.49914167
  -0.00031909  0.74830460  0.60528471
   0.08518084  0.08175655  0.40132075
   0.83415735  0.33589544  0.40182253
   0.66538439  0.41607967  0.49981214
   0.83179084  0.58329578  0.40169669
   0.66629368  0.66491849  0.50002961
   0.75175490  0.50026905  0.59692134
   0.83301771  0.83167911  0.40079113
   0.66544335  0.16822465  0.49955949
   0.58389121  0.83118045  0.40136245
   0.25104089  0.74944159  0.59780353
   0.58440820  0.58513993  0.40250167
   0.41734499  0.41607653  0.49970662
   0.50024570 -0.00061800  0.59819872
   0.16613852  0.91738647  0.49957389
   0.33331880  0.83489591  0.40112551
   0.16774204  0.41711167  0.49971217
   0.33155195  0.33310179  0.40227247
   0.33199800  0.08364627  0.40063063
   0.08399219  0.83382875  0.40124953
  -0.00203526  0.50019672  0.59790646
  -0.00051411  0.25118231  0.59821951
   0.08303986  0.33225579  0.40145182
   0.50077831  0.50085300  0.59654447
   0.74978206  0.74923109  0.59790433
Direct configuration=    11
   0.74933246  0.25381283  0.60163233
   0.41626606  0.16962383  0.49915525
   0.74909933 -0.00082765  0.60299494
   0.25012320  0.50067195  0.60168187
   0.16795162  0.66629919  0.49938593
   0.33349511  0.58454030  0.39550429
   0.24752856  0.25110098  0.60384160
   0.41808770  0.66514046  0.49924062
   0.83573409  0.08262116  0.39566270
   0.25029779 -0.00084225  0.60320517
   0.16630615  0.16751730  0.49883057
   0.66653301  0.91574376  0.49954249
   0.58249036  0.08163571  0.39618055
   0.91695667  0.91715559  0.49831163
   0.58393550  0.33453669  0.39938518
   0.50297307  0.74779593  0.60335705
   0.91637728  0.66514088  0.49982887
   0.08210864  0.58185737  0.39641177
   0.50008574  0.25092683  0.60150723
   0.91479415  0.41814764  0.49956014
   0.41670276  0.91507982  0.49863263
   0.00182119 -0.00085945  0.60320132
   0.91559488  0.16759031  0.49908571
  -0.00027453  0.74828044  0.60572911
   0.08532814  0.08164327  0.40146600
   0.83409455  0.33566968  0.40178991
   0.66535048  0.41607896  0.49972680
   0.83173402  0.58336108  0.40177193
   0.66617593  0.66484033  0.50013852
   0.75180597  0.50012949  0.59685292
   0.83305373  0.83176706  0.40080913
   0.66561950  0.16815729  0.49942497
   0.58376432  0.83128836  0.40145194
   0.25119273  0.74914432  0.59772863
   0.58450680  0.58507145  0.40253865
   0.41727251  0.41644830  0.49959971
   0.50017581 -0.00052114  0.59805076
   0.16616779  0.91737296  0.49963625
   0.33311566  0.83507376  0.40121215
   0.16760566  0.41724325  0.49977193
   0.33162544  0.33297034  0.40229145
   0.33196426  0.08369683  0.40078618
   0.08390057  0.83395916  0.40132716
  -0.00211402  0.50030528  0.59782938
  -0.00056611  0.25123219  0.59810563
   0.08331439  0.33211547  0.40153336
   0.50074968  0.50092273  0.59642024
   0.74984140  0.74933995  0.59786744
Direct configuration=    12
   0.74938886  0.25372446  0.60173645
   0.41608549  0.16948128  0.49911089
   0.74919491 -0.00076105  0.60315281
   0.25024022  0.50077382  0.60178886
   0.16804049  0.66605647  0.49924470
   0.33341829  0.58458305  0.39505943
   0.24765123  0.25098345  0.60419260
   0.41827359  0.66486183  0.49907286
   0.83586058  0.08245343  0.39535099
   0.25048161 -0.00090001  0.60345062
   0.16649727  0.16750187  0.49890407
   0.66632372  0.91589656  0.49934571
   0.58244768  0.08172046  0.39588963
   0.91683267  0.91741122  0.49842914
   0.58401014  0.33444551  0.39920860
   0.50296733  0.74772574  0.60359758
   0.91651895  0.66480587  0.49979485
   0.08220553  0.58168102  0.39617144
   0.49997731  0.25118224  0.60159391
   0.91460214  0.41841039  0.49943265
   0.41664978  0.91514817  0.49870072
   0.00165419 -0.00083612  0.60342381
   0.91529599  0.16780248  0.49902979
  -0.00022999  0.74825629  0.60617327
   0.08547536  0.08153005  0.40161116
   0.83403178  0.33544404  0.40175731
   0.66531660  0.41607826  0.49964151
   0.83167723  0.58342635  0.40184713
   0.66605826  0.66476223  0.50024737
   0.75185702  0.49999000  0.59678454
   0.83308973  0.83185495  0.40082713
   0.66579555  0.16808996  0.49929053
   0.58363749  0.83139621  0.40154138
   0.25134448  0.74884721  0.59765377
   0.58460535  0.58500300  0.40257562
   0.41720006  0.41681987  0.49949286
   0.50010596 -0.00042434  0.59790287
   0.16619704  0.91735946  0.49969857
   0.33291264  0.83525151  0.40129875
   0.16746936  0.41737476  0.49983165
   0.33169890  0.33283898  0.40231042
   0.33193053  0.08374737  0.40094164
   0.08380900  0.83408951  0.40140474
  -0.00219273  0.50041378  0.59775235
  -0.00061809  0.25128203  0.59799180
   0.08358876  0.33197523  0.40161486
   0.50072106  0.50099243  0.59629608
   0.74990070  0.74944875  0.59783056
Direct configuration=    13
   0.74951816  0.25364828  0.60172504
   0.41621038  0.16958417  0.49914841
   0.74912615 -0.00067458  0.60322749
   0.25008616  0.50076456  0.60181348
   0.16806592  0.66613362  0.49912109
   0.33342027  0.58473596  0.39473457
   0.24753914  0.25111164  0.60445139
   0.41794716  0.66500651  0.49898097
   0.83585874  0.08254546  0.39516826
   0.25064705 -0.00097957  0.60363601
   0.16644615  0.16754958  0.49908336
   0.66638393  0.91589622  0.49924710
   0.58242283  0.08168109  0.39564398
   0.91676948  0.91752110  0.49856548
   0.58398957  0.33446989  0.39906231
   0.50309386  0.74765766  0.60373655
   0.91660078  0.66509450  0.49979701
   0.08205529  0.58177001  0.39600782
   0.50006478  0.25105536  0.60155766
   0.91481608  0.41817812  0.49936187
   0.41651138  0.91508013  0.49885164
   0.00174835 -0.00086279  0.60358313
   0.91505040  0.16764733  0.49901867
  -0.00027911  0.74817141  0.60651452
   0.08537330  0.08160917  0.40172851
   0.83421278  0.33534115  0.40168533
   0.66522246  0.41591765  0.49959024
   0.83170443  0.58340251  0.40185632
   0.66580877  0.66497640  0.50038501
   0.75182516  0.50015598  0.59672233
   0.83320022  0.83166176  0.40085260
   0.66578661  0.16825205  0.49916141
   0.58360872  0.83131069  0.40160313
   0.25149870  0.74885135  0.59752315
   0.58457431  0.58502669  0.40255929
   0.41727714  0.41664259  0.49938181
   0.50003851 -0.00042523  0.59779176
   0.16625898  0.91720573  0.49983983
   0.33293861  0.83507865  0.40136915
   0.16736305  0.41744819  0.49991786
   0.33174973  0.33293528  0.40231592
   0.33203319  0.08364306  0.40105811
   0.08403575  0.83383194  0.40149417
  -0.00209673  0.50033837  0.59766419
  -0.00055388  0.25139639  0.59789490
   0.08337593  0.33204483  0.40169005
   0.50081432  0.50115958  0.59612270
   0.74985704  0.74940959  0.59775443
Direct configuration=    14
   0.74961673  0.25359020  0.60171634
   0.41630559  0.16966261  0.49917702
   0.74907373 -0.00060866  0.60328442
   0.24996871  0.50075750  0.60183224
   0.16808530  0.66619245  0.49902685
   0.33342179  0.58485255  0.39448689
   0.24745368  0.25120937  0.60464870
   0.41769829  0.66511681  0.49891092
   0.83585734  0.08261563  0.39502894
   0.25077317 -0.00104022  0.60377735
   0.16640717  0.16758596  0.49922006
   0.66642984  0.91589595  0.49917193
   0.58240389  0.08165106  0.39545668
   0.91672131  0.91760487  0.49866942
   0.58397388  0.33448847  0.39895078
   0.50319033  0.74760575  0.60384250
   0.91666317  0.66531456  0.49979865
   0.08194075  0.58183786  0.39588307
   0.50013147  0.25095863  0.60153003
   0.91497920  0.41800103  0.49930791
   0.41640585  0.91502825  0.49896671
   0.00182014 -0.00088312  0.60370459
   0.91486316  0.16752904  0.49901019
  -0.00031656  0.74810670  0.60677469
   0.08529549  0.08166949  0.40181798
   0.83435078  0.33526271  0.40163044
   0.66515069  0.41579519  0.49955114
   0.83172516  0.58338434  0.40186333
   0.66561855  0.66513969  0.50048995
   0.75180086  0.50028252  0.59667490
   0.83328446  0.83151447  0.40087202
   0.66577980  0.16837563  0.49906297
   0.58358679  0.83124549  0.40165021
   0.25161628  0.74885452  0.59742357
   0.58455064  0.58504474  0.40254684
   0.41733591  0.41650742  0.49929713
   0.49998709 -0.00042592  0.59770704
   0.16630620  0.91708852  0.49994753
   0.33295840  0.83494685  0.40142283
   0.16728200  0.41750417  0.49998359
   0.33178849  0.33300871  0.40232011
   0.33211146  0.08356353  0.40114690
   0.08420863  0.83363557  0.40156235
  -0.00202354  0.50028088  0.59759697
  -0.00050492  0.25148357  0.59782102
   0.08321366  0.33209790  0.40174739
   0.50088543  0.50128702  0.59599052
   0.74982375  0.74937973  0.59769639
Direct configuration=    15
   0.74967372  0.25368675  0.60162778
   0.41639408  0.16964531  0.49921261
   0.74907281 -0.00072070  0.60328199
   0.24998822  0.50076376  0.60175976
   0.16801309  0.66614755  0.49899260
   0.33353772  0.58478738  0.39426228
   0.24745156  0.25122483  0.60480891
   0.41764349  0.66502480  0.49886567
   0.83588348  0.08251767  0.39497737
   0.25071113 -0.00094629  0.60392504
   0.16646359  0.16741473  0.49936521
   0.66640437  0.91606154  0.49915303
   0.58248799  0.08149371  0.39531926
   0.91672905  0.91753524  0.49877030
   0.58391148  0.33464312  0.39881679
   0.50327201  0.74765299  0.60392527
   0.91661059  0.66549326  0.49983050
   0.08196092  0.58178830  0.39581398
   0.50015566  0.25097131  0.60141072
   0.91475284  0.41814118  0.49929002
   0.41627055  0.91522682  0.49909929
   0.00210413 -0.00100685  0.60382423
   0.91506019  0.16727864  0.49901978
  -0.00039736  0.74814133  0.60698961
   0.08526154  0.08165254  0.40194076
   0.83435326  0.33538130  0.40156917
   0.66511771  0.41593563  0.49948282
   0.83165637  0.58333437  0.40188258
   0.66571813  0.66503773  0.50053980
   0.75190563  0.50029552  0.59660012
   0.83328812  0.83150652  0.40088770
   0.66560995  0.16833381  0.49894018
   0.58363491  0.83108601  0.40169635
   0.25152322  0.74894014  0.59734175
   0.58460154  0.58497231  0.40253160
   0.41720555  0.41644184  0.49921668
   0.50005011 -0.00045556  0.59767567
   0.16605510  0.91734205  0.50009875
   0.33304569  0.83488320  0.40145666
   0.16740418  0.41752105  0.50001968
   0.33163612  0.33323981  0.40232187
   0.33212611  0.08348838  0.40128472
   0.08418305  0.83361235  0.40163307
  -0.00205199  0.50031989  0.59752433
  -0.00043426  0.25143898  0.59779566
   0.08315734  0.33212434  0.40179241
   0.50097151  0.50119095  0.59578871
   0.74982582  0.74941046  0.59763699
Direct configuration=    16
   0.74969179  0.25371735  0.60159971
   0.41642212  0.16963983  0.49922389
   0.74907251 -0.00075621  0.60328121
   0.24999441  0.50076574  0.60173679
   0.16799020  0.66613332  0.49898175
   0.33357446  0.58476673  0.39419110
   0.24745088  0.25122973  0.60485969
   0.41762612  0.66499564  0.49885133
   0.83589176  0.08248662  0.39496102
   0.25069147 -0.00091652  0.60397184
   0.16648147  0.16736047  0.49941120
   0.66639629  0.91611402  0.49914704
   0.58251464  0.08144385  0.39527571
   0.91673151  0.91751317  0.49880226
   0.58389171  0.33469212  0.39877432
   0.50329790  0.74766796  0.60395150
   0.91659392  0.66554990  0.49984059
   0.08196732  0.58177259  0.39579209
   0.50016332  0.25097532  0.60137291
   0.91468111  0.41818559  0.49928434
   0.41622767  0.91528975  0.49914130
   0.00219413 -0.00104606  0.60386215
   0.91512263  0.16719929  0.49902282
  -0.00042296  0.74815230  0.60705772
   0.08525079  0.08164717  0.40197968
   0.83435405  0.33541889  0.40154975
   0.66510725  0.41598014  0.49946117
   0.83163457  0.58331853  0.40188869
   0.66574968  0.66500542  0.50055560
   0.75193883  0.50029963  0.59657643
   0.83328928  0.83150400  0.40089266
   0.66555612  0.16832055  0.49890127
   0.58365016  0.83103548  0.40171097
   0.25149372  0.74896727  0.59731582
   0.58461768  0.58494936  0.40252677
   0.41716424  0.41642106  0.49919118
   0.50007008 -0.00046495  0.59766572
   0.16597552  0.91742240  0.50014668
   0.33307336  0.83486303  0.40146738
   0.16744289  0.41752640  0.50003111
   0.33158783  0.33331305  0.40232243
   0.33213075  0.08346456  0.40132839
   0.08417495  0.83360499  0.40165548
  -0.00206100  0.50033226  0.59750131
  -0.00041187  0.25142484  0.59778762
   0.08313949  0.33213272  0.40180668
   0.50099879  0.50116050  0.59572475
   0.74982648  0.74942019  0.59761817
Direct configuration=    17
   0.74976074  0.25367162  0.60144717
   0.41626825  0.16962760  0.49922155
   0.74919694 -0.00076825  0.60324137
   0.25005207  0.50084423  0.60162200