unknown system                          
           1
    11.002582    0.000000    0.000000
     5.501291    9.528515    0.000000
     0.000000    0.000000   24.491785
   Au   Pd
  24  24
Direct configuration=     1
   0.08333333  0.08333333  0.40830017
   0.83333333  0.83333333  0.40830017
   0.66666667  0.66666667  0.50000000
   0.83333333  0.58333333  0.40830017
   0.83333333  0.33333333  0.40830017
   0.66666667  0.16666667  0.50000000
   0.41666667  0.91666667  0.50000000
   0.41666667  0.66666667  0.50000000
   0.58333333  0.58333333  0.40830017
   0.50000000  0.25000000  0.59169983
   0.41666667  0.16666667  0.50000000
   0.16666667  0.91666667  0.50000000
   0.25000000  0.50000000  0.59169983
   0.16666667  0.66666667  0.50000000
   0.25000000  0.25000000  0.59169983
   0.25000000  0.75000000  0.59169983
   0.75000000  0.75000000  0.59169983
   0.91666667  0.16666667  0.50000000
   0.16666667  0.16666667  0.50000000
   0.33333333  0.08333333  0.40830017
   0.00000000  0.00000000  0.59169983
   0.08333333  0.33333333  0.40830017
   0.08333333  0.83333333  0.40830017
   0.33333333  0.33333333  0.40830017
   0.50000000  0.75000000  0.59169983
   0.83333333  0.08333333  0.40830017
   0.00000000  0.25000000  0.59169983
   0.66666667  0.41666667  0.50000000
   0.91666667  0.41666667  0.50000000
   0.75000000  0.25000000  0.59169983
   0.75000000  0.50000000  0.59169983
   0.75000000  0.00000000  0.59169983
   0.08333333  0.58333333  0.40830017
   0.16666667  0.41666667  0.50000000
   0.50000000  0.50000000  0.59169983
   0.00000000  0.50000000  0.59169983
   0.41666667  0.41666667  0.50000000
   0.58333333  0.33333333  0.40830017
   0.50000000  0.00000000  0.59169983
   0.91666667  0.91666667  0.50000000
   0.58333333  0.08333333  0.40830017
   0.66666667  0.91666667  0.50000000
   0.00000000  0.75000000  0.59169983
   0.33333333  0.83333333  0.40830017
   0.33333333  0.58333333  0.40830017
   0.25000000  0.00000000  0.59169983
   0.58333333  0.83333333  0.40830017
   0.91666667  0.66666667  0.50000000
Direct configuration=     2
   0.08327343  0.08257279  0.40567262
   0.83255811  0.83406489  0.40675416
   0.66763137  0.66620018  0.50046909
   0.83385020  0.58392989  0.40646999
   0.83223258  0.33322198  0.40636179
   0.66730795  0.16637080  0.49966322
   0.41807445  0.91592681  0.50037082
   0.41775555  0.66472966  0.50001474
   0.58210382  0.58335305  0.40613606
   0.50138456  0.24981252  0.59384251
   0.41824184  0.16615185  0.49998872
   0.16690157  0.91655775  0.50006286
   0.24947520  0.50026740  0.59362085
   0.16543122  0.66532382  0.49963327
   0.24883726  0.25000481  0.59385036
   0.25076541  0.74990462  0.59425145
   0.75040325  0.75029154  0.59343487
   0.91467798  0.16806254  0.50047642
   0.16538568  0.16810225  0.50088722
   0.33495514  0.08177334  0.40571544
  -0.00099071  0.00044571  0.59390653
   0.08309367  0.33468708  0.40636322
   0.08347179  0.83282905  0.40611835
   0.33378090  0.33460715  0.40645950
   0.49995620  0.74999804  0.59310857
   0.83248404  0.08348393  0.40712022
  -0.00081041  0.25103352  0.59283413
   0.66641306  0.41634319  0.50051893
   0.91668579  0.41740627  0.50083439
   0.74986421  0.25085080  0.59277941
   0.75013690  0.49900928  0.59259886
   0.75020604 -0.00051166  0.59265486
   0.08372070  0.58311392  0.40735799
   0.16503915  0.41833905  0.50001547
   0.50114942  0.49986815  0.59273675
  -0.00046412  0.49988365  0.59244611
   0.41729508  0.41713039  0.49966739
   0.58328884  0.33309420  0.40734846
   0.50019640 -0.00069682  0.59290167
   0.91550050  0.91621831  0.50018923
   0.58396280  0.08309368  0.40717605
   0.66738144  0.91665797  0.50003729
  -0.00096125  0.75030225  0.59270262
   0.33369001  0.83295381  0.40680908
   0.33347372  0.58292212  0.40714304
   0.25052153 -0.00002410  0.59313599
   0.58314542  0.83405388  0.40705990
   0.91752233  0.66628466  0.50029953
Direct configuration=     3
   0.08309370  0.08029116  0.39778997
   0.83023244  0.83625958  0.40211612
   0.67052548  0.66480073  0.50187637
   0.83540079  0.58571954  0.40097945
   0.82893031  0.33288790  0.40054665
   0.66923179  0.16548318  0.49865288
   0.42229780  0.91370723  0.50148327
   0.42102218  0.65891865  0.50005895
   0.57841529  0.58341220  0.39964374
   0.50553826  0.24925010  0.60027056
   0.42296734  0.16460742  0.49995486
   0.16760626  0.91623102  0.50025143
   0.24790082  0.50106960  0.59938392
   0.16172489  0.66129527  0.49853308
   0.24534904  0.25001922  0.60030194
   0.25306163  0.74961849  0.60190632
   0.75161298  0.75116616  0.59863999
   0.90871190  0.17225016  0.50190567
   0.16154271  0.17240901  0.50354888
   0.33982054  0.07709338  0.39796126
  -0.00396284  0.00178283  0.60052664
   0.08237470  0.33874833  0.40055239
   0.08388717  0.83131619  0.39957288
   0.33512361  0.33842861  0.40093750
   0.49982482  0.74999218  0.59733478
   0.82993614  0.08393571  0.40358038
  -0.00324165  0.25413407  0.59623705
   0.66565225  0.41537278  0.50207573
   0.91674317  0.41962508  0.50333757
   0.74945683  0.25340318  0.59601816
   0.75054759  0.49603711  0.59529593
   0.75082417 -0.00204665  0.59551996
   0.08488282  0.58245569  0.40453144
   0.16015659  0.42335618  0.50006188
   0.50459770  0.49947258  0.59584751
  -0.00185650  0.49953460  0.59468496
   0.41918033  0.41852158  0.49866955
   0.58315537  0.33237680  0.40449332
   0.50078558 -0.00278729  0.59650717
   0.91200200  0.91487326  0.50075694
   0.58585119  0.08237474  0.40380371
   0.66952574  0.91663190  0.50014915
  -0.00384500  0.75120900  0.59571099
   0.33476005  0.83181525  0.40233579
   0.33389487  0.58168848  0.40367164
   0.25208613 -0.00009639  0.59744445
   0.58258168  0.83621554  0.40333908
   0.92008931  0.66513866  0.50119811
Direct configuration=     4
   0.08307763  0.08162834  0.39644188
   0.83119463  0.83572829  0.40087892
   0.67125458  0.66430655  0.50134689
   0.83334672  0.58605155  0.39995534
   0.82987746  0.33340189  0.39948643
   0.66759998  0.16601504  0.49904608
   0.42060693  0.91458190  0.50106257
   0.41875508  0.66186635  0.50009572
   0.57963636  0.58381857  0.39817048
   0.50458652  0.24925428  0.60163122
   0.41971188  0.16698691  0.50003983
   0.16663410  0.91570150  0.50029233
   0.24876093  0.50068448  0.60065853
   0.16402380  0.66472185  0.49905259
   0.24733394  0.25016429  0.60188965
   0.25220829  0.74968566  0.60336259
   0.75090851  0.75041248  0.60020114
   0.91249096  0.16990796  0.50133740
   0.16337862  0.17130882  0.50260752
   0.33774924  0.07941605  0.39659484
  -0.00298083  0.00140785  0.60195752
   0.08367729  0.33546361  0.39952781
   0.08379230  0.83137968  0.39824187
   0.33527989  0.33609607  0.39979666
   0.50061712  0.74940054  0.59846252
   0.83119984  0.08347876  0.40267888
  -0.00368814  0.25322446  0.59790656
   0.66628088  0.41631166  0.50126507
   0.91563219  0.41999391  0.50222336
   0.74963964  0.25245088  0.59744819
   0.74998288  0.49740358  0.59670251
   0.75000002 -0.00080962  0.59645360
   0.08427232  0.58366866  0.40322118
   0.16338626  0.41863812  0.50010078
   0.50345568  0.50010836  0.59700256
  -0.00205730  0.50016639  0.59593455
   0.41816964  0.41634367  0.49922214
   0.58341940  0.33207515  0.40356228
   0.50038307 -0.00164876  0.59753775
   0.91485974  0.91450767  0.50047382
   0.58456620  0.08354184  0.40273027
   0.67044076  0.91475733  0.50015824
  -0.00210270  0.75103648  0.59669207
   0.33450838  0.83175193  0.40178918
   0.33312040  0.58324021  0.40267613
   0.25133725 -0.00041945  0.59842667
   0.58346624  0.83415409  0.40276110
   0.91620540  0.66663416  0.50089477
Direct configuration=     5
   0.08307028  0.08223960  0.39582563
   0.83163447  0.83548543  0.40031336
   0.67158788  0.66408065  0.50110486
   0.83240775  0.58620332  0.39948719
   0.83031043  0.33363684  0.39900178
   0.66685404  0.16625816  0.49922582
   0.41983399  0.91498173  0.50087026
   0.41771873  0.66321382  0.50011253
   0.58019454  0.58400434  0.39749701
   0.50415146  0.24925619  0.60225321
   0.41822372  0.16807463  0.50007867
   0.16618970  0.91545945  0.50031103
   0.24915411  0.50050844  0.60124118
   0.16507470  0.66628824  0.49929007
   0.24824129  0.25023060  0.60261544
   0.25181821  0.74971636  0.60402829
   0.75058647  0.75006796  0.60091478
   0.91421847  0.16883727  0.50107763
   0.16421787  0.17080590  0.50217720
   0.33680239  0.08047781  0.39597021
  -0.00253192  0.00123644  0.60261162
   0.08427274  0.33396208  0.39905944
   0.08374893  0.83140870  0.39763342
   0.33535133  0.33502980  0.39927516
   0.50097930  0.74913008  0.59897805
   0.83177751  0.08326988  0.40226678
  -0.00389224  0.25280866  0.59866973
   0.66656825  0.41674085  0.50089450
   0.91512432  0.42016251  0.50171403
   0.74972321  0.25201556  0.59810189
   0.74972473  0.49802823  0.59734549
   0.74962328 -0.00024414  0.59688039
   0.08399325  0.58422314  0.40262223
   0.16486262  0.41648137  0.50011856
   0.50293364  0.50039900  0.59753056
  -0.00214909  0.50045519  0.59650578
   0.41770762  0.41534809  0.49947474
   0.58354010  0.33193726  0.40313668
   0.50019908 -0.00112830  0.59800885
   0.91616609  0.91434055  0.50034440
   0.58397880  0.08407535  0.40223958
   0.67085904  0.91390042  0.50016239
  -0.00130625  0.75095762  0.59714054
   0.33439334  0.83172298  0.40153931
   0.33276637  0.58394955  0.40222106
   0.25099492 -0.00056713  0.59887566
   0.58387060  0.83321174  0.40249689
   0.91442996  0.66731779  0.50075611
Direct configuration=     6
   0.08323273  0.08222085  0.39536303
   0.83170717  0.83557047  0.39991796
   0.66938050  0.66461617  0.50093125
   0.83303651  0.58514644  0.39905537
   0.83096732  0.33363018  0.39871371
   0.66742686  0.16591701  0.49952605
   0.41909598  0.91588249  0.50064830
   0.41826741  0.66335496  0.50022799
   0.58026073  0.58393133  0.39697878
   0.50358991  0.24944449  0.60281945
   0.41774850  0.16704131  0.50017219
   0.16572878  0.91671875  0.50034317
   0.24937428  0.50055253  0.60157082
   0.16511515  0.66504137  0.49960461
   0.24847416  0.25003528  0.60315997
   0.25162283  0.74972551  0.60465206
   0.75035969  0.75021829  0.60158008
   0.91517292  0.16815168  0.50086405
   0.16488635  0.16935646  0.50188683
   0.33666313  0.08028942  0.39551660
  -0.00217497  0.00113775  0.60309490
   0.08401162  0.33388657  0.39878898
   0.08369942  0.83222899  0.39707092
   0.33478758  0.33510173  0.39893853
   0.50087717  0.74923672  0.59916857
   0.83239604  0.08334343  0.40217904
  -0.00329490  0.25238777  0.59897259
   0.66656625  0.41681181  0.50044650
   0.91604832  0.41881041  0.50111405
   0.74976014  0.25168245  0.59832105
   0.74960201  0.49840046  0.59780733
   0.74970052 -0.00013645  0.59704771
   0.08388583  0.58365783  0.40261843
   0.16481324  0.41772396  0.50014604
   0.50227782  0.50058784  0.59774207
  -0.00172343  0.50028396  0.59674351
   0.41685045  0.41592973  0.49978716
   0.58349419  0.33234038  0.40294820
   0.49986091 -0.00062018  0.59811653
   0.91657982  0.91485313  0.50015521
   0.58373645  0.08383176  0.40207256
   0.67014254  0.91455848  0.50018977
  -0.00078868  0.75074923  0.59729648
   0.33396228  0.83252095  0.40156657
   0.33291632  0.58369004  0.40208941
   0.25055561 -0.00029518  0.59896303
   0.58314947  0.83361406  0.40249544
   0.91619706  0.66683739  0.50058715
Direct configuration=     7
   0.08327210  0.08221631  0.39525094
   0.83172479  0.83559108  0.39982214
   0.66884561  0.66474594  0.50088918
   0.83318887  0.58489034  0.39895073
   0.83112649  0.33362857  0.39864390
   0.66756567  0.16583434  0.49959880
   0.41891714  0.91610076  0.50059451
   0.41840037  0.66338916  0.50025597
   0.58027677  0.58391364  0.39685320
   0.50345384  0.24949012  0.60295666
   0.41763334  0.16679092  0.50019485
   0.16561710  0.91702390  0.50035096
   0.24942763  0.50056322  0.60165070
   0.16512496  0.66473924  0.49968083
   0.24853059  0.24998795  0.60329191
   0.25157549  0.74972773  0.60480321
   0.75030474  0.75025472  0.60174129
   0.91540420  0.16798555  0.50081230
   0.16504834  0.16900524  0.50181647
   0.33662939  0.08024377  0.39540668
  -0.00208847  0.00111383  0.60321200
   0.08394834  0.33386827  0.39872345
   0.08368742  0.83242775  0.39693462
   0.33465097  0.33511916  0.39885696
   0.50085242  0.74926256  0.59921473
   0.83254593  0.08336125  0.40215777
  -0.00315016  0.25228578  0.59904597
   0.66656576  0.41682900  0.50033794
   0.91627222  0.41848278  0.50096866
   0.74976909  0.25160173  0.59837415
   0.74957227  0.49849065  0.59791923
   0.74971923 -0.00011036  0.59708826
   0.08385980  0.58352084  0.40261751
   0.16480127  0.41802506  0.50015270
   0.50211891  0.50063360  0.59779332
  -0.00162028  0.50024246  0.59680112
   0.41664274  0.41607067  0.49986287
   0.58348306  0.33243806  0.40290253
   0.49977896 -0.00049705  0.59814263
   0.91668007  0.91497734  0.50010937
   0.58367772  0.08377273  0.40203209
   0.66996892  0.91471794  0.50019641
  -0.00066326  0.75069873  0.59733426
   0.33385783  0.83271431  0.40157317
   0.33295266  0.58362715  0.40205751
   0.25044916 -0.00022928  0.59898419
   0.58297473  0.83371155  0.40249509
   0.91662525  0.66672099  0.50054621
Direct configuration=     8
   0.08340291  0.08215188  0.39486260
   0.83156554  0.83552788  0.39969191
   0.66897274  0.66482664  0.50089780
   0.83341132  0.58485556  0.39877280
   0.83123241  0.33340449  0.39845665
   0.66753315  0.16603628  0.49975642
   0.41872394  0.91619403  0.50054961
   0.41794791  0.66340321  0.50033221
   0.58000882  0.58400245  0.39650827
   0.50337729  0.24957980  0.60327431
   0.41783031  0.16668003  0.50023026
   0.16594482  0.91644105  0.50039741
   0.24938942  0.50054083  0.60190216
   0.16523656  0.66469580  0.49977706
   0.24817118  0.24995182  0.60353890
   0.25166528  0.74986655  0.60518430
   0.75043979  0.75042016  0.60194346
   0.91491113  0.16840944  0.50082407
   0.16505914  0.16928666  0.50175662
   0.33672699  0.08006585  0.39504049
  -0.00216214  0.00114849  0.60348189
   0.08400763  0.33397652  0.39857314
   0.08393171  0.83236029  0.39665207
   0.33452185  0.33527145  0.39878477
   0.50047916  0.74962565  0.59922955
   0.83241092  0.08371842  0.40222039
  -0.00283263  0.25238565  0.59894473
   0.66677202  0.41625939  0.50017601
   0.91671355  0.41810465  0.50078326
   0.74975013  0.25172649  0.59825109
   0.74973628  0.49836934  0.59791078
   0.75000950 -0.00036112  0.59708915
   0.08390156  0.58337947  0.40276750
   0.16449219  0.41826840  0.50023412
   0.50209838  0.50055560  0.59776576
  -0.00143782  0.49995716  0.59671851
   0.41680478  0.41603761  0.50001274
   0.58341839  0.33248730  0.40297246
   0.49969261 -0.00047650  0.59811149
   0.91668221  0.91499468  0.49998510
   0.58372659  0.08368836  0.40213012
   0.67005535  0.91465224  0.50026467
  -0.00086695  0.75076280  0.59732357
   0.33365551  0.83291342  0.40168983
   0.33291252  0.58348352  0.40220374
   0.25042556 -0.00011025  0.59895897
   0.58276856  0.83394472  0.40256432
   0.91678194  0.66653584  0.50050297
Direct configuration=     9
   0.08354030  0.08208421  0.39445472
   0.83139827  0.83546151  0.39955513
   0.66910626  0.66491140  0.50090685
   0.83364497  0.58481902  0.39858592
   0.83134365  0.33316914  0.39825997
   0.66749900  0.16624838  0.49992198
   0.41852101  0.91629200  0.50050244
   0.41747268  0.66341796  0.50041229
   0.57972738  0.58409572  0.39614597
   0.50329689  0.24967400  0.60360795
   0.41803719  0.16656356  0.50026745
   0.16628903  0.91582886  0.50044619
   0.24934929  0.50051731  0.60216629
   0.16535378  0.66465019  0.49987813
   0.24779368  0.24991387  0.60379831
   0.25175959  0.75001236  0.60558457
   0.75058163  0.75059393  0.60215580
   0.91439325  0.16885467  0.50083643
   0.16507049  0.16958225  0.50169377
   0.33682951  0.07987897  0.39465587
  -0.00223952  0.00118490  0.60376536
   0.08406991  0.33409021  0.39841527
   0.08418830  0.83228944  0.39635530
   0.33438623  0.33543140  0.39870894
   0.50008711  0.75000702  0.59924512
   0.83226912  0.08409357  0.40228616
  -0.00249912  0.25249054  0.59883839
   0.66698865  0.41566112  0.50000594
   0.91717710  0.41770749  0.50058853
   0.74973021  0.25185752  0.59812184
   0.74990854  0.49824193  0.59790189
   0.75031438 -0.00062450  0.59709009
   0.08394541  0.58323098  0.40292503
   0.16416756  0.41852400  0.50031963
   0.50207682  0.50047366  0.59773681
  -0.00124618  0.49965750  0.59663174
   0.41697497  0.41600288  0.50017015
   0.58335047  0.33253901  0.40304592
   0.49960191 -0.00045491  0.59807878
   0.91668446  0.91501290  0.49985457
   0.58377791  0.08359975  0.40223308
   0.67014613  0.91458323  0.50033636
  -0.00108088  0.75083010  0.59731234
   0.33344300  0.83312257  0.40181237
   0.33287036  0.58333265  0.40235732
   0.25040077  0.00001477  0.59893248
   0.58255201  0.83418962  0.40263703
   0.91694652  0.66634137  0.50045755
Direct configuration=    10
   0.08357211  0.08209000  0.39401913
   0.83141821  0.83550801  0.39946096
   0.66945648  0.66451877  0.50094745
   0.83341002  0.58494387  0.39842091
   0.83126985  0.33325794  0.39802879
   0.66728898  0.16612705  0.50008519
   0.41848673  0.91624675  0.50047414
   0.41776558  0.66304832  0.50050564
   0.57960336  0.58426151  0.39581956
   0.50328256  0.24954959  0.60396153
   0.41815087  0.16681130  0.50030228
   0.16594746  0.91593218  0.50052802
   0.24920665  0.50058498  0.60246552
   0.16522499  0.66475753  0.50001088
   0.24776605  0.24990691  0.60404666
   0.25172371  0.75013363  0.60604441
   0.75063218  0.75052725  0.60230705
   0.91474539  0.16860034  0.50086007
   0.16506124  0.16960367  0.50159681
   0.33688385  0.07994107  0.39421472
  -0.00233623  0.00132794  0.60401704
   0.08428516  0.33396026  0.39822098
   0.08415281  0.83217465  0.39608595
   0.33449898  0.33531955  0.39872738
   0.50001046  0.75018273  0.59919519
   0.83217649  0.08414094  0.40238983
  -0.00246247  0.25253002  0.59864787
   0.66683628  0.41600668  0.49982868
   0.91704378  0.41786674  0.50039821
   0.74978860  0.25198276  0.59801191
   0.74997301  0.49826536  0.59771536
   0.75045893 -0.00068870  0.59706241
   0.08394536  0.58340129  0.40311989
   0.16432515  0.41837668  0.50043305
   0.50218076  0.50049592  0.59766869
  -0.00132980  0.49964568  0.59649081
   0.41710404  0.41573719  0.50036082
   0.58319778  0.33253698  0.40315770
   0.49957126 -0.00038901  0.59801837
   0.91673031  0.91496011  0.49969500
   0.58379910  0.08371290  0.40241444
   0.67043886  0.91438658  0.50043197
  -0.00109959  0.75083012  0.59725866
   0.33344981  0.83299587  0.40193593
   0.33279390  0.58328639  0.40257858
   0.25031113  0.00011058  0.59886386
   0.58255899  0.83411588  0.40273237
   0.91670088  0.66637725  0.50043931
Direct configuration=    11
   0.08362436  0.08209951  0.39330356
   0.83145098  0.83558440  0.39930627
   0.67003182  0.66387375  0.50101413
   0.83302405  0.58514897  0.39814983
   0.83114862  0.33340383  0.39764899
   0.66694396  0.16592773  0.50035330
   0.41843043  0.91617242  0.50042764
   0.41824674  0.66244107  0.50065900
   0.57939962  0.58453386  0.39528335
   0.50325902  0.24934520  0.60454239
   0.41833761  0.16721828  0.50035951
   0.16538632  0.91610191  0.50066246
   0.24897233  0.50069615  0.60295709
   0.16501342  0.66493387  0.50022895
   0.24772064  0.24989548  0.60445465
   0.25166477  0.75033285  0.60679984
   0.75071523  0.75041772  0.60255553
   0.91532387  0.16818255  0.50089889
   0.16504605  0.16963886  0.50143752
   0.33697311  0.08004309  0.39349001
  -0.00249510  0.00156292  0.60443050
   0.08463876  0.33374678  0.39790182
   0.08409451  0.83198608  0.39564345
   0.33468420  0.33513581  0.39875767
   0.49988454  0.75047138  0.59911317
   0.83202431  0.08421875  0.40256014
  -0.00240225  0.25259487  0.59833489
   0.66658596  0.41657437  0.49953750
   0.91682476  0.41812837  0.50008555
   0.74988452  0.25218848  0.59783132
   0.75007891  0.49830386  0.59740894
   0.75069641 -0.00079418  0.59701695
   0.08394527  0.58368109  0.40344001
   0.16458403  0.41813468  0.50061939
   0.50235151  0.50053248  0.59755679
  -0.00146716  0.49962625  0.59625930
   0.41731607  0.41530072  0.50067404
   0.58294693  0.33253364  0.40334134
   0.49952091 -0.00028075  0.59791912
   0.91680564  0.91487339  0.49943287
   0.58383390  0.08389876  0.40271238
   0.67091977  0.91406353  0.50058903
  -0.00113032  0.75083016  0.59717048
   0.33346100  0.83278773  0.40213893
   0.33266831  0.58321039  0.40294205
   0.25016388  0.00026799  0.59875114
   0.58257046  0.83399474  0.40288899
   0.91629733  0.66643621  0.50040933
Direct configuration=    12
   0.08354952  0.08200756  0.39288570
   0.83142243  0.83568136  0.39925598
   0.66967410  0.66413582  0.50097032
   0.83290177  0.58514195  0.39799484
   0.83096819  0.33357425  0.39744559
   0.66744405  0.16584543  0.50054804
   0.41861709  0.91613066  0.50035372
   0.41829347  0.66270538  0.50072213
   0.57935883  0.58447983  0.39500367
   0.50338000  0.24923829  0.60490501
   0.41788450  0.16698662  0.50044250
   0.16539458  0.91615483  0.50072970
   0.24897603  0.50081109  0.60326497
   0.16511537  0.66484089  0.50045381
   0.24799306  0.24994446  0.60460877
   0.25156429  0.75029601  0.60721639
   0.75056542  0.75031540  0.60263380
   0.91532420  0.16804025  0.50077685
   0.16547263  0.16934678  0.50122894
   0.33712969  0.07996072  0.39311619
  -0.00250511  0.00163395  0.60465503
   0.08458897  0.33380324  0.39773600
   0.08392803  0.83216405  0.39547966
   0.33468898  0.33504598  0.39887995
   0.50008944  0.75041084  0.59903038
   0.83216120  0.08413348  0.40268742
  -0.00263507  0.25259769  0.59812562
   0.66688754  0.41641830  0.49928819
   0.91679093  0.41806139  0.49977072
   0.74983125  0.25228646  0.59772607
   0.75001454  0.49841709  0.59715139
   0.75060493 -0.00060156  0.59701921
   0.08381882  0.58369332  0.40365111
   0.16495219  0.41787448  0.50072827
   0.50233468  0.50061343  0.59755365
  -0.00165706  0.49981922  0.59610054
   0.41703616  0.41542564  0.50093622
   0.58296449  0.33264584  0.40349737
   0.49959813 -0.00024720  0.59784435
   0.91677749  0.91482223  0.49930994
   0.58380021  0.08384420  0.40291747
   0.67085600  0.91378048  0.50067679
  -0.00092317  0.75088581  0.59710007
   0.33336513  0.83278646  0.40226626
   0.33267132  0.58328407  0.40324675
   0.25004621  0.00029404  0.59865117
   0.58263126  0.83393336  0.40302053
   0.91625327  0.66653614  0.50039297
Direct configuration=    13
   0.08350683  0.08195511  0.39264737
   0.83140615  0.83573666  0.39922729
   0.66947007  0.66428531  0.50094533
   0.83283202  0.58513794  0.39790643
   0.83086527  0.33367146  0.39732957
   0.66772930  0.16579848  0.50065912
   0.41872356  0.91610684  0.50031155
   0.41832012  0.66285613  0.50075814
   0.57933557  0.58444902  0.39484414
   0.50344901  0.24917731  0.60511183
   0.41762605  0.16685448  0.50048984
   0.16539929  0.91618502  0.50076805
   0.24897814  0.50087665  0.60344059
   0.16517352  0.66478785  0.50058206
   0.24814844  0.24997240  0.60469667
   0.25150697  0.75027500  0.60745399
   0.75047998  0.75025704  0.60267845
   0.91532439  0.16795909  0.50070723
   0.16571594  0.16918018  0.50110997
   0.33721900  0.07991374  0.39290297
  -0.00251081  0.00167447  0.60478309
   0.08456057  0.33383545  0.39764142
   0.08383308  0.83226555  0.39538624
   0.33469171  0.33499473  0.39894969
   0.50020632  0.75037631  0.59898315
   0.83223928  0.08408484  0.40276001
  -0.00276786  0.25259930  0.59800626
   0.66705956  0.41632928  0.49914599
   0.91677163  0.41802319  0.49959115
   0.74980087  0.25234234  0.59766604
   0.74997783  0.49848167  0.59700450
   0.75055275 -0.00049170  0.59702050
   0.08374669  0.58370031  0.40377152
   0.16516219  0.41772606  0.50079037
   0.50232508  0.50065960  0.59755187
  -0.00176538  0.49992929  0.59600999
   0.41687651  0.41549689  0.50108576
   0.58297450  0.33270983  0.40358637
   0.49964218 -0.00022807  0.59780170
   0.91676144  0.91479306  0.49923982
   0.58378099  0.08381308  0.40303444
   0.67081962  0.91361903  0.50072685
  -0.00080502  0.75091756  0.59705990
   0.33331045  0.83278573  0.40233889
   0.33267303  0.58332610  0.40342055
   0.24997909  0.00030891  0.59859415
   0.58266594  0.83389835  0.40309555
   0.91622814  0.66659314  0.50038364
Direct configuration=    14
   0.08343076  0.08205717  0.39236285
   0.83131306  0.83566111  0.39923457
   0.66929789  0.66443819  0.50078389
   0.83289729  0.58516207  0.39780746
   0.83093110  0.33355693  0.39715641
   0.66738543  0.16593206  0.50078319
   0.41867738  0.91612117  0.50023456
   0.41811613  0.66316814  0.50081763
   0.57918752  0.58443895  0.39468424
   0.50363547  0.24929538  0.60536097
   0.41786586  0.16658702  0.50058168
   0.16559086  0.91609452  0.50080911
   0.24914427  0.50083174  0.60370042
   0.16538194  0.66477460  0.50079599
   0.24811946  0.25008268  0.60468541
   0.25157017  0.75023724  0.60770106
   0.75048614  0.75035409  0.60267782
   0.91566603  0.16790917  0.50049751
   0.16558879  0.16900593  0.50087137
   0.33724410  0.07974213  0.39267599
  -0.00245466  0.00165526  0.60489837
   0.08441280  0.33379258  0.39754308
   0.08385284  0.83228206  0.39540656
   0.33463748  0.33503557  0.39916245
   0.50015518  0.75029287  0.59894464
   0.83230135  0.08413459  0.40280152
  -0.00281307  0.25265854  0.59776806
   0.66717255  0.41622158  0.49896415
   0.91704981  0.41779227  0.49927099
   0.74966506  0.25245544  0.59763758
   0.74989117  0.49844508  0.59673884
   0.75054334 -0.00046941  0.59707272
   0.08362718  0.58364135  0.40394904
   0.16516733  0.41765831  0.50088578
   0.50223014  0.50070744  0.59758629
  -0.00178446  0.49998272  0.59583858
   0.41690119  0.41544205  0.50135407
   0.58300262  0.33268814  0.40375237
   0.49968906 -0.00026378  0.59780076
   0.91688645  0.91457558  0.49923617
   0.58377353  0.08377838  0.40326043
   0.67062140  0.91382429  0.50079489
  -0.00086259  0.75115609  0.59702577
   0.33318953  0.83294305  0.40237359
   0.33257055  0.58344846  0.40371938
   0.24996786  0.00031025  0.59850218
   0.58270137  0.83385636  0.40312885
   0.91637534  0.66650460  0.50036073
Direct configuration=    15
   0.08338492  0.08211867  0.39219143
   0.83125697  0.83561559  0.39923896
   0.66919415  0.66453030  0.50068662
   0.83293662  0.58517660  0.39774783
   0.83097077  0.33348792  0.39705208
   0.66717824  0.16601253  0.50085795
   0.41864955  0.91612980  0.50018817
   0.41799322  0.66335612  0.50085346
   0.57909833  0.58443288  0.39458790
   0.50374782  0.24936652  0.60551108
   0.41801035  0.16642587  0.50063701
   0.16570629  0.91604000  0.50083386
   0.24924436  0.50080468  0.60385697
   0.16550752  0.66476661  0.50092489
   0.24810201  0.25014913  0.60467862
   0.25160825  0.75021449  0.60784992
   0.75048986  0.75041257  0.60267744
   0.91587187  0.16787910  0.50037116
   0.16551219  0.16890094  0.50072762
   0.33725922  0.07963873  0.39253924
  -0.00242083  0.00164369  0.60496782
   0.08432377  0.33376675  0.39748383
   0.08386475  0.83229200  0.39541881
   0.33460480  0.33506018  0.39929064
   0.50012436  0.75024260  0.59892144
   0.83233874  0.08416457  0.40282652
  -0.00284031  0.25269423  0.59762454
   0.66724062  0.41615669  0.49885459
   0.91721742  0.41765314  0.49907809
   0.74958323  0.25252358  0.59762043
   0.74983896  0.49842303  0.59657878
   0.75053767 -0.00045598  0.59710418
   0.08355517  0.58360583  0.40405599
   0.16517043  0.41761748  0.50094327
   0.50217294  0.50073627  0.59760703
  -0.00179596  0.50001492  0.59573531
   0.41691606  0.41540901  0.50151573
   0.58301956  0.33267506  0.40385239
   0.49971730 -0.00028529  0.59780019
   0.91696177  0.91444456  0.49923397
   0.58376905  0.08375747  0.40339659
   0.67050197  0.91394796  0.50083589
  -0.00089728  0.75129980  0.59700520
   0.33311667  0.83303784  0.40239450
   0.33250880  0.58352218  0.40389943
   0.24996109  0.00031106  0.59844677
   0.58272271  0.83383106  0.40314891
   0.91646403  0.66645125  0.50034693
Direct configuration=    16
   0.08342097  0.08213731  0.39195424
   0.83122634  0.83564025  0.39930081
   0.66957099  0.66425384  0.50047069
   0.83288848  0.58516124  0.39765221
   0.83091342  0.33345699  0.39682758
   0.66719774  0.16605764  0.50096343
   0.41843388  0.91632681  0.50014232
   0.41810562  0.66312635  0.50093710
   0.57895905  0.58448156  0.39450983
   0.50380214  0.24946921  0.60573503
   0.41800406  0.16651971  0.50078164
   0.16561550  0.91596195  0.50085589
   0.24923468  0.50079568  0.60409725
   0.16565534  0.66466270  0.50114974
   0.24796466  0.25013613  0.60451541
   0.25170272  0.75027518  0.60802639
   0.75057731  0.75046765  0.60258270
   0.91572951  0.16771056  0.50018237
   0.16564753  0.16885199  0.50048112
   0.33717193  0.07966286  0.39239741
  -0.00242907  0.00178516  0.60497948
   0.08446951  0.33367088  0.39737353
   0.08389532  0.83218591  0.39559730
   0.33449203  0.33510266  0.39959359
   0.50004338  0.75021253  0.59891320
   0.83223607  0.08414746  0.40283757
  -0.00279234  0.25279512  0.59734523
   0.66709288  0.41628373  0.49876399
   0.91726264  0.41778553  0.49878243
   0.74971962  0.25248850  0.59756367
   0.74980093  0.49840745  0.59626871
   0.75062895 -0.00046018  0.59719105
   0.08359379  0.58356550  0.40422520
   0.16516495  0.41749275  0.50102938
   0.50214435  0.50079923  0.59766825
  -0.00174974  0.50001759  0.59555992
   0.41710062  0.41529599  0.50179744
   0.58296498  0.33256419  0.40398282
   0.49960298 -0.00023480  0.59788204
   0.91699613  0.91450998  0.49930084
   0.58373309  0.08375224  0.40357011
   0.67065613  0.91398459  0.50090770
  -0.00101943  0.75143872  0.59705625
   0.33306265  0.83315713  0.40231968
   0.33235081  0.58357188  0.40415973
   0.25003574  0.00036708  0.59836200
   0.58267979  0.83378294  0.40305890
   0.91644139  0.66637462  0.50034685
Direct configuration=    17
   0.08344553  0.08215001  0.39179265
   0.83120547  0.83565705  0.39934295
   0.66982771  0.66406550  0.50032358
   0.83285568  0.58515077  0.39758706