 vasp.5.4.1 24Jun15 (build Mar 14 2019 10:18:33) complex                        
  
 executed on INTEL-19.0.2+OPENMPI date 2022.07.11  20:58:15
 running on   36 total cores
 distrk:  each k-point on   36 cores,    1 groups
 distr:  one band on NCORES_PER_BAND=   6 cores,    6 groups


--------------------------------------------------------------------------------------------------------


 INCAR:
 POTCAR:    PAW_PBE Au 04Oct2007                  
 POTCAR:    PAW_PBE Pd 04Jan2005                  
 POTCAR:    PAW_PBE Au 04Oct2007                  
  local pseudopotential read in
  partial core-charges read in
  partial kinetic energy density read in
  atomic valenz-charges read in
  non local Contribution for L=           2  read in
    real space projection operators read in
  non local Contribution for L=           2  read in
    real space projection operators read in
  non local Contribution for L=           0  read in
    real space projection operators read in
  non local Contribution for L=           0  read in
    real space projection operators read in
  non local Contribution for L=           1  read in
    real space projection operators read in
  non local Contribution for L=           1  read in
    real space projection operators read in
    PAW grid and wavefunctions read in
 
   number of l-projection  operators is LMAX  =           6
   number of lm-projection operators is LMMAX =          18
 
 POTCAR:    PAW_PBE Pd 04Jan2005                  
  local pseudopotential read in
  partial core-charges read in
  partial kinetic energy density read in
  atomic valenz-charges read in
  non local Contribution for L=           2  read in
    real space projection operators read in
  non local Contribution for L=           2  read in
    real space projection operators read in
  non local Contribution for L=           0  read in
    real space projection operators read in
  non local Contribution for L=           0  read in
    real space projection operators read in
  non local Contribution for L=           1  read in
    real space projection operators read in
  non local Contribution for L=           1  read in
    real space projection operators read in
    PAW grid and wavefunctions read in
 
   number of l-projection  operators is LMAX  =           6
   number of lm-projection operators is LMMAX =          18
 
 Optimization of the real space projectors (new method)

 maximal supplied QI-value         = 15.12
 optimisation between [QCUT,QGAM] = [ 10.13, 20.41] = [ 28.73,116.64] Ry 
 Optimized for a Real-space Cutoff    1.51 Angstroem

   l    n(q)    QCUT    max X(q) W(low)/X(q) W(high)/X(q)  e(spline) 
   2      8    10.129    60.898    0.46E-03    0.46E-03    0.14E-06
   2      8    10.129    58.894    0.47E-03    0.47E-03    0.14E-06
   0      9    10.129   109.617    0.16E-03    0.11E-03    0.54E-07
   0      9    10.129    75.026    0.15E-03    0.11E-03    0.52E-07
   1      9    10.129    16.344    0.96E-04    0.15E-03    0.14E-06
   1      9    10.129    10.160    0.81E-04    0.12E-03    0.11E-06
 Optimization of the real space projectors (new method)

 maximal supplied QI-value         = 14.36
 optimisation between [QCUT,QGAM] = [ 10.20, 20.39] = [ 29.12,116.47] Ry 
 Optimized for a Real-space Cutoff    1.51 Angstroem

   l    n(q)    QCUT    max X(q) W(low)/X(q) W(high)/X(q)  e(spline) 
   2      8    10.197    59.108    0.26E-03    0.14E-03    0.96E-07
   2      8    10.197    58.101    0.27E-03    0.14E-03    0.98E-07
   0      9    10.197   102.235    0.54E-04    0.60E-05    0.72E-07
   0      9    10.197    58.388    0.52E-04    0.60E-05    0.68E-07
   1      9    10.197    22.191    0.18E-03    0.25E-03    0.79E-07
   1      9    10.197    15.590    0.15E-03    0.21E-03    0.69E-07
  PAW_PBE Au 04Oct2007                  :
 energy of atom  1       EATOM= -926.0867
 kinetic energy error for atom=    0.0062 (will be added to EATOM!!)
  PAW_PBE Pd 04Jan2005                  :
 energy of atom  2       EATOM= -809.7530
 kinetic energy error for atom=    0.0091 (will be added to EATOM!!)
 
 
 POSCAR: Au Pd                                   
  positions in cartesian coordinates
  No initial velocities read in
 exchange correlation table for  LEXCH =        8
   RHO(1)=    0.500       N(1)  =     2000
   RHO(2)=  100.500       N(2)  =     4000

 VTST: version 3.2, (02/03/18)

 CHAIN: initializing optimizer
 
 OPT: Using VASP Conjugate-Gradient optimizer
 CHAIN: Read ICHAIN            0
 
 POSCAR: Au Pd                                   
  positions in cartesian coordinates
  No initial velocities read in
 


--------------------------------------------------------------------------------------------------------


 ion  position               nearest neighbor table
   1  0.083  0.083  0.408-  12 2.75  24 2.75  28 2.75  35 2.75  42 2.75   6 2.75  21 2.75  43 2.75
                            18 2.75
   2  0.500  0.500  0.592-  25 2.75  30 2.75   5 2.75  26 2.75  13 2.75  31 2.75   7 2.75  19 2.75
                            39 2.75
   3  0.583  0.833  0.408-  44 2.75  11 2.75  15 2.75  21 2.75   4 2.75  42 2.75  20 2.75  16 2.75
                            29 2.75
   4  0.583  0.083  0.408-  27 2.75  20 2.75   3 2.75  32 2.75  40 2.75  21 2.75   6 2.75  44 2.75
                            45 2.75
   5  0.500  0.750  0.592-  29 2.75  16 2.75  19 2.75   2 2.75  38 2.75  46 2.75  31 2.75  48 2.75
                            25 2.75
   6  0.833  0.083  0.408-  18 2.75  20 2.75  28 2.75  32 2.75  35 2.75   4 2.75   1 2.75  36 2.75
                            27 2.75
   7  0.250  0.500  0.592-   8 2.75  39 2.75  31 2.75  37 2.75  13 2.75  47 2.75   2 2.75  17 2.75
                            10 2.75
   8  0.167  0.667  0.500-  33 2.75   7 2.75  37 2.75  36 2.75  10 2.75  39 2.75  43 2.75  25 2.75
                            34 2.75  35 2.75  41 2.75  31 2.75
   9  0.750  0.000  0.592-  27 2.75  36 2.75  13 2.75  26 2.75  37 2.75  48 2.75  46 2.75  23 2.75
                            44 2.75
  10  0.167  0.417  0.500-  24 2.75  47 2.75  17 2.75  12 2.75  34 2.75  45 2.75   8 2.75  22 2.75
                            39 2.75  33 2.75   7 2.75  40 2.75
  11  0.583  0.583  0.408-  16 2.75   3 2.75  28 2.75  32 2.75  42 2.75  41 2.75  15 2.75  30 2.75
                            25 2.75
  12  0.167  0.167  0.500-   1 2.75  38 2.75  14 2.75  22 2.75  29 2.75  10 2.75  43 2.75  18 2.75
                            45 2.75  24 2.75  21 2.75  47 2.75
  13  0.500  0.250  0.592-  39 2.75  27 2.75   9 2.75   2 2.75   7 2.75  46 2.75  26 2.75  47 2.75
                            45 2.75
  14  0.000  0.250  0.592-  22 2.75  12 2.75  19 2.75  17 2.75  23 2.75  38 2.75  26 2.75  47 2.75
                            18 2.75
  15  0.833  0.583  0.408-  34 2.75  20 2.75  24 2.75  28 2.75   3 2.75  33 2.75  11 2.75  22 2.75
                            16 2.75
  16  0.667  0.667  0.500-  11 2.75  19 2.75   5 2.75  22 2.75  29 2.75  30 2.75  44 2.75  34 2.75
                            25 2.75   3 2.75  15 2.75  48 2.75
  17  0.000  0.500  0.592-  34 2.75  10 2.75  14 2.75  37 2.75  47 2.75  48 2.75   7 2.75  19 2.75
                            22 2.75
  18  0.917  0.167  0.500-   6 2.75  23 2.75  26 2.75  22 2.75  30 2.75  36 2.75  43 2.75  27 2.75
                            12 2.75  28 2.75   1 2.75  14 2.75
  19  0.750  0.500  0.592-  16 2.75  22 2.75   5 2.75  14 2.75  26 2.75  48 2.75  17 2.75   2 2.75
                            30 2.75
  20  0.833  0.833  0.408-  36 2.75   6 2.75  15 2.75  33 2.75   4 2.75  35 2.75   3 2.75  34 2.75
                            44 2.75
  21  0.333  0.083  0.408-  45 2.75  24 2.75  40 2.75  42 2.75   3 2.75   1 2.75   4 2.75  29 2.75
                            12 2.75
  22  0.917  0.417  0.500-  28 2.75  14 2.75  19 2.75  18 2.75  12 2.75  16 2.75  34 2.75  30 2.75
                            10 2.75  15 2.75  24 2.75  17 2.75
  23  0.000  0.000  0.592-  18 2.75  43 2.75  26 2.75  31 2.75  37 2.75  14 2.75  38 2.75   9 2.75
                            36 2.75
  24  0.083  0.333  0.408-  10 2.75   1 2.75  15 2.75  21 2.75  33 2.75  28 2.75  40 2.75  12 2.75
                            22 2.75
  25  0.417  0.667  0.500-  41 2.75   2 2.75  31 2.75  29 2.75  39 2.75  30 2.75  43 2.75   8 2.75
                            16 2.75  42 2.75   5 2.75  11 2.75
  26  0.750  0.250  0.592-  30 2.75  18 2.75   2 2.75  19 2.75  23 2.75   9 2.75  13 2.75  14 2.75
                            27 2.75
  27  0.667  0.167  0.500-   4 2.75   9 2.75  13 2.75  30 2.75  36 2.75  39 2.75  44 2.75  18 2.75
                            45 2.75  32 2.75   6 2.75  26 2.75
  28  0.833  0.333  0.408-  22 2.75   6 2.75  11 2.75  15 2.75   1 2.75  24 2.75  32 2.75  18 2.75
                            30 2.75
  29  0.417  0.917  0.500-  42 2.75   5 2.75  38 2.75  25 2.75  12 2.75  16 2.75  45 2.75  44 2.75
                            43 2.75  21 2.75   3 2.75  46 2.75
  30  0.667  0.417  0.500-  32 2.75  26 2.75   2 2.75  25 2.75  16 2.75  27 2.75  18 2.75  22 2.75
                            39 2.75  11 2.75  19 2.75  28 2.75
  31  0.250  0.750  0.592-  43 2.75  25 2.75  23 2.75   2 2.75  38 2.75   7 2.75   5 2.75  37 2.75
                             8 2.75
  32  0.583  0.333  0.408-  30 2.75   6 2.75  11 2.75   4 2.75  41 2.75  40 2.75  28 2.75  27 2.75
                            39 2.75
  33  0.083  0.583  0.408-   8 2.75  20 2.75  24 2.75  35 2.75  40 2.75  15 2.75  41 2.75  10 2.75
                            34 2.75
  34  0.917  0.667  0.500-  15 2.75  17 2.75  48 2.75  22 2.75  36 2.75  44 2.75  10 2.75  16 2.75
                             8 2.75  20 2.75  33 2.75  37 2.75
  35  0.083  0.833  0.408-  43 2.75   6 2.75  33 2.75  41 2.75   1 2.75  42 2.75  20 2.75   8 2.75
                            36 2.75
  36  0.917  0.917  0.500-  20 2.75  37 2.75   9 2.75   8 2.75  27 2.75  34 2.75  18 2.75  43 2.75
                            44 2.75   6 2.75  35 2.75  23 2.75
  37  0.000  0.750  0.592-  36 2.75   8 2.75   9 2.75  17 2.75  23 2.75   7 2.75  31 2.75  48 2.75
                            34 2.75
  38  0.250  0.000  0.592-  12 2.75  29 2.75  14 2.75   5 2.75  31 2.75  47 2.75  46 2.75  23 2.75
                            43 2.75
  39  0.417  0.417  0.500-  40 2.75  13 2.75   7 2.75  25 2.75  27 2.75   8 2.75  45 2.75  10 2.75
                            30 2.75  41 2.75  32 2.75   2 2.75
  40  0.333  0.333  0.408-  39 2.75  21 2.75  33 2.75   4 2.75  41 2.75  32 2.75  24 2.75  45 2.75
                            10 2.75
  41  0.333  0.583  0.408-  25 2.75  32 2.75  35 2.75  40 2.75  42 2.75  33 2.75  11 2.75  39 2.75
                             8 2.75
  42  0.333  0.833  0.408-  29 2.75  11 2.75  21 2.75   1 2.75  41 2.75  35 2.75   3 2.75  25 2.75
                            43 2.75
  43  0.167  0.917  0.500-  35 2.75  31 2.75  23 2.75   8 2.75  25 2.75  12 2.75  18 2.75  29 2.75
                            36 2.75   1 2.75  38 2.75  42 2.75
  44  0.667  0.917  0.500-   3 2.75  48 2.75  46 2.75  34 2.75  45 2.75  16 2.75  27 2.75  36 2.75
                            29 2.75   4 2.75  20 2.75   9 2.75
  45  0.417  0.167  0.500-  21 2.75  46 2.75  47 2.75  39 2.75  44 2.75  10 2.75  29 2.75  27 2.75
                            12 2.75  40 2.75   4 2.75  13 2.75
  46  0.500  0.000  0.592-  45 2.75  44 2.75   5 2.75  13 2.75  47 2.75  48 2.75   9 2.75  38 2.75
                            29 2.75
  47  0.250  0.250  0.592-  10 2.75  45 2.75  17 2.75  38 2.75   7 2.75  46 2.75  13 2.75  14 2.75
                            12 2.75
  48  0.750  0.750  0.592-  44 2.75  34 2.75  19 2.75   9 2.75  17 2.75  46 2.75   5 2.75  37 2.75
                            16 2.75
 
  LATTYP: Found a hexagonal cell.
 ALAT       =    11.0025815153
 C/A-ratio  =     2.2260035120
  
  Lattice vectors:
  
 A1 = (   5.5012907576,  -9.5285150994,   0.0000000000)
 A2 = ( -11.0025815153,   0.0000000000,   0.0000000000)
 A3 = (   0.0000000000,   0.0000000000, -24.4917850943)


Analysis of symmetry for initial positions (statically):
=====================================================================
 Subroutine PRICEL returns:
 Original cell was already a primitive cell.
 

 Routine SETGRP: Setting up the symmetry group for a 
 hexagonal supercell.


 Subroutine GETGRP returns: Found  1 space group operations
 (whereof  1 operations were pure point group operations)
 out of a pool of 24 trial point group operations.


The static configuration has the point symmetry C_1 .


Analysis of symmetry for dynamics (positions and initial velocities):
=====================================================================
 Subroutine PRICEL returns:
 Original cell was already a primitive cell.
 

 Routine SETGRP: Setting up the symmetry group for a 
 hexagonal supercell.


 Subroutine GETGRP returns: Found  1 space group operations
 (whereof  1 operations were pure point group operations)
 out of a pool of 24 trial point group operations.


The dynamic configuration has the point symmetry C_1 .
 
 
 KPOINTS: Automatic mesh                          

Automatic generation of k-mesh.
Space group operators:
 irot       det(A)        alpha          n_x          n_y          n_z        tau_x        tau_y        tau_z
    1     1.000000     0.000000     1.000000     0.000000     0.000000     0.000000     0.000000     0.000000
 
 Subroutine IBZKPT returns following result:
 ===========================================
 
 Found      6 irreducible k-points:
 
 Following reciprocal coordinates:
            Coordinates               Weight
  0.250000  0.250000  0.000000     16.000000
  0.000000  0.250000  0.000000     16.000000
 -0.250000  0.000000  0.000000     16.000000
 -0.250000  0.250000  0.000000     16.000000
  0.500000 -0.250000  0.000000     16.000000
 -0.250000  0.500000  0.000000     16.000000
 
 Following cartesian coordinates:
            Coordinates               Weight
  0.022722  0.013119  0.000000     16.000000
  0.000000  0.026237  0.000000     16.000000
 -0.022722  0.013119  0.000000     16.000000
 -0.022722  0.039356  0.000000     16.000000
  0.045444 -0.052474  0.000000     16.000000
 -0.022722  0.065593  0.000000     16.000000
 


--------------------------------------------------------------------------------------------------------




 Dimension of arrays:
   k-points           NKPTS =      6   k-points in BZ     NKDIM =      6   number of bands    NBANDS=    306
   number of dos      NEDOS =    301   number of ions     NIONS =     48
   non local maximal  LDIM  =      6   non local SUM 2l+1 LMDIM =     18
   total plane-waves  NPLWV = 349920
   max r-space proj   IRMAX =   2009   max aug-charges    IRDMAX=   8532
   dimension x,y,z NGX =    54 NGY =   54 NGZ =  120
   dimension x,y,z NGXF=   108 NGYF=  108 NGZF=  240
   support grid    NGXF=   108 NGYF=  108 NGZF=  240
   ions per type =              24  24
 NGX,Y,Z   is equivalent  to a cutoff of   8.16,  8.16,  8.15 a.u.
 NGXF,Y,Z  is equivalent  to a cutoff of  16.32, 16.32, 16.29 a.u.


 I would recommend the setting:
   dimension x,y,z NGX =    54 NGY =   54 NGZ =  120
 SYSTEM =  unknown system                          
 POSCAR =  Au Pd                                   

 Startparameter for this run:
   NWRITE =      1    write-flag & timer
   PREC   = normal    normal or accurate (medium, high low for compatibility)
   ISTART =      0    job   : 0-new  1-cont  2-samecut
   ICHARG =      2    charge: 1-file 2-atom 10-const
   ISPIN  =      1    spin polarized calculation?
   LNONCOLLINEAR =      F non collinear calculations
   LSORBIT =      F    spin-orbit coupling
   INIWAV =      1    electr: 0-lowe 1-rand  2-diag
   LASPH  =      F    aspherical Exc in radial PAW
   METAGGA=      F    non-selfconsistent MetaGGA calc.

 Electronic Relaxation 1
   ENCUT  =  400.0 eV  29.40 Ry    5.42 a.u.  17.94 17.94 39.94*2*pi/ulx,y,z
   ENINI  =  400.0     initial cutoff
   ENAUG  =  416.2 eV  augmentation charge cutoff
   NELM   =    500;   NELMIN=  2; NELMDL= -5     # of ELM steps 
   EDIFF  = 0.1E-05   stopping-criterion for ELM
   LREAL  =      T    real-space projection
   NLSPLINE    = F    spline interpolate recip. space projectors
   LCOMPAT=      F    compatible to vasp.4.4
   GGA_COMPAT  = T    GGA compatible to vasp.4.4-vasp.4.6
   LMAXPAW     = -100 max onsite density
   LMAXMIX     =    2 max onsite mixed and CHGCAR
   VOSKOWN=      1    Vosko Wilk Nusair interpolation
   ROPT   =   -0.00050  -0.00050
 Ionic relaxation
   EDIFFG = -.2E-01   stopping-criterion for IOM
   NSW    =    500    number of steps for IOM
   NBLOCK =      1;   KBLOCK =    500    inner block; outer block 
   IBRION =      2    ionic relax: 0-MD 1-quasi-New 2-CG
   NFREE  =      2    steps in history (QN), initial steepest desc. (CG)
   ISIF   =      0    stress and relaxation
   IWAVPR =     11    prediction:  0-non 1-charg 2-wave 3-comb
   ISYM   =      2    0-nonsym 1-usesym 2-fastsym
   LCORR  =      T    Harris-Foulkes like correction to forces

   POTIM  = 0.3500    time-step for ionic-motion
   TEIN   =    0.0    initial temperature
   TEBEG  =    0.0;   TEEND  =   0.0 temperature during run
   SMASS  =  -3.00    Nose mass-parameter (am)
   estimated Nose-frequenzy (Omega)   =  0.10E-29 period in steps =****** mass=  -0.277E-26a.u.
   SCALEE = 1.0000    scale energy and forces
   NPACO  =    256;   APACO  = 16.0  distance and # of slots for P.C.
   PSTRESS=    0.0 pullay stress

  Mass of Ions in am
   POMASS = 196.97106.42
  Ionic Valenz
   ZVAL   =  11.00 10.00
  Atomic Wigner-Seitz radii
   RWIGS  =  -1.00 -1.00
  virtual crystal weights 
   VCA    =   1.00  1.00
   NELECT =     504.0000    total number of electrons
   NUPDOWN=      -1.0000    fix difference up-down

 DOS related values:
   EMIN   =  10.00;   EMAX   =-10.00  energy-range for DOS
   EFERMI =   0.00
   ISMEAR =     0;   SIGMA  =   0.10  broadening in eV -4-tet -1-fermi 0-gaus

 Electronic relaxation 2 (details)
   IALGO  =     68    algorithm
   LDIAG  =      T    sub-space diagonalisation (order eigenvalues)
   LSUBROT=      F    optimize rotation matrix (better conditioning)
   TURBO    =      0    0=normal 1=particle mesh
   IRESTART =      0    0=no restart 2=restart with 2 vectors
   NREBOOT  =      0    no. of reboots
   NMIN     =      0    reboot dimension
   EREF     =   0.00    reference energy to select bands
   IMIX   =      4    mixing-type and parameters
     AMIX     =   0.40;   BMIX     =  1.00
     AMIX_MAG =   1.60;   BMIX_MAG =  1.00
     AMIN     =   0.10
     WC   =   100.;   INIMIX=   1;  MIXPRE=   1;  MAXMIX= -45

 Intra band minimization:
   WEIMIN = 0.0010     energy-eigenvalue tresh-hold
   EBREAK =  0.82E-09  absolut break condition
   DEPER  =   0.30     relativ break condition  

   TIME   =   0.40     timestep for ELM

  volume/ion in A,a.u.               =      53.49       360.99
  Fermi-wavevector in a.u.,A,eV,Ry     =   0.951418  1.797920 12.315955  0.905197
  Thomas-Fermi vector in A             =   2.079887
 
 Write flags
   LWAVE  =      F    write WAVECAR
   LCHARG =      F    write CHGCAR
   LVTOT  =      F    write LOCPOT, total local potential
   LVHAR  =      F    write LOCPOT, Hartree potential only
   LELF   =      F    write electronic localiz. function (ELF)
   LORBIT =      0    0 simple, 1 ext, 2 COOP (PROOUT)


 Dipole corrections
   LMONO  =      F    monopole corrections only (constant potential shift)
   LDIPOL =      T    correct potential (dipole corrections)
   IDIPOL =      3    1-x, 2-y, 3-z, 4-all directions 
   EPSILON=  1.0000000 bulk dielectric constant

 Exchange correlation treatment:
   GGA     =    PE    GGA type
   LEXCH   =     8    internal setting for exchange type
   VOSKOWN=      1    Vosko Wilk Nusair interpolation
   LHFCALC =     F    Hartree Fock is set to
   LHFONE  =     F    Hartree Fock one center treatment
   AEXX    =    0.0000 exact exchange contribution

 Linear response parameters
   LEPSILON=     F    determine dielectric tensor
   LRPA    =     F    only Hartree local field effects (RPA)
   LNABLA  =     F    use nabla operator in PAW spheres
   LVEL    =     F    velocity operator in full k-point grid
   LINTERFAST=   F  fast interpolation
   KINTER  =     0    interpolate to denser k-point grid
   CSHIFT  =0.1000    complex shift for real part using Kramers Kronig
   OMEGAMAX=  -1.0    maximum frequency
   DEG_THRESHOLD= 0.2000000E-02 threshold for treating states as degnerate
   RTIME   =    0.100 relaxation time in fs

 Orbital magnetization related:
   ORBITALMAG=     F  switch on orbital magnetization
   LCHIMAG   =     F  perturbation theory with respect to B field
   DQ        =  0.001000  dq finite difference perturbation B field



--------------------------------------------------------------------------------------------------------


 conjugate gradient relaxation of ions
 charge density and potential will be updated during run
 non-spin polarized calculation
 RMM-DIIS sequential band-by-band and
  variant of blocked Davidson during initial phase
 perform sub-space diagonalisation
    before iterative eigenvector-optimisation
 modified Broyden-mixing scheme, WC =      100.0
 initial mixing is a Kerker type mixing with AMIX =  0.4000 and BMIX =      1.0000
 Hartree-type preconditioning will be used
 using additional bands           54
 real space projection scheme for non local part
 use partial core corrections
 calculate Harris-corrections to forces 
   (improved forces if not selfconsistent)
 use gradient corrections 
 use of overlap-Matrix (Vanderbilt PP)
 Gauss-broadening in eV      SIGMA  =   0.10


--------------------------------------------------------------------------------------------------------


  energy-cutoff  :      400.00
  volume of cell :     2567.68
      direct lattice vectors                 reciprocal lattice vectors
    11.002581515  0.000000000  0.000000000     0.090887761 -0.052474073  0.000000000
     5.501290758  9.528515099  0.000000000     0.000000000  0.104948147  0.000000000
     0.000000000  0.000000000 24.491785094     0.000000000  0.000000000  0.040830017

  length of vectors
    11.002581515 11.002581515 24.491785094     0.104948147  0.104948147  0.040830017


 
 k-points in units of 2pi/SCALE and weight: Automatic mesh                          
   0.02272194  0.01311852  0.00000000       0.167
   0.00000000  0.02623704  0.00000000       0.167
  -0.02272194  0.01311852  0.00000000       0.167
  -0.02272194  0.03935555  0.00000000       0.167
   0.04544388 -0.05247407  0.00000000       0.167
  -0.02272194  0.06559259  0.00000000       0.167
 
 k-points in reciprocal lattice and weights: Automatic mesh                          
   0.25000000  0.25000000  0.00000000       0.167
   0.00000000  0.25000000  0.00000000       0.167
  -0.25000000  0.00000000  0.00000000       0.167
  -0.25000000  0.25000000  0.00000000       0.167
   0.50000000 -0.25000000  0.00000000       0.167
  -0.25000000  0.50000000  0.00000000       0.167
 
 position of ions in fractional coordinates (direct lattice) 
   0.08333333  0.08333333  0.40830017
   0.50000000  0.50000000  0.59169983
   0.58333333  0.83333333  0.40830017
   0.58333333  0.08333333  0.40830017
   0.50000000  0.75000000  0.59169983
   0.83333333  0.08333333  0.40830017
   0.25000000  0.50000000  0.59169983
   0.16666667  0.66666667  0.50000000
   0.75000000  0.00000000  0.59169983
   0.16666667  0.41666667  0.50000000
   0.58333333  0.58333333  0.40830017
   0.16666667  0.16666667  0.50000000
   0.50000000  0.25000000  0.59169983
   0.00000000  0.25000000  0.59169983
   0.83333333  0.58333333  0.40830017
   0.66666667  0.66666667  0.50000000
   0.00000000  0.50000000  0.59169983
   0.91666667  0.16666667  0.50000000
   0.75000000  0.50000000  0.59169983
   0.83333333  0.83333333  0.40830017
   0.33333333  0.08333333  0.40830017
   0.91666667  0.41666667  0.50000000
   0.00000000  0.00000000  0.59169983
   0.08333333  0.33333333  0.40830017
   0.41666667  0.66666667  0.50000000
   0.75000000  0.25000000  0.59169983
   0.66666667  0.16666667  0.50000000
   0.83333333  0.33333333  0.40830017
   0.41666667  0.91666667  0.50000000
   0.66666667  0.41666667  0.50000000
   0.25000000  0.75000000  0.59169983
   0.58333333  0.33333333  0.40830017
   0.08333333  0.58333333  0.40830017
   0.91666667  0.66666667  0.50000000
   0.08333333  0.83333333  0.40830017
   0.91666667  0.91666667  0.50000000
   0.00000000  0.75000000  0.59169983
   0.25000000  0.00000000  0.59169983
   0.41666667  0.41666667  0.50000000
   0.33333333  0.33333333  0.40830017
   0.33333333  0.58333333  0.40830017
   0.33333333  0.83333333  0.40830017
   0.16666667  0.91666667  0.50000000
   0.66666667  0.91666667  0.50000000
   0.41666667  0.16666667  0.50000000
   0.50000000  0.00000000  0.59169983
   0.25000000  0.25000000  0.59169983
   0.75000000  0.75000000  0.59169983
 
 position of ions in cartesian coordinates  (Angst):
   1.37532269  0.79404292 10.00000000
   8.25193614  4.76425755 14.49178509
  11.00258152  7.94042925 10.00000000
   6.87661345  0.79404292 10.00000000
   9.62725883  7.14638632 14.49178509
   9.62725883  0.79404292 10.00000000
   5.50129076  4.76425755 14.49178509
   5.50129076  6.35234340 12.24589255
   8.25193614  0.00000000 14.49178509
   4.12596807  3.97021462 12.24589255
   9.62725883  5.55830047 10.00000000
   2.75064538  1.58808585 12.24589255
   6.87661345  2.38212877 14.49178509
   1.37532269  2.38212877 14.49178509
  12.37790420  5.55830047 10.00000000
  11.00258152  6.35234340 12.24589255
   2.75064538  4.76425755 14.49178509
  11.00258152  1.58808585 12.24589255
  11.00258152  4.76425755 14.49178509
  13.75322689  7.94042925 10.00000000
   4.12596807  0.79404292 10.00000000
  12.37790420  3.97021462 12.24589255
   0.00000000  0.00000000 14.49178509
   2.75064538  3.17617170 10.00000000
   8.25193614  6.35234340 12.24589255
   9.62725883  2.38212877 14.49178509
   8.25193614  1.58808585 12.24589255
  11.00258152  3.17617170 10.00000000
   9.62725883  8.73447217 12.24589255
   9.62725883  3.97021462 12.24589255
   6.87661345  7.14638632 14.49178509
   8.25193614  3.17617170 10.00000000
   4.12596807  5.55830047 10.00000000
  13.75322689  6.35234340 12.24589255
   5.50129076  7.94042925 10.00000000
  15.12854958  8.73447217 12.24589255
   4.12596807  7.14638632 14.49178509
   2.75064538  0.00000000 14.49178509
   6.87661345  3.97021462 12.24589255
   5.50129076  3.17617170 10.00000000
   6.87661345  5.55830047 10.00000000
   8.25193614  7.94042925 10.00000000
   6.87661345  8.73447217 12.24589255
  12.37790420  8.73447217 12.24589255
   5.50129076  1.58808585 12.24589255
   5.50129076  0.00000000 14.49178509
   4.12596807  2.38212877 14.49178509
  12.37790420  7.14638632 14.49178509
 


--------------------------------------------------------------------------------------------------------


 k-point  1 :   0.2500 0.2500 0.0000  plane waves:   46635
 k-point  2 :   0.0000 0.2500 0.0000  plane waves:   46635
 k-point  3 :  -0.2500 0.0000 0.0000  plane waves:   46635
 k-point  4 :  -0.2500 0.2500 0.0000  plane waves:   46644
 k-point  5 :   0.5000-0.2500 0.0000  plane waves:   46644
 k-point  6 :  -0.2500 0.5000 0.0000  plane waves:   46644

 maximum and minimum number of plane-waves per node :      7818     7732

 maximum number of plane-waves:     46644
 maximum index in each direction: 
   IXMAX=   18   IYMAX=   18   IZMAX=   39
   IXMIN=  -18   IYMIN=  -18   IZMIN=  -39

 WARNING: aliasing errors must be expected set NGX to  74 to avoid them
 WARNING: aliasing errors must be expected set NGY to  74 to avoid them
 WARNING: aliasing errors must be expected set NGZ to 158 to avoid them
 aliasing errors are usually negligible using standard VASP settings
 and one can safely disregard these warnings

 real space projection operators:
  total allocation   :      12803.06 KBytes
  max/ min on nodes  :       2145.66       2127.94


 parallel 3D FFT for wavefunctions:
    minimum data exchange during FFTs selected (reduces bandwidth)
 parallel 3D FFT for charge:
    minimum data exchange during FFTs selected (reduces bandwidth)


 total amount of memory used by VASP on root node    84353. kBytes
========================================================================

   base      :      30000. kBytes
   nonlr-proj:       4285. kBytes
   fftplans  :       4447. kBytes
   grid      :       6721. kBytes
   one-center:        124. kBytes
   wavefun   :      38776. kBytes
 
     INWAV:  cpu time    0.0000: real time    0.0000
 Broyden mixing: mesh for mixing (old mesh)
   NGX = 35   NGY = 35   NGZ = 79
  (NGX  =108   NGY  =108   NGZ  =240)
  gives a total of  96775 points

 initial charge density was supplied:
 charge density of overlapping atoms calculated
 number of electron     504.0000000 magnetization 
 keeping initial charge density in first step


--------------------------------------------------------------------------------------------------------


 Maximum index for non-local projection operator          355
 Maximum index for augmentation-charges          437 (set IRDMAX)


--------------------------------------------------------------------------------------------------------


 First call to EWALD:  gamma=   0.129
 Maximum number of real-space cells 4x 4x 2
 Maximum number of reciprocal cells 2x 2x 5

 FEWALD executed in parallel
    FEWALD:  cpu time    0.0023: real time    0.0023


----------------------------------------- Iteration    1(   1)  ---------------------------------------


    POTLOK:  cpu time    0.0593: real time    0.0598
    SETDIJ:  cpu time    0.0063: real time    0.0063
     EDDAV:  cpu time   12.0616: real time   12.1015
       DOS:  cpu time    0.0013: real time    0.0013
    --------------------------------------------
      LOOP:  cpu time   12.1312: real time   12.1746

 eigenvalue-minimisations  :  3672
 total energy-change (2. order) : 0.3201182E+04  (-0.1898646E+05)
 number of electron     504.0000000 magnetization 
 augmentation part      504.0000000 magnetization 

 DIPCOR: dipole corrections for dipol
 direction  3 min pos     1,
 dipolmoment           0.000000      0.000000      0.000000 electrons x Angstroem
 Tr[quadrupol]    -10292.454226

 energy correction for charged system         0.000000 eV
 dipol+quadrupol energy correction           -0.000000 eV
 added-field ion interaction         -0.000000 eV  (added to PSCEN)


 Free energy of the ion-electron system (eV)
  ---------------------------------------------------
  alpha Z        PSCENC =       805.86936429
  Ewald energy   TEWEN  =    199697.15356290
  -Hartree energ DENC   =   -242109.81367471
  -exchange      EXHF   =         0.00000000
  -V(xc)+E(xc)   XCENC  =      -327.75447603
  PAW double counting   =     40340.05962942   -38292.62782345
  entropy T*S    EENTRO =        -0.12935729
  eigenvalues    EBANDS =      1428.63903857
  atomic energy  EATOM  =     41659.78587232
  Solvation  Ediel_sol  =         0.00000000
  ---------------------------------------------------
  free energy    TOTEN  =      3201.18213602 eV

  energy without entropy =     3201.31149331  energy(sigma->0) =     3201.24681467


--------------------------------------------------------------------------------------------------------




----------------------------------------- Iteration    1(   2)  ---------------------------------------


     EDDAV:  cpu time   14.1378: real time   14.1772
       DOS:  cpu time    0.0014: real time    0.0014
    --------------------------------------------
      LOOP:  cpu time   14.1401: real time   14.1816

 eigenvalue-minimisations  :  4392
 total energy-change (2. order) :-0.3188652E+04  (-0.2932946E+04)
 number of electron     504.0000000 magnetization 
 augmentation part      504.0000000 magnetization 

 DIPCOR: dipole corrections for dipol
 direction  3 min pos     1,
 dipolmoment           0.000000      0.000000      0.000000 electrons x Angstroem
 Tr[quadrupol]    -10292.454226

 energy correction for charged system         0.000000 eV
 dipol+quadrupol energy correction           -0.000000 eV
 added-field ion interaction         -0.000000 eV  (added to PSCEN)


 Free energy of the ion-electron system (eV)
  ---------------------------------------------------
  alpha Z        PSCENC =       805.86936429
  Ewald energy   TEWEN  =    199697.15356290
  -Hartree energ DENC   =   -242109.81367471
  -exchange      EXHF   =         0.00000000
  -V(xc)+E(xc)   XCENC  =      -327.75447603
  PAW double counting   =     40340.05962942   -38292.62782345
  entropy T*S    EENTRO =        -0.14364422
  eigenvalues    EBANDS =     -1759.99900873
  atomic energy  EATOM  =     41659.78587232
  Solvation  Ediel_sol  =         0.00000000
  ---------------------------------------------------
  free energy    TOTEN  =        12.52980179 eV

  energy without entropy =       12.67344601  energy(sigma->0) =       12.60162390


--------------------------------------------------------------------------------------------------------




----------------------------------------- Iteration    1(   3)  ---------------------------------------


     EDDAV:  cpu time   13.5021: real time   13.6240
       DOS:  cpu time    0.0014: real time    0.0014
    --------------------------------------------
      LOOP:  cpu time   13.5044: real time   13.6287

 eigenvalue-minimisations  :  4128
 total energy-change (2. order) :-0.2145689E+03  (-0.1996610E+03)
 number of electron     504.0000000 magnetization 
 augmentation part      504.0000000 magnetization 

 DIPCOR: dipole corrections for dipol
 direction  3 min pos     1,
 dipolmoment           0.000000      0.000000      0.000000 electrons x Angstroem
 Tr[quadrupol]    -10292.454226

 energy correction for charged system         0.000000 eV
 dipol+quadrupol energy correction           -0.000000 eV
 added-field ion interaction         -0.000000 eV  (added to PSCEN)


 Free energy of the ion-electron system (eV)
  ---------------------------------------------------
  alpha Z        PSCENC =       805.86936429
  Ewald energy   TEWEN  =    199697.15356290
  -Hartree energ DENC   =   -242109.81367471
  -exchange      EXHF   =         0.00000000
  -V(xc)+E(xc)   XCENC  =      -327.75447603
  PAW double counting   =     40340.05962942   -38292.62782345
  entropy T*S    EENTRO =        -0.17551687
  eigenvalues    EBANDS =     -1974.53599044
  atomic energy  EATOM  =     41659.78587232
  Solvation  Ediel_sol  =         0.00000000
  ---------------------------------------------------
  free energy    TOTEN  =      -202.03905256 eV

  energy without entropy =     -201.86353570  energy(sigma->0) =     -201.95129413


--------------------------------------------------------------------------------------------------------




----------------------------------------- Iteration    1(   4)  ---------------------------------------


     EDDAV:  cpu time   13.8027: real time   13.9022
       DOS:  cpu time    0.0015: real time    0.0015
    --------------------------------------------
      LOOP:  cpu time   13.8052: real time   13.9076

 eigenvalue-minimisations  :  4224
 total energy-change (2. order) :-0.5721854E+01  (-0.5659285E+01)
 number of electron     504.0000000 magnetization 
 augmentation part      504.0000000 magnetization 

 DIPCOR: dipole corrections for dipol
 direction  3 min pos     1,
 dipolmoment           0.000000      0.000000      0.000000 electrons x Angstroem
 Tr[quadrupol]    -10292.454226

 energy correction for charged system         0.000000 eV
 dipol+quadrupol energy correction           -0.000000 eV
 added-field ion interaction         -0.000000 eV  (added to PSCEN)


 Free energy of the ion-electron system (eV)
  ---------------------------------------------------
  alpha Z        PSCENC =       805.86936429
  Ewald energy   TEWEN  =    199697.15356290
  -Hartree energ DENC   =   -242109.81367471
  -exchange      EXHF   =         0.00000000
  -V(xc)+E(xc)   XCENC  =      -327.75447603
  PAW double counting   =     40340.05962942   -38292.62782345
  entropy T*S    EENTRO =        -0.18601037
  eigenvalues    EBANDS =     -1980.24735108
  atomic energy  EATOM  =     41659.78587232
  Solvation  Ediel_sol  =         0.00000000
  ---------------------------------------------------
  free energy    TOTEN  =      -207.76090670 eV

  energy without entropy =     -207.57489633  energy(sigma->0) =     -207.66790152


--------------------------------------------------------------------------------------------------------




----------------------------------------- Iteration    1(   5)  ---------------------------------------


     EDDAV:  cpu time   14.4835: real time   14.5206
       DOS:  cpu time    0.0015: real time    0.0015
    CHARGE:  cpu time    0.2354: real time    0.2361
    MIXING:  cpu time    0.0028: real time    0.0030
    --------------------------------------------
      LOOP:  cpu time   14.7243: real time   14.7660

 eigenvalue-minimisations  :  4500
 total energy-change (2. order) :-0.1847697E+00  (-0.1841911E+00)
 number of electron     503.9998403 magnetization 
 augmentation part      191.2178373 magnetization 

 DIPCOR: dipole corrections for dipol
 direction  3 min pos     1,
 dipolmoment           0.000000      0.000000      0.000000 electrons x Angstroem
 Tr[quadrupol]    -10292.454226

 energy correction for charged system         0.000000 eV
 dipol+quadrupol energy correction           -0.000000 eV
 added-field ion interaction         -0.000000 eV  (added to PSCEN)


 Broyden mixing:
  rms(total) = 0.62105E+01    rms(broyden)= 0.62105E+01
  rms(prec ) = 0.63497E+01
  weight for this iteration     100.00

 Free energy of the ion-electron system (eV)
  ---------------------------------------------------
  alpha Z        PSCENC =       805.86936429
  Ewald energy   TEWEN  =    199697.15356290
  -Hartree energ DENC   =   -242109.81367471
  -exchange      EXHF   =         0.00000000
  -V(xc)+E(xc)   XCENC  =      -327.75447603
  PAW double counting   =     40340.05962942   -38292.62782345
  entropy T*S    EENTRO =        -0.18614673
  eigenvalues    EBANDS =     -1980.43198439
  atomic energy  EATOM  =     41659.78587232
  Solvation  Ediel_sol  =         0.00000000
  ---------------------------------------------------
  free energy    TOTEN  =      -207.94567638 eV

  energy without entropy =     -207.75952965  energy(sigma->0) =     -207.85260302


--------------------------------------------------------------------------------------------------------




----------------------------------------- Iteration    1(   6)  ---------------------------------------


    POTLOK:  cpu time    0.0544: real time    0.0546
    SETDIJ:  cpu time    0.0066: real time    0.0066
    EDDIAG:  cpu time    2.0145: real time    2.0195
  RMM-DIIS:  cpu time    6.5135: real time    6.6438
    ORTHCH:  cpu time    0.4668: real time    0.4680
       DOS:  cpu time    0.0015: real time    0.0015
    CHARGE:  cpu time    0.2393: real time    0.2406
    MIXING:  cpu time    0.0027: real time    0.0028
    --------------------------------------------
      LOOP:  cpu time    9.3002: real time    9.4410

 eigenvalue-minimisations  :  3678
 total energy-change (2. order) : 0.5693967E+01  (-0.1024041E+02)
 number of electron     503.9998429 magnetization 
 augmentation part      191.2786402 magnetization 

 DIPCOR: dipole corrections for dipol
 direction  3 min pos     1,
 dipolmoment           0.000000      0.000000      0.001308 electrons x Angstroem
 Tr[quadrupol]    -10295.220413

 energy correction for charged system         0.000000 eV
 dipol+quadrupol energy correction           -0.000000 eV
 added-field ion interaction         -0.000000 eV  (added to PSCEN)


 Broyden mixing:
  rms(total) = 0.54745E+01    rms(broyden)= 0.54744E+01
  rms(prec ) = 0.56649E+01
  weight for this iteration     100.00

 eigenvalues of (default mixing * dielectric matrix)
  average eigenvalue GAMMA=   0.7092
  0.7092

 Free energy of the ion-electron system (eV)
  ---------------------------------------------------
  alpha Z        PSCENC =       805.86936423
  Ewald energy   TEWEN  =    199697.15356290
  -Hartree energ DENC   =   -241904.28861905
  -exchange      EXHF   =         0.00000000
  -V(xc)+E(xc)   XCENC  =      -340.64547742
  PAW double counting   =     43893.41022341   -41905.60484843
  entropy T*S    EENTRO =        -0.24830705
  eigenvalues    EBANDS =     -2107.68348002
  atomic energy  EATOM  =     41659.78587232
  Solvation  Ediel_sol  =         0.00000000
  ---------------------------------------------------
  free energy    TOTEN  =      -202.25170912 eV

  energy without entropy =     -202.00340207  energy(sigma->0) =     -202.12755559


--------------------------------------------------------------------------------------------------------




----------------------------------------- Iteration    1(   7)  ---------------------------------------


    POTLOK:  cpu time    0.0561: real time    0.0564
    SETDIJ:  cpu time    0.0059: real time    0.0059
    EDDIAG:  cpu time    2.0410: real time    2.0482
  RMM-DIIS:  cpu time    6.7347: real time    6.7554
    ORTHCH:  cpu time    0.4586: real time    0.4597
       DOS:  cpu time    0.0016: real time    0.0016
    CHARGE:  cpu time    0.2356: real time    0.2361
    MIXING:  cpu time    0.0029: real time    0.0029
    --------------------------------------------
      LOOP:  cpu time    9.5373: real time    9.5699

 eigenvalue-minimisations  :  3683
 total energy-change (2. order) : 0.2995512E+01  (-0.5165080E+01)
 number of electron     503.9998362 magnetization 
 augmentation part      197.2078049 magnetization 

 DIPCOR: dipole corrections for dipol
 direction  3 min pos     1,
 dipolmoment           0.000000      0.000000      0.261498 electrons x Angstroem
 Tr[quadrupol]    -10291.946434

 energy correction for charged system         0.000000 eV
 dipol+quadrupol energy correction           -0.002410 eV
 added-field ion interaction         -0.000000 eV  (added to PSCEN)


 Broyden mixing:
  rms(total) = 0.36811E+01    rms(broyden)= 0.36808E+01
  rms(prec ) = 0.39110E+01
  weight for this iteration     100.00

 eigenvalues of (default mixing * dielectric matrix)
  average eigenvalue GAMMA=   1.0756
  1.7377  0.4134

 Free energy of the ion-electron system (eV)
  ---------------------------------------------------
  alpha Z        PSCENC =       805.86695471
  Ewald energy   TEWEN  =    199697.15356290
  -Hartree energ DENC   =   -241685.46752179
  -exchange      EXHF   =         0.00000000
  -V(xc)+E(xc)   XCENC  =      -342.74023888
  PAW double counting   =     45286.80753227   -43325.08288443
  entropy T*S    EENTRO =        -0.16225989
  eigenvalues    EBANDS =     -2295.41721440
  atomic energy  EATOM  =     41659.78587232
  Solvation  Ediel_sol  =         0.00000000
  ---------------------------------------------------
  free energy    TOTEN  =      -199.25619719 eV

  energy without entropy =     -199.09393731  energy(sigma->0) =     -199.17506725


--------------------------------------------------------------------------------------------------------




----------------------------------------- Iteration    1(   8)  ---------------------------------------


    POTLOK:  cpu time    0.0538: real time    0.0548
    SETDIJ:  cpu time    0.0062: real time    0.0062
    EDDIAG:  cpu time    2.0393: real time    2.0454
  RMM-DIIS:  cpu time    6.6699: real time    6.6889
    ORTHCH:  cpu time    0.4545: real time    0.4563
       DOS:  cpu time    0.0014: real time    0.0014
    CHARGE:  cpu time    0.2354: real time    0.2360
    MIXING:  cpu time    0.0027: real time    0.0027
    --------------------------------------------
      LOOP:  cpu time    9.4641: real time    9.4960

 eigenvalue-minimisations  :  3677
 total energy-change (2. order) :-0.1093897E+02  (-0.6291003E+01)
 number of electron     503.9998356 magnetization 
 augmentation part      196.7302573 magnetization 

 DIPCOR: dipole corrections for dipol
 direction  3 min pos     1,
 dipolmoment           0.000000      0.000000     -1.278272 electrons x Angstroem
 Tr[quadrupol]    -10295.482488

 energy correction for charged system         0.000000 eV
 dipol+quadrupol energy correction           -0.057577 eV
 added-field ion interaction          0.000000 eV  (added to PSCEN)


 Broyden mixing:
  rms(total) = 0.33605E+01    rms(broyden)= 0.33601E+01
  rms(prec ) = 0.40000E+01
  weight for this iteration     100.00

 eigenvalues of (default mixing * dielectric matrix)
  average eigenvalue GAMMA=   1.0089
  2.1974  0.4935  0.3360

 Free energy of the ion-electron system (eV)
  ---------------------------------------------------
  alpha Z        PSCENC =       805.81178719
  Ewald energy   TEWEN  =    199697.15356290
  -Hartree energ DENC   =   -241746.55941026
  -exchange      EXHF   =         0.00000000
  -V(xc)+E(xc)   XCENC  =      -344.88950214
  PAW double counting   =     47713.86203411   -45783.48925965
  entropy T*S    EENTRO =        -0.24970868
  eigenvalues    EBANDS =     -2211.62054791
  atomic energy  EATOM  =     41659.78587232
  Solvation  Ediel_sol  =         0.00000000
  ---------------------------------------------------
  free energy    TOTEN  =      -210.19517214 eV

  energy without entropy =     -209.94546345  energy(sigma->0) =     -210.07031779


--------------------------------------------------------------------------------------------------------




----------------------------------------- Iteration    1(   9)  ---------------------------------------


    POTLOK:  cpu time    0.0535: real time    0.0539
    SETDIJ:  cpu time    0.0066: real time    0.0066
    EDDIAG:  cpu time    2.0097: real time    2.0187
  RMM-DIIS:  cpu time    6.4844: real time    6.6259
    ORTHCH:  cpu time    0.4582: real time    0.4593
       DOS:  cpu time    0.0015: real time    0.0015
    CHARGE:  cpu time    0.2363: real time    0.2369
    MIXING:  cpu time    0.0030: real time    0.0030
    --------------------------------------------
      LOOP:  cpu time    9.2540: real time    9.4102

 eigenvalue-minimisations  :  3677
 total energy-change (2. order) : 0.6947805E+01  (-0.3028493E+01)
 number of electron     503.9998351 magnetization 
 augmentation part      197.4050511 magnetization 

 DIPCOR: dipole corrections for dipol
 direction  3 min pos     1,
 dipolmoment           0.000000      0.000000      1.022721 electrons x Angstroem
 Tr[quadrupol]    -10296.152984

 energy correction for charged system         0.000000 eV
 dipol+quadrupol energy correction           -0.036857 eV
 added-field ion interaction          0.000000 eV  (added to PSCEN)


 Broyden mixing:
  rms(total) = 0.27844E+01    rms(broyden)= 0.27841E+01
  rms(prec ) = 0.33126E+01
  weight for this iteration     100.00

 eigenvalues of (default mixing * dielectric matrix)
  average eigenvalue GAMMA=   0.8545
  2.2679  0.5158  0.3170  0.3170

 Free energy of the ion-electron system (eV)
  ---------------------------------------------------
  alpha Z        PSCENC =       805.83250754
  Ewald energy   TEWEN  =    199697.15356290
  -Hartree energ DENC   =   -241758.08963959
  -exchange      EXHF   =         0.00000000
  -V(xc)+E(xc)   XCENC  =      -345.72974774
  PAW double counting   =     48830.55516632   -46914.72294572
  entropy T*S    EENTRO =        -0.22916936
  eigenvalues    EBANDS =     -2177.80297376
  atomic energy  EATOM  =     41659.78587232
  Solvation  Ediel_sol  =         0.00000000
  ---------------------------------------------------
  free energy    TOTEN  =      -203.24736710 eV

  energy without entropy =     -203.01819774  energy(sigma->0) =     -203.13278242


--------------------------------------------------------------------------------------------------------




----------------------------------------- Iteration    1(  10)  ---------------------------------------


    POTLOK:  cpu time    0.0536: real time    0.0537
    SETDIJ:  cpu time    0.0062: real time    0.0062
    EDDIAG:  cpu time    1.9815: real time    1.9863
  RMM-DIIS:  cpu time    6.5996: real time    6.7361
    ORTHCH:  cpu time    0.4582: real time    0.4593
       DOS:  cpu time    0.0016: real time    0.0016
    CHARGE:  cpu time    0.2354: real time    0.2360
    MIXING:  cpu time    0.0030: real time    0.0030
    --------------------------------------------
      LOOP:  cpu time    9.3398: real time    9.4864

 eigenvalue-minimisations  :  3678
 total energy-change (2. order) : 0.1049307E+02  (-0.1415975E+01)
 number of electron     503.9998344 magnetization 
 augmentation part      198.5006146 magnetization 

 DIPCOR: dipole corrections for dipol
 direction  3 min pos     1,
 dipolmoment           0.000000      0.000000     -0.089707 electrons x Angstroem
 Tr[quadrupol]    -10295.566339

 energy correction for charged system         0.000000 eV
 dipol+quadrupol energy correction           -0.000284 eV
 added-field ion interaction          0.000000 eV  (added to PSCEN)


 Broyden mixing:
  rms(total) = 0.13918E+01    rms(broyden)= 0.13915E+01
  rms(prec ) = 0.15485E+01
  weight for this iteration     100.00

 eigenvalues of (default mixing * dielectric matrix)
  average eigenvalue GAMMA=   0.7682
  2.2515  0.4703  0.4703  0.3950  0.2538

 Free energy of the ion-electron system (eV)
  ---------------------------------------------------
  alpha Z        PSCENC =       805.86908072
  Ewald energy   TEWEN  =    199697.15356290
  -Hartree energ DENC   =   -241747.07332945
  -exchange      EXHF   =         0.00000000
  -V(xc)+E(xc)   XCENC  =      -345.56199753
  PAW double counting   =     49080.18251308   -47166.74112621
  entropy T*S    EENTRO =        -0.19960057
  eigenvalues    EBANDS =     -2176.16927019
  atomic energy  EATOM  =     41659.78587232
  Solvation  Ediel_sol  =         0.00000000
  ---------------------------------------------------
  free energy    TOTEN  =      -192.75429493 eV

  energy without entropy =     -192.55469436  energy(sigma->0) =     -192.65449465


--------------------------------------------------------------------------------------------------------




----------------------------------------- Iteration    1(  11)  ---------------------------------------


    POTLOK:  cpu time    0.0537: real time    0.0538
    SETDIJ:  cpu time    0.0058: real time    0.0058
    EDDIAG:  cpu time    2.0301: real time    2.0352
  RMM-DIIS:  cpu time    6.6116: real time    6.6291
    ORTHCH:  cpu time    0.4509: real time    0.4521
       DOS:  cpu time    0.0015: real time    0.0015
    CHARGE:  cpu time    0.2376: real time    0.2382
    MIXING:  cpu time    0.0032: real time    0.0032
    --------------------------------------------
      LOOP:  cpu time    9.3954: real time    9.4234

 eigenvalue-minimisations  :  3678
 total energy-change (2. order) : 0.2947240E+01  (-0.5412927E+00)
 number of electron     503.9998350 magnetization 
 augmentation part      198.0335862 magnetization 

 DIPCOR: dipole corrections for dipol
 direction  3 min pos     1,
 dipolmoment           0.000000      0.000000     -0.019246 electrons x Angstroem
 Tr[quadrupol]    -10295.329243

 energy correction for charged system         0.000000 eV
 dipol+quadrupol energy correction           -0.000013 eV
 added-field ion interaction         -0.000000 eV  (added to PSCEN)


 Broyden mixing:
  rms(total) = 0.67162E+00    rms(broyden)= 0.67137E+00
  rms(prec ) = 0.74575E+00
  weight for this iteration     100.00

 eigenvalues of (default mixing * dielectric matrix)
  average eigenvalue GAMMA=   0.7465
  2.2460  0.6634  0.5956  0.3387  0.3387  0.2965

 Free energy of the ion-electron system (eV)
  ---------------------------------------------------
  alpha Z        PSCENC =       805.86935123
  Ewald energy   TEWEN  =    199697.15356290
  -Hartree energ DENC   =   -241758.55897642
  -exchange      EXHF   =         0.00000000
  -V(xc)+E(xc)   XCENC  =      -344.97469074
  PAW double counting   =     49138.57871140   -47223.18565177
  entropy T*S    EENTRO =        -0.23815694
  eigenvalues    EBANDS =     -2164.23707742
  atomic energy  EATOM  =     41659.78587232
  Solvation  Ediel_sol  =         0.00000000
  ---------------------------------------------------
  free energy    TOTEN  =      -189.80705543 eV

  energy without entropy =     -189.56889849  energy(sigma->0) =     -189.68797696


--------------------------------------------------------------------------------------------------------




----------------------------------------- Iteration    1(  12)  ---------------------------------------


    POTLOK:  cpu time    0.0534: real time    0.0536
    SETDIJ:  cpu time    0.0067: real time    0.0067
    EDDIAG:  cpu time    2.0313: real time    2.0402
  RMM-DIIS:  cpu time    6.6263: real time    6.6427
    ORTHCH:  cpu time    0.4425: real time    0.4437
       DOS:  cpu time    0.0015: real time    0.0015
    CHARGE:  cpu time    0.2329: real time    0.2335
    MIXING:  cpu time    0.0035: real time    0.0035
    --------------------------------------------
      LOOP:  cpu time    9.3989: real time    9.4302

 eigenvalue-minimisations  :  3678
 total energy-change (2. order) : 0.2530002E+00  (-0.2192494E+00)
 number of electron     503.9998360 magnetization 
 augmentation part      197.1216484 magnetization 

 DIPCOR: dipole corrections for dipol
 direction  3 min pos     1,
 dipolmoment           0.000000      0.000000     -0.000904 electrons x Angstroem
 Tr[quadrupol]    -10295.975826

 energy correction for charged system         0.000000 eV
 dipol+quadrupol energy correction           -0.000000 eV
 added-field ion interaction          0.000000 eV  (added to PSCEN)


 Broyden mixing:
  rms(total) = 0.60232E+00    rms(broyden)= 0.60218E+00
  rms(prec ) = 0.66366E+00
  weight for this iteration     100.00

 eigenvalues of (default mixing * dielectric matrix)
  average eigenvalue GAMMA=   0.7332
  2.2524  0.9327  0.5328  0.5328  0.3075  0.2872  0.2872

 Free energy of the ion-electron system (eV)
  ---------------------------------------------------
  alpha Z        PSCENC =       805.86936426
  Ewald energy   TEWEN  =    199697.15356290
  -Hartree energ DENC   =   -241801.34528157
  -exchange      EXHF   =         0.00000000
  -V(xc)+E(xc)   XCENC  =      -344.40311877
  PAW double counting   =     49212.63411365   -47294.79077051
  entropy T*S    EENTRO =        -0.24615307
  eigenvalues    EBANDS =     -2124.21164447
  atomic energy  EATOM  =     41659.78587232
  Solvation  Ediel_sol  =         0.00000000
  ---------------------------------------------------
  free energy    TOTEN  =      -189.55405527 eV

  energy without entropy =     -189.30790220  energy(sigma->0) =     -189.43097873


--------------------------------------------------------------------------------------------------------




----------------------------------------- Iteration    1(  13)  ---------------------------------------


    POTLOK:  cpu time    0.0532: real time    0.0539
    SETDIJ:  cpu time    0.0060: real time    0.0060
    EDDIAG:  cpu time    2.0240: real time    2.0312
  RMM-DIIS:  cpu time    6.7281: real time    6.7518
    ORTHCH:  cpu time    0.4430: real time    0.4441
       DOS:  cpu time    0.0015: real time    0.0015
    CHARGE:  cpu time    0.2363: real time    0.2368
    MIXING:  cpu time    0.0036: real time    0.0037
    --------------------------------------------
      LOOP:  cpu time    9.4967: real time    9.5327

 eigenvalue-minimisations  :  3678
 total energy-change (2. order) : 0.2091979E+00  (-0.5953612E-01)
 number of electron     503.9998362 magnetization 
 augmentation part      197.0321704 magnetization 

 DIPCOR: dipole corrections for dipol
 direction  3 min pos     1,
 dipolmoment           0.000000      0.000000      0.005353 electrons x Angstroem
 Tr[quadrupol]    -10296.254650

 energy correction for charged system         0.000000 eV
 dipol+quadrupol energy correction           -0.000001 eV
 added-field ion interaction          0.000000 eV  (added to PSCEN)


 Broyden mixing:
  rms(total) = 0.42267E+00    rms(broyden)= 0.42257E+00
  rms(prec ) = 0.45986E+00
  weight for this iteration     100.00

 eigenvalues of (default mixing * dielectric matrix)
  average eigenvalue GAMMA=   0.7303
  2.2401  0.9773  0.7127  0.7127  0.3334  0.3334  0.2666  0.2666

 Free energy of the ion-electron system (eV)
  ---------------------------------------------------
  alpha Z        PSCENC =       805.86936328
  Ewald energy   TEWEN  =    199697.15356290
  -Hartree energ DENC   =   -241815.97194963
  -exchange      EXHF   =         0.00000000
  -V(xc)+E(xc)   XCENC  =      -344.24797608
  PAW double counting   =     49248.06515127   -47329.60480264
  entropy T*S    EENTRO =        -0.24633187
  eigenvalues    EBANDS =     -2110.14774695
  atomic energy  EATOM  =     41659.78587232
  Solvation  Ediel_sol  =         0.00000000
  ---------------------------------------------------
  free energy    TOTEN  =      -189.34485740 eV

  energy without entropy =     -189.09852553  energy(sigma->0) =     -189.22169147


--------------------------------------------------------------------------------------------------------




----------------------------------------- Iteration    1(  14)  ---------------------------------------


    POTLOK:  cpu time    0.0534: real time    0.0537
    SETDIJ:  cpu time    0.0059: real time    0.0059
    EDDIAG:  cpu time    1.9924: real time    1.9985
  RMM-DIIS:  cpu time    6.6583: real time    6.7897
    ORTHCH:  cpu time    0.4433: real time    0.4444
       DOS:  cpu time    0.0016: real time    0.0016
    CHARGE:  cpu time    0.2355: real time    0.2360
    MIXING:  cpu time    0.0036: real time    0.0036
    --------------------------------------------
      LOOP:  cpu time    9.3950: real time    9.5367

 eigenvalue-minimisations  :  3678
 total energy-change (2. order) : 0.4598555E-01  (-0.2686546E-01)
 number of electron     503.9998360 magnetization 
 augmentation part      197.0914977 magnetization 

 DIPCOR: dipole corrections for dipol
 direction  3 min pos     1,
 dipolmoment           0.000000      0.000000      0.056465 electrons x Angstroem
 Tr[quadrupol]    -10296.360244

 energy correction for charged system         0.000000 eV
 dipol+quadrupol energy correction           -0.000112 eV
 added-field ion interaction          0.000000 eV  (added to PSCEN)


 Broyden mixing:
  rms(total) = 0.34734E+00    rms(broyden)= 0.34728E+00
  rms(prec ) = 0.38657E+00
  weight for this iteration     100.00

 eigenvalues of (default mixing * dielectric matrix)
  average eigenvalue GAMMA=   0.7334
  2.2073  1.0037  1.0037  0.8363  0.3849  0.3849  0.2765  0.2765  0.2269

 Free energy of the ion-electron system (eV)
  ---------------------------------------------------
  alpha Z        PSCENC =       805.86925194
  Ewald energy   TEWEN  =    199697.15356290
  -Hartree energ DENC   =   -241820.71807249
  -exchange      EXHF   =         0.00000000
  -V(xc)+E(xc)   XCENC  =      -344.17086586
  PAW double counting   =     49257.76796718   -47338.83194055
  entropy T*S    EENTRO =        -0.23577948
  eigenvalues    EBANDS =     -2105.91886781
  atomic energy  EATOM  =     41659.78587232
  Solvation  Ediel_sol  =         0.00000000
  ---------------------------------------------------
  free energy    TOTEN  =      -189.29887185 eV

  energy without entropy =     -189.06309236  energy(sigma->0) =     -189.18098210


--------------------------------------------------------------------------------------------------------




----------------------------------------- Iteration    1(  15)  ---------------------------------------


    POTLOK:  cpu time    0.0531: real time    0.0533
    SETDIJ:  cpu time    0.0058: real time    0.0058
    EDDIAG:  cpu time    2.0165: real time    2.0781
  RMM-DIIS:  cpu time    6.6408: real time    6.7714
    ORTHCH:  cpu time    0.4407: real time    0.4429
       DOS:  cpu time    0.0016: real time    0.0016
    CHARGE:  cpu time    0.2363: real time    0.2368
    MIXING:  cpu time    0.0038: real time    0.0038
    --------------------------------------------
      LOOP:  cpu time    9.3999: real time    9.5973

 eigenvalue-minimisations  :  3678
 total energy-change (2. order) : 0.1460172E-01  (-0.1918652E-01)
 number of electron     503.9998359 magnetization 
 augmentation part      197.1408909 magnetization 

 DIPCOR: dipole corrections for dipol
 direction  3 min pos     1,
 dipolmoment           0.000000      0.000000      0.030821 electrons x Angstroem
 Tr[quadrupol]    -10296.547601

 energy correction for charged system         0.000000 eV
 dipol+quadrupol energy correction           -0.000033 eV
 added-field ion interaction          0.000000 eV  (added to PSCEN)


 Broyden mixing:
  rms(total) = 0.28673E+00    rms(broyden)= 0.28664E+00
  rms(prec ) = 0.32248E+00
  weight for this iteration     100.00

 eigenvalues of (default mixing * dielectric matrix)
  average eigenvalue GAMMA=   0.7552
  2.0340  1.6300  1.3187  0.5565  0.5565  0.4059  0.2985  0.2985  0.2533  0.1995

 Free energy of the ion-electron system (eV)
  ---------------------------------------------------
  alpha Z        PSCENC =       805.86933081
  Ewald energy   TEWEN  =    199697.15356290
  -Hartree energ DENC   =   -241829.40058805
  -exchange      EXHF   =         0.00000000
  -V(xc)+E(xc)   XCENC  =      -344.05814281
  PAW double counting   =     49264.51846090   -47344.78344322
  entropy T*S    EENTRO =        -0.26386181
  eigenvalues    EBANDS =     -2098.10546117
  atomic energy  EATOM  =     41659.78587232
  Solvation  Ediel_sol  =         0.00000000
  ---------------------------------------------------
  free energy    TOTEN  =      -189.28427013 eV

  energy without entropy =     -189.02040832  energy(sigma->0) =     -189.15233922


--------------------------------------------------------------------------------------------------------




----------------------------------------- Iteration    1(  16)  ---------------------------------------


    POTLOK:  cpu time    0.0541: real time    0.0545
    SETDIJ:  cpu time    0.0059: real time    0.0060
    EDDIAG:  cpu time    2.0504: real time    2.0556
  RMM-DIIS:  cpu time    6.7473: real time    6.7642
    ORTHCH:  cpu time    0.4413: real time    0.4424
       DOS:  cpu time    0.0015: real time    0.0015
    CHARGE:  cpu time    0.2327: real time    0.2332
    MIXING:  cpu time    0.0039: real time    0.0039
    --------------------------------------------
      LOOP:  cpu time    9.5381: real time    9.5662

 eigenvalue-minimisations  :  3678
 total energy-change (2. order) : 0.6483302E-01  (-0.6964534E-02)
 number of electron     503.9998359 magnetization 
 augmentation part      197.0997115 magnetization 

 DIPCOR: dipole corrections for dipol
 direction  3 min pos     1,
 dipolmoment           0.000000      0.000000      0.005735 electrons x Angstroem
 Tr[quadrupol]    -10296.793708

 energy correction for charged system         0.000000 eV
 dipol+quadrupol energy correction           -0.000001 eV
 added-field ion interaction          0.000000 eV  (added to PSCEN)


 Broyden mixing:
  rms(total) = 0.15493E+00    rms(broyden)= 0.15490E+00
  rms(prec ) = 0.17768E+00
  weight for this iteration     100.00

 eigenvalues of (default mixing * dielectric matrix)
  average eigenvalue GAMMA=   0.7508
  2.0435  2.0435  1.2094  0.5747  0.5747  0.3970  0.3380  0.3380  0.2702  0.2702
  0.1995

 Free energy of the ion-electron system (eV)
  ---------------------------------------------------
  alpha Z        PSCENC =       805.86936313
  Ewald energy   TEWEN  =    199697.15356290
  -Hartree energ DENC   =   -241842.59091275
  -exchange      EXHF   =         0.00000000
  -V(xc)+E(xc)   XCENC  =      -343.88416574
  PAW double counting   =     49273.30423028   -47352.41716389
  entropy T*S    EENTRO =        -0.26094133
  eigenvalues    EBANDS =     -2086.17928202
  atomic energy  EATOM  =     41659.78587232
  Solvation  Ediel_sol  =         0.00000000
  ---------------------------------------------------
  free energy    TOTEN  =      -189.21943711 eV

  energy without entropy =     -188.95849578  energy(sigma->0) =     -189.08896644


--------------------------------------------------------------------------------------------------------




----------------------------------------- Iteration    1(  17)  ---------------------------------------


    POTLOK:  cpu time    0.0532: real time    0.0543
    SETDIJ:  cpu time    0.0059: real time    0.0059
    EDDIAG:  cpu time    2.0226: real time    2.0278
  RMM-DIIS:  cpu time    6.6756: real time    6.6951
    ORTHCH:  cpu time    0.4418: real time    0.4428
       DOS:  cpu time    0.0016: real time    0.0016
    CHARGE:  cpu time    0.2315: real time    0.2342
    MIXING:  cpu time    0.0042: real time    0.0042
    --------------------------------------------
      LOOP:  cpu time    9.4371: real time    9.4707

 eigenvalue-minimisations  :  3678
 total energy-change (2. order) : 0.2343599E-01  (-0.3437527E-02)
 number of electron     503.9998360 magnetization 
 augmentation part      197.0595007 magnetization 

 DIPCOR: dipole corrections for dipol
 direction  3 min pos     1,
 dipolmoment           0.000000      0.000000      0.013129 electrons x Angstroem
 Tr[quadrupol]    -10296.925583

 energy correction for charged system         0.000000 eV
 dipol+quadrupol energy correction           -0.000006 eV
 added-field ion interaction          0.000000 eV  (added to PSCEN)


 Broyden mixing:
  rms(total) = 0.90333E-01    rms(broyden)= 0.90307E-01
  rms(prec ) = 0.10050E+00
  weight for this iteration     100.00

 eigenvalues of (default mixing * dielectric matrix)
  average eigenvalue GAMMA=   0.7607
  2.1492  2.1492  1.3028  0.5989  0.5989  0.5911  0.3385  0.3385  0.3265  0.2815
  0.2577  0.1959

 Free energy of the ion-electron system (eV)
  ---------------------------------------------------
  alpha Z        PSCENC =       805.86935821
  Ewald energy   TEWEN  =    199697.15356290
  -Hartree energ DENC   =   -241848.85123068
  -exchange      EXHF   =         0.00000000
  -V(xc)+E(xc)   XCENC  =      -343.82129616
  PAW double counting   =     49281.14794803   -47359.88562020
  entropy T*S    EENTRO =        -0.26021723
  eigenvalues    EBANDS =     -2080.33437830
  atomic energy  EATOM  =     41659.78587232
  Solvation  Ediel_sol  =         0.00000000
  ---------------------------------------------------
  free energy    TOTEN  =      -189.19600112 eV

  energy without entropy =     -188.93578389  energy(sigma->0) =     -189.06589251


--------------------------------------------------------------------------------------------------------




----------------------------------------- Iteration    1(  18)  ---------------------------------------


    POTLOK:  cpu time    0.0537: real time    0.0539
    SETDIJ:  cpu time    0.0060: real time    0.0060
    EDDIAG:  cpu time    1.9889: real time    1.9947
  RMM-DIIS:  cpu time    6.6879: real time    6.7239
    ORTHCH:  cpu time    0.4295: real time    0.4678
       DOS:  cpu time    0.0014: real time    0.0014
    CHARGE:  cpu time    0.2401: real time    0.2611
    MIXING:  cpu time    0.0042: real time    0.0045
    --------------------------------------------
      LOOP:  cpu time    9.4127: real time    9.5181

 eigenvalue-minimisations  :  3678
 total energy-change (2. order) : 0.5111161E-02  (-0.1402668E-02)
 number of electron     503.9998360 magnetization 
 augmentation part      197.0785378 magnetization 

 DIPCOR: dipole corrections for dipol
 direction  3 min pos     1,
 dipolmoment           0.000000      0.000000      0.009122 electrons x Angstroem
 Tr[quadrupol]    -10297.090159

 energy correction for charged system         0.000000 eV
 dipol+quadrupol energy correction           -0.000003 eV
 added-field ion interaction          0.000000 eV  (added to PSCEN)


 Broyden mixing:
  rms(total) = 0.55286E-01    rms(broyden)= 0.55267E-01
  rms(prec ) = 0.61975E-01
  weight for this iteration     100.00

 eigenvalues of (default mixing * dielectric matrix)
  average eigenvalue GAMMA=   0.7477
  2.1794  2.1794  1.3322  0.6603  0.6603  0.5802  0.4005  0.4005  0.3136  0.3136
  0.2521  0.2521  0.1958

 Free energy of the ion-electron system (eV)
  ---------------------------------------------------
  alpha Z        PSCENC =       805.86936135
  Ewald energy   TEWEN  =    199697.15356290
  -Hartree energ DENC   =   -241854.88518766
  -exchange      EXHF   =         0.00000000
  -V(xc)+E(xc)   XCENC  =      -343.81385429
  PAW double counting   =     49293.84919970   -47372.52808801
  entropy T*S    EENTRO =        -0.25873190
  eigenvalues    EBANDS =     -2074.36302437
  atomic energy  EATOM  =     41659.78587232
  Solvation  Ediel_sol  =         0.00000000
  ---------------------------------------------------
  free energy    TOTEN  =      -189.19088996 eV

  energy without entropy =     -188.93215806  energy(sigma->0) =     -189.06152401


--------------------------------------------------------------------------------------------------------




----------------------------------------- Iteration    1(  19)  ---------------------------------------


    POTLOK:  cpu time    0.0512: real time    0.0546
    SETDIJ:  cpu time    0.0066: real time    0.0066
    EDDIAG:  cpu time    2.0456: real time    2.0514
  RMM-DIIS:  cpu time    6.7578: real time    6.7747
    ORTHCH:  cpu time    0.4444: real time    0.4455
       DOS:  cpu time    0.0015: real time    0.0015
    CHARGE:  cpu time    0.2354: real time    0.2360
    MIXING:  cpu time    0.0046: real time    0.0046
    --------------------------------------------
      LOOP:  cpu time    9.5480: real time    9.5793

 eigenvalue-minimisations  :  3678
 total energy-change (2. order) : 0.2133519E-02  (-0.3548547E-03)
 number of electron     503.9998360 magnetization 
 augmentation part      197.0697995 magnetization 

 DIPCOR: dipole corrections for dipol
 direction  3 min pos     1,
 dipolmoment           0.000000      0.000000      0.010485 electrons x Angstroem
 Tr[quadrupol]    -10297.151876

 energy correction for charged system         0.000000 eV
 dipol+quadrupol energy correction           -0.000004 eV
 added-field ion interaction          0.000000 eV  (added to PSCEN)


 Broyden mixing:
  rms(total) = 0.36825E-01    rms(broyden)= 0.36820E-01
  rms(prec ) = 0.41285E-01
  weight for this iteration     100.00

 eigenvalues of (default mixing * dielectric matrix)
  average eigenvalue GAMMA=   0.7737
  2.2804  2.2804  1.3715  0.8537  0.8537  0.5904  0.5904  0.3655  0.3208  0.3208
  0.2952  0.2563  0.2563  0.1958

 Free energy of the ion-electron system (eV)
  ---------------------------------------------------
  alpha Z        PSCENC =       805.86936041
  Ewald energy   TEWEN  =    199697.15356290
  -Hartree energ DENC   =   -241857.65590231
  -exchange      EXHF   =         0.00000000
  -V(xc)+E(xc)   XCENC  =      -343.79974289
  PAW double counting   =     49296.99201995   -47375.61958260
  entropy T*S    EENTRO =        -0.25834574
  eigenvalues    EBANDS =     -2071.65599849
  atomic energy  EATOM  =     41659.78587232
  Solvation  Ediel_sol  =         0.00000000
  ---------------------------------------------------
  free energy    TOTEN  =      -189.18875644 eV

  energy without entropy =     -188.93041071  energy(sigma->0) =     -189.05958357


--------------------------------------------------------------------------------------------------------




----------------------------------------- Iteration    1(  20)  ---------------------------------------


    POTLOK:  cpu time    0.0536: real time    0.0537
    SETDIJ:  cpu time    0.0058: real time    0.0058
    EDDIAG:  cpu time    2.0560: real time    2.0625
  RMM-DIIS:  cpu time    6.6794: real time    6.7000
    ORTHCH:  cpu time    0.4444: real time    0.4455
       DOS:  cpu time    0.0017: real time    0.0017
    CHARGE:  cpu time    0.2327: real time    0.2333
    MIXING:  cpu time    0.0047: real time    0.0047
    --------------------------------------------
      LOOP:  cpu time    9.4792: real time    9.5115

 eigenvalue-minimisations  :  3679
 total energy-change (2. order) : 0.1130274E-02  (-0.3162476E-03)
 number of electron     503.9998360 magnetization 
 augmentation part      197.0375526 magnetization 

 DIPCOR: dipole corrections for dipol
 direction  3 min pos     1,
 dipolmoment           0.000000      0.000000      0.010755 electrons x Angstroem
 Tr[quadrupol]    -10297.304262

 energy correction for charged system         0.000000 eV
 dipol+quadrupol energy correction           -0.000004 eV
 added-field ion interaction          0.000000 eV  (added to PSCEN)


 Broyden mixing:
  rms(total) = 0.29719E-01    rms(broyden)= 0.29713E-01
  rms(prec ) = 0.34824E-01
  weight for this iteration     100.00

 eigenvalues of (default mixing * dielectric matrix)
  average eigenvalue GAMMA=   0.7599
  2.3068  2.3068  1.3934  0.9357  0.9357  0.5953  0.5953  0.3308  0.3308  0.3651
  0.3212  0.2751  0.2751  0.1956  0.2358

 Free energy of the ion-electron system (eV)
  ---------------------------------------------------
  alpha Z        PSCENC =       805.86936021
  Ewald energy   TEWEN  =    199697.15356290
  -Hartree energ DENC   =   -241864.47896132
  -exchange      EXHF   =         0.00000000
  -V(xc)+E(xc)   XCENC  =      -343.76132631
  PAW double counting   =     49301.54353613   -47380.02351281
  entropy T*S    EENTRO =        -0.25959925
  eigenvalues    EBANDS =     -2065.01655804
  atomic energy  EATOM  =     41659.78587232
  Solvation  Ediel_sol  =         0.00000000
  ---------------------------------------------------
  free energy    TOTEN  =      -189.18762617 eV

  energy without entropy =     -188.92802692  energy(sigma->0) =     -189.05782654


--------------------------------------------------------------------------------------------------------




----------------------------------------- Iteration    1(  21)  ---------------------------------------


    POTLOK:  cpu time    0.0537: real time    0.0538
    SETDIJ:  cpu time    0.0058: real time    0.0059
    EDDIAG:  cpu time    2.0281: real time    2.0331
  RMM-DIIS:  cpu time    6.7275: real time    6.7464
    ORTHCH:  cpu time    0.4426: real time    0.4514
       DOS:  cpu time    0.0014: real time    0.0026
    CHARGE:  cpu time    0.2330: real time    0.2337
    MIXING:  cpu time    0.0047: real time    0.0047
    --------------------------------------------
      LOOP:  cpu time    9.4981: real time    9.5346

 eigenvalue-minimisations  :  3678
 total energy-change (2. order) : 0.5710712E-03  (-0.6205952E-04)
 number of electron     503.9998361 magnetization 
 augmentation part      197.0271505 magnetization 

 DIPCOR: dipole corrections for dipol
 direction  3 min pos     1,
 dipolmoment           0.000000      0.000000      0.009985 electrons x Angstroem
 Tr[quadrupol]    -10297.367466

 energy correction for charged system         0.000000 eV
 dipol+quadrupol energy correction           -0.000004 eV
 added-field ion interaction          0.000000 eV  (added to PSCEN)


 Broyden mixing:
  rms(total) = 0.21111E-01    rms(broyden)= 0.21109E-01
  rms(prec ) = 0.24818E-01
  weight for this iteration     100.00

 eigenvalues of (default mixing * dielectric matrix)
  average eigenvalue GAMMA=   0.7589
  2.3083  2.3083  1.6127  1.1207  0.8120  0.5904  0.5904  0.4743  0.3789  0.3789
  0.3094  0.3094  0.1957  0.2507  0.2507  0.2509

 Free energy of the ion-electron system (eV)
  ---------------------------------------------------
  alpha Z        PSCENC =       805.86936077
  Ewald energy   TEWEN  =    199697.15356290
  -Hartree energ DENC   =   -241867.24096210
  -exchange      EXHF   =         0.00000000
  -V(xc)+E(xc)   XCENC  =      -343.74739999
  PAW double counting   =     49302.16571866   -47380.61387217
  entropy T*S    EENTRO =        -0.25954693
  eigenvalues    EBANDS =     -2062.29978854
  atomic energy  EATOM  =     41659.78587232
  Solvation  Ediel_sol  =         0.00000000
  ---------------------------------------------------
  free energy    TOTEN  =      -189.18705510 eV

  energy without entropy =     -188.92750816  energy(sigma->0) =     -189.05728163


--------------------------------------------------------------------------------------------------------




----------------------------------------- Iteration    1(  22)  ---------------------------------------


    POTLOK:  cpu time    0.0543: real time    0.0546
    SETDIJ:  cpu time    0.0056: real time    0.0065
    EDDIAG:  cpu time    1.9996: real time    2.0046
  RMM-DIIS:  cpu time    6.7454: real time    6.7621
    ORTHCH:  cpu time    0.4488: real time    0.4500
       DOS:  cpu time    0.0016: real time    0.0016
    CHARGE:  cpu time    0.2360: real time    0.2366
    MIXING:  cpu time    0.0049: real time    0.0050
    --------------------------------------------
      LOOP:  cpu time    9.4973: real time    9.5253

 eigenvalue-minimisations  :  3678
 total energy-change (2. order) : 0.3390749E-03  (-0.4032048E-04)
 number of electron     503.9998361 magnetization 
 augmentation part      197.0214291 magnetization 

 DIPCOR: dipole corrections for dipol
 direction  3 min pos     1,
 dipolmoment           0.000000      0.000000      0.008178 electrons x Angstroem
 Tr[quadrupol]    -10297.453063

 energy correction for charged system         0.000000 eV
 dipol+quadrupol energy correction           -0.000002 eV
 added-field ion interaction         -0.000000 eV  (added to PSCEN)


 Broyden mixing:
  rms(total) = 0.12546E-01    rms(broyden)= 0.12543E-01
  rms(prec ) = 0.14699E-01
  weight for this iteration     100.00

 eigenvalues of (default mixing * dielectric matrix)
  average eigenvalue GAMMA=   0.7715
  2.3792  2.1332  2.1332  1.2350  0.6828  0.6828  0.5598  0.5598  0.4438  0.4438
  0.3214  0.3214  0.2820  0.2592  0.2592  0.1957  0.2235

 Free energy of the ion-electron system (eV)
  ---------------------------------------------------
  alpha Z        PSCENC =       805.86936193
  Ewald energy   TEWEN  =    199697.15356290
  -Hartree energ DENC   =   -241870.84007972
  -exchange      EXHF   =         0.00000000
  -V(xc)+E(xc)   XCENC  =      -343.73427605
  PAW double counting   =     49302.53360718   -47380.98072116
  entropy T*S    EENTRO =        -0.25914581
  eigenvalues    EBANDS =     -2058.71489759
  atomic energy  EATOM  =     41659.78587232
  Solvation  Ediel_sol  =         0.00000000
  ---------------------------------------------------
  free energy    TOTEN  =      -189.18671602 eV

  energy without entropy =     -188.92757021  energy(sigma->0) =     -189.05714312


--------------------------------------------------------------------------------------------------------




----------------------------------------- Iteration    1(  23)  ---------------------------------------


    POTLOK:  cpu time    0.0549: real time    0.0550
    SETDIJ:  cpu time    0.0064: real time    0.0065
    EDDIAG:  cpu time    1.9681: real time    2.0601
  RMM-DIIS:  cpu time    6.7299: real time    6.7471
    ORTHCH:  cpu time    0.4428: real time    0.4438
       DOS:  cpu time    0.0015: real time    0.0015
    CHARGE:  cpu time    0.2368: real time    0.2374
    MIXING:  cpu time    0.0052: real time    0.0052
    --------------------------------------------
      LOOP:  cpu time    9.4465: real time    9.5613

 eigenvalue-minimisations  :  3678
 total energy-change (2. order) :-0.8490458E-04  (-0.3068833E-04)
 number of electron     503.9998361 magnetization 
 augmentation part      197.0217018 magnetization 

 DIPCOR: dipole corrections for dipol
 direction  3 min pos     1,
 dipolmoment           0.000000      0.000000      0.007657 electrons x Angstroem
 Tr[quadrupol]    -10297.524823

 energy correction for charged system         0.000000 eV
 dipol+quadrupol energy correction           -0.000002 eV
[...]
      4.14491      5.55198      9.86662        -0.000726      0.002437     -0.020529
     13.74935      6.36600     12.22531         0.006034     -0.036494     -0.003228
      5.51586      7.92336      9.89800         0.009124     -0.005153     -0.013330
     15.10777      8.74131     12.24879         0.034623     -0.012805     -0.018338
      4.11781      7.14837     14.60060         0.004989     -0.006468      0.018457
      2.75383      0.00285     14.62460        -0.007644      0.007214     -0.009979
      6.89847      3.95960     12.27815         0.031612     -0.006074      0.022574
      5.52274      3.20059      9.88847         0.009786     -0.008161      0.003048
      6.86298      5.55243      9.89977        -0.009231      0.009906      0.017357
      8.23881      7.92662      9.90635        -0.001413      0.003266      0.006408
      6.87845      8.73153     12.24780         0.011621      0.015552     -0.003111
     12.38741      8.74661     12.23307        -0.026147     -0.011932     -0.023942
      5.52500      1.56960     12.22519        -0.007694     -0.012136      0.006719
      5.48383      0.00601     14.57822        -0.020746     -0.000319     -0.035175
      4.12223      2.36904     14.62305        -0.013769     -0.017553      0.004892
     12.38173      7.15519     14.59495         0.016444     -0.012621     -0.004839
 -----------------------------------------------------------------------------------
    total drift:                               -0.013285      0.047943     -0.059052


--------------------------------------------------------------------------------------------------------



  FREE ENERGIE OF THE ION-ELECTRON SYSTEM (eV)
  ---------------------------------------------------
  free  energy   TOTEN  =      -192.79333498 eV

  energy  without entropy=     -192.54122594  energy(sigma->0) =     -192.66728046
 
 d Force = 0.7866586E-03[ 0.192E-03, 0.138E-02]  d Energy = 0.8345414E-03-0.479E-04
 d Force = 0.2258518E+02[ 0.226E+02, 0.225E+02]  d Ewald  = 0.2258519E+02-0.895E-05


--------------------------------------------------------------------------------------------------------


    POTLOK:  cpu time    0.0604: real time    0.0614


--------------------------------------------------------------------------------------------------------


 stress matrix after NEB project (eV)
      0.00000      0.00000      0.00000
      0.00000      0.00000      0.00000
      0.00000      0.00000      0.00000
  FORCES: max atom, RMS     0.057765    0.030243
  FORCE total and by dimension    0.209527    0.046932
  Stress total and by dimension    0.000000    0.000000


--------------------------------------------------------------------------------------------------------


    WAVPRE:  cpu time    0.0188: real time    0.0188
 FEWALD executed in parallel
    FEWALD:  cpu time    0.0013: real time    0.0013

 real space projection operators:
  total allocation   :      12832.59 KBytes
  max/ min on nodes  :       2148.61       2129.34

    ORTHCH:  cpu time    1.2519: real time    1.2950
     LOOP+:  cpu time  115.5083: real time  116.1664


----------------------------------------- Iteration   15(   1)  ---------------------------------------


    POTLOK:  cpu time    0.0519: real time    0.0589
    SETDIJ:  cpu time    0.0056: real time    0.0058
     EDDAV:  cpu time   11.9328: real time   12.0009
       DOS:  cpu time    0.0016: real time    0.0016
    CHARGE:  cpu time    0.2339: real time    0.2345
    MIXING:  cpu time    0.0025: real time    0.0025
    --------------------------------------------
      LOOP:  cpu time   12.2302: real time   12.3102

 eigenvalue-minimisations  :  3672
 total energy-change (2. order) : 0.5934379E-03  (-0.3318610E+00)
 number of electron     503.9999151 magnetization 
 augmentation part      197.2562144 magnetization 

 DIPCOR: dipole corrections for dipol
 direction  3 min pos     1,
 dipolmoment           0.000000      0.000000      0.007233 electrons x Angstroem
 Tr[quadrupol]    -10301.566951

 energy correction for charged system         0.000000 eV
 dipol+quadrupol energy correction           -0.000002 eV
 added-field ion interaction          0.000021 eV  (added to PSCEN)


  free energy =  -0.192792741884E+03  energy without entropy=  -0.192540154465E+03


--------------------------------------------------------------------------------------------------------




----------------------------------------- Iteration   15(   2)  ---------------------------------------


    POTLOK:  cpu time    0.0534: real time    0.0535
    SETDIJ:  cpu time    0.0064: real time    0.0064
    EDDIAG:  cpu time    2.0248: real time    2.0299
  RMM-DIIS:  cpu time    6.6685: real time    6.6879
    ORTHCH:  cpu time    0.4358: real time    0.4370
       DOS:  cpu time    0.0016: real time    0.0016
    CHARGE:  cpu time    0.2352: real time    0.2362
    MIXING:  cpu time    0.0025: real time    0.0025
    --------------------------------------------
      LOOP:  cpu time    9.4292: real time    9.4579

 eigenvalue-minimisations  :  3678
 total energy-change (2. order) :-0.3892753E-02  (-0.3798640E-02)
 number of electron     503.9999151 magnetization 
 augmentation part      197.2626000 magnetization 

 DIPCOR: dipole corrections for dipol
 direction  3 min pos     1,
 dipolmoment           0.000000      0.000000      0.009795 electrons x Angstroem
 Tr[quadrupol]    -10301.576102

 energy correction for charged system         0.000000 eV
 dipol+quadrupol energy correction           -0.000003 eV
 added-field ion interaction          0.000028 eV  (added to PSCEN)


 eigenvalues of (default mixing * dielectric matrix)
  average eigenvalue GAMMA=   0.3723
  0.3723

  free energy =  -0.192796634637E+03  energy without entropy=  -0.192544654383E+03


--------------------------------------------------------------------------------------------------------




----------------------------------------- Iteration   15(   3)  ---------------------------------------


    POTLOK:  cpu time    0.0531: real time    0.0537
    SETDIJ:  cpu time    0.0060: real time    0.0066
    EDDIAG:  cpu time    2.0225: real time    2.0286
  RMM-DIIS:  cpu time    6.6633: real time    6.7331
    ORTHCH:  cpu time    0.4539: real time    0.4561
       DOS:  cpu time    0.0016: real time    0.0016
    CHARGE:  cpu time    0.2336: real time    0.2342
    MIXING:  cpu time    0.0028: real time    0.0028
    --------------------------------------------
      LOOP:  cpu time    9.4380: real time    9.5205

 eigenvalue-minimisations  :  3722
 total energy-change (2. order) : 0.1635506E-04  (-0.2713773E-03)
 number of electron     503.9999151 magnetization 
 augmentation part      197.2591836 magnetization 

 DIPCOR: dipole corrections for dipol
 direction  3 min pos     1,
 dipolmoment           0.000000      0.000000      0.002893 electrons x Angstroem
 Tr[quadrupol]    -10301.568228

 energy correction for charged system         0.000000 eV
 dipol+quadrupol energy correction           -0.000000 eV
 added-field ion interaction          0.000008 eV  (added to PSCEN)


 eigenvalues of (default mixing * dielectric matrix)
  average eigenvalue GAMMA=   0.3697
  0.5717  0.1677

  free energy =  -0.192796618282E+03  energy without entropy=  -0.192544028965E+03


--------------------------------------------------------------------------------------------------------




----------------------------------------- Iteration   15(   4)  ---------------------------------------


    POTLOK:  cpu time    0.0531: real time    0.0532
    SETDIJ:  cpu time    0.0065: real time    0.0065
    EDDIAG:  cpu time    1.9980: real time    2.0045
  RMM-DIIS:  cpu time    6.7743: real time    6.8086
    ORTHCH:  cpu time    0.4227: real time    0.4601
       DOS:  cpu time    0.0017: real time    0.0018
    CHARGE:  cpu time    0.2348: real time    0.2594
    MIXING:  cpu time    0.0026: real time    0.0027
    --------------------------------------------
      LOOP:  cpu time    9.4945: real time    9.5999

 eigenvalue-minimisations  :  3677
 total energy-change (2. order) : 0.3236743E-03  (-0.3585477E-04)
 number of electron     503.9999151 magnetization 
 augmentation part      197.2579519 magnetization 

 DIPCOR: dipole corrections for dipol
 direction  3 min pos     1,
 dipolmoment           0.000000      0.000000      0.009459 electrons x Angstroem
 Tr[quadrupol]    -10301.570924

 energy correction for charged system         0.000000 eV
 dipol+quadrupol energy correction           -0.000003 eV
 added-field ion interaction          0.000027 eV  (added to PSCEN)


 eigenvalues of (default mixing * dielectric matrix)
  average eigenvalue GAMMA=   0.3321
  0.5482  0.3040  0.1440

  free energy =  -0.192796294607E+03  energy without entropy=  -0.192543736026E+03


--------------------------------------------------------------------------------------------------------




----------------------------------------- Iteration   15(   5)  ---------------------------------------


    POTLOK:  cpu time    0.0520: real time    0.0545
    SETDIJ:  cpu time    0.0058: real time    0.0067
    EDDIAG:  cpu time    1.9958: real time    2.0034
  RMM-DIIS:  cpu time    6.7894: real time    6.8120
    ORTHCH:  cpu time    0.4375: real time    0.4397
       DOS:  cpu time    0.0015: real time    0.0015
    CHARGE:  cpu time    0.2354: real time    0.2359
    MIXING:  cpu time    0.0028: real time    0.0029
    --------------------------------------------
      LOOP:  cpu time    9.5214: real time    9.5600

 eigenvalue-minimisations  :  3686
 total energy-change (2. order) : 0.1211694E-03  (-0.1114257E-04)
 number of electron     503.9999151 magnetization 
 augmentation part      197.2573339 magnetization 

 DIPCOR: dipole corrections for dipol
 direction  3 min pos     1,
 dipolmoment           0.000000      0.000000      0.006567 electrons x Angstroem
 Tr[quadrupol]    -10301.573574

 energy correction for charged system         0.000000 eV
 dipol+quadrupol energy correction           -0.000002 eV
 added-field ion interaction          0.000019 eV  (added to PSCEN)


 eigenvalues of (default mixing * dielectric matrix)
  average eigenvalue GAMMA=   0.5219
  0.8637  0.8637  0.2311  0.1291

  free energy =  -0.192796173438E+03  energy without entropy=  -0.192543799641E+03


--------------------------------------------------------------------------------------------------------




----------------------------------------- Iteration   15(   6)  ---------------------------------------


    POTLOK:  cpu time    0.0539: real time    0.0541
    SETDIJ:  cpu time    0.0058: real time    0.0058
    EDDIAG:  cpu time    2.0279: real time    2.0329
  RMM-DIIS:  cpu time    6.6347: real time    6.6514
    ORTHCH:  cpu time    0.4368: real time    0.4379
       DOS:  cpu time    0.0015: real time    0.0016
    CHARGE:  cpu time    0.2350: real time    0.2361
    MIXING:  cpu time    0.0030: real time    0.0030
    --------------------------------------------
      LOOP:  cpu time    9.3994: real time    9.4278

 eigenvalue-minimisations  :  3680
 total energy-change (2. order) : 0.1183247E-04  (-0.1747695E-04)
 number of electron     503.9999151 magnetization 
 augmentation part      197.2611696 magnetization 

 DIPCOR: dipole corrections for dipol
 direction  3 min pos     1,
 dipolmoment           0.000000      0.000000      0.007024 electrons x Angstroem
 Tr[quadrupol]    -10301.566479

 energy correction for charged system         0.000000 eV
 dipol+quadrupol energy correction           -0.000002 eV
 added-field ion interaction          0.000020 eV  (added to PSCEN)


 eigenvalues of (default mixing * dielectric matrix)
  average eigenvalue GAMMA=   0.7491
  1.8445  1.2648  0.3001  0.2065  0.1296

  free energy =  -0.192796161605E+03  energy without entropy=  -0.192543618107E+03


--------------------------------------------------------------------------------------------------------




----------------------------------------- Iteration   15(   7)  ---------------------------------------


    POTLOK:  cpu time    0.0535: real time    0.0537
    SETDIJ:  cpu time    0.0059: real time    0.0066
    EDDIAG:  cpu time    2.0233: real time    2.0317
  RMM-DIIS:  cpu time    6.6463: real time    6.6640
    ORTHCH:  cpu time    0.4336: real time    0.4347
       DOS:  cpu time    0.0016: real time    0.0016
    CHARGE:  cpu time    0.2328: real time    0.2334
    MIXING:  cpu time    0.0031: real time    0.0031
    --------------------------------------------
      LOOP:  cpu time    9.4011: real time    9.4334

 eigenvalue-minimisations  :  3678
 total energy-change (2. order) : 0.4187816E-04  (-0.5148371E-04)
 number of electron     503.9999151 magnetization 
 augmentation part      197.2604190 magnetization 

 DIPCOR: dipole corrections for dipol
 direction  3 min pos     1,
 dipolmoment           0.000000      0.000000      0.006683 electrons x Angstroem
 Tr[quadrupol]    -10301.567281

 energy correction for charged system         0.000000 eV
 dipol+quadrupol energy correction           -0.000002 eV
 added-field ion interaction          0.000019 eV  (added to PSCEN)


 eigenvalues of (default mixing * dielectric matrix)
  average eigenvalue GAMMA=   0.7334
  2.3203  1.0510  0.4157  0.1294  0.2811  0.2027

  free energy =  -0.192796119727E+03  energy without entropy=  -0.192543671704E+03


--------------------------------------------------------------------------------------------------------




----------------------------------------- Iteration   15(   8)  ---------------------------------------


    POTLOK:  cpu time    0.0532: real time    0.0533
    SETDIJ:  cpu time    0.0058: real time    0.0058
    EDDIAG:  cpu time    1.9912: real time    1.9970
  RMM-DIIS:  cpu time    6.8164: real time    6.8344
    ORTHCH:  cpu time    0.4346: real time    0.4357
       DOS:  cpu time    0.0017: real time    0.0017
    CHARGE:  cpu time    0.2286: real time    0.2291
    MIXING:  cpu time    0.0033: real time    0.0033
    --------------------------------------------
      LOOP:  cpu time    9.5357: real time    9.5647

 eigenvalue-minimisations  :  3672
 total energy-change (2. order) : 0.2300010E-05  (-0.7923865E-05)
 number of electron     503.9999151 magnetization 
 augmentation part      197.2585532 magnetization 

 DIPCOR: dipole corrections for dipol
 direction  3 min pos     1,
 dipolmoment           0.000000      0.000000      0.007093 electrons x Angstroem
 Tr[quadrupol]    -10301.566039

 energy correction for charged system         0.000000 eV
 dipol+quadrupol energy correction           -0.000002 eV
 added-field ion interaction          0.000020 eV  (added to PSCEN)


 eigenvalues of (default mixing * dielectric matrix)
  average eigenvalue GAMMA=   0.6941
  2.3976  0.7926  0.7926  0.3178  0.1294  0.2293  0.1996

  free energy =  -0.192796117427E+03  energy without entropy=  -0.192543708454E+03


--------------------------------------------------------------------------------------------------------




----------------------------------------- Iteration   15(   9)  ---------------------------------------


    POTLOK:  cpu time    0.0531: real time    0.0533
    SETDIJ:  cpu time    0.0058: real time    0.0058
    EDDIAG:  cpu time    1.9198: real time    2.0247
  RMM-DIIS:  cpu time    6.6917: real time    6.7165
    ORTHCH:  cpu time    0.4378: real time    0.4390
       DOS:  cpu time    0.0016: real time    0.0016
    CHARGE:  cpu time    0.2333: real time    0.2349
    MIXING:  cpu time    0.0035: real time    0.0035
    --------------------------------------------
      LOOP:  cpu time    9.3479: real time    9.4844

 eigenvalue-minimisations  :  3665
 total energy-change (2. order) : 0.1060285E-04  (-0.1320943E-05)
 number of electron     503.9999151 magnetization 
 augmentation part      197.2576447 magnetization 

 DIPCOR: dipole corrections for dipol
 direction  3 min pos     1,
 dipolmoment           0.000000      0.000000      0.007207 electrons x Angstroem
 Tr[quadrupol]    -10301.566290

 energy correction for charged system         0.000000 eV
 dipol+quadrupol energy correction           -0.000002 eV
 added-field ion interaction          0.000021 eV  (added to PSCEN)


 eigenvalues of (default mixing * dielectric matrix)
  average eigenvalue GAMMA=   0.6890
  2.3733  0.8982  0.8982  0.4978  0.1294  0.2927  0.2244  0.1980

  free energy =  -0.192796106824E+03  energy without entropy=  -0.192543627030E+03


--------------------------------------------------------------------------------------------------------




----------------------------------------- Iteration   15(  10)  ---------------------------------------


    POTLOK:  cpu time    0.0539: real time    0.0541
    SETDIJ:  cpu time    0.0052: real time    0.0059
    EDDIAG:  cpu time    2.0126: real time    2.0195
  RMM-DIIS:  cpu time    6.4207: real time    6.4365
    ORTHCH:  cpu time    0.4335: real time    0.4347
       DOS:  cpu time    0.0016: real time    0.0016
    CHARGE:  cpu time    0.2339: real time    0.2344
    MIXING:  cpu time    0.0035: real time    0.0035
    --------------------------------------------
      LOOP:  cpu time    9.1658: real time    9.1955

 eigenvalue-minimisations  :  3547
 total energy-change (2. order) : 0.4997310E-05  (-0.7598217E-06)
 number of electron     503.9999151 magnetization 
 augmentation part      197.2580551 magnetization 

 DIPCOR: dipole corrections for dipol
 direction  3 min pos     1,
 dipolmoment           0.000000      0.000000      0.007131 electrons x Angstroem
 Tr[quadrupol]    -10301.565894

 energy correction for charged system         0.000000 eV
 dipol+quadrupol energy correction           -0.000002 eV
 added-field ion interaction          0.000020 eV  (added to PSCEN)


 eigenvalues of (default mixing * dielectric matrix)
  average eigenvalue GAMMA=   0.7097
  2.3611  1.1163  1.1163  0.6418  0.1294  0.3210  0.2843  0.2192  0.1977

  free energy =  -0.192796101827E+03  energy without entropy=  -0.192543674190E+03


--------------------------------------------------------------------------------------------------------




----------------------------------------- Iteration   15(  11)  ---------------------------------------


    POTLOK:  cpu time    0.0540: real time    0.0543
    SETDIJ:  cpu time    0.0059: real time    0.0059
    EDDIAG:  cpu time    2.0252: real time    2.0316
  RMM-DIIS:  cpu time    6.1139: real time    6.1308
    ORTHCH:  cpu time    0.4345: real time    0.4365
       DOS:  cpu time    0.0016: real time    0.0016
    CHARGE:  cpu time    0.2339: real time    0.2348
    MIXING:  cpu time    0.0038: real time    0.0038
    --------------------------------------------
      LOOP:  cpu time    8.8736: real time    8.9044

 eigenvalue-minimisations  :  3399
 total energy-change (2. order) : 0.2634595E-05  (-0.6231885E-06)
 number of electron     503.9999151 magnetization 
 augmentation part      197.2583961 magnetization 

 DIPCOR: dipole corrections for dipol
 direction  3 min pos     1,
 dipolmoment           0.000000      0.000000      0.007124 electrons x Angstroem
 Tr[quadrupol]    -10301.565221

 energy correction for charged system         0.000000 eV
 dipol+quadrupol energy correction           -0.000002 eV
 added-field ion interaction          0.000020 eV  (added to PSCEN)


 eigenvalues of (default mixing * dielectric matrix)
  average eigenvalue GAMMA=   0.7387
  2.3897  1.3264  1.3264  0.7835  0.4537  0.1294  0.3018  0.2617  0.1975  0.2174

  free energy =  -0.192796099192E+03  energy without entropy=  -0.192543649155E+03


--------------------------------------------------------------------------------------------------------




----------------------------------------- Iteration   15(  12)  ---------------------------------------


    POTLOK:  cpu time    0.0537: real time    0.0539
    SETDIJ:  cpu time    0.0065: real time    0.0066
