unknown system                          
           1
    11.002582    0.000000    0.000000
     5.501291    9.528515    0.000000
     0.000000    0.000000   24.491785
   Au   Pd
  24  24
Direct configuration=     1
   0.08333333  0.08333333  0.40830017
   0.50000000  0.50000000  0.59169983
   0.58333333  0.83333333  0.40830017
   0.58333333  0.08333333  0.40830017
   0.50000000  0.75000000  0.59169983
   0.83333333  0.08333333  0.40830017
   0.25000000  0.50000000  0.59169983
   0.16666667  0.66666667  0.50000000
   0.75000000  0.00000000  0.59169983
   0.16666667  0.41666667  0.50000000
   0.58333333  0.58333333  0.40830017
   0.16666667  0.16666667  0.50000000
   0.50000000  0.25000000  0.59169983
   0.00000000  0.25000000  0.59169983
   0.83333333  0.58333333  0.40830017
   0.66666667  0.66666667  0.50000000
   0.00000000  0.50000000  0.59169983
   0.91666667  0.16666667  0.50000000
   0.75000000  0.50000000  0.59169983
   0.83333333  0.83333333  0.40830017
   0.33333333  0.08333333  0.40830017
   0.91666667  0.41666667  0.50000000
   0.00000000  0.00000000  0.59169983
   0.08333333  0.33333333  0.40830017
   0.41666667  0.66666667  0.50000000
   0.75000000  0.25000000  0.59169983
   0.66666667  0.16666667  0.50000000
   0.83333333  0.33333333  0.40830017
   0.41666667  0.91666667  0.50000000
   0.66666667  0.41666667  0.50000000
   0.25000000  0.75000000  0.59169983
   0.58333333  0.33333333  0.40830017
   0.08333333  0.58333333  0.40830017
   0.91666667  0.66666667  0.50000000
   0.08333333  0.83333333  0.40830017
   0.91666667  0.91666667  0.50000000
   0.00000000  0.75000000  0.59169983
   0.25000000  0.00000000  0.59169983
   0.41666667  0.41666667  0.50000000
   0.33333333  0.33333333  0.40830017
   0.33333333  0.58333333  0.40830017
   0.33333333  0.83333333  0.40830017
   0.16666667  0.91666667  0.50000000
   0.66666667  0.91666667  0.50000000
   0.41666667  0.16666667  0.50000000
   0.50000000  0.00000000  0.59169983
   0.25000000  0.25000000  0.59169983
   0.75000000  0.75000000  0.59169983
Direct configuration=     2
   0.08375698  0.08184554  0.40610211
   0.50009499  0.49991698  0.59327737
   0.58220763  0.83386425  0.40638784
   0.58253072  0.08494073  0.40677981
   0.49863674  0.75181642  0.59345098
   0.83305792  0.08367136  0.40645012
   0.24981662  0.50052064  0.59382519
   0.16634907  0.66822566  0.49955005
   0.74993353 -0.00080947  0.59313306
   0.16846922  0.41643215  0.49960292
   0.58216899  0.58235660  0.40650330
   0.16941701  0.16437811  0.50073694
   0.50007368  0.24913041  0.59321119
   0.00079903  0.24916693  0.59424732
   0.83434157  0.58294653  0.40603535
   0.66614353  0.66802379  0.50038180
  -0.00034327  0.50129855  0.59394360
   0.91447193  0.16687139  0.49995282
   0.74969417  0.49980432  0.59394057
   0.83483636  0.83260972  0.40673922
   0.33389047  0.08299767  0.40635824
   0.91524963  0.41727224  0.49965378
   0.00095456 -0.00119834  0.59355307
   0.08346218  0.33414102  0.40574649
   0.41537670  0.66726486  0.49967149
   0.74971816  0.25008369  0.59274425
   0.66598509  0.16753376  0.50000163
   0.83252639  0.33347779  0.40705298
   0.41611935  0.91684030  0.50036016
   0.66574612  0.41570009  0.49970093
   0.24957132  0.75075895  0.59257998
   0.58259342  0.33401692  0.40766286
   0.08388035  0.58356756  0.40712681
   0.91637379  0.66817190  0.50021075
   0.08430965  0.83255115  0.40743890
   0.91686789  0.91578610  0.50007798
  -0.00040987  0.75026560  0.59267489
   0.25061097 -0.00039783  0.59266097
   0.41795829  0.41606524  0.49922783
   0.33382085  0.33405944  0.40739999
   0.33315540  0.58323752  0.40748181
   0.33292408  0.83296926  0.40751032
   0.16815553  0.91499328  0.49998855
   0.66651531  0.91702128  0.50063343
   0.41748233  0.16624794  0.50027622
   0.49948586  0.00012552  0.59240811
   0.25083858  0.24879046  0.59290308
   0.75038118  0.75064602  0.59264293
Direct configuration=     3
   0.08502793  0.07738216  0.39950794
   0.50037994  0.49966793  0.59800999
   0.57883051  0.83545698  0.40065085
   0.58012290  0.08976293  0.40221874
   0.49454695  0.75726567  0.59870442
   0.83223166  0.08468546  0.40089997
   0.24926650  0.50208257  0.60020125
   0.16539627  0.67290266  0.49820022
   0.74973412 -0.00323788  0.59743275
   0.17387688  0.41572859  0.49841168
   0.57867595  0.57942642  0.40111271
   0.17766805  0.15751243  0.50294776
   0.50029474  0.24652165  0.59774528
   0.00319612  0.24666774  0.60188978
   0.83736627  0.58178613  0.39924090
   0.66457414  0.67209514  0.50152719
  -0.00137310  0.50519420  0.60067492
   0.90788772  0.16748556  0.49981128
   0.74877666  0.49921726  0.60066278
   0.83934543  0.83043887  0.40205636
   0.33556187  0.08199067  0.40053245
   0.91099852  0.41908895  0.49861513
   0.00381825 -0.00479336  0.59911278
   0.08384874  0.33656406  0.39808546
   0.41150682  0.66905945  0.49868596
   0.74887264  0.25033477  0.59587749
   0.66394036  0.17013503  0.50000652
   0.83010555  0.33391116  0.40331142
   0.41447739  0.91736120  0.50144066
   0.66298448  0.41280034  0.49880372
   0.24828527  0.75303581  0.59522044
   0.58037369  0.33606770  0.40575093
   0.08552141  0.58427025  0.40360674
   0.91549517  0.67268760  0.50084299
   0.08723860  0.83020460  0.40485509
   0.91747158  0.91314438  0.50031193
  -0.00163950  0.75106239  0.59560006
   0.25244390 -0.00159133  0.59554438
   0.42183315  0.41426097  0.49691131
   0.33528340  0.33623774  0.40469946
   0.33262161  0.58295008  0.40502675
   0.33169630  0.83187705  0.40514077
   0.17262211  0.90997313  0.49995420
   0.66606124  0.91808513  0.50253373
   0.41992931  0.16499177  0.50110487
   0.49794344  0.00050208  0.59453295
   0.25335433  0.24516184  0.59651283
   0.75152473  0.75258407  0.59547224
Direct configuration=     4
   0.08489821  0.07894425  0.39818672
   0.49941462  0.50052259  0.59911289
   0.58077544  0.83364160  0.39936269
   0.58141790  0.08832270  0.40101429
   0.49603432  0.75541016  0.60038712
   0.83225860  0.08414162  0.39925717
   0.24946123  0.50199138  0.60155496
   0.16600176  0.66936817  0.49895039
   0.75013788 -0.00205645  0.59893125
   0.17171890  0.41621514  0.49892207
   0.57964877  0.58078583  0.39972791
   0.17231321  0.16127033  0.50219640
   0.49988242  0.24741115  0.59917324
   0.00293187  0.24728099  0.60365471
   0.83525044  0.58300507  0.39752579
   0.66383787  0.67096800  0.50120676
  -0.00083224  0.50339270  0.60203215
   0.91230088  0.16537505  0.49991896
   0.74912591  0.49976542  0.60228930
   0.83761487  0.83161162  0.40074655
   0.33328148  0.08383466  0.39901179
   0.91320000  0.41812229  0.49884252
   0.00293268 -0.00362780  0.60048246
   0.08517619  0.33426886  0.39632559
   0.41502031  0.66726107  0.49908955
   0.74975034  0.24917753  0.59687313
   0.66370243  0.16759163  0.50017278
   0.83116075  0.33354944  0.40216431
   0.41742899  0.91491736  0.50080439
   0.66180861  0.41664081  0.49926746
   0.24885181  0.75171713  0.59613735
   0.58099967  0.33523511  0.40425241
   0.08635542  0.58377630  0.40257766
   0.91614711  0.67015088  0.50058932
   0.08690951  0.83067002  0.40354624
   0.91577525  0.91610212  0.50027095
  -0.00051749  0.75081423  0.59660805
   0.25116110 -0.00120983  0.59724904
   0.42059654  0.41537830  0.49789288
   0.33444599  0.33632258  0.40340273
   0.33158988  0.58312444  0.40365630
   0.33235944  0.83164353  0.40419432
   0.16964871  0.91413007  0.49994375
   0.66571470  0.91941933  0.50167971
   0.42131475  0.16452738  0.50070520
   0.49814154  0.00033208  0.59565440
   0.25213273  0.24707792  0.59771046
   0.75071868  0.75168523  0.59674390
Direct configuration=     5
   0.08483794  0.07967009  0.39757281
   0.49896607  0.50091971  0.59962536
   0.58167916  0.83279808  0.39876414
   0.58201963  0.08765348  0.40045463
   0.49672544  0.75454799  0.60116900
   0.83227112  0.08388892  0.39849384
   0.24955171  0.50194900  0.60218397
   0.16628311  0.66772584  0.49929896
   0.75032549 -0.00150749  0.59962754
   0.17071618  0.41644122  0.49915923
   0.58010080  0.58141749  0.39908445
   0.16982504  0.16301646  0.50184727
   0.49969083  0.24782445  0.59983675
   0.00280909  0.24756595  0.60447479
   0.83426731  0.58357146  0.39672886
   0.66349576  0.67044426  0.50105787
  -0.00058093  0.50255563  0.60266280
   0.91435148  0.16439439  0.49996900
   0.74928819  0.50002013  0.60304508
   0.83681075  0.83215655  0.40013794
   0.33222188  0.08469148  0.39830520
   0.91422293  0.41767312  0.49894817
   0.00252120 -0.00308622  0.60111889
   0.08579300  0.33320238  0.39550786
   0.41665288  0.66642544  0.49927708
   0.75015817  0.24863981  0.59733576
   0.66359188  0.16640982  0.50025004
   0.83165105  0.33338137  0.40163130
   0.41880047  0.91378182  0.50050874
   0.66126223  0.41842531  0.49948295
   0.24911506  0.75110439  0.59656340
   0.58129054  0.33484824  0.40355611
   0.08674295  0.58354678  0.40209949
   0.91645005  0.66897217  0.50047145
   0.08675660  0.83088628  0.40293808
   0.91498704  0.91747646  0.50025191
   0.00000386  0.75069892  0.59707642
   0.25056504 -0.00103257  0.59804113
   0.42002194  0.41589748  0.49834898
   0.33405689  0.33636200  0.40280019
   0.33111048  0.58320546  0.40301951
   0.33266757  0.83153503  0.40375455
   0.16826710  0.91606163  0.49993890
   0.66555368  0.92003927  0.50128288
   0.42195850  0.16431159  0.50051949
   0.49823359  0.00025309  0.59617550
   0.25156511  0.24796824  0.59826694
   0.75034414  0.75126758  0.59733479
Direct configuration=     6
   0.08428736  0.08039235  0.39724762
   0.49947675  0.50060390  0.59991543
   0.58163346  0.83344645  0.39843441
   0.58168305  0.08659182  0.40005959
   0.49725107  0.75390537  0.60168737
   0.83295025  0.08398186  0.39813010
   0.24935309  0.50155859  0.60258577
   0.16650542  0.66823508  0.49962412
   0.75042431 -0.00170184  0.60005422
   0.16990795  0.41528222  0.49945793
   0.58076407  0.58138933  0.39870118
   0.16957615  0.16406008  0.50157499
   0.49946070  0.24848192  0.60023641
   0.00201193  0.24835284  0.60503732
   0.83476066  0.58282166  0.39633104
   0.66550110  0.66884550  0.50091470
  -0.00036671  0.50182072  0.60287264
   0.91403244  0.16568135  0.49991708
   0.74969670  0.49966578  0.60344331
   0.83634999  0.83213559  0.39994258
   0.33301656  0.08410350  0.39806482
   0.91459152  0.41760301  0.49903676
   0.00223595 -0.00249397  0.60148373
   0.08472622  0.33390659  0.39502147
   0.41621973  0.66684675  0.49948237
   0.75043417  0.24897807  0.59726088
   0.66469851  0.16699874  0.50025339
   0.83233375  0.33324832  0.40168635
   0.41763074  0.91531434  0.50023839
   0.66295577  0.41788592  0.49970246
   0.24920142  0.75109950  0.59655377
   0.58178583  0.33479258  0.40337031
   0.08582770  0.58329769  0.40192840
   0.91571890  0.66838569  0.50027701
   0.08623956  0.83130899  0.40286904
   0.91503024  0.91732902  0.50017798
  -0.00002787  0.75044590  0.59714435
   0.25044078 -0.00070762  0.59823149
   0.41954421  0.41584665  0.49895126
   0.33399059  0.33591037  0.40258732
   0.33140321  0.58331634  0.40274025
   0.33287269  0.83178503  0.40367779
   0.16805726  0.91590741  0.49994118
   0.66649319  0.91867585  0.50083482
   0.42000441  0.16473178  0.50021971
   0.49810090  0.00023747  0.59642914
   0.25100786  0.24857994  0.59825224
   0.75020647  0.75111557  0.59741547
Direct configuration=     7
   0.08413157  0.08059671  0.39715561
   0.49962124  0.50051455  0.59999750
   0.58162053  0.83362990  0.39834112
   0.58158782  0.08629143  0.39994782
   0.49739979  0.75372354  0.60183404
   0.83314241  0.08400816  0.39802719
   0.24929689  0.50144813  0.60269945
   0.16656833  0.66837916  0.49971612
   0.75045228 -0.00175683  0.60017495
   0.16967927  0.41495429  0.49954244
   0.58095174  0.58138136  0.39859273
   0.16950573  0.16435536  0.50149795
   0.49939559  0.24866794  0.60034950
   0.00178639  0.24857549  0.60519649
   0.83490025  0.58260950  0.39621849
   0.66606850  0.66839314  0.50087419
  -0.00030610  0.50161278  0.60293202
   0.91394217  0.16604548  0.49990238
   0.74981228  0.49956551  0.60355599
   0.83621962  0.83212966  0.39988730
   0.33324140  0.08393713  0.39799680
   0.91469581  0.41758317  0.49906183
   0.00215524 -0.00232639  0.60158696
   0.08442438  0.33410584  0.39488385
   0.41609718  0.66696596  0.49954046
   0.75051227  0.24907377  0.59723969
   0.66501163  0.16716538  0.50025434
   0.83252692  0.33321068  0.40170193
   0.41729978  0.91574796  0.50016189
   0.66343495  0.41773330  0.49976457
   0.24922585  0.75109812  0.59655104
   0.58192597  0.33477683  0.40331774
   0.08556873  0.58322721  0.40187999
   0.91551203  0.66821975  0.50022199
   0.08609327  0.83142859  0.40284951
   0.91504246  0.91728730  0.50015707
  -0.00003685  0.75037431  0.59716358
   0.25040562 -0.00061568  0.59828535
   0.41940904  0.41583227  0.49912167
   0.33397183  0.33578259  0.40252709
   0.33148603  0.58334771  0.40266124
   0.33293073  0.83185577  0.40365607
   0.16799788  0.91586377  0.49994183
   0.66675902  0.91829009  0.50070805
   0.41945151  0.16485067  0.50013489
   0.49806335  0.00023305  0.59650091
   0.25085018  0.24875302  0.59824808
   0.75016752  0.75107256  0.59743830
Direct configuration=     8
   0.08437538  0.08068414  0.39701907
   0.49991413  0.50039242  0.60013098
   0.58171130  0.83339270  0.39818667
   0.58178548  0.08642237  0.39984112
   0.49744873  0.75377541  0.60194363
   0.83299247  0.08414615  0.39790877
   0.24910371  0.50148265  0.60293672
   0.16632159  0.66828222  0.49971419
   0.75018750 -0.00188734  0.60023250
   0.16937508  0.41545524  0.49956989
   0.58118975  0.58133123  0.39853661
   0.16942330  0.16389212  0.50138374
   0.49956535  0.24844348  0.60041971
   0.00169817  0.24856748  0.60556314
   0.83491989  0.58242141  0.39594253
   0.66590255  0.66838158  0.50079574
  -0.00048637  0.50180990  0.60301156
   0.91396857  0.16640302  0.49987816
   0.74986905  0.49953596  0.60382798
   0.83635623  0.83197210  0.39983840
   0.33299860  0.08389566  0.39784042
   0.91493815  0.41740603  0.49914611
   0.00213488 -0.00217909  0.60167806
   0.08433072  0.33422755  0.39454412
   0.41617382  0.66731482  0.49961021
   0.75053072  0.24921630  0.59709566
   0.66498786  0.16755520  0.50020384
   0.83261323  0.33327629  0.40183131
   0.41700447  0.91611650  0.50015493
   0.66380783  0.41743985  0.49981985
   0.24919271  0.75132021  0.59649008
   0.58204846  0.33466099  0.40354291
   0.08529892  0.58317026  0.40204662
   0.91586227  0.66810108  0.50008898
   0.08591880  0.83140892  0.40302108
   0.91514826  0.91703559  0.50013720
  -0.00026429  0.75020851  0.59703844
   0.25045890 -0.00038028  0.59813693
   0.41938996  0.41550410  0.49936487
   0.33395380  0.33573996  0.40263529
   0.33169636  0.58329193  0.40276257
   0.33288031  0.83199324  0.40373205
   0.16788350  0.91604313  0.49995706
   0.66684631  0.91798499  0.50057838
   0.41942822  0.16482964  0.50000177
   0.49803954  0.00035493  0.59640645
   0.25083342  0.24850979  0.59814951
   0.75024240  0.75104969  0.59730419
Direct configuration=     9
   0.08464962  0.08078248  0.39686549
   0.50024359  0.50025506  0.60028112
   0.58181341  0.83312588  0.39801293
   0.58200782  0.08656965  0.39972110
   0.49750379  0.75383374  0.60206691
   0.83282382  0.08430136  0.39777556
   0.24888640  0.50152149  0.60320359
   0.16604406  0.66817317  0.49971202
   0.74988966 -0.00203414  0.60029724
   0.16903292  0.41601872  0.49960077
   0.58145747  0.58127485  0.39847348
   0.16933059  0.16337104  0.50125527
   0.49975631  0.24819099  0.60049868
   0.00159895  0.24855847  0.60597556
   0.83494199  0.58220984  0.39563214
   0.66571589  0.66836857  0.50070751
  -0.00068914  0.50203162  0.60310103
   0.91399826  0.16680520  0.49985091
   0.74993291  0.49950271  0.60413393
   0.83650989  0.83179486  0.39978338
   0.33272548  0.08384901  0.39766451
   0.91521074  0.41720677  0.49924092
   0.00211196 -0.00201339  0.60178054
   0.08422537  0.33436445  0.39416198
   0.41626004  0.66770724  0.49968868
   0.75055147  0.24937661  0.59693364
   0.66496114  0.16799369  0.50014703
   0.83271032  0.33335009  0.40197684
   0.41667231  0.91653104  0.50014709
   0.66422726  0.41710976  0.49988203
   0.24915543  0.75157002  0.59642152
   0.58218624  0.33453068  0.40379619
   0.08499543  0.58310621  0.40223406
   0.91625623  0.66796758  0.49993937
   0.08572255  0.83138678  0.40321407
   0.91526727  0.91675247  0.50011485
  -0.00052013  0.75002200  0.59689767
   0.25051883 -0.00011548  0.59796998
   0.41936850  0.41513496  0.49963842
   0.33393352  0.33569202  0.40275700
   0.33193295  0.58322918  0.40287656
   0.33282359  0.83214787  0.40381753
   0.16775484  0.91624488  0.49997419
   0.66694450  0.91764181  0.50043252
   0.41940203  0.16480599  0.49985204
   0.49801275  0.00049203  0.59630020
   0.25081456  0.24823619  0.59803863
   0.75032662  0.75102396  0.59715333
Direct configuration=    10
   0.08461172  0.08076725  0.39669862
   0.50022660  0.50028000  0.60042630
   0.58185160  0.83308694  0.39784254
   0.58203567  0.08656033  0.39962980
   0.49751828  0.75399483  0.60213765
   0.83294071  0.08432092  0.39767583
   0.24896544  0.50151798  0.60347089
   0.16636571  0.66808015  0.49974076
   0.74980794 -0.00205337  0.60026811
   0.16900041  0.41592724  0.49965402
   0.58148199  0.58118236  0.39846515
   0.16921840  0.16346268  0.50112022
   0.49976866  0.24809000  0.60054859
   0.00167136  0.24853139  0.60641735
   0.83489598  0.58214619  0.39532979
   0.66559020  0.66839849  0.50064795
  -0.00082869  0.50205580  0.60319627
   0.91415828  0.16653079  0.49982645
   0.74997042  0.49962730  0.60443385
   0.83647715  0.83175389  0.39971771
   0.33279173  0.08386546  0.39745923
   0.91541930  0.41731525  0.49935539
   0.00197435 -0.00203624  0.60181341
   0.08433135  0.33437813  0.39375599
   0.41626499  0.66776430  0.49976593
   0.75060660  0.24926777  0.59680123
   0.66500045  0.16785673  0.50012767
   0.83280888  0.33332841  0.40210200
   0.41680214  0.91656733  0.50012827
   0.66411281  0.41730496  0.49994149
   0.24913709  0.75162557  0.59633364
   0.58212738  0.33466298  0.40409815
   0.08500627  0.58299503  0.40237185
   0.91614390  0.66792439  0.49979387
   0.08566835  0.83143935  0.40341425
   0.91514223  0.91697458  0.50012330
  -0.00069843  0.75011999  0.59676292
   0.25057211  0.00001669  0.59781329
   0.41933143  0.41516318  0.49992048
   0.33390195  0.33569937  0.40293287
   0.33211502  0.58312419  0.40310846
   0.33278813  0.83209680  0.40392741
   0.16749739  0.91622373  0.49998672
   0.66691873  0.91763301  0.50027270
   0.41949076  0.16477990  0.49971154
   0.49800643  0.00052419  0.59612554
   0.25074305  0.24817081  0.59786589
   0.75026776  0.75095299  0.59693862
Direct configuration=    11
   0.08454253  0.08073946  0.39639399
   0.50019558  0.50032555  0.60069134
   0.58192133  0.83301584  0.39753148
   0.58208651  0.08654331  0.39946311
   0.49754474  0.75428889  0.60226679
   0.83315411  0.08435662  0.39749377
   0.24910972  0.50151158  0.60395887
   0.16695290  0.66791034  0.49979323
   0.74965876 -0.00208849  0.60021495
   0.16894106  0.41576023  0.49975124
   0.58152675  0.58101351  0.39844995
   0.16901360  0.16362998  0.50087368
   0.49979120  0.24790562  0.60063971
   0.00180355  0.24848194  0.60722388
   0.83481198  0.58203001  0.39477783
   0.66536074  0.66845312  0.50053923
  -0.00108346  0.50209994  0.60337014
   0.91445042  0.16602982  0.49978179
   0.75003890  0.49985476  0.60498138
   0.83641740  0.83167908  0.39959783
   0.33291268  0.08389550  0.39708449
   0.91580005  0.41751328  0.49956438
   0.00172313 -0.00207795  0.60187342
   0.08452483  0.33440311  0.39301484
   0.41627403  0.66786847  0.49990697
   0.75070724  0.24906906  0.59655950
   0.66507222  0.16760669  0.50009234
   0.83298881  0.33328882  0.40233047
   0.41703915  0.91663357  0.50009391
   0.66390387  0.41766132  0.50005005
   0.24910362  0.75172699  0.59617321
   0.58201994  0.33490450  0.40464940
   0.08502608  0.58279207  0.40262340
   0.91593884  0.66784553  0.49952825
   0.08556941  0.83153531  0.40377969
   0.91491396  0.91738006  0.50013872
  -0.00102394  0.75029886  0.59651693
   0.25066937  0.00025797  0.59752725
   0.41926376  0.41521469  0.50043539
   0.33384431  0.33571280  0.40325396
   0.33244742  0.58293253  0.40353180
   0.33272339  0.83200357  0.40412800
   0.16702740  0.91618512  0.50000959
   0.66687167  0.91761694  0.49998092
   0.41965275  0.16473227  0.49945504
   0.49799488  0.00058289  0.59580670
   0.25061251  0.24805144  0.59755053
   0.75016029  0.75082344  0.59654663
Direct configuration=    12
   0.08450902  0.08072600  0.39624644
   0.50018056  0.50034761  0.60081971
   0.58195510  0.83298140  0.39738081
   0.58211114  0.08653506  0.39938238
   0.49755756  0.75443133  0.60232934
   0.83325747  0.08437391  0.39740559
   0.24917961  0.50150848  0.60419522
   0.16723732  0.66782810  0.49981864
   0.74958649 -0.00210551  0.60018920
   0.16891231  0.41567934  0.49979834
   0.58154843  0.58093173  0.39844259
   0.16891441  0.16371101  0.50075426
   0.49980212  0.24781632  0.60068385
   0.00186757  0.24845798  0.60761453
   0.83477129  0.58197373  0.39451049
   0.66524960  0.66847958  0.50048657
  -0.00120685  0.50212132  0.60345436
   0.91459191  0.16578718  0.49976016
   0.75007208  0.49996494  0.60524658
   0.83638846  0.83164285  0.39953976
   0.33297127  0.08391005  0.39690298
   0.91598447  0.41760920  0.49966561
   0.00160145 -0.00209815  0.60190249
   0.08461854  0.33441521  0.39265585
   0.41627840  0.66791893  0.49997529
   0.75075598  0.24897281  0.59644242
   0.66510699  0.16748559  0.50007523
   0.83307596  0.33326965  0.40244114
   0.41715395  0.91666566  0.50007727
   0.66380267  0.41783393  0.50010264
   0.24908741  0.75177611  0.59609550
   0.58196790  0.33502149  0.40491640
   0.08503567  0.58269377  0.40274524
   0.91583951  0.66780734  0.49939959
   0.08552148  0.83158180  0.40395670
   0.91480339  0.91757646  0.50014620
  -0.00118160  0.75038550  0.59639777
   0.25071648  0.00037484  0.59738871
   0.41923098  0.41523964  0.50068480
   0.33381639  0.33571931  0.40340948
   0.33260842  0.58283969  0.40373685
   0.33269204  0.83195841  0.40422516
   0.16679975  0.91616642  0.50002067
   0.66684888  0.91760916  0.49983959
   0.41973121  0.16470920  0.49933080
   0.49798929  0.00061132  0.59565226
   0.25054928  0.24799362  0.59739779
   0.75010824  0.75076070  0.59635677
Direct configuration=    13
   0.08458400  0.08066553  0.39604240
   0.50019226  0.50053298  0.60104411
   0.58169327  0.83311410  0.39716638
   0.58213535  0.08649695  0.39922944
   0.49746369  0.75439410  0.60233972
   0.83321091  0.08431317  0.39730691
   0.24901716  0.50153998  0.60448032
   0.16718579  0.66752293  0.50006083
   0.74962505 -0.00210043  0.60005704
   0.16926426  0.41537355  0.49994155
   0.58143871  0.58105932  0.39848141
   0.16885108  0.16400694  0.50046864
   0.49952118  0.24800749  0.60073240
   0.00182817  0.24830661  0.60811761
   0.83491391  0.58182700  0.39418333
   0.66552277  0.66821270  0.50036771
  -0.00080243  0.50197687  0.60359601
   0.91445690  0.16611015  0.49977761
   0.74981835  0.49985888  0.60554898
   0.83634419  0.83174528  0.39942443
   0.33320667  0.08380349  0.39661021
   0.91546412  0.41764762  0.49977790
   0.00171012 -0.00211157  0.60191189
   0.08474996  0.33428234  0.39217263
   0.41636695  0.66777408  0.50015731
   0.75083943  0.24904223  0.59635495
   0.66514369  0.16708008  0.50010313
   0.83329818  0.33325611  0.40260934
   0.41717556  0.91650498  0.49989345
   0.66392325  0.41810513  0.50032702
   0.24909017  0.75172478  0.59610938
   0.58191757  0.33490751  0.40526301
   0.08527877  0.58267740  0.40282082
   0.91567180  0.66800972  0.49923318
   0.08554333  0.83155390  0.40408067
   0.91453725  0.91744364  0.50012675
  -0.00094841  0.75026254  0.59622103
   0.25031688  0.00032256  0.59720433
   0.41921696  0.41545632  0.50112296
   0.33394494  0.33584174  0.40364283
   0.33246558  0.58275486  0.40406302
   0.33281166  0.83190697  0.40439933
   0.16693047  0.91629893  0.50006044
   0.66688016  0.91783887  0.49958794
   0.41977316  0.16472091  0.49920881
   0.49806458  0.00062493  0.59535890
   0.25040883  0.24843212  0.59716335
   0.74995382  0.75087371  0.59604861
Direct configuration=    14
   0.08461723  0.08063872  0.39595197
   0.50019744  0.50061514  0.60114357
   0.58157722  0.83317292  0.39707134
   0.58214608  0.08648006  0.39916166
   0.49742209  0.75437760  0.60234432
   0.83319027  0.08428624  0.39726318
   0.24894516  0.50155394  0.60460668
   0.16716296  0.66738767  0.50016817
   0.74964214 -0.00209818  0.59999847
   0.16942024  0.41523801  0.50000502
   0.58139008  0.58111587  0.39849862
   0.16882301  0.16413810  0.50034205
   0.49939666  0.24809223  0.60075392
   0.00181071  0.24823952  0.60834059
   0.83497712  0.58176197  0.39403832
   0.66564384  0.66809442  0.50031503
  -0.00062319  0.50191285  0.60365879
   0.91439706  0.16625330  0.49978534
   0.74970589  0.49981188  0.60568301
   0.83632456  0.83179068  0.39937331
   0.33331101  0.08375626  0.39648045
   0.91523349  0.41766466  0.49982768
   0.00175829 -0.00211751  0.60191605
   0.08480821  0.33422345  0.39195845
   0.41640619  0.66770988  0.50023798
   0.75087642  0.24907300  0.59631618
   0.66515996  0.16690035  0.50011550
   0.83339667  0.33325011  0.40268389
   0.41718513  0.91643377  0.49981198
   0.66397670  0.41822533  0.50042648
   0.24909139  0.75170203  0.59611553
   0.58189526  0.33485699  0.40541663
   0.08538652  0.58267014  0.40285431
   0.91559747  0.66809942  0.49915942
   0.08555301  0.83154154  0.40413561
   0.91441928  0.91738477  0.50011813
  -0.00084505  0.75020803  0.59614270
   0.25013976  0.00029939  0.59712261
   0.41921075  0.41555236  0.50131716
   0.33400191  0.33589600  0.40374626
   0.33240227  0.58271725  0.40420759
   0.33286467  0.83188417  0.40447653
   0.16698840  0.91635766  0.50007806
   0.66689402  0.91794068  0.49947640
   0.41979176  0.16472610  0.49915474
   0.49809796  0.00063097  0.59522887
   0.25034658  0.24862648  0.59705944
   0.74988538  0.75092380  0.59591202
