  48  48   0   0
  0.5349325E+02  0.1100258E-08  0.1100258E-08  0.2449179E-08  0.3500000E-15
  1.000000000000000E-004
  CAR 
 unknown system                          
      6.33373964    -10.05104900  301     -1.09918324      1.00000000
    -10.051  0.0000E+00  0.0000E+00
     -9.996  0.0000E+00  0.0000E+00
     -9.942  0.0000E+00  0.0000E+00
     -9.887  0.0000E+00  0.0000E+00
     -9.833  0.0000E+00  0.0000E+00
     -9.778  0.0000E+00  0.0000E+00
     -9.723  0.0000E+00  0.0000E+00
     -9.669  0.0000E+00  0.0000E+00
     -9.614  0.2439E-16  0.1332E-17
     -9.560  0.9545E-14  0.5227E-15
     -9.505  0.2078E-11  0.1140E-12
     -9.450  0.2519E-09  0.1387E-10
     -9.396  0.1705E-07  0.9450E-09
     -9.341  0.6452E-06  0.3618E-07
     -9.286  0.1369E-04  0.7839E-06
     -9.232  0.1633E-03  0.9703E-05
     -9.177  0.1098E-02  0.6967E-04
     -9.123  0.4171E-02  0.2975E-03
     -9.068  0.8980E-02  0.7880E-03
     -9.013  0.1106E-01  0.1392E-02
     -8.959  0.8472E-02  0.1855E-02
     -8.904  0.6634E-02  0.2217E-02
     -8.849  0.9063E-02  0.2712E-02
     -8.795  0.1104E-01  0.3315E-02
     -8.740  0.8145E-02  0.3760E-02
     -8.686  0.3443E-02  0.3948E-02
     -8.631  0.8405E-03  0.3994E-02
     -8.576  0.2482E-03  0.4008E-02
     -8.522  0.8541E-03  0.4054E-02
     -8.467  0.3124E-02  0.4225E-02
     -8.413  0.6989E-02  0.4607E-02
     -8.358  0.9862E-02  0.5145E-02
     -8.303  0.9790E-02  0.5680E-02
     -8.249  0.9951E-02  0.6223E-02
     -8.194  0.1462E-01  0.7022E-02
     -8.139  0.2023E-01  0.8127E-02
     -8.085  0.1878E-01  0.9152E-02
     -8.030  0.1088E-01  0.9746E-02
     -7.976  0.4351E-02  0.9984E-02
     -7.921  0.3367E-02  0.1017E-01
     -7.866  0.7229E-02  0.1056E-01
     -7.812  0.1242E-01  0.1124E-01
     -7.757  0.1467E-01  0.1204E-01
     -7.703  0.1316E-01  0.1276E-01
     -7.648  0.1016E-01  0.1332E-01
     -7.593  0.8790E-02  0.1380E-01
     -7.539  0.1201E-01  0.1445E-01
     -7.484  0.2109E-01  0.1560E-01
     -7.429  0.3254E-01  0.1738E-01
     -7.375  0.4115E-01  0.1963E-01
     -7.320  0.4667E-01  0.2218E-01
     -7.266  0.5128E-01  0.2498E-01
     -7.211  0.5475E-01  0.2797E-01
     -7.156  0.5368E-01  0.3090E-01
     -7.102  0.4765E-01  0.3350E-01
     -7.047  0.4428E-01  0.3592E-01
     -6.993  0.4871E-01  0.3858E-01
     -6.938  0.5704E-01  0.4170E-01
     -6.883  0.6368E-01  0.4517E-01
     -6.829  0.6618E-01  0.4879E-01
     -6.774  0.6508E-01  0.5234E-01
     -6.719  0.6425E-01  0.5585E-01
     -6.665  0.6802E-01  0.5957E-01
     -6.610  0.7633E-01  0.6374E-01
     -6.556  0.8735E-01  0.6851E-01
     -6.501  0.1009E+00  0.7401E-01
     -6.446  0.1179E+00  0.8046E-01
     -6.392  0.1376E+00  0.8797E-01
     -6.337  0.1506E+00  0.9619E-01
     -6.283  0.1491E+00  0.1043E+00
     -6.228  0.1419E+00  0.1121E+00
     -6.173  0.1417E+00  0.1198E+00
     -6.119  0.1494E+00  0.1280E+00
     -6.064  0.1598E+00  0.1367E+00
     -6.009  0.1688E+00  0.1459E+00
     -5.955  0.1730E+00  0.1554E+00
     -5.900  0.1672E+00  0.1645E+00
     -5.846  0.1511E+00  0.1728E+00
     -5.791  0.1328E+00  0.1800E+00
     -5.736  0.1208E+00  0.1866E+00
     -5.682  0.1178E+00  0.1930E+00
     -5.627  0.1198E+00  0.1996E+00
     -5.573  0.1227E+00  0.2063E+00
     -5.518  0.1268E+00  0.2132E+00
     -5.463  0.1320E+00  0.2204E+00
     -5.409  0.1364E+00  0.2279E+00
     -5.354  0.1428E+00  0.2357E+00
     -5.299  0.1531E+00  0.2440E+00
     -5.245  0.1599E+00  0.2528E+00
     -5.190  0.1579E+00  0.2614E+00
     -5.136  0.1545E+00  0.2698E+00
     -5.081  0.1593E+00  0.2785E+00
     -5.026  0.1717E+00  0.2879E+00
     -4.972  0.1832E+00  0.2979E+00
     -4.917  0.1851E+00  0.3080E+00
     -4.863  0.1761E+00  0.3176E+00
     -4.808  0.1659E+00  0.3267E+00
     -4.753  0.1618E+00  0.3355E+00
     -4.699  0.1601E+00  0.3443E+00
     -4.644  0.1585E+00  0.3529E+00
     -4.589  0.1604E+00  0.3617E+00
     -4.535  0.1643E+00  0.3707E+00
     -4.480  0.1659E+00  0.3797E+00
     -4.426  0.1638E+00  0.3887E+00
     -4.371  0.1612E+00  0.3975E+00
     -4.316  0.1622E+00  0.4063E+00
     -4.262  0.1662E+00  0.4154E+00
     -4.207  0.1699E+00  0.4247E+00
     -4.153  0.1712E+00  0.4341E+00
     -4.098  0.1701E+00  0.4433E+00
     -4.043  0.1686E+00  0.4526E+00
     -3.989  0.1709E+00  0.4619E+00
     -3.934  0.1791E+00  0.4717E+00
     -3.879  0.1893E+00  0.4820E+00
     -3.825  0.1960E+00  0.4927E+00
     -3.770  0.1997E+00  0.5036E+00
     -3.716  0.2054E+00  0.5148E+00
     -3.661  0.2112E+00  0.5264E+00
     -3.606  0.2118E+00  0.5379E+00
     -3.552  0.2080E+00  0.5493E+00
     -3.497  0.2046E+00  0.5605E+00
     -3.443  0.2016E+00  0.5715E+00
     -3.388  0.1969E+00  0.5822E+00
     -3.333  0.1922E+00  0.5927E+00
     -3.279  0.1882E+00  0.6030E+00
     -3.224  0.1829E+00  0.6130E+00
     -3.169  0.1754E+00  0.6226E+00
     -3.115  0.1671E+00  0.6317E+00
     -3.060  0.1638E+00  0.6406E+00
     -3.006  0.1720E+00  0.6500E+00
     -2.951  0.1872E+00  0.6603E+00
     -2.896  0.1987E+00  0.6711E+00
     -2.842  0.2037E+00  0.6822E+00
     -2.787  0.2030E+00  0.6933E+00
     -2.733  0.1983E+00  0.7042E+00
     -2.678  0.1952E+00  0.7148E+00
     -2.623  0.1966E+00  0.7256E+00
     -2.569  0.2004E+00  0.7365E+00
     -2.514  0.2018E+00  0.7475E+00
     -2.459  0.1975E+00  0.7583E+00
     -2.405  0.1879E+00  0.7686E+00
     -2.350  0.1764E+00  0.7782E+00
     -2.296  0.1684E+00  0.7874E+00
     -2.241  0.1679E+00  0.7966E+00
     -2.186  0.1726E+00  0.8060E+00
     -2.132  0.1762E+00  0.8156E+00
     -2.077  0.1781E+00  0.8253E+00
     -2.023  0.1839E+00  0.8354E+00
     -1.968  0.1947E+00  0.8460E+00
     -1.913  0.2075E+00  0.8574E+00
     -1.859  0.2192E+00  0.8693E+00
     -1.804  0.2258E+00  0.8817E+00
     -1.749  0.2254E+00  0.8940E+00
     -1.695  0.2209E+00  0.9060E+00
     -1.640  0.2165E+00  0.9179E+00
     -1.586  0.2143E+00  0.9296E+00
     -1.531  0.2113E+00  0.9411E+00
     -1.476  0.2020E+00  0.9521E+00
     -1.422  0.1884E+00  0.9624E+00
     -1.367  0.1770E+00  0.9721E+00
     -1.312  0.1680E+00  0.9813E+00
     -1.258  0.1561E+00  0.9898E+00
     -1.203  0.1375E+00  0.9973E+00
     -1.149  0.1139E+00  0.1004E+01
     -1.094  0.8922E-01  0.1008E+01
     -1.039  0.6656E-01  0.1012E+01
     -0.985  0.4873E-01  0.1015E+01
     -0.930  0.3486E-01  0.1017E+01
     -0.876  0.2390E-01  0.1018E+01
     -0.821  0.1905E-01  0.1019E+01
     -0.766  0.2074E-01  0.1020E+01
     -0.712  0.2543E-01  0.1021E+01
     -0.657  0.3197E-01  0.1023E+01
     -0.602  0.4015E-01  0.1025E+01
     -0.548  0.4759E-01  0.1028E+01
     -0.493  0.5130E-01  0.1031E+01
     -0.439  0.4916E-01  0.1033E+01
     -0.384  0.4392E-01  0.1036E+01
     -0.329  0.4282E-01  0.1038E+01
     -0.275  0.4465E-01  0.1041E+01
     -0.220  0.4117E-01  0.1043E+01
     -0.166  0.3247E-01  0.1045E+01
     -0.111  0.2397E-01  0.1046E+01
     -0.056  0.1752E-01  0.1047E+01
     -0.002  0.1276E-01  0.1048E+01
      0.053  0.1127E-01  0.1048E+01
      0.108  0.1495E-01  0.1049E+01
      0.162  0.2105E-01  0.1050E+01
      0.217  0.2549E-01  0.1052E+01
      0.271  0.2851E-01  0.1053E+01
      0.326  0.3198E-01  0.1055E+01
      0.381  0.3534E-01  0.1057E+01
      0.435  0.3912E-01  0.1059E+01
      0.490  0.4554E-01  0.1061E+01
      0.544  0.5328E-01  0.1064E+01
      0.599  0.5843E-01  0.1068E+01
      0.654  0.5687E-01  0.1071E+01
      0.708  0.5023E-01  0.1073E+01
      0.763  0.4421E-01  0.1076E+01
      0.818  0.3853E-01  0.1078E+01
      0.872  0.3128E-01  0.1080E+01
      0.927  0.2380E-01  0.1081E+01
      0.981  0.1813E-01  0.1082E+01
      1.036  0.1633E-01  0.1083E+01
      1.091  0.1752E-01  0.1084E+01
      1.145  0.1893E-01  0.1085E+01
      1.200  0.1916E-01  0.1086E+01
      1.254  0.1720E-01  0.1087E+01
      1.309  0.1302E-01  0.1088E+01
      1.364  0.9586E-02  0.1088E+01
      1.418  0.1170E-01  0.1089E+01
      1.473  0.1914E-01  0.1090E+01
      1.528  0.2691E-01  0.1091E+01
      1.582  0.3313E-01  0.1093E+01
      1.637  0.3672E-01  0.1095E+01
      1.691  0.3466E-01  0.1097E+01
      1.746  0.2866E-01  0.1098E+01
      1.801  0.2345E-01  0.1100E+01
      1.855  0.2203E-01  0.1101E+01
      1.910  0.2446E-01  0.1102E+01
      1.964  0.2804E-01  0.1104E+01
      2.019  0.3144E-01  0.1106E+01
      2.074  0.3711E-01  0.1108E+01
      2.128  0.4598E-01  0.1110E+01
      2.183  0.5305E-01  0.1113E+01
      2.238  0.5338E-01  0.1116E+01
      2.292  0.4740E-01  0.1118E+01
      2.347  0.3951E-01  0.1121E+01
      2.401  0.3427E-01  0.1123E+01
      2.456  0.3392E-01  0.1124E+01
      2.511  0.3649E-01  0.1126E+01
      2.565  0.3835E-01  0.1128E+01
      2.620  0.4000E-01  0.1131E+01
      2.674  0.4183E-01  0.1133E+01
      2.729  0.3931E-01  0.1135E+01
      2.784  0.2969E-01  0.1137E+01
      2.838  0.1773E-01  0.1138E+01
      2.893  0.1120E-01  0.1138E+01
      2.948  0.1117E-01  0.1139E+01
      3.002  0.1103E-01  0.1139E+01
      3.057  0.8202E-02  0.1140E+01
      3.111  0.7567E-02  0.1140E+01
      3.166  0.1057E-01  0.1141E+01
      3.221  0.1279E-01  0.1142E+01
      3.275  0.1371E-01  0.1142E+01
      3.330  0.1702E-01  0.1143E+01
      3.384  0.2333E-01  0.1145E+01
      3.439  0.3087E-01  0.1146E+01
      3.494  0.3736E-01  0.1148E+01
      3.548  0.4253E-01  0.1151E+01
      3.603  0.4703E-01  0.1153E+01
      3.658  0.4635E-01  0.1156E+01
      3.712  0.3821E-01  0.1158E+01
      3.767  0.2919E-01  0.1159E+01
      3.821  0.2456E-01  0.1161E+01
      3.876  0.2349E-01  0.1162E+01
      3.931  0.2490E-01  0.1163E+01
      3.985  0.2815E-01  0.1165E+01
      4.040  0.2859E-01  0.1166E+01
      4.094  0.2372E-01  0.1168E+01
      4.149  0.1994E-01  0.1169E+01
      4.204  0.2017E-01  0.1170E+01
      4.258  0.1924E-01  0.1171E+01
      4.313  0.1675E-01  0.1172E+01
      4.368  0.1860E-01  0.1173E+01
      4.422  0.2445E-01  0.1174E+01
      4.477  0.2864E-01  0.1176E+01
      4.531  0.3500E-01  0.1178E+01
      4.586  0.4736E-01  0.1180E+01
      4.641  0.5626E-01  0.1183E+01
      4.695  0.5492E-01  0.1186E+01
      4.750  0.4962E-01  0.1189E+01
      4.804  0.4659E-01  0.1192E+01
      4.859  0.4619E-01  0.1194E+01
      4.914  0.4934E-01  0.1197E+01
      4.968  0.5756E-01  0.1200E+01
      5.023  0.6913E-01  0.1204E+01
      5.078  0.7806E-01  0.1208E+01
      5.132  0.7692E-01  0.1212E+01
      5.187  0.6659E-01  0.1216E+01
      5.241  0.5491E-01  0.1219E+01
      5.296  0.4342E-01  0.1221E+01
      5.351  0.2908E-01  0.1223E+01
      5.405  0.1440E-01  0.1224E+01
      5.460  0.4806E-02  0.1224E+01
      5.515  0.1016E-02  0.1224E+01
      5.569  0.1305E-03  0.1224E+01
      5.624  0.9897E-05  0.1224E+01
      5.678  0.4352E-06  0.1224E+01
      5.733  0.1095E-07  0.1224E+01
      5.788  0.1562E-09  0.1224E+01
      5.842  0.1256E-11  0.1224E+01
      5.897  0.5662E-14  0.1224E+01
      5.951  0.1491E-16  0.1224E+01
      6.006  0.0000E+00  0.1224E+01
      6.061  0.0000E+00  0.1224E+01
      6.115  0.0000E+00  0.1224E+01
      6.170  0.0000E+00  0.1224E+01
      6.225  0.0000E+00  0.1224E+01
      6.279  0.0000E+00  0.1224E+01
      6.334  0.0000E+00  0.1224E+01
