 vasp.5.4.1 24Jun15 (build Mar 14 2019 10:18:33) complex                        
  
 executed on INTEL-19.0.2+OPENMPI date 2022.07.15  22:32:06
 running on   36 total cores
 distrk:  each k-point on   36 cores,    1 groups
 distr:  one band on NCORES_PER_BAND=   6 cores,    6 groups


--------------------------------------------------------------------------------------------------------


 INCAR:
 POTCAR:    PAW_PBE Au 04Oct2007                  
 POTCAR:    PAW_PBE Pd 04Jan2005                  
 POTCAR:    PAW_PBE Au 04Oct2007                  
  local pseudopotential read in
  partial core-charges read in
  partial kinetic energy density read in
  atomic valenz-charges read in
  non local Contribution for L=           2  read in
    real space projection operators read in
  non local Contribution for L=           2  read in
    real space projection operators read in
  non local Contribution for L=           0  read in
    real space projection operators read in
  non local Contribution for L=           0  read in
    real space projection operators read in
  non local Contribution for L=           1  read in
    real space projection operators read in
  non local Contribution for L=           1  read in
    real space projection operators read in
    PAW grid and wavefunctions read in
 
   number of l-projection  operators is LMAX  =           6
   number of lm-projection operators is LMMAX =          18
 
 POTCAR:    PAW_PBE Pd 04Jan2005                  
  local pseudopotential read in
  partial core-charges read in
  partial kinetic energy density read in
  atomic valenz-charges read in
  non local Contribution for L=           2  read in
    real space projection operators read in
  non local Contribution for L=           2  read in
    real space projection operators read in
  non local Contribution for L=           0  read in
    real space projection operators read in
  non local Contribution for L=           0  read in
    real space projection operators read in
  non local Contribution for L=           1  read in
    real space projection operators read in
  non local Contribution for L=           1  read in
    real space projection operators read in
    PAW grid and wavefunctions read in
 
   number of l-projection  operators is LMAX  =           6
   number of lm-projection operators is LMMAX =          18
 
 Optimization of the real space projectors (new method)

 maximal supplied QI-value         = 15.12
 optimisation between [QCUT,QGAM] = [ 10.13, 20.41] = [ 28.73,116.64] Ry 
 Optimized for a Real-space Cutoff    1.51 Angstroem

   l    n(q)    QCUT    max X(q) W(low)/X(q) W(high)/X(q)  e(spline) 
   2      8    10.129    60.898    0.46E-03    0.46E-03    0.14E-06
   2      8    10.129    58.894    0.47E-03    0.47E-03    0.14E-06
   0      9    10.129   109.617    0.16E-03    0.11E-03    0.54E-07
   0      9    10.129    75.026    0.15E-03    0.11E-03    0.52E-07
   1      9    10.129    16.344    0.96E-04    0.15E-03    0.14E-06
   1      9    10.129    10.160    0.81E-04    0.12E-03    0.11E-06
 Optimization of the real space projectors (new method)

 maximal supplied QI-value         = 14.36
 optimisation between [QCUT,QGAM] = [ 10.20, 20.39] = [ 29.12,116.47] Ry 
 Optimized for a Real-space Cutoff    1.51 Angstroem

   l    n(q)    QCUT    max X(q) W(low)/X(q) W(high)/X(q)  e(spline) 
   2      8    10.197    59.108    0.26E-03    0.14E-03    0.96E-07
   2      8    10.197    58.101    0.27E-03    0.14E-03    0.98E-07
   0      9    10.197   102.235    0.54E-04    0.60E-05    0.72E-07
   0      9    10.197    58.388    0.52E-04    0.60E-05    0.68E-07
   1      9    10.197    22.191    0.18E-03    0.25E-03    0.79E-07
   1      9    10.197    15.590    0.15E-03    0.21E-03    0.69E-07
  PAW_PBE Au 04Oct2007                  :
 energy of atom  1       EATOM= -926.0867
 kinetic energy error for atom=    0.0062 (will be added to EATOM!!)
  PAW_PBE Pd 04Jan2005                  :
 energy of atom  2       EATOM= -809.7530
 kinetic energy error for atom=    0.0091 (will be added to EATOM!!)
 
 
 POSCAR: Au Pd                                   
  positions in cartesian coordinates
  No initial velocities read in
 exchange correlation table for  LEXCH =        8
   RHO(1)=    0.500       N(1)  =     2000
   RHO(2)=  100.500       N(2)  =     4000

 VTST: version 3.2, (02/03/18)

 CHAIN: initializing optimizer
 
 OPT: Using VASP Conjugate-Gradient optimizer
 CHAIN: Read ICHAIN            0
 
 POSCAR: Au Pd                                   
  positions in cartesian coordinates
  No initial velocities read in
 


--------------------------------------------------------------------------------------------------------


 ion  position               nearest neighbor table
   1  0.083  0.083  0.408-  12 2.75   9 2.75  16 2.75  35 2.75  43 2.75  36 2.75  25 2.75  44 2.75
                            15 2.75
   2  0.583  0.583  0.408-  21 2.75   9 2.75  27 2.75  39 2.75  43 2.75  18 2.75  47 2.75  29 2.75
                             3 2.75
   3  0.417  0.667  0.500-  47 2.75  28 2.75  31 2.75  29 2.75  11 2.75  44 2.75   5 2.75  21 2.75
                            41 2.75  43 2.75   6 2.75   2 2.75
   4  0.417  0.167  0.500-  36 2.75  32 2.75  40 2.75   5 2.75  10 2.75  11 2.75  45 2.75   7 2.75
                            12 2.75  38 2.75  24 2.75  46 2.75
   5  0.417  0.917  0.500-  43 2.75   6 2.75  37 2.75  12 2.75  21 2.75   4 2.75   3 2.75  44 2.75
                            45 2.75  36 2.75  32 2.75  27 2.75
   6  0.500  0.750  0.592-   5 2.75  21 2.75  26 2.75  28 2.75  32 2.75  37 2.75  31 2.75  48 2.75
                             3 2.75
   7  0.667  0.167  0.500-  46 2.75   8 2.75  24 2.75  11 2.75  29 2.75  45 2.75  22 2.75  15 2.75
                             4 2.75  39 2.75  13 2.75  25 2.75
   8  0.750  0.000  0.592-   7 2.75  22 2.75  14 2.75  13 2.75  24 2.75  48 2.75  33 2.75  32 2.75
                            45 2.75
   9  0.833  0.333  0.408-  17 2.75   2 2.75   1 2.75  18 2.75  25 2.75  16 2.75  39 2.75  15 2.75
                            29 2.75
  10  0.167  0.417  0.500-  16 2.75  40 2.75  34 2.75  23 2.75  12 2.75   4 2.75  41 2.75  11 2.75
                            17 2.75  19 2.75  38 2.75  42 2.75
  11  0.417  0.417  0.500-  38 2.75  24 2.75  42 2.75   3 2.75   4 2.75  41 2.75   7 2.75  29 2.75
                            10 2.75  47 2.75  39 2.75  28 2.75
  12  0.167  0.167  0.500-   1 2.75  37 2.75  20 2.75  17 2.75   5 2.75  10 2.75  44 2.75   4 2.75
                            15 2.75  16 2.75  40 2.75  36 2.75
  13  0.750  0.250  0.592-  29 2.75  15 2.75  26 2.75  28 2.75   8 2.75  33 2.75  20 2.75  24 2.75
                             7 2.75
  14  0.000  0.750  0.592-  22 2.75  41 2.75  33 2.75  34 2.75   8 2.75  42 2.75  31 2.75  48 2.75
                            23 2.75
  15  0.917  0.167  0.500-  25 2.75  33 2.75  13 2.75  17 2.75  29 2.75  22 2.75  44 2.75  12 2.75
                             7 2.75   9 2.75  20 2.75   1 2.75
  16  0.083  0.333  0.408-  10 2.75   1 2.75  18 2.75  19 2.75  36 2.75   9 2.75  38 2.75  12 2.75
                            17 2.75
  17  0.917  0.417  0.500-   9 2.75  20 2.75  26 2.75  12 2.75  21 2.75  23 2.75  15 2.75  10 2.75
                            29 2.75  18 2.75  16 2.75  34 2.75
  18  0.833  0.583  0.408-  23 2.75  16 2.75   9 2.75  27 2.75  30 2.75  19 2.75   2 2.75  17 2.75
                            21 2.75
  19  0.083  0.583  0.408-  41 2.75  30 2.75  35 2.75  38 2.75  16 2.75  18 2.75  47 2.75  10 2.75
                            23 2.75
  20  0.000  0.250  0.592-  17 2.75  12 2.75  26 2.75  33 2.75  34 2.75  37 2.75  13 2.75  40 2.75
                            15 2.75
  21  0.667  0.667  0.500-   2 2.75  26 2.75   6 2.75  17 2.75   5 2.75  29 2.75  45 2.75  23 2.75
                             3 2.75  27 2.75  18 2.75  48 2.75
  22  0.917  0.917  0.500-  30 2.75  14 2.75   8 2.75  15 2.75  23 2.75   7 2.75  41 2.75  44 2.75
                            45 2.75  25 2.75  35 2.75  33 2.75
  23  0.917  0.667  0.500-  18 2.75  34 2.75  48 2.75  22 2.75  17 2.75  45 2.75  10 2.75  21 2.75
                            41 2.75  30 2.75  19 2.75  14 2.75
  24  0.500  0.250  0.592-  11 2.75   7 2.75   8 2.75  28 2.75  32 2.75  42 2.75  40 2.75  13 2.75
                             4 2.75
  25  0.833  0.083  0.408-  15 2.75   9 2.75  30 2.75  35 2.75  39 2.75   1 2.75  46 2.75  22 2.75
                             7 2.75
  26  0.750  0.500  0.592-  21 2.75  17 2.75   6 2.75  20 2.75  13 2.75  48 2.75  34 2.75  28 2.75
                            29 2.75
  27  0.583  0.833  0.408-  45 2.75  18 2.75  36 2.75   2 2.75  46 2.75  30 2.75  43 2.75  21 2.75
                             5 2.75
  28  0.500  0.500  0.592-   3 2.75  29 2.75  13 2.75  24 2.75   6 2.75  31 2.75  26 2.75  42 2.75
                            11 2.75
  29  0.667  0.417  0.500-  39 2.75  13 2.75  28 2.75  15 2.75  21 2.75   7 2.75   3 2.75  17 2.75
                            11 2.75   2 2.75   9 2.75  26 2.75
  30  0.833  0.833  0.408-  22 2.75  19 2.75  18 2.75  25 2.75  46 2.75  35 2.75  27 2.75  23 2.75
                            45 2.75
  31  0.250  0.750  0.592-  44 2.75   3 2.75  33 2.75  37 2.75  42 2.75  28 2.75  14 2.75   6 2.75
                            41 2.75
  32  0.500  0.000  0.592-   4 2.75  45 2.75  24 2.75  40 2.75   6 2.75  48 2.75  37 2.75   8 2.75
                             5 2.75
  33  0.000  0.000  0.592-  15 2.75  44 2.75  13 2.75  20 2.75  31 2.75  14 2.75  37 2.75   8 2.75
                            22 2.75
  34  0.000  0.500  0.592-  23 2.75  10 2.75  20 2.75  14 2.75  40 2.75  48 2.75  42 2.75  26 2.75
                            17 2.75
  35  0.083  0.833  0.408-  44 2.75  19 2.75  25 2.75   1 2.75  47 2.75  30 2.75  43 2.75  41 2.75
                            22 2.75
  36  0.333  0.083  0.408-   4 2.75  16 2.75  27 2.75  38 2.75  43 2.75   1 2.75  46 2.75   5 2.75
                            12 2.75
  37  0.250  0.000  0.592-  12 2.75   5 2.75   6 2.75  20 2.75  31 2.75  40 2.75  33 2.75  32 2.75
                            44 2.75
  38  0.333  0.333  0.408-  11 2.75  19 2.75  36 2.75  46 2.75  47 2.75  16 2.75  39 2.75   4 2.75
                            10 2.75
  39  0.583  0.333  0.408-  29 2.75  25 2.75   2 2.75  46 2.75  47 2.75   9 2.75  38 2.75   7 2.75
                            11 2.75
  40  0.250  0.250  0.592-  10 2.75   4 2.75  32 2.75  34 2.75  37 2.75  42 2.75  20 2.75  24 2.75
                            12 2.75
  41  0.167  0.667  0.500-  19 2.75  42 2.75  14 2.75  11 2.75  22 2.75  10 2.75  44 2.75   3 2.75
                            23 2.75  35 2.75  31 2.75  47 2.75
  42  0.250  0.500  0.592-  41 2.75  11 2.75  24 2.75  31 2.75  40 2.75  14 2.75  28 2.75  34 2.75
                            10 2.75
  43  0.333  0.833  0.408-   5 2.75   2 2.75   1 2.75  36 2.75  47 2.75  27 2.75  35 2.75   3 2.75
                            44 2.75
  44  0.167  0.917  0.500-  35 2.75  31 2.75  33 2.75   3 2.75  12 2.75  15 2.75  41 2.75   5 2.75
                            22 2.75   1 2.75  37 2.75  43 2.75
  45  0.667  0.917  0.500-  27 2.75  48 2.75  32 2.75  23 2.75   4 2.75   7 2.75  21 2.75   5 2.75
                            22 2.75  46 2.75  30 2.75   8 2.75
  46  0.583  0.083  0.408-   7 2.75  27 2.75  30 2.75  38 2.75  39 2.75  25 2.75  36 2.75  45 2.75
                             4 2.75
  47  0.333  0.583  0.408-   3 2.75  35 2.75  38 2.75  39 2.75  43 2.75   2 2.75  19 2.75  11 2.75
                            41 2.75
  48  0.750  0.750  0.592-  45 2.75  23 2.75  26 2.75  32 2.75  34 2.75   8 2.75  14 2.75   6 2.75
                            21 2.75
 
  LATTYP: Found a hexagonal cell.
 ALAT       =    11.0025815153
 C/A-ratio  =     2.2260035120
  
  Lattice vectors:
  
 A1 = (   5.5012907576,  -9.5285150994,   0.0000000000)
 A2 = ( -11.0025815153,   0.0000000000,   0.0000000000)
 A3 = (   0.0000000000,   0.0000000000, -24.4917850943)


Analysis of symmetry for initial positions (statically):
=====================================================================
 Subroutine PRICEL returns:
 Original cell was already a primitive cell.
 

 Routine SETGRP: Setting up the symmetry group for a 
 hexagonal supercell.


 Subroutine GETGRP returns: Found  1 space group operations
 (whereof  1 operations were pure point group operations)
 out of a pool of 24 trial point group operations.


The static configuration has the point symmetry C_1 .


Analysis of symmetry for dynamics (positions and initial velocities):
=====================================================================
 Subroutine PRICEL returns:
 Original cell was already a primitive cell.
 

 Routine SETGRP: Setting up the symmetry group for a 
 hexagonal supercell.


 Subroutine GETGRP returns: Found  1 space group operations
 (whereof  1 operations were pure point group operations)
 out of a pool of 24 trial point group operations.


The dynamic configuration has the point symmetry C_1 .
 
 
 KPOINTS: Automatic mesh                          

Automatic generation of k-mesh.
Space group operators:
 irot       det(A)        alpha          n_x          n_y          n_z        tau_x        tau_y        tau_z
    1     1.000000     0.000000     1.000000     0.000000     0.000000     0.000000     0.000000     0.000000
 
 Subroutine IBZKPT returns following result:
 ===========================================
 
 Found      6 irreducible k-points:
 
 Following reciprocal coordinates:
            Coordinates               Weight
  0.250000  0.250000  0.000000     16.000000
  0.000000  0.250000  0.000000     16.000000
 -0.250000  0.000000  0.000000     16.000000
 -0.250000  0.250000  0.000000     16.000000
  0.500000 -0.250000  0.000000     16.000000
 -0.250000  0.500000  0.000000     16.000000
 
 Following cartesian coordinates:
            Coordinates               Weight
  0.022722  0.013119  0.000000     16.000000
  0.000000  0.026237  0.000000     16.000000
 -0.022722  0.013119  0.000000     16.000000
 -0.022722  0.039356  0.000000     16.000000
  0.045444 -0.052474  0.000000     16.000000
 -0.022722  0.065593  0.000000     16.000000
 


--------------------------------------------------------------------------------------------------------




 Dimension of arrays:
   k-points           NKPTS =      6   k-points in BZ     NKDIM =      6   number of bands    NBANDS=    306
   number of dos      NEDOS =    301   number of ions     NIONS =     48
   non local maximal  LDIM  =      6   non local SUM 2l+1 LMDIM =     18
   total plane-waves  NPLWV = 349920
   max r-space proj   IRMAX =   2009   max aug-charges    IRDMAX=   8532
   dimension x,y,z NGX =    54 NGY =   54 NGZ =  120
   dimension x,y,z NGXF=   108 NGYF=  108 NGZF=  240
   support grid    NGXF=   108 NGYF=  108 NGZF=  240
   ions per type =              24  24
 NGX,Y,Z   is equivalent  to a cutoff of   8.16,  8.16,  8.15 a.u.
 NGXF,Y,Z  is equivalent  to a cutoff of  16.32, 16.32, 16.29 a.u.


 I would recommend the setting:
   dimension x,y,z NGX =    54 NGY =   54 NGZ =  120
 SYSTEM =  unknown system                          
 POSCAR =  Au Pd                                   

 Startparameter for this run:
   NWRITE =      1    write-flag & timer
   PREC   = normal    normal or accurate (medium, high low for compatibility)
   ISTART =      0    job   : 0-new  1-cont  2-samecut
   ICHARG =      2    charge: 1-file 2-atom 10-const
   ISPIN  =      1    spin polarized calculation?
   LNONCOLLINEAR =      F non collinear calculations
   LSORBIT =      F    spin-orbit coupling
   INIWAV =      1    electr: 0-lowe 1-rand  2-diag
   LASPH  =      F    aspherical Exc in radial PAW
   METAGGA=      F    non-selfconsistent MetaGGA calc.

 Electronic Relaxation 1
   ENCUT  =  400.0 eV  29.40 Ry    5.42 a.u.  17.94 17.94 39.94*2*pi/ulx,y,z
   ENINI  =  400.0     initial cutoff
   ENAUG  =  416.2 eV  augmentation charge cutoff
   NELM   =    500;   NELMIN=  2; NELMDL= -5     # of ELM steps 
   EDIFF  = 0.1E-05   stopping-criterion for ELM
   LREAL  =      T    real-space projection
   NLSPLINE    = F    spline interpolate recip. space projectors
   LCOMPAT=      F    compatible to vasp.4.4
   GGA_COMPAT  = T    GGA compatible to vasp.4.4-vasp.4.6
   LMAXPAW     = -100 max onsite density
   LMAXMIX     =    2 max onsite mixed and CHGCAR
   VOSKOWN=      1    Vosko Wilk Nusair interpolation
   ROPT   =   -0.00050  -0.00050
 Ionic relaxation
   EDIFFG = -.2E-01   stopping-criterion for IOM
   NSW    =    500    number of steps for IOM
   NBLOCK =      1;   KBLOCK =    500    inner block; outer block 
   IBRION =      2    ionic relax: 0-MD 1-quasi-New 2-CG
   NFREE  =      2    steps in history (QN), initial steepest desc. (CG)
   ISIF   =      0    stress and relaxation
   IWAVPR =     11    prediction:  0-non 1-charg 2-wave 3-comb
   ISYM   =      2    0-nonsym 1-usesym 2-fastsym
   LCORR  =      T    Harris-Foulkes like correction to forces

   POTIM  = 0.3500    time-step for ionic-motion
   TEIN   =    0.0    initial temperature
   TEBEG  =    0.0;   TEEND  =   0.0 temperature during run
   SMASS  =  -3.00    Nose mass-parameter (am)
   estimated Nose-frequenzy (Omega)   =  0.10E-29 period in steps =****** mass=  -0.277E-26a.u.
   SCALEE = 1.0000    scale energy and forces
   NPACO  =    256;   APACO  = 16.0  distance and # of slots for P.C.
   PSTRESS=    0.0 pullay stress

  Mass of Ions in am
   POMASS = 196.97106.42
  Ionic Valenz
   ZVAL   =  11.00 10.00
  Atomic Wigner-Seitz radii
   RWIGS  =  -1.00 -1.00
  virtual crystal weights 
   VCA    =   1.00  1.00
   NELECT =     504.0000    total number of electrons
   NUPDOWN=      -1.0000    fix difference up-down

 DOS related values:
   EMIN   =  10.00;   EMAX   =-10.00  energy-range for DOS
   EFERMI =   0.00
   ISMEAR =     0;   SIGMA  =   0.10  broadening in eV -4-tet -1-fermi 0-gaus

 Electronic relaxation 2 (details)
   IALGO  =     68    algorithm
   LDIAG  =      T    sub-space diagonalisation (order eigenvalues)
   LSUBROT=      F    optimize rotation matrix (better conditioning)
   TURBO    =      0    0=normal 1=particle mesh
   IRESTART =      0    0=no restart 2=restart with 2 vectors
   NREBOOT  =      0    no. of reboots
   NMIN     =      0    reboot dimension
   EREF     =   0.00    reference energy to select bands
   IMIX   =      4    mixing-type and parameters
     AMIX     =   0.40;   BMIX     =  1.00
     AMIX_MAG =   1.60;   BMIX_MAG =  1.00
     AMIN     =   0.10
     WC   =   100.;   INIMIX=   1;  MIXPRE=   1;  MAXMIX= -45

 Intra band minimization:
   WEIMIN = 0.0010     energy-eigenvalue tresh-hold
   EBREAK =  0.82E-09  absolut break condition
   DEPER  =   0.30     relativ break condition  

   TIME   =   0.40     timestep for ELM

  volume/ion in A,a.u.               =      53.49       360.99
  Fermi-wavevector in a.u.,A,eV,Ry     =   0.951418  1.797920 12.315955  0.905197
  Thomas-Fermi vector in A             =   2.079887
 
 Write flags
   LWAVE  =      F    write WAVECAR
   LCHARG =      F    write CHGCAR
   LVTOT  =      F    write LOCPOT, total local potential
   LVHAR  =      F    write LOCPOT, Hartree potential only
   LELF   =      F    write electronic localiz. function (ELF)
   LORBIT =      0    0 simple, 1 ext, 2 COOP (PROOUT)


 Dipole corrections
   LMONO  =      F    monopole corrections only (constant potential shift)
   LDIPOL =      T    correct potential (dipole corrections)
   IDIPOL =      3    1-x, 2-y, 3-z, 4-all directions 
   EPSILON=  1.0000000 bulk dielectric constant

 Exchange correlation treatment:
   GGA     =    PE    GGA type
   LEXCH   =     8    internal setting for exchange type
   VOSKOWN=      1    Vosko Wilk Nusair interpolation
   LHFCALC =     F    Hartree Fock is set to
   LHFONE  =     F    Hartree Fock one center treatment
   AEXX    =    0.0000 exact exchange contribution

 Linear response parameters
   LEPSILON=     F    determine dielectric tensor
   LRPA    =     F    only Hartree local field effects (RPA)
   LNABLA  =     F    use nabla operator in PAW spheres
   LVEL    =     F    velocity operator in full k-point grid
   LINTERFAST=   F  fast interpolation
   KINTER  =     0    interpolate to denser k-point grid
   CSHIFT  =0.1000    complex shift for real part using Kramers Kronig
   OMEGAMAX=  -1.0    maximum frequency
   DEG_THRESHOLD= 0.2000000E-02 threshold for treating states as degnerate
   RTIME   =    0.100 relaxation time in fs

 Orbital magnetization related:
   ORBITALMAG=     F  switch on orbital magnetization
   LCHIMAG   =     F  perturbation theory with respect to B field
   DQ        =  0.001000  dq finite difference perturbation B field



--------------------------------------------------------------------------------------------------------


 conjugate gradient relaxation of ions
 charge density and potential will be updated during run
 non-spin polarized calculation
 RMM-DIIS sequential band-by-band and
  variant of blocked Davidson during initial phase
 perform sub-space diagonalisation
    before iterative eigenvector-optimisation
 modified Broyden-mixing scheme, WC =      100.0
 initial mixing is a Kerker type mixing with AMIX =  0.4000 and BMIX =      1.0000
 Hartree-type preconditioning will be used
 using additional bands           54
 real space projection scheme for non local part
 use partial core corrections
 calculate Harris-corrections to forces 
   (improved forces if not selfconsistent)
 use gradient corrections 
 use of overlap-Matrix (Vanderbilt PP)
 Gauss-broadening in eV      SIGMA  =   0.10


--------------------------------------------------------------------------------------------------------


  energy-cutoff  :      400.00
  volume of cell :     2567.68
      direct lattice vectors                 reciprocal lattice vectors
    11.002581515  0.000000000  0.000000000     0.090887761 -0.052474073  0.000000000
     5.501290758  9.528515099  0.000000000     0.000000000  0.104948147  0.000000000
     0.000000000  0.000000000 24.491785094     0.000000000  0.000000000  0.040830017

  length of vectors
    11.002581515 11.002581515 24.491785094     0.104948147  0.104948147  0.040830017


 
 k-points in units of 2pi/SCALE and weight: Automatic mesh                          
   0.02272194  0.01311852  0.00000000       0.167
   0.00000000  0.02623704  0.00000000       0.167
  -0.02272194  0.01311852  0.00000000       0.167
  -0.02272194  0.03935555  0.00000000       0.167
   0.04544388 -0.05247407  0.00000000       0.167
  -0.02272194  0.06559259  0.00000000       0.167
 
 k-points in reciprocal lattice and weights: Automatic mesh                          
   0.25000000  0.25000000  0.00000000       0.167
   0.00000000  0.25000000  0.00000000       0.167
  -0.25000000  0.00000000  0.00000000       0.167
  -0.25000000  0.25000000  0.00000000       0.167
   0.50000000 -0.25000000  0.00000000       0.167
  -0.25000000  0.50000000  0.00000000       0.167
 
 position of ions in fractional coordinates (direct lattice) 
   0.08333333  0.08333333  0.40830017
   0.58333333  0.58333333  0.40830017
   0.41666667  0.66666667  0.50000000
   0.41666667  0.16666667  0.50000000
   0.41666667  0.91666667  0.50000000
   0.50000000  0.75000000  0.59169983
   0.66666667  0.16666667  0.50000000
   0.75000000  0.00000000  0.59169983
   0.83333333  0.33333333  0.40830017
   0.16666667  0.41666667  0.50000000
   0.41666667  0.41666667  0.50000000
   0.16666667  0.16666667  0.50000000
   0.75000000  0.25000000  0.59169983
   0.00000000  0.75000000  0.59169983
   0.91666667  0.16666667  0.50000000
   0.08333333  0.33333333  0.40830017
   0.91666667  0.41666667  0.50000000
   0.83333333  0.58333333  0.40830017
   0.08333333  0.58333333  0.40830017
   0.00000000  0.25000000  0.59169983
   0.66666667  0.66666667  0.50000000
   0.91666667  0.91666667  0.50000000
   0.91666667  0.66666667  0.50000000
   0.50000000  0.25000000  0.59169983
   0.83333333  0.08333333  0.40830017
   0.75000000  0.50000000  0.59169983
   0.58333333  0.83333333  0.40830017
   0.50000000  0.50000000  0.59169983
   0.66666667  0.41666667  0.50000000
   0.83333333  0.83333333  0.40830017
   0.25000000  0.75000000  0.59169983
   0.50000000  0.00000000  0.59169983
   0.00000000  0.00000000  0.59169983
   0.00000000  0.50000000  0.59169983
   0.08333333  0.83333333  0.40830017
   0.33333333  0.08333333  0.40830017
   0.25000000  0.00000000  0.59169983
   0.33333333  0.33333333  0.40830017
   0.58333333  0.33333333  0.40830017
   0.25000000  0.25000000  0.59169983
   0.16666667  0.66666667  0.50000000
   0.25000000  0.50000000  0.59169983
   0.33333333  0.83333333  0.40830017
   0.16666667  0.91666667  0.50000000
   0.66666667  0.91666667  0.50000000
   0.58333333  0.08333333  0.40830017
   0.33333333  0.58333333  0.40830017
   0.75000000  0.75000000  0.59169983
 
 position of ions in cartesian coordinates  (Angst):
   1.37532269  0.79404292 10.00000000
   9.62725883  5.55830047 10.00000000
   8.25193614  6.35234340 12.24589255
   5.50129076  1.58808585 12.24589255
   9.62725883  8.73447217 12.24589255
   9.62725883  7.14638632 14.49178509
   8.25193614  1.58808585 12.24589255
   8.25193614  0.00000000 14.49178509
  11.00258152  3.17617170 10.00000000
   4.12596807  3.97021462 12.24589255
   6.87661345  3.97021462 12.24589255
   2.75064538  1.58808585 12.24589255
   9.62725883  2.38212877 14.49178509
   4.12596807  7.14638632 14.49178509
  11.00258152  1.58808585 12.24589255
   2.75064538  3.17617170 10.00000000
  12.37790420  3.97021462 12.24589255
  12.37790420  5.55830047 10.00000000
   4.12596807  5.55830047 10.00000000
   1.37532269  2.38212877 14.49178509
  11.00258152  6.35234340 12.24589255
  15.12854958  8.73447217 12.24589255
  13.75322689  6.35234340 12.24589255
   6.87661345  2.38212877 14.49178509
   9.62725883  0.79404292 10.00000000
  11.00258152  4.76425755 14.49178509
  11.00258152  7.94042925 10.00000000
   8.25193614  4.76425755 14.49178509
   9.62725883  3.97021462 12.24589255
  13.75322689  7.94042925 10.00000000
   6.87661345  7.14638632 14.49178509
   5.50129076  0.00000000 14.49178509
   0.00000000  0.00000000 14.49178509
   2.75064538  4.76425755 14.49178509
   5.50129076  7.94042925 10.00000000
   4.12596807  0.79404292 10.00000000
   2.75064538  0.00000000 14.49178509
   5.50129076  3.17617170 10.00000000
   8.25193614  3.17617170 10.00000000
   4.12596807  2.38212877 14.49178509
   5.50129076  6.35234340 12.24589255
   5.50129076  4.76425755 14.49178509
   8.25193614  7.94042925 10.00000000
   6.87661345  8.73447217 12.24589255
  12.37790420  8.73447217 12.24589255
   6.87661345  0.79404292 10.00000000
   6.87661345  5.55830047 10.00000000
  12.37790420  7.14638632 14.49178509
 


--------------------------------------------------------------------------------------------------------


 k-point  1 :   0.2500 0.2500 0.0000  plane waves:   46635
 k-point  2 :   0.0000 0.2500 0.0000  plane waves:   46635
 k-point  3 :  -0.2500 0.0000 0.0000  plane waves:   46635
 k-point  4 :  -0.2500 0.2500 0.0000  plane waves:   46644
 k-point  5 :   0.5000-0.2500 0.0000  plane waves:   46644
 k-point  6 :  -0.2500 0.5000 0.0000  plane waves:   46644

 maximum and minimum number of plane-waves per node :      7818     7732

 maximum number of plane-waves:     46644
 maximum index in each direction: 
   IXMAX=   18   IYMAX=   18   IZMAX=   39
   IXMIN=  -18   IYMIN=  -18   IZMIN=  -39

 WARNING: aliasing errors must be expected set NGX to  74 to avoid them
 WARNING: aliasing errors must be expected set NGY to  74 to avoid them
 WARNING: aliasing errors must be expected set NGZ to 158 to avoid them
 aliasing errors are usually negligible using standard VASP settings
 and one can safely disregard these warnings

 real space projection operators:
  total allocation   :      12803.06 KBytes
  max/ min on nodes  :       2145.66       2127.94


 parallel 3D FFT for wavefunctions:
    minimum data exchange during FFTs selected (reduces bandwidth)
 parallel 3D FFT for charge:
    minimum data exchange during FFTs selected (reduces bandwidth)


 total amount of memory used by VASP on root node    84353. kBytes
========================================================================

   base      :      30000. kBytes
   nonlr-proj:       4285. kBytes
   fftplans  :       4447. kBytes
   grid      :       6721. kBytes
   one-center:        124. kBytes
   wavefun   :      38776. kBytes
 
     INWAV:  cpu time    0.0000: real time    0.0001
 Broyden mixing: mesh for mixing (old mesh)
   NGX = 35   NGY = 35   NGZ = 79
  (NGX  =108   NGY  =108   NGZ  =240)
  gives a total of  96775 points

 initial charge density was supplied:
 charge density of overlapping atoms calculated
 number of electron     504.0000000 magnetization 
 keeping initial charge density in first step


--------------------------------------------------------------------------------------------------------


 Maximum index for non-local projection operator          355
 Maximum index for augmentation-charges          437 (set IRDMAX)


--------------------------------------------------------------------------------------------------------


 First call to EWALD:  gamma=   0.129
 Maximum number of real-space cells 4x 4x 2
 Maximum number of reciprocal cells 2x 2x 5

 FEWALD executed in parallel
    FEWALD:  cpu time    0.0022: real time    0.0022


----------------------------------------- Iteration    1(   1)  ---------------------------------------


    POTLOK:  cpu time    0.0600: real time    0.0603
    SETDIJ:  cpu time    0.0058: real time    0.0059
     EDDAV:  cpu time    8.5628: real time    8.5897
       DOS:  cpu time    0.0013: real time    0.0013
    --------------------------------------------
      LOOP:  cpu time    8.6359: real time    8.6776

 eigenvalue-minimisations  :  3672
 total energy-change (2. order) : 0.3201249E+04  (-0.1897447E+05)
 number of electron     504.0000000 magnetization 
 augmentation part      504.0000000 magnetization 

 DIPCOR: dipole corrections for dipol
 direction  3 min pos     1,
 dipolmoment           0.000000      0.000000      0.000000 electrons x Angstroem
 Tr[quadrupol]    -10254.623948

 energy correction for charged system         0.000000 eV
 dipol+quadrupol energy correction           -0.000000 eV
 added-field ion interaction          0.000000 eV  (added to PSCEN)


 Free energy of the ion-electron system (eV)
  ---------------------------------------------------
  alpha Z        PSCENC =       805.86936429
  Ewald energy   TEWEN  =    201111.67930905
  -Hartree energ DENC   =   -243530.25612287
  -exchange      EXHF   =         0.00000000
  -V(xc)+E(xc)   XCENC  =      -327.35839960
  PAW double counting   =     40340.05962942   -38292.62782345
  entropy T*S    EENTRO =        -0.13788269
  eigenvalues    EBANDS =      1434.23484780
  atomic energy  EATOM  =     41659.78587232
  Solvation  Ediel_sol  =         0.00000000
  ---------------------------------------------------
  free energy    TOTEN  =      3201.24879427 eV

  energy without entropy =     3201.38667696  energy(sigma->0) =     3201.31773561


--------------------------------------------------------------------------------------------------------




----------------------------------------- Iteration    1(   2)  ---------------------------------------


     EDDAV:  cpu time   10.4113: real time   10.5240
       DOS:  cpu time    0.0014: real time    0.0014
    --------------------------------------------
      LOOP:  cpu time   10.4135: real time   10.5397

 eigenvalue-minimisations  :  4380
 total energy-change (2. order) :-0.3184825E+04  (-0.2928735E+04)
 number of electron     504.0000000 magnetization 
 augmentation part      504.0000000 magnetization 

 DIPCOR: dipole corrections for dipol
 direction  3 min pos     1,
 dipolmoment           0.000000      0.000000      0.000000 electrons x Angstroem
 Tr[quadrupol]    -10254.623948

 energy correction for charged system         0.000000 eV
 dipol+quadrupol energy correction           -0.000000 eV
 added-field ion interaction          0.000000 eV  (added to PSCEN)


 Free energy of the ion-electron system (eV)
  ---------------------------------------------------
  alpha Z        PSCENC =       805.86936429
  Ewald energy   TEWEN  =    201111.67930905
  -Hartree energ DENC   =   -243530.25612287
  -exchange      EXHF   =         0.00000000
  -V(xc)+E(xc)   XCENC  =      -327.35839960
  PAW double counting   =     40340.05962942   -38292.62782345
  entropy T*S    EENTRO =        -0.13977994
  eigenvalues    EBANDS =     -1750.58871233
  atomic energy  EATOM  =     41659.78587232
  Solvation  Ediel_sol  =         0.00000000
  ---------------------------------------------------
  free energy    TOTEN  =        16.42333690 eV

  energy without entropy =       16.56311684  energy(sigma->0) =       16.49322687


--------------------------------------------------------------------------------------------------------




----------------------------------------- Iteration    1(   3)  ---------------------------------------


     EDDAV:  cpu time    9.9812: real time   10.0131
       DOS:  cpu time    0.0015: real time    0.0015
    --------------------------------------------
      LOOP:  cpu time    9.9842: real time   10.0190

 eigenvalue-minimisations  :  4128
 total energy-change (2. order) :-0.2152541E+03  (-0.2002844E+03)
 number of electron     504.0000000 magnetization 
 augmentation part      504.0000000 magnetization 

 DIPCOR: dipole corrections for dipol
 direction  3 min pos     1,
 dipolmoment           0.000000      0.000000      0.000000 electrons x Angstroem
 Tr[quadrupol]    -10254.623948

 energy correction for charged system         0.000000 eV
 dipol+quadrupol energy correction           -0.000000 eV
 added-field ion interaction          0.000000 eV  (added to PSCEN)


 Free energy of the ion-electron system (eV)
  ---------------------------------------------------
  alpha Z        PSCENC =       805.86936429
  Ewald energy   TEWEN  =    201111.67930905
  -Hartree energ DENC   =   -243530.25612287
  -exchange      EXHF   =         0.00000000
  -V(xc)+E(xc)   XCENC  =      -327.35839960
  PAW double counting   =     40340.05962942   -38292.62782345
  entropy T*S    EENTRO =        -0.23329259
  eigenvalues    EBANDS =     -1965.74934700
  atomic energy  EATOM  =     41659.78587232
  Solvation  Ediel_sol  =         0.00000000
  ---------------------------------------------------
  free energy    TOTEN  =      -198.83081042 eV

  energy without entropy =     -198.59751783  energy(sigma->0) =     -198.71416412


--------------------------------------------------------------------------------------------------------




----------------------------------------- Iteration    1(   4)  ---------------------------------------


     EDDAV:  cpu time   10.3318: real time   10.3638
       DOS:  cpu time    0.0016: real time    0.0016
    --------------------------------------------
      LOOP:  cpu time   10.3347: real time   10.3695

 eigenvalue-minimisations  :  4284
 total energy-change (2. order) :-0.5801301E+01  (-0.5733402E+01)
 number of electron     504.0000000 magnetization 
 augmentation part      504.0000000 magnetization 

 DIPCOR: dipole corrections for dipol
 direction  3 min pos     1,
 dipolmoment           0.000000      0.000000      0.000000 electrons x Angstroem
 Tr[quadrupol]    -10254.623948

 energy correction for charged system         0.000000 eV
 dipol+quadrupol energy correction           -0.000000 eV
 added-field ion interaction          0.000000 eV  (added to PSCEN)


 Free energy of the ion-electron system (eV)
  ---------------------------------------------------
  alpha Z        PSCENC =       805.86936429
  Ewald energy   TEWEN  =    201111.67930905
  -Hartree energ DENC   =   -243530.25612287
  -exchange      EXHF   =         0.00000000
  -V(xc)+E(xc)   XCENC  =      -327.35839960
  PAW double counting   =     40340.05962942   -38292.62782345
  entropy T*S    EENTRO =        -0.24201636
  eigenvalues    EBANDS =     -1971.54192422
  atomic energy  EATOM  =     41659.78587232
  Solvation  Ediel_sol  =         0.00000000
  ---------------------------------------------------
  free energy    TOTEN  =      -204.63211142 eV

  energy without entropy =     -204.39009506  energy(sigma->0) =     -204.51110324


--------------------------------------------------------------------------------------------------------




----------------------------------------- Iteration    1(   5)  ---------------------------------------


     EDDAV:  cpu time   10.4507: real time   10.4821
       DOS:  cpu time    0.0014: real time    0.0014
    CHARGE:  cpu time    0.2340: real time    0.2347
    MIXING:  cpu time    0.0024: real time    0.0025
    --------------------------------------------
      LOOP:  cpu time   10.6903: real time   10.7259

 eigenvalue-minimisations  :  4392
 total energy-change (2. order) :-0.1820636E+00  (-0.1816072E+00)
 number of electron     503.9998407 magnetization 
 augmentation part      191.4918501 magnetization 

 DIPCOR: dipole corrections for dipol
 direction  3 min pos     1,
 dipolmoment           0.000000      0.000000      0.000000 electrons x Angstroem
 Tr[quadrupol]    -10254.623948

 energy correction for charged system         0.000000 eV
 dipol+quadrupol energy correction           -0.000000 eV
 added-field ion interaction          0.000000 eV  (added to PSCEN)


 Broyden mixing:
  rms(total) = 0.63186E+01    rms(broyden)= 0.63186E+01
  rms(prec ) = 0.64434E+01
  weight for this iteration     100.00

 Free energy of the ion-electron system (eV)
  ---------------------------------------------------
  alpha Z        PSCENC =       805.86936429
  Ewald energy   TEWEN  =    201111.67930905
  -Hartree energ DENC   =   -243530.25612287
  -exchange      EXHF   =         0.00000000
  -V(xc)+E(xc)   XCENC  =      -327.35839960
  PAW double counting   =     40340.05962942   -38292.62782345
  entropy T*S    EENTRO =        -0.24278250
  eigenvalues    EBANDS =     -1971.72322172
  atomic energy  EATOM  =     41659.78587232
  Solvation  Ediel_sol  =         0.00000000
  ---------------------------------------------------
  free energy    TOTEN  =      -204.81417506 eV

  energy without entropy =     -204.57139256  energy(sigma->0) =     -204.69278381


--------------------------------------------------------------------------------------------------------




----------------------------------------- Iteration    1(   6)  ---------------------------------------


    POTLOK:  cpu time    0.0462: real time    0.0464
    SETDIJ:  cpu time    0.0056: real time    0.0058
    EDDIAG:  cpu time    1.4467: real time    1.5063
  RMM-DIIS:  cpu time    4.7967: real time    4.8432
    ORTHCH:  cpu time    0.3935: real time    0.3945
       DOS:  cpu time    0.0014: real time    0.0014
    CHARGE:  cpu time    0.2287: real time    0.2295
    MIXING:  cpu time    0.0024: real time    0.0024
    --------------------------------------------
      LOOP:  cpu time    6.9220: real time    7.0334

 eigenvalue-minimisations  :  3679
 total energy-change (2. order) : 0.7735802E+01  (-0.9601857E+01)
 number of electron     503.9998428 magnetization 
 augmentation part      192.2904632 magnetization 

 DIPCOR: dipole corrections for dipol
 direction  3 min pos     1,
 dipolmoment           0.000000      0.000000      0.014293 electrons x Angstroem
 Tr[quadrupol]    -10253.194421

 energy correction for charged system         0.000000 eV
 dipol+quadrupol energy correction           -0.000007 eV
 added-field ion interaction          0.000000 eV  (added to PSCEN)


 Broyden mixing:
  rms(total) = 0.56238E+01    rms(broyden)= 0.56237E+01
  rms(prec ) = 0.57335E+01
  weight for this iteration     100.00

 eigenvalues of (default mixing * dielectric matrix)
  average eigenvalue GAMMA=   0.7486
  0.7486

 Free energy of the ion-electron system (eV)
  ---------------------------------------------------
  alpha Z        PSCENC =       805.86935709
  Ewald energy   TEWEN  =    201111.67930905
  -Hartree energ DENC   =   -243185.05198944
  -exchange      EXHF   =         0.00000000
  -V(xc)+E(xc)   XCENC  =      -339.35816300
  PAW double counting   =     43964.73715581   -41975.98955010
  entropy T*S    EENTRO =        -0.24077122
  eigenvalues    EBANDS =     -2238.50959402
  atomic energy  EATOM  =     41659.78587232
  Solvation  Ediel_sol  =         0.00000000
  ---------------------------------------------------
  free energy    TOTEN  =      -197.07837352 eV

  energy without entropy =     -196.83760230  energy(sigma->0) =     -196.95798791


--------------------------------------------------------------------------------------------------------




----------------------------------------- Iteration    1(   7)  ---------------------------------------


    POTLOK:  cpu time    0.0449: real time    0.0453
    SETDIJ:  cpu time    0.0055: real time    0.0062
    EDDIAG:  cpu time    1.4690: real time    1.4739
  RMM-DIIS:  cpu time    4.8884: real time    4.9034
    ORTHCH:  cpu time    0.3927: real time    0.3937
       DOS:  cpu time    0.0014: real time    0.0014
    CHARGE:  cpu time    0.2167: real time    0.2174
    MIXING:  cpu time    0.0021: real time    0.0021
    --------------------------------------------
      LOOP:  cpu time    7.0213: real time    7.0483

 eigenvalue-minimisations  :  3683
 total energy-change (2. order) : 0.4810526E+01  (-0.3577230E+01)
 number of electron     503.9998357 magnetization 
 augmentation part      197.7526558 magnetization 

 DIPCOR: dipole corrections for dipol
 direction  3 min pos     1,
 dipolmoment           0.000000      0.000000      0.306066 electrons x Angstroem
 Tr[quadrupol]    -10254.763187

 energy correction for charged system         0.000000 eV
 dipol+quadrupol energy correction           -0.003301 eV
 added-field ion interaction          0.000000 eV  (added to PSCEN)


 Broyden mixing:
  rms(total) = 0.31766E+01    rms(broyden)= 0.31764E+01
  rms(prec ) = 0.33422E+01
  weight for this iteration     100.00

 eigenvalues of (default mixing * dielectric matrix)
  average eigenvalue GAMMA=   1.1708
  1.8329  0.5086

 Free energy of the ion-electron system (eV)
  ---------------------------------------------------
  alpha Z        PSCENC =       805.86606337
  Ewald energy   TEWEN  =    201111.67930905
  -Hartree energ DENC   =   -243132.22766381
  -exchange      EXHF   =         0.00000000
  -V(xc)+E(xc)   XCENC  =      -342.08356506
  PAW double counting   =     45582.46844205   -43620.46740618
  entropy T*S    EENTRO =        -0.13013146
  eigenvalues    EBANDS =     -2257.15876735
  atomic energy  EATOM  =     41659.78587232
  Solvation  Ediel_sol  =         0.00000000
  ---------------------------------------------------
  free energy    TOTEN  =      -192.26784706 eV

  energy without entropy =     -192.13771560  energy(sigma->0) =     -192.20278133


--------------------------------------------------------------------------------------------------------




----------------------------------------- Iteration    1(   8)  ---------------------------------------


    POTLOK:  cpu time    0.0470: real time    0.0480
    SETDIJ:  cpu time    0.0054: real time    0.0054
    EDDIAG:  cpu time    1.5011: real time    1.5079
  RMM-DIIS:  cpu time    4.7062: real time    4.7207
    ORTHCH:  cpu time    0.3921: real time    0.3940
       DOS:  cpu time    0.0014: real time    0.0014
    CHARGE:  cpu time    0.2234: real time    0.2242
    MIXING:  cpu time    0.0023: real time    0.0024
    --------------------------------------------
      LOOP:  cpu time    6.8797: real time    6.9296

 eigenvalue-minimisations  :  3679
 total energy-change (2. order) :-0.3010186E+02  (-0.6174358E+01)
 number of electron     503.9998384 magnetization 
 augmentation part      193.8860310 magnetization 

 DIPCOR: dipole corrections for dipol
 direction  3 min pos     1,
 dipolmoment           0.000000      0.000000     -1.668152 electrons x Angstroem
 Tr[quadrupol]    -10256.365574

 energy correction for charged system         0.000000 eV
 dipol+quadrupol energy correction           -0.098056 eV
 added-field ion interaction          0.000000 eV  (added to PSCEN)


 Broyden mixing:
  rms(total) = 0.47163E+01    rms(broyden)= 0.47160E+01
  rms(prec ) = 0.59026E+01
  weight for this iteration     100.00

 eigenvalues of (default mixing * dielectric matrix)
  average eigenvalue GAMMA=   1.0200
  2.2125  0.5707  0.2769

 Free energy of the ion-electron system (eV)
  ---------------------------------------------------
  alpha Z        PSCENC =       805.77130825
  Ewald energy   TEWEN  =    201111.67930905
  -Hartree energ DENC   =   -243156.80770324
  -exchange      EXHF   =         0.00000000
  -V(xc)+E(xc)   XCENC  =      -343.33775326
  PAW double counting   =     48268.16869434   -46335.81901941
  entropy T*S    EENTRO =        -0.27025751
  eigenvalues    EBANDS =     -2231.54016132
  atomic energy  EATOM  =     41659.78587232
  Solvation  Ediel_sol  =         0.00000000
  ---------------------------------------------------
  free energy    TOTEN  =      -222.36971078 eV

  energy without entropy =     -222.09945327  energy(sigma->0) =     -222.23458202


--------------------------------------------------------------------------------------------------------




----------------------------------------- Iteration    1(   9)  ---------------------------------------


    POTLOK:  cpu time    0.0443: real time    0.0444
    SETDIJ:  cpu time    0.0054: real time    0.0054
    EDDIAG:  cpu time    1.4499: real time    1.4557
  RMM-DIIS:  cpu time    4.7521: real time    4.7689
    ORTHCH:  cpu time    0.3915: real time    0.3955
       DOS:  cpu time    0.0014: real time    0.0014
    CHARGE:  cpu time    0.2237: real time    0.2242
    MIXING:  cpu time    0.0026: real time    0.0026
    --------------------------------------------
      LOOP:  cpu time    6.8717: real time    6.9019

 eigenvalue-minimisations  :  3673
 total energy-change (2. order) : 0.1184055E+02  (-0.3776928E+01)
 number of electron     503.9998356 magnetization 
 augmentation part      196.2844970 magnetization 

 DIPCOR: dipole corrections for dipol
 direction  3 min pos     1,
 dipolmoment           0.000000      0.000000      0.931534 electrons x Angstroem
 Tr[quadrupol]    -10256.724715

 energy correction for charged system         0.000000 eV
 dipol+quadrupol energy correction           -0.030577 eV
 added-field ion interaction         -0.000000 eV  (added to PSCEN)


 Broyden mixing:
  rms(total) = 0.42830E+01    rms(broyden)= 0.42827E+01
  rms(prec ) = 0.52338E+01
  weight for this iteration     100.00

 eigenvalues of (default mixing * dielectric matrix)
  average eigenvalue GAMMA=   0.8289
  2.2900  0.5686  0.2920  0.1652

 Free energy of the ion-electron system (eV)
  ---------------------------------------------------
  alpha Z        PSCENC =       805.83878691
  Ewald energy   TEWEN  =    201111.67930905
  -Hartree energ DENC   =   -243142.34640684
  -exchange      EXHF   =         0.00000000
  -V(xc)+E(xc)   XCENC  =      -344.29996806
  PAW double counting   =     49146.63387831   -47227.74061754
  entropy T*S    EENTRO =        -0.14066338
  eigenvalues    EBANDS =     -2219.93935388
  atomic energy  EATOM  =     41659.78587232
  Solvation  Ediel_sol  =         0.00000000
  ---------------------------------------------------
  free energy    TOTEN  =      -210.52916311 eV

  energy without entropy =     -210.38849974  energy(sigma->0) =     -210.45883142


--------------------------------------------------------------------------------------------------------




----------------------------------------- Iteration    1(  10)  ---------------------------------------


    POTLOK:  cpu time    0.0457: real time    0.0458
    SETDIJ:  cpu time    0.0050: real time    0.0055
    EDDIAG:  cpu time    1.4793: real time    1.4846
  RMM-DIIS:  cpu time    4.8161: real time    4.8297
    ORTHCH:  cpu time    0.3711: real time    0.3720
       DOS:  cpu time    0.0014: real time    0.0014
    CHARGE:  cpu time    0.2254: real time    0.2259
    MIXING:  cpu time    0.0029: real time    0.0029
    --------------------------------------------
      LOOP:  cpu time    6.9476: real time    6.9725

 eigenvalue-minimisations  :  3682
 total energy-change (2. order) : 0.1744419E+02  (-0.1521586E+01)
 number of electron     503.9998344 magnetization 
 augmentation part      198.6295904 magnetization 

 DIPCOR: dipole corrections for dipol
 direction  3 min pos     1,
 dipolmoment           0.000000      0.000000      0.109315 electrons x Angstroem
 Tr[quadrupol]    -10256.720873

 energy correction for charged system         0.000000 eV
 dipol+quadrupol energy correction           -0.000421 eV
 added-field ion interaction          0.000000 eV  (added to PSCEN)


 Broyden mixing:
  rms(total) = 0.16861E+01    rms(broyden)= 0.16859E+01
  rms(prec ) = 0.18872E+01
  weight for this iteration     100.00

 eigenvalues of (default mixing * dielectric matrix)
  average eigenvalue GAMMA=   0.7441
  2.2991  0.4958  0.4958  0.2588  0.1712

 Free energy of the ion-electron system (eV)
  ---------------------------------------------------
  alpha Z        PSCENC =       805.86894321
  Ewald energy   TEWEN  =    201111.67930905
  -Hartree energ DENC   =   -243138.77414958
  -exchange      EXHF   =         0.00000000
  -V(xc)+E(xc)   XCENC  =      -344.49501856
  PAW double counting   =     49370.05309170   -47454.68220740
  entropy T*S    EENTRO =        -0.20795217
  eigenvalues    EBANDS =     -2202.31286261
  atomic energy  EATOM  =     41659.78587232
  Solvation  Ediel_sol  =         0.00000000
  ---------------------------------------------------
  free energy    TOTEN  =      -193.08497404 eV

  energy without entropy =     -192.87702188  energy(sigma->0) =     -192.98099796


--------------------------------------------------------------------------------------------------------




----------------------------------------- Iteration    1(  11)  ---------------------------------------


    POTLOK:  cpu time    0.0443: real time    0.0444
    SETDIJ:  cpu time    0.0062: real time    0.0063
    EDDIAG:  cpu time    1.4439: real time    1.4501
  RMM-DIIS:  cpu time    4.7872: real time    4.8150
    ORTHCH:  cpu time    0.3587: real time    0.3849
       DOS:  cpu time    0.0016: real time    0.0017
    CHARGE:  cpu time    0.2239: real time    0.2421
    MIXING:  cpu time    0.0028: real time    0.0028
    --------------------------------------------
      LOOP:  cpu time    6.8697: real time    6.9497

 eigenvalue-minimisations  :  3681
 total energy-change (2. order) : 0.4882094E+01  (-0.6622989E+00)
 number of electron     503.9998353 magnetization 
 augmentation part      198.5905499 magnetization 

 DIPCOR: dipole corrections for dipol
 direction  3 min pos     1,
 dipolmoment           0.000000      0.000000      0.113037 electrons x Angstroem
 Tr[quadrupol]    -10256.622921

 energy correction for charged system         0.000000 eV
 dipol+quadrupol energy correction           -0.000450 eV
 added-field ion interaction          0.000000 eV  (added to PSCEN)


 Broyden mixing:
  rms(total) = 0.77670E+00    rms(broyden)= 0.77652E+00
  rms(prec ) = 0.87676E+00
  weight for this iteration     100.00

 eigenvalues of (default mixing * dielectric matrix)
  average eigenvalue GAMMA=   0.7293
  2.3075  0.6230  0.6230  0.3278  0.3278  0.1667

 Free energy of the ion-electron system (eV)
  ---------------------------------------------------
  alpha Z        PSCENC =       805.86891404
  Ewald energy   TEWEN  =    201111.67930905
  -Hartree energ DENC   =   -243146.51762277
  -exchange      EXHF   =         0.00000000
  -V(xc)+E(xc)   XCENC  =      -344.17389124
  PAW double counting   =     49444.90130802   -47528.73683237
  entropy T*S    EENTRO =        -0.19067212
  eigenvalues    EBANDS =     -2190.81926484
  atomic energy  EATOM  =     41659.78587232
  Solvation  Ediel_sol  =         0.00000000
  ---------------------------------------------------
  free energy    TOTEN  =      -188.20287991 eV

  energy without entropy =     -188.01220779  energy(sigma->0) =     -188.10754385


--------------------------------------------------------------------------------------------------------




----------------------------------------- Iteration    1(  12)  ---------------------------------------


    POTLOK:  cpu time    0.0454: real time    0.0456
    SETDIJ:  cpu time    0.0054: real time    0.0054
    EDDIAG:  cpu time    1.4703: real time    1.4745
  RMM-DIIS:  cpu time    4.7731: real time    4.7908
    ORTHCH:  cpu time    0.3654: real time    0.3663
       DOS:  cpu time    0.0014: real time    0.0014
    CHARGE:  cpu time    0.2194: real time    0.2199
    MIXING:  cpu time    0.0028: real time    0.0028
    --------------------------------------------
      LOOP:  cpu time    6.8841: real time    6.9242

 eigenvalue-minimisations  :  3678
 total energy-change (2. order) : 0.6197125E+00  (-0.3955808E+00)
 number of electron     503.9998358 magnetization 
 augmentation part      197.5392634 magnetization 

 DIPCOR: dipole corrections for dipol
 direction  3 min pos     1,
 dipolmoment           0.000000      0.000000      0.018901 electrons x Angstroem
 Tr[quadrupol]    -10257.349256

 energy correction for charged system         0.000000 eV
 dipol+quadrupol energy correction           -0.000013 eV
 added-field ion interaction          0.000000 eV  (added to PSCEN)


 Broyden mixing:
  rms(total) = 0.91475E+00    rms(broyden)= 0.91458E+00
  rms(prec ) = 0.10236E+01
  weight for this iteration     100.00

 eigenvalues of (default mixing * dielectric matrix)
  average eigenvalue GAMMA=   0.6826
  2.2971  0.6997  0.5261  0.5261  0.2823  0.2823  0.1649

 Free energy of the ion-electron system (eV)
  ---------------------------------------------------
  alpha Z        PSCENC =       805.86935170
  Ewald energy   TEWEN  =    201111.67930905
  -Hartree energ DENC   =   -243192.76162868
  -exchange      EXHF   =         0.00000000
  -V(xc)+E(xc)   XCENC  =      -343.65584429
  PAW double counting   =     49527.00820160   -47608.56784482
  entropy T*S    EENTRO =        -0.19180727
  eigenvalues    EBANDS =     -2146.74877707
  atomic energy  EATOM  =     41659.78587232
  Solvation  Ediel_sol  =         0.00000000
  ---------------------------------------------------
  free energy    TOTEN  =      -187.58316746 eV

  energy without entropy =     -187.39136019  energy(sigma->0) =     -187.48726382


--------------------------------------------------------------------------------------------------------




----------------------------------------- Iteration    1(  13)  ---------------------------------------


    POTLOK:  cpu time    0.0440: real time    0.0441
    SETDIJ:  cpu time    0.0054: real time    0.0054
    EDDIAG:  cpu time    1.4202: real time    1.4243
  RMM-DIIS:  cpu time    4.7924: real time    4.8063
    ORTHCH:  cpu time    0.3657: real time    0.3666
       DOS:  cpu time    0.0015: real time    0.0015
    CHARGE:  cpu time    0.2223: real time    0.2229
    MIXING:  cpu time    0.0029: real time    0.0029
    --------------------------------------------
      LOOP:  cpu time    6.8553: real time    6.8766

 eigenvalue-minimisations  :  3678
 total energy-change (2. order) : 0.3656003E+00  (-0.1242290E+00)
 number of electron     503.9998368 magnetization 
 augmentation part      197.3024130 magnetization 

 DIPCOR: dipole corrections for dipol
 direction  3 min pos     1,
 dipolmoment           0.000000      0.000000      0.029482 electrons x Angstroem
 Tr[quadrupol]    -10257.287395

 energy correction for charged system         0.000000 eV
 dipol+quadrupol energy correction           -0.000031 eV
 added-field ion interaction          0.000000 eV  (added to PSCEN)


 Broyden mixing:
  rms(total) = 0.52173E+00    rms(broyden)= 0.52151E+00
  rms(prec ) = 0.57466E+00
  weight for this iteration     100.00

 eigenvalues of (default mixing * dielectric matrix)
  average eigenvalue GAMMA=   0.6760
  2.2917  0.7987  0.6419  0.6419  0.3504  0.2874  0.1647  0.2315

 Free energy of the ion-electron system (eV)
  ---------------------------------------------------
  alpha Z        PSCENC =       805.86933366
  Ewald energy   TEWEN  =    201111.67930905
  -Hartree energ DENC   =   -243196.45251967
  -exchange      EXHF   =         0.00000000
  -V(xc)+E(xc)   XCENC  =      -343.40319953
  PAW double counting   =     49541.32781764   -47622.08049075
  entropy T*S    EENTRO =        -0.19516991
  eigenvalues    EBANDS =     -2143.74851993
  atomic energy  EATOM  =     41659.78587232
  Solvation  Ediel_sol  =         0.00000000
  ---------------------------------------------------
  free energy    TOTEN  =      -187.21756713 eV

  energy without entropy =     -187.02239723  energy(sigma->0) =     -187.11998218


--------------------------------------------------------------------------------------------------------




----------------------------------------- Iteration    1(  14)  ---------------------------------------


    POTLOK:  cpu time    0.0453: real time    0.0454
    SETDIJ:  cpu time    0.0054: real time    0.0054
    EDDIAG:  cpu time    1.4401: real time    1.4478
  RMM-DIIS:  cpu time    4.7041: real time    4.7171
    ORTHCH:  cpu time    0.3666: real time    0.3677
       DOS:  cpu time    0.0015: real time    0.0015
    CHARGE:  cpu time    0.2256: real time    0.2261
    MIXING:  cpu time    0.0031: real time    0.0031
    --------------------------------------------
      LOOP:  cpu time    6.7925: real time    6.8273

 eigenvalue-minimisations  :  3680
 total energy-change (2. order) : 0.1157302E+00  (-0.4201972E-01)
 number of electron     503.9998367 magnetization 
 augmentation part      197.3845503 magnetization 

 DIPCOR: dipole corrections for dipol
 direction  3 min pos     1,
 dipolmoment           0.000000      0.000000      0.084069 electrons x Angstroem
 Tr[quadrupol]    -10257.327703

 energy correction for charged system         0.000000 eV
 dipol+quadrupol energy correction           -0.000249 eV
 added-field ion interaction          0.000000 eV  (added to PSCEN)


 Broyden mixing:
  rms(total) = 0.41681E+00    rms(broyden)= 0.41675E+00
  rms(prec ) = 0.46696E+00
  weight for this iteration     100.00

 eigenvalues of (default mixing * dielectric matrix)
  average eigenvalue GAMMA=   0.7089
  2.3138  0.9006  0.9006  0.9141  0.4076  0.2829  0.2829  0.1657  0.2122

 Free energy of the ion-electron system (eV)
  ---------------------------------------------------
  alpha Z        PSCENC =       805.86911524
  Ewald energy   TEWEN  =    201111.67930905
  -Hartree energ DENC   =   -243198.00127399
  -exchange      EXHF   =         0.00000000
  -V(xc)+E(xc)   XCENC  =      -343.32820486
  PAW double counting   =     49542.69829290   -47623.12330965
  entropy T*S    EENTRO =        -0.20371328
  eigenvalues    EBANDS =     -2142.47792471
  atomic energy  EATOM  =     41659.78587232
  Solvation  Ediel_sol  =         0.00000000
  ---------------------------------------------------
  free energy    TOTEN  =      -187.10183697 eV

  energy without entropy =     -186.89812369  energy(sigma->0) =     -186.99998033


--------------------------------------------------------------------------------------------------------




----------------------------------------- Iteration    1(  15)  ---------------------------------------


    POTLOK:  cpu time    0.0440: real time    0.0441
    SETDIJ:  cpu time    0.0055: real time    0.0055
    EDDIAG:  cpu time    1.4381: real time    1.4438
  RMM-DIIS:  cpu time    4.8117: real time    4.8280
    ORTHCH:  cpu time    0.3667: real time    0.3679
       DOS:  cpu time    0.0014: real time    0.0014
    CHARGE:  cpu time    0.2173: real time    0.2179
    MIXING:  cpu time    0.0033: real time    0.0033
    --------------------------------------------
      LOOP:  cpu time    6.8889: real time    6.9160

 eigenvalue-minimisations  :  3678
 total energy-change (2. order) : 0.2928330E-01  (-0.3151076E-01)
 number of electron     503.9998363 magnetization 
 augmentation part      197.5348836 magnetization 

 DIPCOR: dipole corrections for dipol
 direction  3 min pos     1,
 dipolmoment           0.000000      0.000000      0.019274 electrons x Angstroem
 Tr[quadrupol]    -10257.742852

 energy correction for charged system         0.000000 eV
 dipol+quadrupol energy correction           -0.000013 eV
 added-field ion interaction         -0.000000 eV  (added to PSCEN)


 Broyden mixing:
  rms(total) = 0.31146E+00    rms(broyden)= 0.31141E+00
  rms(prec ) = 0.34993E+00
  weight for this iteration     100.00

 eigenvalues of (default mixing * dielectric matrix)
  average eigenvalue GAMMA=   0.6948
  2.2858  1.0881  1.0881  0.7891  0.3954  0.3954  0.2627  0.2627  0.1659  0.2150

 Free energy of the ion-electron system (eV)
  ---------------------------------------------------
  alpha Z        PSCENC =       805.86935120
  Ewald energy   TEWEN  =    201111.67930905
  -Hartree energ DENC   =   -243211.92969859
  -exchange      EXHF   =         0.00000000
  -V(xc)+E(xc)   XCENC  =      -343.24894257
  PAW double counting   =     49563.77414020   -47643.81155635
  entropy T*S    EENTRO =        -0.21947095
  eigenvalues    EBANDS =     -2128.97155796
  atomic energy  EATOM  =     41659.78587232
  Solvation  Ediel_sol  =         0.00000000
  ---------------------------------------------------
  free energy    TOTEN  =      -187.07255367 eV

  energy without entropy =     -186.85308272  energy(sigma->0) =     -186.96281819


--------------------------------------------------------------------------------------------------------




----------------------------------------- Iteration    1(  16)  ---------------------------------------


    POTLOK:  cpu time    0.0445: real time    0.0446
    SETDIJ:  cpu time    0.0052: real time    0.0052
    EDDIAG:  cpu time    1.4697: real time    1.4778
  RMM-DIIS:  cpu time    4.8147: real time    4.8282
    ORTHCH:  cpu time    0.3640: real time    0.3651
       DOS:  cpu time    0.0013: real time    0.0013
    CHARGE:  cpu time    0.2215: real time    0.2256
    MIXING:  cpu time    0.0037: real time    0.0037
    --------------------------------------------
      LOOP:  cpu time    6.9253: real time    6.9609

 eigenvalue-minimisations  :  3679
 total energy-change (2. order) : 0.8759175E-01  (-0.6127181E-02)
 number of electron     503.9998363 magnetization 
 augmentation part      197.4749434 magnetization 

 DIPCOR: dipole corrections for dipol
 direction  3 min pos     1,
 dipolmoment           0.000000      0.000000      0.031203 electrons x Angstroem
 Tr[quadrupol]    -10257.937930

 energy correction for charged system         0.000000 eV
 dipol+quadrupol energy correction           -0.000034 eV
 added-field ion interaction          0.000000 eV  (added to PSCEN)


 Broyden mixing:
  rms(total) = 0.22326E+00    rms(broyden)= 0.22324E+00
  rms(prec ) = 0.25362E+00
  weight for this iteration     100.00

 eigenvalues of (default mixing * dielectric matrix)
  average eigenvalue GAMMA=   0.7391
  2.1303  1.7741  1.3021  0.5473  0.5473  0.5531  0.3583  0.2743  0.2743  0.1660
  0.2029

 Free energy of the ion-electron system (eV)
  ---------------------------------------------------
  alpha Z        PSCENC =       805.86932998
  Ewald energy   TEWEN  =    201111.67930905
  -Hartree energ DENC   =   -243221.95737391
  -exchange      EXHF   =         0.00000000
  -V(xc)+E(xc)   XCENC  =      -343.12668190
  PAW double counting   =     49560.76121273   -47639.99319891
  entropy T*S    EENTRO =        -0.21634703
  eigenvalues    EBANDS =     -2119.78708425
  atomic energy  EATOM  =     41659.78587232
  Solvation  Ediel_sol  =         0.00000000
  ---------------------------------------------------
  free energy    TOTEN  =      -186.98496192 eV

  energy without entropy =     -186.76861489  energy(sigma->0) =     -186.87678841


--------------------------------------------------------------------------------------------------------




----------------------------------------- Iteration    1(  17)  ---------------------------------------


    POTLOK:  cpu time    0.0464: real time    0.0468
    SETDIJ:  cpu time    0.0056: real time    0.0056
    EDDIAG:  cpu time    1.4257: real time    1.4304
  RMM-DIIS:  cpu time    4.6804: real time    4.7890
    ORTHCH:  cpu time    0.3666: real time    0.3678
       DOS:  cpu time    0.0014: real time    0.0014
    CHARGE:  cpu time    0.2219: real time    0.2225
    MIXING:  cpu time    0.0036: real time    0.0036
    --------------------------------------------
      LOOP:  cpu time    6.7525: real time    6.8755

 eigenvalue-minimisations  :  3678
 total energy-change (2. order) : 0.6624560E-01  (-0.6562289E-02)
 number of electron     503.9998366 magnetization 
 augmentation part      197.2999926 magnetization 

 DIPCOR: dipole corrections for dipol
 direction  3 min pos     1,
 dipolmoment           0.000000      0.000000      0.020845 electrons x Angstroem
 Tr[quadrupol]    -10258.316267

 energy correction for charged system         0.000000 eV
 dipol+quadrupol energy correction           -0.000015 eV
 added-field ion interaction          0.000000 eV  (added to PSCEN)


 Broyden mixing:
  rms(total) = 0.12648E+00    rms(broyden)= 0.12647E+00
  rms(prec ) = 0.14358E+00
  weight for this iteration     100.00

 eigenvalues of (default mixing * dielectric matrix)
  average eigenvalue GAMMA=   0.7768
  2.2647  2.2647  1.2299  0.6105  0.6105  0.6275  0.4732  0.3223  0.2742  0.2742
  0.1660  0.2045

 Free energy of the ion-electron system (eV)
  ---------------------------------------------------
  alpha Z        PSCENC =       805.86934897
  Ewald energy   TEWEN  =    201111.67930905
  -Hartree energ DENC   =   -243239.99320309
  -exchange      EXHF   =         0.00000000
  -V(xc)+E(xc)   XCENC  =      -342.94558102
  PAW double counting   =     49563.42493115   -47641.46834546
  entropy T*S    EENTRO =        -0.21774333
  eigenvalues    EBANDS =     -2103.05330491
  atomic energy  EATOM  =     41659.78587232
  Solvation  Ediel_sol  =         0.00000000
  ---------------------------------------------------
  free energy    TOTEN  =      -186.91871632 eV

  energy without entropy =     -186.70097298  energy(sigma->0) =     -186.80984465


--------------------------------------------------------------------------------------------------------




----------------------------------------- Iteration    1(  18)  ---------------------------------------


    POTLOK:  cpu time    0.0444: real time    0.0445
    SETDIJ:  cpu time    0.0054: real time    0.0054
    EDDIAG:  cpu time    1.4359: real time    1.4401
  RMM-DIIS:  cpu time    4.7915: real time    4.8184
    ORTHCH:  cpu time    0.3646: real time    0.3655
       DOS:  cpu time    0.0014: real time    0.0014
    CHARGE:  cpu time    0.2325: real time    0.2333
    MIXING:  cpu time    0.0038: real time    0.0039
    --------------------------------------------
      LOOP:  cpu time    6.8803: real time    6.9167

 eigenvalue-minimisations  :  3678
 total energy-change (2. order) : 0.1694646E-01  (-0.3512689E-02)
 number of electron     503.9998367 magnetization 
 augmentation part      197.2008905 magnetization 

 DIPCOR: dipole corrections for dipol
 direction  3 min pos     1,
 dipolmoment           0.000000      0.000000      0.024954 electrons x Angstroem
 Tr[quadrupol]    -10258.597756

 energy correction for charged system         0.000000 eV
 dipol+quadrupol energy correction           -0.000022 eV
 added-field ion interaction          0.000000 eV  (added to PSCEN)


 Broyden mixing:
  rms(total) = 0.74375E-01    rms(broyden)= 0.74345E-01
  rms(prec ) = 0.86921E-01
  weight for this iteration     100.00

 eigenvalues of (default mixing * dielectric matrix)
  average eigenvalue GAMMA=   0.7517
  2.1303  2.1303  1.4139  0.8491  0.6303  0.6303  0.4392  0.3617  0.1660  0.2708
  0.2708  0.2040  0.2750

 Free energy of the ion-electron system (eV)
  ---------------------------------------------------
  alpha Z        PSCENC =       805.86934234
  Ewald energy   TEWEN  =    201111.67930905
  -Hartree energ DENC   =   -243252.08130131
  -exchange      EXHF   =         0.00000000
  -V(xc)+E(xc)   XCENC  =      -342.84919926
  PAW double counting   =     49573.74109254   -47651.22331590
  entropy T*S    EENTRO =        -0.21885732
  eigenvalues    EBANDS =     -2091.60471231
  atomic energy  EATOM  =     41659.78587232
  Solvation  Ediel_sol  =         0.00000000
  ---------------------------------------------------
  free energy    TOTEN  =      -186.90176986 eV

  energy without entropy =     -186.68291254  energy(sigma->0) =     -186.79234120


--------------------------------------------------------------------------------------------------------




----------------------------------------- Iteration    1(  19)  ---------------------------------------


    POTLOK:  cpu time    0.0446: real time    0.0449
    SETDIJ:  cpu time    0.0054: real time    0.0054
    EDDIAG:  cpu time    1.4398: real time    1.4448
  RMM-DIIS:  cpu time    4.7992: real time    4.8129
    ORTHCH:  cpu time    0.3655: real time    0.3664
       DOS:  cpu time    0.0014: real time    0.0014
    CHARGE:  cpu time    0.2157: real time    0.2165
    MIXING:  cpu time    0.0039: real time    0.0039
    --------------------------------------------
      LOOP:  cpu time    6.8765: real time    6.8996

 eigenvalue-minimisations  :  3680
 total energy-change (2. order) : 0.5095166E-02  (-0.7827605E-03)
 number of electron     503.9998367 magnetization 
 augmentation part      197.2009512 magnetization 

 DIPCOR: dipole corrections for dipol
 direction  3 min pos     1,
 dipolmoment           0.000000      0.000000      0.013648 electrons x Angstroem
 Tr[quadrupol]    -10258.649341

 energy correction for charged system         0.000000 eV
 dipol+quadrupol energy correction           -0.000007 eV
 added-field ion interaction          0.000000 eV  (added to PSCEN)


 Broyden mixing:
  rms(total) = 0.37787E-01    rms(broyden)= 0.37771E-01
  rms(prec ) = 0.42498E-01
  weight for this iteration     100.00

 eigenvalues of (default mixing * dielectric matrix)
  average eigenvalue GAMMA=   0.7399
  2.1743  2.1743  1.4253  0.8448  0.6564  0.6564  0.4719  0.4719  0.3270  0.2743
  0.2743  0.1660  0.2039  0.2376

 Free energy of the ion-electron system (eV)
  ---------------------------------------------------
  alpha Z        PSCENC =       805.86935772
  Ewald energy   TEWEN  =    201111.67930905
  -Hartree energ DENC   =   -243253.50106281
  -exchange      EXHF   =         0.00000000
  -V(xc)+E(xc)   XCENC  =      -342.84770713
  PAW double counting   =     49578.60546112   -47656.15016786
  entropy T*S    EENTRO =        -0.21410431
  eigenvalues    EBANDS =     -2090.12363280
  atomic energy  EATOM  =     41659.78587232
  Solvation  Ediel_sol  =         0.00000000
  ---------------------------------------------------
  free energy    TOTEN  =      -186.89667469 eV

  energy without entropy =     -186.68257039  energy(sigma->0) =     -186.78962254


--------------------------------------------------------------------------------------------------------




----------------------------------------- Iteration    1(  20)  ---------------------------------------


    POTLOK:  cpu time    0.0445: real time    0.0446
    SETDIJ:  cpu time    0.0047: real time    0.0055
    EDDIAG:  cpu time    1.4694: real time    1.4743
  RMM-DIIS:  cpu time    4.8012: real time    4.8146
    ORTHCH:  cpu time    0.3652: real time    0.3660
       DOS:  cpu time    0.0014: real time    0.0014
    CHARGE:  cpu time    0.2183: real time    0.2188
    MIXING:  cpu time    0.0042: real time    0.0042
    --------------------------------------------
      LOOP:  cpu time    6.9096: real time    6.9324

 eigenvalue-minimisations  :  3680
 total energy-change (2. order) : 0.1308569E-02  (-0.2106430E-03)
 number of electron     503.9998367 magnetization 
 augmentation part      197.1917823 magnetization 

 DIPCOR: dipole corrections for dipol
 direction  3 min pos     1,
 dipolmoment           0.000000      0.000000      0.014633 electrons x Angstroem
 Tr[quadrupol]    -10258.745340

 energy correction for charged system         0.000000 eV
 dipol+quadrupol energy correction           -0.000008 eV
 added-field ion interaction         -0.000000 eV  (added to PSCEN)


 Broyden mixing:
  rms(total) = 0.25680E-01    rms(broyden)= 0.25674E-01
  rms(prec ) = 0.29116E-01
  weight for this iteration     100.00

 eigenvalues of (default mixing * dielectric matrix)
  average eigenvalue GAMMA=   0.7613
  2.2407  2.2407  1.3809  0.9853  0.9853  0.6064  0.6064  0.5527  0.3453  0.3290
  0.2738  0.2738  0.1660  0.2038  0.2300

 Free energy of the ion-electron system (eV)
  ---------------------------------------------------
  alpha Z        PSCENC =       805.86935674
  Ewald energy   TEWEN  =    201111.67930905
  -Hartree energ DENC   =   -243257.00154242
  -exchange      EXHF   =         0.00000000
  -V(xc)+E(xc)   XCENC  =      -342.83156087
  PAW double counting   =     49580.39285787   -47657.86038049
  entropy T*S    EENTRO =        -0.21545775
  eigenvalues    EBANDS =     -2086.71382058
  atomic energy  EATOM  =     41659.78587232
  Solvation  Ediel_sol  =         0.00000000
  ---------------------------------------------------
  free energy    TOTEN  =      -186.89536613 eV

  energy without entropy =     -186.67990838  energy(sigma->0) =     -186.78763725


--------------------------------------------------------------------------------------------------------




----------------------------------------- Iteration    1(  21)  ---------------------------------------


    POTLOK:  cpu time    0.0445: real time    0.0450
    SETDIJ:  cpu time    0.0055: real time    0.0055
    EDDIAG:  cpu time    1.4271: real time    1.4307
  RMM-DIIS:  cpu time    4.7888: real time    4.8024
    ORTHCH:  cpu time    0.3675: real time    0.3685
       DOS:  cpu time    0.0013: real time    0.0013
    CHARGE:  cpu time    0.2233: real time    0.2240
    MIXING:  cpu time    0.0042: real time    0.0042
    --------------------------------------------
      LOOP:  cpu time    6.8630: real time    6.8840

 eigenvalue-minimisations  :  3686
 total energy-change (2. order) : 0.5209614E-03  (-0.8775625E-04)
 number of electron     503.9998367 magnetization 
 augmentation part      197.1893225 magnetization 

 DIPCOR: dipole corrections for dipol
 direction  3 min pos     1,
 dipolmoment           0.000000      0.000000      0.011964 electrons x Angstroem
 Tr[quadrupol]    -10258.897749

 energy correction for charged system         0.000000 eV
 dipol+quadrupol energy correction           -0.000005 eV
 added-field ion interaction         -0.000000 eV  (added to PSCEN)


 Broyden mixing:
  rms(total) = 0.18070E-01    rms(broyden)= 0.18065E-01
  rms(prec ) = 0.20831E-01
  weight for this iteration     100.00

 eigenvalues of (default mixing * dielectric matrix)
  average eigenvalue GAMMA=   0.7658
  2.2286  2.2286  1.3116  1.2095  1.2095  0.6061  0.6061  0.6177  0.4512  0.3459
  0.1660  0.2730  0.2730  0.2987  0.2038  0.2241

 Free energy of the ion-electron system (eV)
  ---------------------------------------------------
  alpha Z        PSCENC =       805.86935924
  Ewald energy   TEWEN  =    201111.67930905
  -Hartree energ DENC   =   -243262.42992514
  -exchange      EXHF   =         0.00000000
  -V(xc)+E(xc)   XCENC  =      -342.80824948
  PAW double counting   =     49581.12499557   -47658.50380684
  entropy T*S    EENTRO =        -0.21453496
  eigenvalues    EBANDS =     -2081.39786493
  atomic energy  EATOM  =     41659.78587232
  Solvation  Ediel_sol  =         0.00000000
  ---------------------------------------------------
  free energy    TOTEN  =      -186.89484516 eV

  energy without entropy =     -186.68031020  energy(sigma->0) =     -186.78757768


--------------------------------------------------------------------------------------------------------




----------------------------------------- Iteration    1(  22)  ---------------------------------------


    POTLOK:  cpu time    0.0555: real time    0.0558
    SETDIJ:  cpu time    0.0053: real time    0.0055
    EDDIAG:  cpu time    1.4378: real time    1.4418
  RMM-DIIS:  cpu time    4.7926: real time    4.8058
    ORTHCH:  cpu time    0.3630: real time    0.3748
       DOS:  cpu time    0.0014: real time    0.0014
    CHARGE:  cpu time    0.2249: real time    0.2254
    MIXING:  cpu time    0.0043: real time    0.0044
    --------------------------------------------
      LOOP:  cpu time    6.8861: real time    6.9926

 eigenvalue-minimisations  :  3680
 total energy-change (2. order) : 0.2132707E-05  (-0.6850490E-04)
 number of electron     503.9998367 magnetization 
 augmentation part      197.1899600 magnetization 

 DIPCOR: dipole corrections for dipol
 direction  3 min pos     1,
 dipolmoment           0.000000      0.000000      0.009374 electrons x Angstroem
 Tr[quadrupol]    -10258.990345

 energy correction for charged system         0.000000 eV
 dipol+quadrupol energy correction           -0.000003 eV
 added-field ion interaction          0.000000 eV  (added to PSCEN)


 Broyden mixing:
  rms(total) = 0.15318E-01    rms(broyden)= 0.15313E-01
  rms(prec ) = 0.17716E-01
  weight for this iteration     100.00

 eigenvalues of (default mixing * dielectric matrix)
  average eigenvalue GAMMA=   0.7925
  2.3277  2.3277  1.5825  1.5825  1.1121  0.7294  0.6181  0.6181  0.5033  0.3582
  0.1660  0.3211  0.2734  0.2734  0.2566  0.2038  0.2181

 Free energy of the ion-electron system (eV)
  ---------------------------------------------------
  alpha Z        PSCENC =       805.86936119
  Ewald energy   TEWEN  =    201111.67930905
  -Hartree energ DENC   =   -243265.58512270
  -exchange      EXHF   =         0.00000000
  -V(xc)+E(xc)   XCENC  =      -342.79924795
  PAW double counting   =     49581.50262913   -47658.87657182
  entropy T*S    EENTRO =        -0.21450522
  eigenvalues    EBANDS =     -2078.25656703
  atomic energy  EATOM  =     41659.78587232
  Solvation  Ediel_sol  =         0.00000000
  ---------------------------------------------------
  free energy    TOTEN  =      -186.89484303 eV

  energy without entropy =     -186.68033781  energy(sigma->0) =     -186.78759042


--------------------------------------------------------------------------------------------------------




----------------------------------------- Iteration    1(  23)  ---------------------------------------


    POTLOK:  cpu time    0.0463: real time    0.0465
    SETDIJ:  cpu time    0.0055: real time    0.0055
    EDDIAG:  cpu time    1.4413: real time    1.4502
  RMM-DIIS:  cpu time    4.6895: real time    4.8026
    ORTHCH:  cpu time    0.3645: real time    0.3665
       DOS:  cpu time    0.0014: real time    0.0014
    CHARGE:  cpu time    0.2175: real time    0.2180
    MIXING:  cpu time    0.0045: real time    0.0045
    --------------------------------------------
      LOOP:  cpu time    6.7713: real time    6.9154

 eigenvalue-minimisations  :  3679
 total energy-change (2. order) : 0.5568727E-05  (-0.4644615E-04)
 number of electron     503.9998367 magnetization 
 augmentation part      197.1856362 magnetization 

 DIPCOR: dipole corrections for dipol
 direction  3 min pos     1,
 dipolmoment           0.000000      0.000000      0.009150 electrons x Angstroem
 Tr[quadrupol]    -10259.141076

 energy correction for charged system         0.000000 eV
 dipol+quadrupol energy correction           -0.000003 eV
[...]
    275       1.7034      0.00000
    276       1.7527      0.00000
    277       2.1159      0.00000
    278       2.1598      0.00000
    279       2.1755      0.00000
    280       2.2606      0.00000
    281       2.4389      0.00000
    282       2.4976      0.00000
    283       2.6333      0.00000
    284       2.9709      0.00000
    285       3.1647      0.00000
    286       3.3198      0.00000
    287       3.4734      0.00000
    288       3.5855      0.00000
    289       3.6340      0.00000
    290       3.9353      0.00000
    291       4.0051      0.00000
    292       4.1575      0.00000
    293       4.4040      0.00000
    294       4.5794      0.00000
    295       4.5987      0.00000
    296       4.6393      0.00000
    297       4.7642      0.00000
    298       4.7948      0.00000
    299       4.8860      0.00000
    300       4.9436      0.00000
    301       4.9900      0.00000
    302       5.0425      0.00000
    303       5.0558      0.00000
    304       5.1092      0.00000
    305       5.1653      0.00000
    306       5.2362      0.00000


--------------------------------------------------------------------------------------------------------


 soft charge-density along one line, spin component           1
         0         1         2         3         4         5         6         7         8         9
 total charge-density along one line
 
 pseudopotential strength for first ion, spin component:           1
 -8.024   0.001  -0.000   0.004  -0.000  -8.171   0.001  -0.000
  0.001  -7.942  -0.001  -0.000  -0.008   0.001  -8.091  -0.001
 -0.000  -0.001  -7.932  -0.001  -0.003  -0.000  -0.001  -8.081
  0.004  -0.000  -0.001  -7.935   0.000   0.003  -0.000  -0.001
 -0.000  -0.008  -0.003   0.000  -8.020  -0.000  -0.008  -0.003
 -8.171   0.001  -0.000   0.003  -0.000  -8.302   0.001  -0.000
  0.001  -8.091  -0.001  -0.000  -0.008   0.001  -8.224  -0.001
 -0.000  -0.001  -8.081  -0.001  -0.003  -0.000  -0.001  -8.215
  0.003  -0.000  -0.001  -8.084   0.000   0.003  -0.000  -0.001
 -0.000  -0.008  -0.003   0.000  -8.168  -0.000  -0.007  -0.003
  0.000  -0.003  -0.026  -0.000  -0.002   0.000  -0.003  -0.026
  0.000  -0.005  -0.038  -0.000  -0.003   0.000  -0.005  -0.038
 -0.000  -0.004  -0.004  -0.000  -0.006  -0.000  -0.003  -0.004
 -0.000   0.006  -0.006  -0.000   0.000  -0.000   0.006  -0.005
  0.006  -0.000   0.000  -0.003  -0.000   0.006  -0.000   0.000
 -0.000  -0.003  -0.004  -0.000  -0.008  -0.000  -0.003  -0.004
 -0.000   0.008  -0.006  -0.000   0.000  -0.000   0.008  -0.006
  0.008  -0.000   0.000  -0.003  -0.000   0.008  -0.000   0.000
 total augmentation occupancy for first ion, spin component:           1
  4.123  -0.007  -0.015   0.045  -0.003  -2.343   0.014   0.009  -0.036   0.002  -0.007  -0.000  -0.001   0.002  -0.056  -0.000
 -0.007   4.006  -0.005  -0.013  -0.006   0.014  -1.743  -0.027   0.005  -0.060   0.099   0.010  -0.144  -0.001   0.002   0.004
 -0.015  -0.005   4.273  -0.007   0.151   0.009  -0.027  -2.152  -0.003  -0.153   0.964  -0.093   0.033  -0.208  -0.003  -0.005
  0.045  -0.013  -0.007   4.144   0.007  -0.035   0.005  -0.003  -1.836  -0.006   0.002  -0.002   0.001  -0.002  -0.170  -0.000
 -0.003  -0.006   0.151   0.007   3.956   0.002  -0.061  -0.153  -0.006  -2.141   0.122  -0.042   0.003  -0.016  -0.000  -0.007
 -2.343   0.014   0.009  -0.035   0.002   2.434  -0.019  -0.005   0.028  -0.001   0.007  -0.000   0.002  -0.001   0.043  -0.000
  0.014  -1.743  -0.027   0.005  -0.061  -0.019   1.452   0.049   0.001   0.109  -0.092  -0.004   0.135  -0.004  -0.001  -0.005
  0.009  -0.027  -2.152  -0.003  -0.153  -0.005   0.049   1.975   0.011   0.154  -0.897   0.109  -0.024   0.211   0.003   0.001
 -0.036   0.005  -0.003  -1.836  -0.006   0.028   0.001   0.011   1.508   0.006  -0.002   0.002  -0.001   0.004   0.159   0.000
  0.002  -0.060  -0.153  -0.006  -2.141  -0.001   0.109   0.154   0.006   2.207  -0.113   0.041   0.005   0.015   0.001   0.001
 -0.007   0.099   0.964   0.002   0.122   0.007  -0.092  -0.897  -0.002  -0.113   2.325  -0.458   0.006   0.113   0.003  -0.000
 -0.000   0.010  -0.093  -0.002  -0.042  -0.000  -0.004   0.109   0.002   0.041  -0.458   0.134  -0.025  -0.053  -0.001   0.001
 -0.001  -0.144   0.033   0.001   0.003   0.002   0.135  -0.024  -0.001   0.005   0.006  -0.025   0.190  -0.008   0.001  -0.006
  0.002  -0.001  -0.208  -0.002  -0.016  -0.001  -0.004   0.211   0.004   0.015   0.113  -0.053  -0.008   0.086  -0.000   0.000
 -0.056   0.002  -0.003  -0.170  -0.000   0.043  -0.001   0.003   0.159   0.001   0.003  -0.001   0.001  -0.000   0.177  -0.000
 -0.000   0.004  -0.005  -0.000  -0.007  -0.000  -0.005   0.001   0.000   0.001  -0.000   0.001  -0.006   0.000  -0.000   0.000
 -0.000   0.008   0.001  -0.000   0.000   0.000  -0.002  -0.006  -0.000  -0.000  -0.007   0.002   0.000  -0.003   0.000  -0.000
  0.009  -0.000   0.000   0.005  -0.000  -0.003   0.000   0.000  -0.006  -0.000  -0.000   0.000  -0.000   0.000  -0.005  -0.000


------------------------ aborting loop because EDIFF is reached ----------------------------------------


    CHARGE:  cpu time    0.2152: real time    0.2160
    FORLOC:  cpu time    0.0159: real time    0.0159
    FORNL :  cpu time    1.6597: real time    1.6643
    FORCOR:  cpu time    0.0597: real time    0.0615
    FORHAR:  cpu time    0.0251: real time    0.0252
    MIXING:  cpu time    0.0030: real time    0.0030
    OFIELD:  cpu time    0.0000: real time    0.0000

 VOLUME and BASIS-vectors are now :
 -----------------------------------------------------------------------------
  energy-cutoff  :      400.00
  volume of cell :     2567.68
      direct lattice vectors                 reciprocal lattice vectors
    11.002581515  0.000000000  0.000000000     0.090887761 -0.052474073  0.000000000
     5.501290758  9.528515099  0.000000000     0.000000000  0.104948147  0.000000000
     0.000000000  0.000000000 24.491785094     0.000000000  0.000000000  0.040830017

  length of vectors
    11.002581515 11.002581515 24.491785094     0.104948147  0.104948147  0.040830017


 FORCES acting on ions
    electron-ion (+dipol)            ewald-force                    non-local-force                 convergence-correction
 -----------------------------------------------------------------------------------------------
   0.533E+01 0.201E+02 0.229E+04   -.527E+01 -.214E+02 -.229E+04   -.753E-01 0.128E+01 0.107E-01   0.899E-02 0.513E-02 -.123E-01
   0.198E+02 -.734E+01 0.228E+04   -.206E+02 0.762E+01 -.228E+04   0.796E+00 -.288E+00 -.258E-01   0.166E-01 0.705E-02 -.274E-02
   -.128E+02 0.267E+01 -.423E+01   0.118E+02 -.265E+01 0.422E+01   0.992E+00 -.297E-01 -.647E-02   0.210E-01 0.130E-01 0.111E-01
   -.451E+01 -.301E+01 -.258E+02   0.466E+01 0.238E+01 0.253E+02   -.144E+00 0.646E+00 0.445E+00   -.818E-02 -.181E-01 -.491E-02
   -.203E+00 0.674E+01 -.209E+02   0.220E+00 -.656E+01 0.203E+02   -.413E-01 -.189E+00 0.502E+00   0.280E-01 0.998E-02 0.184E-01
   0.635E+00 0.540E+01 -.232E+04   -.728E+00 -.532E+01 0.232E+04   0.818E-01 -.940E-01 -.119E+00   0.109E-01 0.205E-01 0.140E-01
   -.464E+01 -.174E+01 -.516E+02   0.468E+01 0.179E+01 0.499E+02   -.392E-01 -.243E-01 0.165E+01   0.447E-02 -.219E-01 -.718E-02
   -.165E+01 0.102E+02 -.231E+04   0.114E+01 -.108E+02 0.231E+04   0.522E+00 0.635E+00 0.106E+00   -.200E-01 -.103E-01 -.332E-01
   0.213E+02 0.132E+02 0.227E+04   -.223E+02 -.135E+02 -.227E+04   0.957E+00 0.273E+00 -.846E-01   -.903E-03 0.693E-02 0.383E-02
   0.136E+02 -.387E+01 0.367E+02   -.133E+02 0.425E+01 -.358E+02   -.259E+00 -.364E+00 -.956E+00   -.332E-02 -.108E-01 -.312E-02
   -.330E+01 0.518E+01 -.222E+02   0.368E+01 -.447E+01 0.218E+02   -.369E+00 -.690E+00 0.430E+00   -.178E-01 -.194E-01 0.704E-03
   0.162E+02 -.133E+02 0.293E+02   -.162E+02 0.126E+02 -.287E+02   0.161E-01 0.645E+00 -.527E+00   0.124E-01 0.556E-02 0.595E-02
   -.119E+02 -.114E+02 -.228E+04   0.121E+02 0.122E+02 0.228E+04   -.269E+00 -.714E+00 -.116E+00   0.115E-01 -.176E-02 -.119E-01
   -.321E+01 0.167E+02 -.229E+04   0.393E+01 -.172E+02 0.229E+04   -.720E+00 0.479E+00 0.540E-01   -.933E-02 0.343E-03 -.447E-02
   -.674E+01 -.154E+02 -.270E+01   0.661E+01 0.151E+02 0.267E+01   0.134E+00 0.316E+00 0.241E-01   -.121E-01 0.128E-01 0.466E-02
   -.153E+02 0.110E+02 0.232E+04   0.161E+02 -.115E+02 -.232E+04   -.778E+00 0.446E+00 0.163E+00   0.483E-02 -.275E-02 0.104E-01
   0.464E+00 0.423E+01 0.525E+02   -.114E+01 -.397E+01 -.514E+02   0.676E+00 -.254E+00 -.112E+01   -.394E-02 0.665E-02 0.241E-01
   0.205E+01 -.214E+02 0.235E+04   -.200E+01 0.222E+02 -.235E+04   -.525E-01 -.872E+00 0.246E+00   -.414E-02 0.139E-01 -.243E-02
   -.205E+02 -.135E+02 0.228E+04   0.215E+02 0.141E+02 -.228E+04   -.103E+01 -.599E+00 -.786E-01   -.202E-01 -.127E-01 0.579E-02
   -.117E+02 -.808E+01 -.229E+04   0.122E+02 0.785E+01 0.230E+04   -.511E+00 0.231E+00 -.346E+00   0.817E-02 -.441E-02 0.467E-01
   0.218E+00 0.118E+02 0.308E+02   0.924E-01 -.118E+02 -.303E+02   -.332E+00 -.274E-01 -.522E+00   0.214E-01 0.170E-01 0.339E-02
   0.475E+01 0.445E+00 -.305E+02   -.424E+01 -.789E+00 0.294E+02   -.464E+00 0.327E+00 0.102E+01   -.299E-01 0.250E-01 0.929E-02
   0.213E+01 0.974E+01 0.291E+02   -.211E+01 -.915E+01 -.286E+02   0.937E-02 -.600E+00 -.481E+00   -.309E-01 0.116E-02 0.102E-01
   0.141E+02 -.122E+02 -.232E+04   -.149E+02 0.127E+02 0.232E+04   0.879E+00 -.491E+00 -.560E-01   -.382E-02 -.259E-01 -.218E-01
   0.204E+02 0.922E+01 0.200E+04   -.207E+02 -.937E+01 -.199E+04   0.330E+00 0.147E+00 -.124E+01   -.256E-01 0.568E-02 -.601E-03
   -.782E+01 -.538E+01 -.197E+04   0.753E+01 0.554E+01 0.197E+04   0.273E+00 -.155E+00 0.155E+01   0.133E-01 0.131E-02 0.184E-01
   -.335E+01 -.241E+02 0.198E+04   0.354E+01 0.245E+02 -.198E+04   -.200E+00 -.399E+00 -.148E+01   0.148E-01 0.113E-01 0.176E-01
   -.248E+01 -.104E+02 -.200E+04   0.241E+01 0.105E+02 0.200E+04   0.564E-01 -.138E+00 0.153E+01   0.156E-01 0.873E-03 0.291E-02
   -.957E+01 0.154E+01 0.177E+02   0.951E+01 -.152E+01 -.174E+02   0.406E-01 -.138E-01 -.350E+00   0.229E-01 -.101E-01 0.476E-03
   0.968E-01 -.274E+02 0.199E+04   -.331E+00 0.278E+02 -.198E+04   0.273E+00 -.367E+00 -.167E+01   -.350E-01 0.889E-02 0.741E-02
   0.621E+00 0.687E+00 -.198E+04   -.835E+00 -.581E+00 0.198E+04   0.200E+00 -.121E+00 0.161E+01   0.133E-01 0.152E-01 -.387E-02
   0.126E+02 0.349E+01 -.202E+04   -.126E+02 -.356E+01 0.202E+04   0.112E-01 0.851E-01 0.155E+01   0.780E-02 -.796E-02 -.190E-01
   -.139E+02 0.530E+01 -.199E+04   0.145E+02 -.572E+01 0.199E+04   -.631E+00 0.429E+00 0.152E+01   0.166E-01 -.473E-04 -.136E-01
   0.323E+01 0.114E+01 -.199E+04   -.310E+01 -.112E+01 0.198E+04   -.135E+00 -.114E-01 0.145E+01   -.453E-02 0.169E-02 0.135E-01
   0.320E+01 -.197E+01 0.199E+04   -.290E+01 0.183E+01 -.198E+04   -.278E+00 0.135E+00 -.176E+01   -.143E-01 0.120E-01 -.913E-02
   -.217E+02 0.116E+02 0.201E+04   0.220E+02 -.117E+02 -.201E+04   -.337E+00 0.106E+00 -.116E+01   0.183E-01 0.296E-02 0.162E-01
   0.250E+01 -.148E+00 -.200E+04   -.274E+01 -.646E-04 0.200E+04   0.230E+00 0.143E+00 0.155E+01   0.129E-01 0.266E-02 0.259E-02
   -.233E+02 0.137E+02 0.201E+04   0.236E+02 -.138E+02 -.201E+04   -.215E+00 0.166E+00 -.145E+01   -.623E-02 -.212E-01 -.316E-02
   0.159E+02 0.141E+02 0.199E+04   -.159E+02 -.141E+02 -.198E+04   0.457E-01 -.118E-01 -.164E+01   -.107E-01 -.212E-01 -.143E-01
   0.911E+01 -.586E+01 -.200E+04   -.904E+01 0.581E+01 0.200E+04   -.736E-01 0.750E-01 0.116E+01   0.359E-02 -.220E-01 -.943E-02
   0.688E+01 -.647E+00 0.268E+01   -.638E+01 0.971E+00 -.276E+01   -.482E+00 -.311E+00 0.575E-01   -.135E-01 -.150E-01 0.157E-01
   0.716E+01 -.611E+01 -.200E+04   -.703E+01 0.635E+01 0.200E+04   -.127E+00 -.233E+00 0.151E+01   -.117E-01 -.428E-02 -.341E-02
   -.369E+00 -.685E+00 0.200E+04   0.139E+00 0.761E+00 -.200E+04   0.214E+00 -.879E-01 -.165E+01   0.161E-01 0.164E-01 -.579E-02
   0.183E+01 -.392E+01 0.168E+02   -.203E+01 0.351E+01 -.165E+02   0.187E+00 0.391E+00 -.314E+00   0.103E-01 0.153E-01 0.602E-02
   -.444E+01 0.135E+01 -.458E+02   0.431E+01 -.146E+01 0.455E+02   0.143E+00 0.120E+00 0.383E+00   -.130E-01 -.546E-03 -.471E-03
   -.376E+01 -.833E-01 0.199E+04   0.365E+01 -.257E+00 -.199E+04   0.126E+00 0.352E+00 -.173E+01   -.100E-01 -.968E-02 -.567E-02
   0.325E+00 0.131E+01 0.200E+04   -.498E+00 -.121E+01 -.200E+04   0.175E+00 -.865E-01 -.135E+01   -.123E-02 -.104E-01 0.253E-02
   0.287E+01 0.169E+02 -.199E+04   -.305E+01 -.168E+02 0.199E+04   0.184E+00 -.157E+00 0.142E+01   -.324E-02 0.933E-02 -.125E-01
 -----------------------------------------------------------------------------------------------
   -.165E-01 -.598E-01 0.203E+00   -.124E-12 0.156E-12 0.227E-11   -.633E-02 0.971E-01 -.307E+00   0.136E-03 -.171E-02 0.669E-01
 
 
 POSITION                                       TOTAL-FORCE (eV/Angst)
 -----------------------------------------------------------------------------------
      1.38058      0.74802      9.66760        -0.001981     -0.000010      0.003968
      9.60772      5.56241      9.68167         0.003006     -0.005215     -0.003306
      8.23012      6.36064     12.24928        -0.006036      0.000828     -0.001015
      5.51506      1.57638     12.27326         0.003054     -0.003838      0.000139
      9.62839      8.72934     12.26559         0.003697     -0.000166     -0.009937
      9.61568      7.15154     14.82651         0.000672     -0.002613     -0.002313
      8.26011      1.58949     12.28556         0.005643     -0.004197     -0.010842
      8.22963     -0.01607     14.85582        -0.001973      0.005787      0.007025
     10.98231      3.15877      9.65922        -0.001902     -0.003887      0.001639
      4.13254      3.98351     12.21952         0.007217      0.005812      0.004140
      6.88655      3.98435     12.26697        -0.005493      0.004548     -0.002694
      2.74673      1.57751     12.22296         0.006969     -0.007765      0.002820
      9.62593      2.41189     14.82574        -0.004436     -0.001085      0.011215
      4.13964      7.13157     14.79315        -0.008964     -0.002388      0.011966
     11.00265      1.58669     12.24861        -0.012883     -0.008146     -0.000724
      2.78545      3.15298      9.58686         0.002035      0.003829     -0.003615
     12.36304      3.97574     12.21196         0.000309      0.011276     -0.007516
     12.38686      5.59157      9.52873         0.001453     -0.002687      0.009001
      4.16081      5.57185      9.67610         0.008409     -0.004620     -0.003133
      1.38708      2.38702     14.80798        -0.007743      0.004005     -0.011359
     11.00151      6.35821     12.22217         0.000337      0.002041      0.002181
     15.14082      8.72289     12.27001         0.011254      0.007327     -0.001040
     13.75241      6.36950     12.22580        -0.002308     -0.008510      0.001508
      6.84365      2.40242     14.86790        -0.007673     -0.000887      0.007775
      9.61551      0.77551      9.86670         0.002332     -0.000028     -0.004959
     10.99489      4.77630     14.61178         0.000271     -0.002034     -0.000705
     11.01433      7.95443      9.87123         0.006263     -0.000595     -0.004300
      8.24071      4.78389     14.65670         0.000538     -0.000205      0.002361
      9.62824      3.97468     12.22596         0.004252     -0.004919      0.000310
     13.75173      7.95484      9.86863         0.004638      0.002961     -0.003032
      6.87003      7.15899     14.61932         0.000000     -0.000588      0.010185
      5.47913     -0.00024     14.68851        -0.006372      0.003387     -0.004814
      0.01504     -0.00554     14.65726        -0.009249      0.006595      0.003066
      2.74902      4.76668     14.61582        -0.007766      0.006428     -0.004424
      5.51330      7.92911      9.87296         0.008418      0.002528      0.002045
      4.15068      0.77579      9.83951         0.001731     -0.000266     -0.003008
      2.73429      0.00024     14.64053         0.000307     -0.003009      0.000855
      5.52556      3.15835      9.84280         0.001942      0.002269      0.004746
      8.24276      3.15895      9.87822         0.004367      0.003540     -0.003953
      4.11432      2.38739     14.64231        -0.002800     -0.000040      0.004856
      5.49554      6.36447     12.24185         0.006960     -0.002484     -0.002116
      5.49665      4.77320     14.64039        -0.002739      0.002420      0.001817
      8.25832      7.93196      9.84728         0.000792      0.003376      0.001484
      6.87200      8.73625     12.22776        -0.004858     -0.004389      0.007418
     12.38879      8.74054     12.30234        -0.006761      0.001186     -0.003931
      6.88410      0.77486      9.90507         0.004434      0.001891     -0.007814
      6.88058      5.55074      9.85304         0.001120     -0.002734     -0.004228
     12.36437      7.13773     14.64795        -0.000487     -0.004726      0.002258
 -----------------------------------------------------------------------------------
    total drift:                               -0.022714      0.035666     -0.037514


--------------------------------------------------------------------------------------------------------



  FREE ENERGIE OF THE ION-ELECTRON SYSTEM (eV)
  ---------------------------------------------------
  free  energy   TOTEN  =      -190.98416335 eV

  energy  without entropy=     -190.78554085  energy(sigma->0) =     -190.88485210
 
 d Force = 0.5359811E-03[ 0.241E-03, 0.831E-03]  d Energy = 0.5452610E-03-0.928E-05
 d Force = 0.1741333E+02[ 0.174E+02, 0.174E+02]  d Ewald  = 0.1741334E+02-0.214E-05


--------------------------------------------------------------------------------------------------------


    POTLOK:  cpu time    0.0511: real time    0.0513


--------------------------------------------------------------------------------------------------------


 stress matrix after NEB project (eV)
      0.00000      0.00000      0.00000
      0.00000      0.00000      0.00000
      0.00000      0.00000      0.00000
  FORCES: max atom, RMS     0.015259    0.008710
  FORCE total and by dimension    0.060344    0.012883
  Stress total and by dimension    0.000000    0.000000
 Conjugate gradient step on ions:
 trial-energy change:   -0.000545  1 .order   -0.000536   -0.000831   -0.000241
  (g-gl).g = 0.255E-03      g.g   = 0.362E-03  gl.gl    = 0.615E-03
 g(Force)  = 0.362E-03   g(Stress)= 0.000E+00 ortho     = 0.380E-04
 gamma     =   0.41379
 trial     =   2.19894
 opt step  =   2.99594  (harmonic =   3.09849) maximal distance =0.00351832
 next E    =  -190.984207   (d E  =  -0.00059)


--------------------------------------------------------------------------------------------------------


  
 reached required accuracy - stopping structural energy minimisation
     LOOP+:  cpu time   57.8516: real time   58.1485
    4ORBIT:  cpu time    0.0000: real time    0.0000

 total amount of memory used by VASP on root node    84353. kBytes
========================================================================

   base      :      30000. kBytes
   nonlr-proj:       4285. kBytes
   fftplans  :       4447. kBytes
   grid      :       6721. kBytes
   one-center:        124. kBytes
   wavefun   :      38776. kBytes
 
  
  
 General timing and accounting informations for this job:
 ========================================================
  
                  Total CPU time used (sec):     2632.829
                            User time (sec):     2525.284
                          System time (sec):      107.545
                         Elapsed time (sec):     2651.770
  
                   Maximum memory used (kb):     1041192.
                   Average memory used (kb):           0.
  
                          Minor page faults:      1160645
                          Major page faults:            0
                 Voluntary context switches:        14402
