  48  48   0   0
  0.5349325E+02  0.1100258E-08  0.1100258E-08  0.2449179E-08  0.3500000E-15
  1.000000000000000E-004
  CAR 
 unknown system                          
      6.36470486     -9.70797703  301     -1.10499104      1.00000000
     -9.708  0.0000E+00  0.0000E+00
     -9.654  0.0000E+00  0.0000E+00
     -9.601  0.0000E+00  0.0000E+00
     -9.547  0.0000E+00  0.0000E+00
     -9.494  0.0000E+00  0.0000E+00
     -9.440  0.0000E+00  0.0000E+00
     -9.387  0.0000E+00  0.0000E+00
     -9.333  0.0000E+00  0.0000E+00
     -9.279  0.6217E-17  0.3331E-18
     -9.226  0.2188E-14  0.1176E-15
     -9.172  0.4900E-12  0.2637E-13
     -9.119  0.6271E-10  0.3386E-11
     -9.065  0.4598E-08  0.2497E-09
     -9.011  0.1935E-06  0.1062E-07
     -8.958  0.4687E-05  0.2617E-06
     -8.904  0.6547E-04  0.3769E-05
     -8.851  0.5288E-03  0.3210E-04
     -8.797  0.2475E-02  0.1647E-03
     -8.744  0.6734E-02  0.5255E-03
     -8.690  0.1074E-01  0.1101E-02
     -8.636  0.1054E-01  0.1665E-02
     -8.583  0.8329E-02  0.2112E-02
     -8.529  0.9006E-02  0.2594E-02
     -8.476  0.1079E-01  0.3172E-02
     -8.422  0.9023E-02  0.3655E-02
     -8.369  0.4663E-02  0.3905E-02
     -8.315  0.1473E-02  0.3984E-02
     -8.261  0.3936E-03  0.4005E-02
     -8.208  0.6908E-03  0.4042E-02
     -8.154  0.2270E-02  0.4164E-02
     -8.101  0.5197E-02  0.4442E-02
     -8.047  0.9005E-02  0.4925E-02
     -7.994  0.1344E-01  0.5645E-02
     -7.940  0.1835E-01  0.6628E-02
     -7.886  0.2204E-01  0.7808E-02
     -7.833  0.2175E-01  0.8974E-02
     -7.779  0.1817E-01  0.9947E-02
     -7.726  0.1487E-01  0.1074E-01
     -7.672  0.1340E-01  0.1146E-01
     -7.619  0.1345E-01  0.1218E-01
     -7.565  0.1470E-01  0.1297E-01
     -7.511  0.1669E-01  0.1386E-01
     -7.458  0.1788E-01  0.1482E-01
     -7.404  0.1682E-01  0.1572E-01
     -7.351  0.1683E-01  0.1662E-01
     -7.297  0.2148E-01  0.1778E-01
     -7.243  0.2739E-01  0.1924E-01
     -7.190  0.2896E-01  0.2079E-01
     -7.136  0.2605E-01  0.2219E-01
     -7.083  0.2405E-01  0.2348E-01
     -7.029  0.2708E-01  0.2493E-01
     -6.976  0.3477E-01  0.2679E-01
     -6.922  0.4452E-01  0.2918E-01
     -6.868  0.5454E-01  0.3210E-01
     -6.815  0.6466E-01  0.3556E-01
     -6.761  0.7501E-01  0.3958E-01
     -6.708  0.8608E-01  0.4419E-01
     -6.654  0.9750E-01  0.4942E-01
     -6.601  0.1059E+00  0.5509E-01
     -6.547  0.1090E+00  0.6093E-01
     -6.493  0.1098E+00  0.6681E-01
     -6.440  0.1126E+00  0.7285E-01
     -6.386  0.1179E+00  0.7917E-01
     -6.333  0.1234E+00  0.8578E-01
     -6.279  0.1305E+00  0.9277E-01
     -6.226  0.1414E+00  0.1003E+00
     -6.172  0.1547E+00  0.1086E+00
     -6.118  0.1659E+00  0.1175E+00
     -6.065  0.1711E+00  0.1267E+00
     -6.011  0.1705E+00  0.1358E+00
     -5.958  0.1657E+00  0.1447E+00
     -5.904  0.1574E+00  0.1531E+00
     -5.851  0.1481E+00  0.1611E+00
     -5.797  0.1434E+00  0.1688E+00
     -5.743  0.1447E+00  0.1765E+00
     -5.690  0.1471E+00  0.1844E+00
     -5.636  0.1469E+00  0.1923E+00
     -5.583  0.1445E+00  0.2000E+00
     -5.529  0.1429E+00  0.2077E+00
     -5.476  0.1436E+00  0.2153E+00
     -5.422  0.1440E+00  0.2231E+00
     -5.368  0.1451E+00  0.2308E+00
     -5.315  0.1495E+00  0.2389E+00
     -5.261  0.1560E+00  0.2472E+00
     -5.208  0.1629E+00  0.2559E+00
     -5.154  0.1687E+00  0.2650E+00
     -5.100  0.1705E+00  0.2741E+00
     -5.047  0.1687E+00  0.2832E+00
     -4.993  0.1677E+00  0.2921E+00
     -4.940  0.1694E+00  0.3012E+00
     -4.886  0.1715E+00  0.3104E+00
     -4.833  0.1723E+00  0.3196E+00
     -4.779  0.1717E+00  0.3288E+00
     -4.725  0.1702E+00  0.3379E+00
     -4.672  0.1697E+00  0.3470E+00
     -4.618  0.1722E+00  0.3563E+00
     -4.565  0.1760E+00  0.3657E+00
     -4.511  0.1758E+00  0.3751E+00
     -4.458  0.1694E+00  0.3842E+00
     -4.404  0.1626E+00  0.3929E+00
     -4.350  0.1623E+00  0.4016E+00
     -4.297  0.1689E+00  0.4106E+00
     -4.243  0.1767E+00  0.4201E+00
     -4.190  0.1808E+00  0.4298E+00
     -4.136  0.1831E+00  0.4396E+00
     -4.083  0.1868E+00  0.4496E+00
     -4.029  0.1914E+00  0.4599E+00
     -3.975  0.1937E+00  0.4702E+00
     -3.922  0.1923E+00  0.4805E+00
     -3.868  0.1903E+00  0.4907E+00
     -3.815  0.1902E+00  0.5009E+00
     -3.761  0.1892E+00  0.5111E+00
     -3.708  0.1863E+00  0.5211E+00
     -3.654  0.1836E+00  0.5309E+00
     -3.600  0.1819E+00  0.5406E+00
     -3.547  0.1833E+00  0.5505E+00
     -3.493  0.1899E+00  0.5606E+00
     -3.440  0.1978E+00  0.5712E+00
     -3.386  0.2030E+00  0.5821E+00
     -3.332  0.2044E+00  0.5931E+00
     -3.279  0.2015E+00  0.6039E+00
     -3.225  0.1947E+00  0.6143E+00
     -3.172  0.1877E+00  0.6243E+00
     -3.118  0.1837E+00  0.6342E+00
     -3.065  0.1818E+00  0.6439E+00
     -3.011  0.1812E+00  0.6536E+00
     -2.957  0.1823E+00  0.6634E+00
     -2.904  0.1842E+00  0.6733E+00
     -2.850  0.1865E+00  0.6833E+00
     -2.797  0.1904E+00  0.6935E+00
     -2.743  0.1947E+00  0.7039E+00
     -2.690  0.1972E+00  0.7145E+00
     -2.636  0.1975E+00  0.7250E+00
     -2.582  0.1947E+00  0.7355E+00
     -2.529  0.1875E+00  0.7455E+00
     -2.475  0.1792E+00  0.7551E+00
     -2.422  0.1758E+00  0.7645E+00
     -2.368  0.1801E+00  0.7742E+00
     -2.315  0.1872E+00  0.7842E+00
     -2.261  0.1900E+00  0.7944E+00
     -2.207  0.1872E+00  0.8044E+00
     -2.154  0.1815E+00  0.8141E+00
     -2.100  0.1765E+00  0.8236E+00
     -2.047  0.1791E+00  0.8332E+00
     -1.993  0.1927E+00  0.8435E+00
     -1.940  0.2078E+00  0.8546E+00
     -1.886  0.2130E+00  0.8661E+00
     -1.832  0.2079E+00  0.8772E+00
     -1.779  0.2000E+00  0.8879E+00
     -1.725  0.1966E+00  0.8984E+00
     -1.672  0.1965E+00  0.9090E+00
     -1.618  0.1929E+00  0.9193E+00
     -1.564  0.1870E+00  0.9293E+00
     -1.511  0.1855E+00  0.9393E+00
     -1.457  0.1887E+00  0.9494E+00
     -1.404  0.1913E+00  0.9596E+00
     -1.350  0.1897E+00  0.9698E+00
     -1.297  0.1863E+00  0.9798E+00
     -1.243  0.1790E+00  0.9894E+00
     -1.189  0.1594E+00  0.9979E+00
     -1.136  0.1286E+00  0.1005E+01
     -1.082  0.9842E-01  0.1010E+01
     -1.029  0.7387E-01  0.1014E+01
     -0.975  0.5225E-01  0.1017E+01
     -0.922  0.3352E-01  0.1019E+01
     -0.868  0.2029E-01  0.1020E+01
     -0.814  0.1479E-01  0.1020E+01
     -0.761  0.1607E-01  0.1021E+01
     -0.707  0.1915E-01  0.1022E+01
     -0.654  0.2141E-01  0.1024E+01
     -0.600  0.2498E-01  0.1025E+01
     -0.547  0.3109E-01  0.1027E+01
     -0.493  0.3838E-01  0.1029E+01
     -0.439  0.4331E-01  0.1031E+01
     -0.386  0.4343E-01  0.1033E+01
     -0.332  0.4117E-01  0.1035E+01
     -0.279  0.4116E-01  0.1038E+01
     -0.225  0.4398E-01  0.1040E+01
     -0.172  0.4326E-01  0.1042E+01
     -0.118  0.3555E-01  0.1044E+01
     -0.064  0.2596E-01  0.1046E+01
     -0.011  0.2059E-01  0.1047E+01
      0.043  0.2075E-01  0.1048E+01
      0.096  0.2460E-01  0.1049E+01
      0.150  0.2921E-01  0.1051E+01
      0.204  0.3113E-01  0.1052E+01
      0.257  0.3168E-01  0.1054E+01
      0.311  0.3554E-01  0.1056E+01
      0.364  0.4157E-01  0.1058E+01
      0.418  0.4408E-01  0.1061E+01
      0.471  0.4298E-01  0.1063E+01
      0.525  0.4246E-01  0.1065E+01
      0.579  0.4216E-01  0.1067E+01
      0.632  0.4028E-01  0.1070E+01
      0.686  0.3932E-01  0.1072E+01
      0.739  0.4057E-01  0.1074E+01
      0.793  0.3874E-01  0.1076E+01
      0.846  0.3090E-01  0.1078E+01
      0.900  0.2339E-01  0.1079E+01
      0.954  0.2157E-01  0.1080E+01
      1.007  0.2362E-01  0.1081E+01
      1.061  0.2598E-01  0.1083E+01
      1.114  0.2556E-01  0.1084E+01
      1.168  0.2118E-01  0.1085E+01
      1.221  0.1524E-01  0.1086E+01
      1.275  0.1109E-01  0.1087E+01
      1.329  0.9474E-02  0.1087E+01
      1.382  0.9062E-02  0.1088E+01
      1.436  0.1045E-01  0.1088E+01
      1.489  0.1820E-01  0.1089E+01
      1.543  0.3222E-01  0.1091E+01
      1.596  0.4098E-01  0.1093E+01
      1.650  0.3716E-01  0.1095E+01
      1.704  0.3003E-01  0.1097E+01
      1.757  0.2974E-01  0.1098E+01
      1.811  0.3389E-01  0.1100E+01
      1.864  0.3405E-01  0.1102E+01
      1.918  0.2721E-01  0.1103E+01
      1.972  0.2024E-01  0.1104E+01
      2.025  0.1959E-01  0.1105E+01
      2.079  0.2338E-01  0.1107E+01
      2.132  0.2749E-01  0.1108E+01
      2.186  0.3079E-01  0.1110E+01
      2.239  0.3564E-01  0.1112E+01
      2.293  0.4291E-01  0.1114E+01
      2.347  0.4801E-01  0.1117E+01
      2.400  0.4733E-01  0.1119E+01
      2.454  0.4294E-01  0.1121E+01
      2.507  0.3927E-01  0.1124E+01
      2.561  0.3925E-01  0.1126E+01
      2.614  0.4270E-01  0.1128E+01
      2.668  0.4679E-01  0.1130E+01
      2.722  0.4754E-01  0.1133E+01
      2.775  0.4151E-01  0.1135E+01
      2.829  0.2970E-01  0.1137E+01
      2.882  0.1811E-01  0.1138E+01
      2.936  0.1260E-01  0.1138E+01
      2.989  0.1214E-01  0.1139E+01
      3.043  0.1121E-01  0.1140E+01
      3.097  0.1066E-01  0.1140E+01
      3.150  0.1568E-01  0.1141E+01
      3.204  0.2342E-01  0.1142E+01
      3.257  0.2631E-01  0.1144E+01
      3.311  0.2409E-01  0.1145E+01
      3.364  0.2126E-01  0.1146E+01
      3.418  0.2022E-01  0.1147E+01
      3.472  0.2135E-01  0.1148E+01
      3.525  0.2396E-01  0.1150E+01
      3.579  0.2781E-01  0.1151E+01
      3.632  0.3192E-01  0.1153E+01
      3.686  0.3435E-01  0.1155E+01
      3.740  0.3581E-01  0.1157E+01
      3.793  0.3616E-01  0.1159E+01
      3.847  0.3181E-01  0.1160E+01
      3.900  0.2440E-01  0.1162E+01
      3.954  0.2196E-01  0.1163E+01
      4.007  0.2654E-01  0.1164E+01
      4.061  0.3029E-01  0.1166E+01
      4.115  0.2855E-01  0.1167E+01
      4.168  0.2559E-01  0.1169E+01
      4.222  0.2402E-01  0.1170E+01
      4.275  0.2059E-01  0.1171E+01
      4.329  0.1580E-01  0.1172E+01
      4.382  0.1593E-01  0.1173E+01
      4.436  0.2231E-01  0.1174E+01
      4.490  0.3005E-01  0.1176E+01
      4.543  0.3755E-01  0.1178E+01
      4.597  0.4606E-01  0.1180E+01
      4.650  0.5079E-01  0.1183E+01
      4.704  0.4712E-01  0.1185E+01
      4.757  0.4295E-01  0.1188E+01
      4.811  0.4751E-01  0.1190E+01
      4.865  0.5627E-01  0.1193E+01
      4.918  0.6186E-01  0.1197E+01
      4.972  0.6662E-01  0.1200E+01
      5.025  0.7247E-01  0.1204E+01
      5.079  0.7424E-01  0.1208E+01
      5.132  0.6887E-01  0.1212E+01
      5.186  0.6092E-01  0.1215E+01
      5.240  0.5512E-01  0.1218E+01
      5.293  0.4793E-01  0.1220E+01
      5.347  0.3512E-01  0.1222E+01
      5.400  0.2010E-01  0.1223E+01
      5.454  0.8532E-02  0.1224E+01
      5.507  0.2510E-02  0.1224E+01
      5.561  0.4772E-03  0.1224E+01
      5.615  0.5584E-04  0.1224E+01
      5.668  0.3903E-05  0.1224E+01
      5.722  0.1601E-06  0.1224E+01
      5.775  0.3818E-08  0.1224E+01
      5.829  0.5254E-10  0.1224E+01
      5.883  0.4152E-12  0.1224E+01
      5.936  0.1879E-14  0.1224E+01
      5.990  0.4145E-17  0.1224E+01
      6.043  0.0000E+00  0.1224E+01
      6.097  0.0000E+00  0.1224E+01
      6.150  0.0000E+00  0.1224E+01
      6.204  0.0000E+00  0.1224E+01
      6.258  0.0000E+00  0.1224E+01
      6.311  0.0000E+00  0.1224E+01
      6.365  0.0000E+00  0.1224E+01
