<?xml version="1.0" encoding="ISO-8859-1"?>
<modeling>
 <generator>
  <i name="program" type="string">vasp </i>
  <i name="version" type="string">5.4.1  </i>
  <i name="subversion" type="string">24Jun15 (build Mar 14 2019 10:18:33) complex                          parallel </i>
  <i name="platform" type="string">INTEL-19.0.2+OPENMPI-3.1.3 </i>
  <i name="date" type="string">2022 07 15 </i>
  <i name="time" type="string">18:33:23 </i>
 </generator>
 <incar>
  <i type="int" name="ISTART">     0</i>
  <i type="string" name="PREC">normal</i>
  <i type="string" name="ALGO"> Fast</i>
  <i type="int" name="NELM">   500</i>
  <i type="int" name="IBRION">     2</i>
  <i type="int" name="NFREE">     2</i>
  <i name="EDIFF">      0.00000100</i>
  <i name="EDIFFG">     -0.02000000</i>
  <i type="int" name="NSW">   500</i>
  <i type="int" name="ISIF">     0</i>
  <i type="int" name="ISYM">     2</i>
  <i name="ENCUT">    400.00000000</i>
  <i name="POTIM">      0.35000000</i>
  <i type="string" name="LREAL"> Auto</i>
  <i type="logical" name="LPLANE"> T  </i>
  <i type="int" name="ISMEAR">     0</i>
  <i name="SIGMA">      0.10000000</i>
  <i type="int" name="NWRITE">     1</i>
  <i type="logical" name="LWAVE"> F  </i>
  <i type="logical" name="LCHARG"> F  </i>
  <i type="logical" name="LVTOT"> F  </i>
  <i type="logical" name="LORBIT"> F  </i>
  <i type="logical" name="LAECHG"> F  </i>
  <v type="int" name="KPOINT_BSE">    -1     0     0     0</v>
  <i type="int" name="NELM">   500</i>
  <i type="string" name="GGA"> PE          ! optPBE-vdW XC-functional</i>
  <i type="int" name="VOSKOWN">     1</i>
  <i type="logical" name="LDIPOL"> T  </i>
  <i type="logical" name="LMONO"> F  </i>
  <i type="int" name="IDIPOL">     3</i>
  <v name="DIPOL">      0.00000000      0.00000000      0.50000000</v>
 </incar>
 <kpoints>
  <generation param="Monkhorst-Pack">
   <v type="int" name="divisions">       2        2        1 </v>
   <v name="usershift">      0.00000000       0.00000000       0.00000000 </v>
   <v name="genvec1">      0.50000000      -0.00000000       0.00000000 </v>
   <v name="genvec2">      0.00000000       0.50000000       0.00000000 </v>
   <v name="genvec3">      0.00000000       0.00000000       1.00000000 </v>
   <v name="shift">      0.50000000       0.50000000       0.00000000 </v>
  </generation>
  <varray name="kpointlist" >
   <v>       0.25000000       0.25000000       0.00000000 </v>
   <v>       0.00000000       0.25000000       0.00000000 </v>
   <v>      -0.25000000       0.00000000       0.00000000 </v>
   <v>      -0.25000000       0.25000000       0.00000000 </v>
   <v>       0.50000000      -0.25000000       0.00000000 </v>
   <v>      -0.25000000       0.50000000       0.00000000 </v>
  </varray>
  <varray name="weights" >
   <v>       0.16666667 </v>
   <v>       0.16666667 </v>
   <v>       0.16666667 </v>
   <v>       0.16666667 </v>
   <v>       0.16666667 </v>
   <v>       0.16666667 </v>
  </varray>
 </kpoints>
 <parameters>
  <separator name="general" >
   <i type="string" name="SYSTEM">unknown system</i>
   <i type="logical" name="LCOMPAT"> F  </i>
  </separator>
  <separator name="electronic" >
   <i type="string" name="PREC">normal</i>
   <i name="ENMAX">    400.00000000</i>
   <i name="ENAUG">    416.23000000</i>
   <i name="EDIFF">      0.00000100</i>
   <i type="int" name="IALGO">    68</i>
   <i type="int" name="IWAVPR">    11</i>
   <i type="int" name="NBANDS">   306</i>
   <i name="NELECT">    504.00000000</i>
   <i type="int" name="TURBO">     0</i>
   <i type="int" name="IRESTART">     0</i>
   <i type="int" name="NREBOOT">     0</i>
   <i type="int" name="NMIN">     0</i>
   <i name="EREF">      0.00000000</i>
   <separator name="electronic smearing" >
    <i type="int" name="ISMEAR">     0</i>
    <i name="SIGMA">      0.10000000</i>
    <i name="KSPACING">      0.50000000</i>
    <i type="logical" name="KGAMMA"> T  </i>
   </separator>
   <separator name="electronic projectors" >
    <i type="logical" name="LREAL"> T  </i>
    <v name="ROPT">     -0.00050000     -0.00050000</v>
    <i type="int" name="LMAXPAW">  -100</i>
    <i type="int" name="LMAXMIX">     2</i>
    <i type="logical" name="NLSPLINE"> F  </i>
   </separator>
   <separator name="electronic startup" >
    <i type="int" name="ISTART">     0</i>
    <i type="int" name="ICHARG">     2</i>
    <i type="int" name="INIWAV">     1</i>
   </separator>
   <separator name="electronic spin" >
    <i type="int" name="ISPIN">     1</i>
    <i type="logical" name="LNONCOLLINEAR"> F  </i>
    <v name="MAGMOM">      1.00000000      1.00000000      1.00000000      1.00000000      1.00000000      1.00000000      1.00000000      1.00000000      1.00000000      1.00000000      1.00000000      1.00000000      1.00000000      1.00000000      1.00000000      1.00000000      1.00000000      1.00000000      1.00000000      1.00000000
      1.00000000      1.00000000      1.00000000      1.00000000      1.00000000      1.00000000      1.00000000      1.00000000      1.00000000      1.00000000      1.00000000      1.00000000      1.00000000      1.00000000      1.00000000      1.00000000      1.00000000      1.00000000      1.00000000      1.00000000
      1.00000000      1.00000000      1.00000000      1.00000000      1.00000000      1.00000000      1.00000000      1.00000000</v>
    <i name="NUPDOWN">     -1.00000000</i>
    <i type="logical" name="LSORBIT"> F  </i>
    <v name="SAXIS">      0.00000000      0.00000000      1.00000000</v>
    <i type="logical" name="LSPIRAL"> F  </i>
    <v name="QSPIRAL">      0.00000000      0.00000000      0.00000000</v>
    <i type="logical" name="LZEROZ"> F  </i>
   </separator>
   <separator name="electronic exchange-correlation" >
    <i type="logical" name="LASPH"> F  </i>
    <i type="logical" name="LMETAGGA"> F  </i>
   </separator>
   <separator name="electronic convergence" >
    <i type="int" name="NELM">   500</i>
    <i type="int" name="NELMDL">    -5</i>
    <i type="int" name="NELMIN">     2</i>
    <i name="ENINI">    400.00000000</i>
    <separator name="electronic convergence detail" >
     <i type="logical" name="LDIAG"> T  </i>
     <i type="logical" name="LSUBROT"> F  </i>
     <i name="WEIMIN">      0.00100000</i>
     <i name="EBREAK">      0.00000000</i>
     <i name="DEPER">      0.30000000</i>
     <i type="int" name="NRMM">     4</i>
     <i name="TIME">      0.40000000</i>
    </separator>
   </separator>
   <separator name="electronic mixer" >
    <i name="AMIX">      0.40000000</i>
    <i name="BMIX">      1.00000000</i>
    <i name="AMIN">      0.10000000</i>
    <i name="AMIX_MAG">      1.60000000</i>
    <i name="BMIX_MAG">      1.00000000</i>
    <separator name="electronic mixer details" >
     <i type="int" name="IMIX">     4</i>
     <i type="logical" name="MIXFIRST"> F  </i>
     <i type="int" name="MAXMIX">   -45</i>
     <i name="WC">    100.00000000</i>
     <i type="int" name="INIMIX">     1</i>
     <i type="int" name="MIXPRE">     1</i>
     <i type="int" name="MREMOVE">     5</i>
    </separator>
   </separator>
   <separator name="electronic dipolcorrection" >
    <i type="logical" name="LDIPOL"> T  </i>
    <i type="logical" name="LMONO"> F  </i>
    <i type="int" name="IDIPOL">     3</i>
    <i name="EPSILON">      1.00000000</i>
    <v name="DIPOL">      0.00000000      0.00000000      0.50000000</v>
    <i name="EFIELD">      0.00000000</i>
   </separator>
  </separator>
  <separator name="grids" >
   <i type="int" name="NGX">    54</i>
   <i type="int" name="NGY">    54</i>
   <i type="int" name="NGZ">   120</i>
   <i type="int" name="NGXF">   108</i>
   <i type="int" name="NGYF">   108</i>
   <i type="int" name="NGZF">   240</i>
   <i type="logical" name="ADDGRID"> F  </i>
  </separator>
  <separator name="ionic" >
   <i type="int" name="NSW">   500</i>
   <i type="int" name="IBRION">     2</i>
   <i type="int" name="ISIF">     0</i>
   <i name="PSTRESS">      0.00000000</i>
   <i name="EDIFFG">     -0.02000000</i>
   <i type="int" name="NFREE">     2</i>
   <i name="POTIM">      0.35000000</i>
   <i name="SMASS">     -3.00000000</i>
   <i name="SCALEE">      1.00000000</i>
  </separator>
  <separator name="ionic md" >
   <i name="TEBEG">      0.00010000</i>
   <i name="TEEND">      0.00010000</i>
   <i type="int" name="NBLOCK">     1</i>
   <i type="int" name="KBLOCK">   500</i>
   <i type="int" name="NPACO">   256</i>
   <i name="APACO">     16.00000000</i>
  </separator>
  <separator name="symmetry" >
   <i type="int" name="ISYM">     2</i>
   <i name="SYMPREC">      0.00001000</i>
  </separator>
  <separator name="dos" >
   <i type="logical" name="LORBIT"> F  </i>
   <v name="RWIGS">     -1.00000000     -1.00000000</v>
   <i type="int" name="NEDOS">   301</i>
   <i name="EMIN">     10.00000000</i>
   <i name="EMAX">    -10.00000000</i>
   <i name="EFERMI">      0.00000000</i>
  </separator>
  <separator name="writing" >
   <i type="int" name="NWRITE">     1</i>
   <i type="logical" name="LWAVE"> F  </i>
   <i type="logical" name="LCHARG"> F  </i>
   <i type="logical" name="LPARD"> F  </i>
   <i type="logical" name="LVTOT"> F  </i>
   <i type="logical" name="LVHAR"> F  </i>
   <i type="logical" name="LELF"> F  </i>
   <i type="logical" name="LOPTICS"> F  </i>
   <v name="STM">      0.00000000      0.00000000      0.00000000      0.00000000      0.00000000      0.00000000      0.00000000</v>
  </separator>
  <separator name="performance" >
   <i type="int" name="NPAR">     6</i>
   <i type="int" name="NSIM">     4</i>
   <i type="int" name="NBLK">    -1</i>
   <i type="logical" name="LPLANE"> T  </i>
   <i type="logical" name="LSCALAPACK"> T  </i>
   <i type="logical" name="LSCAAWARE"> F  </i>
   <i type="logical" name="LSCALU"> F  </i>
   <i type="logical" name="LASYNC"> F  </i>
   <i type="logical" name="LORBITALREAL"> F  </i>
  </separator>
  <separator name="miscellaneous" >
   <i type="int" name="IDIOT">     3</i>
   <i type="logical" name="LMUSIC"> F  </i>
   <v name="POMASS">    196.96600000    106.42000000</v>
   <v name="DARWINR">      0.00000000      0.00000000</v>
   <v name="DARWINV">      1.00000000      1.00000000</v>
   <i type="logical" name="LCORR"> T  </i>
  </separator>
  <i type="logical" name="GGA_COMPAT"> T  </i>
  <i type="logical" name="LBERRY"> F  </i>
  <i type="int" name="ICORELEVEL">     0</i>
  <i type="logical" name="LDAU"> F  </i>
  <i type="int" name="I_CONSTRAINED_M">     0</i>
  <separator name="electronic exchange-correlation" >
   <i type="string" name="GGA">PE</i>
   <i type="int" name="VOSKOWN">     1</i>
   <i type="logical" name="LHFCALC"> F  </i>
   <i type="string" name="PRECFOCK"></i>
   <i type="logical" name="LSYMGRAD"> F  </i>
   <i type="logical" name="LHFONE"> F  </i>
   <i type="logical" name="LRHFCALC"> F  </i>
   <i type="logical" name="LTHOMAS"> F  </i>
   <i type="logical" name="LMODELHF"> F  </i>
   <i name="ENCUT4O">     -1.00000000</i>
   <i type="int" name="EXXOEP">     0</i>
   <i type="int" name="FOURORBIT">     0</i>
   <i name="AEXX">      0.00000000</i>
   <i name="HFALPHA">      0.00000000</i>
   <i name="MCALPHA">      0.00000000</i>
   <i name="ALDAX">      1.00000000</i>
   <i name="AGGAX">      1.00000000</i>
   <i name="ALDAC">      1.00000000</i>
   <i name="AGGAC">      1.00000000</i>
   <i type="int" name="NKREDX">     1</i>
   <i type="int" name="NKREDY">     1</i>
   <i type="int" name="NKREDZ">     1</i>
   <i type="logical" name="SHIFTRED"> F  </i>
   <i type="logical" name="ODDONLY"> F  </i>
   <i type="logical" name="EVENONLY"> F  </i>
   <i type="int" name="LMAXFOCK">     0</i>
   <i type="int" name="NMAXFOCKAE">     0</i>
   <i type="logical" name="LFOCKAEDFT"> F  </i>
   <i name="HFSCREEN">      0.00000000</i>
   <i name="HFSCREENC">      0.00000000</i>
   <i type="int" name="NBANDSGWLOW">     0</i>
  </separator>
  <separator name="vdW DFT" >
   <i type="logical" name="LUSE_VDW"> F  </i>
   <i name="Zab_VDW">     -0.84910000</i>
   <i name="PARAM1">      0.12340000</i>
   <i name="PARAM2">      1.00000000</i>
   <i name="PARAM3">      0.00000000</i>
  </separator>
  <separator name="model GW" >
   <i type="int" name="MODEL_GW">     0</i>
   <i name="MODEL_EPS0">     32.09595293</i>
   <i name="MODEL_ALPHA">      1.00000000</i>
  </separator>
  <separator name="linear response parameters" >
   <i type="logical" name="LEPSILON"> F  </i>
   <i type="logical" name="LRPA"> F  </i>
   <i type="logical" name="LNABLA"> F  </i>
   <i type="logical" name="LVEL"> F  </i>
   <i type="int" name="KINTER">     0</i>
   <i name="CSHIFT">      0.10000000</i>
   <i name="OMEGAMAX">     -1.00000000</i>
   <i name="DEG_THRESHOLD">      0.00200000</i>
  </separator>
  <separator name="orbital magnetization" >
   <i type="logical" name="NUCIND"> F  </i>
   <v name="MAGPOS">      0.00000000      0.00000000      0.00000000</v>
   <i type="logical" name="LNICSALL"> T  </i>
   <i type="logical" name="ORBITALMAG"> F  </i>
   <i type="logical" name="LMAGBLOCH"> F  </i>
   <i type="logical" name="LCHIMAG"> F  </i>
   <i type="logical" name="LGAUGE"> T  </i>
   <i type="int" name="MAGATOM">     0</i>
   <v name="MAGDIPOL">      0.00000000      0.00000000      0.00000000</v>
   <v name="AVECCONST">      0.00000000      0.00000000      0.00000000</v>
  </separator>
  <separator name="response functions" >
   <i type="logical" name="LADDER"> F  </i>
   <i type="logical" name="LFXC"> F  </i>
   <i type="logical" name="LHARTREE"> T  </i>
   <i type="int" name="IBSE">     0</i>
   <v type="int" name="KPOINT">    -1     0     0     0</v>
   <i type="logical" name="LTCTE"> F  </i>
   <i type="logical" name="LTETE"> F  </i>
   <i type="logical" name="LTRIPLET"> F  </i>
   <i type="logical" name="LFXCEPS"> F  </i>
   <i type="logical" name="LFXHEG"> F  </i>
   <i type="int" name="NATURALO">     0</i>
   <i type="logical" name="L2ORDER"> F  </i>
   <i type="logical" name="LUSEW"> F  </i>
   <i name="ENCUTGW">     -2.00000000</i>
   <i name="ENCUTGWSOFT">     -2.00000000</i>
   <i name="ENCUTLF">     -1.00000000</i>
   <i type="int" name="LMAXMP2">    -1</i>
   <i name="SCISSOR">      0.00000000</i>
   <i type="int" name="NOMEGA">     0</i>
   <i type="int" name="NOMEGAR">     0</i>
   <i type="int" name="NBANDSGW">    -1</i>
   <i type="int" name="NBANDSO">    -1</i>
   <i type="int" name="NBANDSV">    -1</i>
   <i type="int" name="NELM">   500</i>
   <i type="int" name="NELMHF">     1</i>
   <i type="int" name="DIM">     3</i>
   <i type="int" name="ANTIRES">     0</i>
   <i name="OMEGAMAX">    -30.00000000</i>
   <i name="OMEGAMIN">    -30.00000000</i>
   <i name="OMEGATL">   -200.00000000</i>
   <i type="int" name="OMEGAGRID">     0</i>
   <i name="CSHIFT">     -0.10000000</i>
   <i type="logical" name="SELFENERGY"> F  </i>
   <i type="logical" name="LSPECTRAL"> F  </i>
   <i type="logical" name="LSPECTRALGW"> F  </i>
   <i type="logical" name="LSINGLES"> F  </i>
   <i type="logical" name="LFERMIGW"> F  </i>
   <i type="logical" name="ODDONLYGW"> F  </i>
   <i type="logical" name="EVENONLYGW"> F  </i>
   <i type="int" name="NKREDLFX">     1</i>
   <i type="int" name="NKREDLFY">     1</i>
   <i type="int" name="NKREDLFZ">     1</i>
   <i type="int" name="MAXMEM">  1800</i>
   <i type="int" name="TELESCOPE">     0</i>
   <i type="int" name="TAUPAR">     1</i>
   <i type="int" name="OMEGAPAR">    -1</i>
   <i name="LAMBDA">      1.00000000</i>
  </separator>
  <separator name="External order field" >
   <i name="OFIELD_KAPPA">      0.00000000</i>
   <v name="OFIELD_K">      0.00000000      0.00000000      0.00000000</v>
   <i name="OFIELD_Q6_NEAR">      0.00000000</i>
   <i name="OFIELD_Q6_FAR">      0.00000000</i>
   <i name="OFIELD_A">      0.00000000</i>
  </separator>
 </parameters>
 <atominfo>
  <atoms>      48 </atoms>
  <types>       2 </types>
  <array name="atoms" >
   <dimension dim="1">ion</dimension>
   <field type="string">element</field>
   <field type="int">atomtype</field>
   <set>
    <rc><c>Au</c><c>   1</c></rc>
    <rc><c>Au</c><c>   1</c></rc>
    <rc><c>Au</c><c>   1</c></rc>
    <rc><c>Au</c><c>   1</c></rc>
    <rc><c>Au</c><c>   1</c></rc>
    <rc><c>Au</c><c>   1</c></rc>
    <rc><c>Au</c><c>   1</c></rc>
    <rc><c>Au</c><c>   1</c></rc>
    <rc><c>Au</c><c>   1</c></rc>
    <rc><c>Au</c><c>   1</c></rc>
    <rc><c>Au</c><c>   1</c></rc>
    <rc><c>Au</c><c>   1</c></rc>
    <rc><c>Au</c><c>   1</c></rc>
    <rc><c>Au</c><c>   1</c></rc>
    <rc><c>Au</c><c>   1</c></rc>
    <rc><c>Au</c><c>   1</c></rc>
    <rc><c>Au</c><c>   1</c></rc>
    <rc><c>Au</c><c>   1</c></rc>
    <rc><c>Au</c><c>   1</c></rc>
    <rc><c>Au</c><c>   1</c></rc>
    <rc><c>Au</c><c>   1</c></rc>
    <rc><c>Au</c><c>   1</c></rc>
    <rc><c>Au</c><c>   1</c></rc>
    <rc><c>Au</c><c>   1</c></rc>
    <rc><c>Pd</c><c>   2</c></rc>
    <rc><c>Pd</c><c>   2</c></rc>
    <rc><c>Pd</c><c>   2</c></rc>
    <rc><c>Pd</c><c>   2</c></rc>
    <rc><c>Pd</c><c>   2</c></rc>
    <rc><c>Pd</c><c>   2</c></rc>
    <rc><c>Pd</c><c>   2</c></rc>
    <rc><c>Pd</c><c>   2</c></rc>
    <rc><c>Pd</c><c>   2</c></rc>
    <rc><c>Pd</c><c>   2</c></rc>
    <rc><c>Pd</c><c>   2</c></rc>
    <rc><c>Pd</c><c>   2</c></rc>
    <rc><c>Pd</c><c>   2</c></rc>
    <rc><c>Pd</c><c>   2</c></rc>
    <rc><c>Pd</c><c>   2</c></rc>
    <rc><c>Pd</c><c>   2</c></rc>
    <rc><c>Pd</c><c>   2</c></rc>
    <rc><c>Pd</c><c>   2</c></rc>
    <rc><c>Pd</c><c>   2</c></rc>
    <rc><c>Pd</c><c>   2</c></rc>
    <rc><c>Pd</c><c>   2</c></rc>
    <rc><c>Pd</c><c>   2</c></rc>
    <rc><c>Pd</c><c>   2</c></rc>
    <rc><c>Pd</c><c>   2</c></rc>
   </set>
  </array>
  <array name="atomtypes" >
   <dimension dim="1">type</dimension>
   <field type="int">atomspertype</field>
   <field type="string">element</field>
   <field>mass</field>
   <field>valence</field>
   <field type="string">pseudopotential</field>
   <set>
    <rc><c>  24</c><c>Au</c><c>    196.96600000</c><c>     11.00000000</c><c>  PAW_PBE Au 04Oct2007                  </c></rc>
    <rc><c>  24</c><c>Pd</c><c>    106.42000000</c><c>     10.00000000</c><c>  PAW_PBE Pd 04Jan2005                  </c></rc>
   </set>
  </array>
 </atominfo>
 <structure name="initialpos" >
  <crystal>
   <varray name="basis" >
    <v>      11.00258152       0.00000000       0.00000000 </v>
    <v>       5.50129076       9.52851510       0.00000000 </v>
    <v>       0.00000000       0.00000000      24.49178509 </v>
   </varray>
   <i name="volume">   2567.67623402 </i>
   <varray name="rec_basis" >
    <v>       0.09088776      -0.05247407       0.00000000 </v>
    <v>       0.00000000       0.10494815       0.00000000 </v>
    <v>       0.00000000       0.00000000       0.04083002 </v>
   </varray>
  </crystal>
  <varray name="positions" >
   <v>       0.25000000       0.75000000       0.59169983 </v>
   <v>       0.83333333       0.83333333       0.40830017 </v>
   <v>       0.75000000       0.50000000       0.59169983 </v>
   <v>       0.83333333       0.58333333       0.40830017 </v>
   <v>       0.66666667       0.41666667       0.50000000 </v>
   <v>       0.83333333       0.33333333       0.40830017 </v>
   <v>       0.75000000       0.00000000       0.59169983 </v>
   <v>       0.41666667       0.66666667       0.50000000 </v>
   <v>       0.58333333       0.58333333       0.40830017 </v>
   <v>       0.50000000       0.00000000       0.59169983 </v>
   <v>       0.41666667       0.16666667       0.50000000 </v>
   <v>       0.58333333       0.08333333       0.40830017 </v>
   <v>       0.66666667       0.91666667       0.50000000 </v>
   <v>       0.33333333       0.83333333       0.40830017 </v>
   <v>       0.33333333       0.58333333       0.40830017 </v>
   <v>       0.16666667       0.41666667       0.50000000 </v>
   <v>       0.75000000       0.75000000       0.59169983 </v>
   <v>       0.91666667       0.91666667       0.50000000 </v>
   <v>       0.25000000       0.00000000       0.59169983 </v>
   <v>       0.91666667       0.66666667       0.50000000 </v>
   <v>       0.00000000       0.00000000       0.59169983 </v>
   <v>       0.16666667       0.16666667       0.50000000 </v>
   <v>       0.00000000       0.50000000       0.59169983 </v>
   <v>       0.08333333       0.58333333       0.40830017 </v>
   <v>       0.66666667       0.16666667       0.50000000 </v>
   <v>       0.00000000       0.25000000       0.59169983 </v>
   <v>       0.25000000       0.25000000       0.59169983 </v>
   <v>       0.83333333       0.08333333       0.40830017 </v>
   <v>       0.75000000       0.25000000       0.59169983 </v>
   <v>       0.08333333       0.33333333       0.40830017 </v>
   <v>       0.66666667       0.66666667       0.50000000 </v>
   <v>       0.91666667       0.16666667       0.50000000 </v>
   <v>       0.91666667       0.41666667       0.50000000 </v>
   <v>       0.50000000       0.75000000       0.59169983 </v>
   <v>       0.50000000       0.50000000       0.59169983 </v>
   <v>       0.58333333       0.83333333       0.40830017 </v>
   <v>       0.33333333       0.33333333       0.40830017 </v>
   <v>       0.50000000       0.25000000       0.59169983 </v>
   <v>       0.41666667       0.41666667       0.50000000 </v>
   <v>       0.58333333       0.33333333       0.40830017 </v>
   <v>       0.08333333       0.83333333       0.40830017 </v>
   <v>       0.00000000       0.75000000       0.59169983 </v>
   <v>       0.33333333       0.08333333       0.40830017 </v>
   <v>       0.16666667       0.91666667       0.50000000 </v>
   <v>       0.25000000       0.50000000       0.59169983 </v>
   <v>       0.16666667       0.66666667       0.50000000 </v>
   <v>       0.41666667       0.91666667       0.50000000 </v>
   <v>       0.08333333       0.08333333       0.40830017 </v>
  </varray>
 </structure>
 <calculation>
  <scstep>
   <time name="dav">    9.57    9.60</time>
   <time name="total">    9.63    9.67</time>
   <dipole>
    <v name="dipole">      0.00000000       0.00000000       0.00000000 </v>
    <i name="Tr[quadrupol]"> -10263.87136130 </i>
    <i name="Echarged">      0.00000000 </i>
    <i name="Edipol_quadrupol">      0.00000000 </i>
    <i name="Eion">      0.00000000 </i>
   </dipole>
   <energy>
    <i name="alphaZ">    805.86936429 </i>
    <i name="ewald"> 200160.23779573 </i>
    <i name="hartreedc">-242574.33686606 </i>
    <i name="XCdc">   -327.62607200 </i>
    <i name="pawpsdc">  40340.05962942 </i>
    <i name="pawaedc"> -38292.62782345 </i>
    <i name="eentropy">     -0.14264815 </i>
    <i name="bandstr">   1430.51037012 </i>
    <i name="atom">  41659.78587232 </i>
    <i name="e_fr_energy">   3201.72962223 </i>
    <i name="e_wo_entrp">   3201.87227038 </i>
    <i name="e_0_energy">   3201.80094630 </i>
   </energy>
  </scstep>
  <scstep>
   <time name="dav">   11.21   11.32</time>
   <time name="total">   11.21   11.32</time>
   <dipole>
    <v name="dipole">      0.00000000       0.00000000       0.00000000 </v>
    <i name="Tr[quadrupol]"> -10263.87136130 </i>
    <i name="Echarged">      0.00000000 </i>
    <i name="Edipol_quadrupol">      0.00000000 </i>
    <i name="Eion">      0.00000000 </i>
   </dipole>
   <energy>
    <i name="e_fr_energy">     14.90865580 </i>
    <i name="e_wo_entrp">     15.03390542 </i>
    <i name="e_0_energy">     14.97128061 </i>
   </energy>
  </scstep>
  <scstep>
   <time name="dav">   10.72   10.76</time>
   <time name="total">   10.72   10.77</time>
   <dipole>
    <v name="dipole">      0.00000000       0.00000000       0.00000000 </v>
    <i name="Tr[quadrupol]"> -10263.87136130 </i>
    <i name="Echarged">      0.00000000 </i>
    <i name="Edipol_quadrupol">      0.00000000 </i>
    <i name="Eion">      0.00000000 </i>
   </dipole>
   <energy>
    <i name="e_fr_energy">   -200.52478494 </i>
    <i name="e_wo_entrp">   -200.32776737 </i>
    <i name="e_0_energy">   -200.42627616 </i>
   </energy>
  </scstep>
  <scstep>
   <time name="dav">   10.91   10.95</time>
   <time name="total">   10.92   10.95</time>
   <dipole>
    <v name="dipole">      0.00000000       0.00000000       0.00000000 </v>
    <i name="Tr[quadrupol]"> -10263.87136130 </i>
    <i name="Echarged">      0.00000000 </i>
    <i name="Edipol_quadrupol">      0.00000000 </i>
    <i name="Eion">      0.00000000 </i>
   </dipole>
   <energy>
    <i name="e_fr_energy">   -206.30846958 </i>
    <i name="e_wo_entrp">   -206.10186603 </i>
    <i name="e_0_energy">   -206.20516780 </i>
   </energy>
  </scstep>
  <scstep>
   <time name="dav">   11.18   11.25</time>
   <time name="total">   11.41   11.51</time>
   <dipole>
    <v name="dipole">      0.00000000       0.00000000       0.00000000 </v>
    <i name="Tr[quadrupol]"> -10263.87136130 </i>
    <i name="Echarged">      0.00000000 </i>
    <i name="Edipol_quadrupol">      0.00000000 </i>
    <i name="Eion">      0.00000000 </i>
   </dipole>
   <energy>
    <i name="e_fr_energy">   -206.49204364 </i>
    <i name="e_wo_entrp">   -206.28572555 </i>
    <i name="e_0_energy">   -206.38888460 </i>
   </energy>
  </scstep>
  <scstep>
   <time name="diag">    1.61    1.62</time>
   <time name="diis">    5.07    5.09</time>
   <time name="orth">    0.39    0.39</time>
   <time name="total">    7.35    7.39</time>
   <dipole>
    <v name="dipole">      0.00000000       0.00000000      -0.00267959 </v>
    <i name="Tr[quadrupol]"> -10265.27730014 </i>
    <i name="Echarged">      0.00000000 </i>
    <i name="Edipol_quadrupol">      0.00000000 </i>
    <i name="Eion">      0.00000000 </i>
   </dipole>
   <energy>
    <i name="e_fr_energy">   -198.18519292 </i>
    <i name="e_wo_entrp">   -197.92648297 </i>
    <i name="e_0_energy">   -198.05583794 </i>
   </energy>
  </scstep>
  <scstep>
   <time name="diag">    1.60    1.61</time>
   <time name="diis">    5.19    5.21</time>
   <time name="orth">    0.39    0.39</time>
   <time name="total">    7.46    7.49</time>
   <dipole>
    <v name="dipole">      0.00000000       0.00000000      -0.08355047 </v>
    <i name="Tr[quadrupol]"> -10263.88575159 </i>
    <i name="Echarged">      0.00000000 </i>
    <i name="Edipol_quadrupol">      0.00000000 </i>
    <i name="Eion">      0.00000000 </i>
   </dipole>
   <energy>
    <i name="e_fr_energy">   -198.26024773 </i>
    <i name="e_wo_entrp">   -198.09004510 </i>
    <i name="e_0_energy">   -198.17514641 </i>
   </energy>
  </scstep>
  <scstep>
   <time name="diag">    1.63    1.63</time>
   <time name="diis">    5.11    5.12</time>
   <time name="orth">    0.39    0.39</time>
   <time name="total">    7.40    7.42</time>
   <dipole>
    <v name="dipole">      0.00000000       0.00000000       0.26745685 </v>
    <i name="Tr[quadrupol]"> -10266.34408373 </i>
    <i name="Echarged">      0.00000000 </i>
    <i name="Edipol_quadrupol">      0.00000000 </i>
    <i name="Eion">      0.00000000 </i>
   </dipole>
   <energy>
    <i name="e_fr_energy">   -200.30787059 </i>
    <i name="e_wo_entrp">   -200.07205184 </i>
    <i name="e_0_energy">   -200.18996121 </i>
   </energy>
  </scstep>
  <scstep>
   <time name="diag">    1.62    1.62</time>
   <time name="diis">    5.09    5.10</time>
   <time name="orth">    0.38    0.39</time>
   <time name="total">    7.37    7.40</time>
   <dipole>
    <v name="dipole">      0.00000000       0.00000000      -0.51075661 </v>
    <i name="Tr[quadrupol]"> -10267.00712555 </i>
    <i name="Echarged">      0.00000000 </i>
    <i name="Edipol_quadrupol">      0.00000000 </i>
    <i name="Eion">      0.00000000 </i>
   </dipole>
   <energy>
    <i name="e_fr_energy">   -194.76564585 </i>
    <i name="e_wo_entrp">   -194.57170045 </i>
    <i name="e_0_energy">   -194.66867315 </i>
   </energy>
  </scstep>
  <scstep>
   <time name="diag">    1.61    1.62</time>
   <time name="diis">    5.08    5.11</time>
   <time name="orth">    0.39    0.39</time>
   <time name="total">    7.36    7.40</time>
   <dipole>
    <v name="dipole">      0.00000000       0.00000000       0.45938742 </v>
    <i name="Tr[quadrupol]"> -10267.06663055 </i>
    <i name="Echarged">      0.00000000 </i>
    <i name="Edipol_quadrupol">      0.00000000 </i>
    <i name="Eion">      0.00000000 </i>
   </dipole>
   <energy>
    <i name="e_fr_energy">   -191.64234049 </i>
    <i name="e_wo_entrp">   -191.44940766 </i>
    <i name="e_0_energy">   -191.54587407 </i>
   </energy>
  </scstep>
  <scstep>
   <time name="diag">    1.60    1.60</time>
   <time name="diis">    5.05    5.15</time>
   <time name="orth">    0.38    0.38</time>
   <time name="total">    7.31    7.42</time>
   <dipole>
    <v name="dipole">      0.00000000       0.00000000      -0.18252949 </v>
    <i name="Tr[quadrupol]"> -10267.16198737 </i>
    <i name="Echarged">      0.00000000 </i>
    <i name="Edipol_quadrupol">      0.00000000 </i>
    <i name="Eion">      0.00000000 </i>
   </dipole>
   <energy>
    <i name="e_fr_energy">   -189.88094363 </i>
    <i name="e_wo_entrp">   -189.65504738 </i>
    <i name="e_0_energy">   -189.76799550 </i>
   </energy>
  </scstep>
  <scstep>
   <time name="diag">    1.63    1.64</time>
   <time name="diis">    5.12    5.13</time>
   <time name="orth">    0.38    0.39</time>
   <time name="total">    7.41    7.44</time>
   <dipole>
    <v name="dipole">      0.00000000       0.00000000       0.03692099 </v>
    <i name="Tr[quadrupol]"> -10267.26734130 </i>
    <i name="Echarged">      0.00000000 </i>
    <i name="Edipol_quadrupol">      0.00000000 </i>
    <i name="Eion">      0.00000000 </i>
   </dipole>
   <energy>
    <i name="e_fr_energy">   -188.95522430 </i>
    <i name="e_wo_entrp">   -188.70569878 </i>
    <i name="e_0_energy">   -188.83046154 </i>
   </energy>
  </scstep>
  <scstep>
   <time name="diag">    1.61    1.62</time>
   <time name="diis">    5.18    5.19</time>
   <time name="orth">    0.38    0.39</time>
   <time name="total">    7.46    7.48</time>
   <dipole>
    <v name="dipole">      0.00000000       0.00000000      -0.00432574 </v>
    <i name="Tr[quadrupol]"> -10267.46121257 </i>
    <i name="Echarged">      0.00000000 </i>
    <i name="Edipol_quadrupol">      0.00000000 </i>
    <i name="Eion">      0.00000000 </i>
   </dipole>
   <energy>
    <i name="e_fr_energy">   -188.83779704 </i>
    <i name="e_wo_entrp">   -188.59221004 </i>
    <i name="e_0_energy">   -188.71500354 </i>
   </energy>
  </scstep>
  <scstep>
   <time name="diag">    1.62    1.62</time>
   <time name="diis">    5.19    5.21</time>
   <time name="orth">    0.38    0.38</time>
   <time name="total">    7.47    7.49</time>
   <dipole>
    <v name="dipole">      0.00000000       0.00000000      -0.00083833 </v>
    <i name="Tr[quadrupol]"> -10267.73223976 </i>
    <i name="Echarged">      0.00000000 </i>
    <i name="Edipol_quadrupol">      0.00000000 </i>
    <i name="Eion">      0.00000000 </i>
   </dipole>
   <energy>
    <i name="e_fr_energy">   -188.87461450 </i>
    <i name="e_wo_entrp">   -188.62604594 </i>
    <i name="e_0_energy">   -188.75033022 </i>
   </energy>
  </scstep>
  <scstep>
   <time name="diag">    1.60    1.61</time>
   <time name="diis">    5.12    5.19</time>
   <time name="orth">    0.38    0.38</time>
   <time name="total">    7.38    7.47</time>
   <dipole>
    <v name="dipole">      0.00000000       0.00000000       0.00200041 </v>
    <i name="Tr[quadrupol]"> -10267.94056038 </i>
    <i name="Echarged">      0.00000000 </i>
    <i name="Edipol_quadrupol">      0.00000000 </i>
    <i name="Eion">      0.00000000 </i>
   </dipole>
   <energy>
    <i name="e_fr_energy">   -188.75938741 </i>
    <i name="e_wo_entrp">   -188.50624066 </i>
    <i name="e_0_energy">   -188.63281404 </i>
   </energy>
  </scstep>
  <scstep>
   <time name="diag">    1.63    1.64</time>
   <time name="diis">    5.12    5.14</time>
   <time name="orth">    0.38    0.38</time>
   <time name="total">    7.42    7.46</time>
   <dipole>
    <v name="dipole">      0.00000000       0.00000000      -0.00756266 </v>
    <i name="Tr[quadrupol]"> -10268.07841149 </i>
    <i name="Echarged">      0.00000000 </i>
    <i name="Edipol_quadrupol">      0.00000000 </i>
    <i name="Eion">      0.00000000 </i>
   </dipole>
   <energy>
    <i name="e_fr_energy">   -188.74434774 </i>
    <i name="e_wo_entrp">   -188.48584261 </i>
    <i name="e_0_energy">   -188.61509517 </i>
   </energy>
  </scstep>
  <scstep>
   <time name="diag">    1.57    1.63</time>
   <time name="diis">    5.13    5.15</time>
   <time name="orth">    0.38    0.38</time>
   <time name="total">    7.37    7.45</time>
   <dipole>
    <v name="dipole">      0.00000000       0.00000000       0.00065344 </v>
    <i name="Tr[quadrupol]"> -10268.35891443 </i>
    <i name="Echarged">      0.00000000 </i>
    <i name="Edipol_quadrupol">      0.00000000 </i>
    <i name="Eion">      0.00000000 </i>
   </dipole>
   <energy>
    <i name="e_fr_energy">   -188.71745419 </i>
    <i name="e_wo_entrp">   -188.45892411 </i>
    <i name="e_0_energy">   -188.58818915 </i>
   </energy>
  </scstep>
  <scstep>
   <time name="diag">    1.62    1.62</time>
   <time name="diis">    5.20    5.21</time>
   <time name="orth">    0.38    0.38</time>
   <time name="total">    7.48    7.50</time>
   <dipole>
    <v name="dipole">      0.00000000       0.00000000       0.00130453 </v>
    <i name="Tr[quadrupol]"> -10268.48300931 </i>
    <i name="Echarged">      0.00000000 </i>
    <i name="Edipol_quadrupol">      0.00000000 </i>
    <i name="Eion">      0.00000000 </i>
   </dipole>
   <energy>
    <i name="e_fr_energy">   -188.71402548 </i>
    <i name="e_wo_entrp">   -188.45519587 </i>
    <i name="e_0_energy">   -188.58461068 </i>
   </energy>
  </scstep>
  <scstep>
   <time name="diag">    1.60    1.60</time>
   <time name="diis">    5.13    5.15</time>
   <time name="orth">    0.38    0.38</time>
   <time name="total">    7.39    7.41</time>
   <dipole>
    <v name="dipole">      0.00000000       0.00000000      -0.00307864 </v>
    <i name="Tr[quadrupol]"> -10268.60784545 </i>
    <i name="Echarged">      0.00000000 </i>
    <i name="Edipol_quadrupol">      0.00000000 </i>
    <i name="Eion">      0.00000000 </i>
   </dipole>
   <energy>
    <i name="e_fr_energy">   -188.70998339 </i>
    <i name="e_wo_entrp">   -188.45009585 </i>
    <i name="e_0_energy">   -188.58003962 </i>
   </energy>
  </scstep>
  <scstep>
   <time name="diag">    1.63    1.63</time>
   <time name="diis">    5.12    5.13</time>
   <time name="orth">    0.38    0.38</time>
   <time name="total">    7.40    7.43</time>
   <dipole>
    <v name="dipole">      0.00000000       0.00000000      -0.00408473 </v>
    <i name="Tr[quadrupol]"> -10268.71338716 </i>
    <i name="Echarged">      0.00000000 </i>
    <i name="Edipol_quadrupol">      0.00000000 </i>
    <i name="Eion">      0.00000000 </i>
   </dipole>
   <energy>
    <i name="e_fr_energy">   -188.70972500 </i>
    <i name="e_wo_entrp">   -188.44943184 </i>
    <i name="e_0_energy">   -188.57957842 </i>
   </energy>
  </scstep>
  <scstep>
   <time name="diag">    1.62    1.62</time>
   <time name="diis">    5.16    5.17</time>
   <time name="orth">    0.38    0.38</time>
   <time name="total">    7.44    7.46</time>
   <dipole>
    <v name="dipole">      0.00000000       0.00000000      -0.00452632 </v>
    <i name="Tr[quadrupol]"> -10268.78818829 </i>
    <i name="Echarged">      0.00000000 </i>
    <i name="Edipol_quadrupol">      0.00000000 </i>
    <i name="Eion">      0.00000000 </i>
   </dipole>
   <energy>
    <i name="e_fr_energy">   -188.70951925 </i>
    <i name="e_wo_entrp">   -188.44898171 </i>
    <i name="e_0_energy">   -188.57925048 </i>
   </energy>
  </scstep>
  <scstep>
   <time name="diag">    1.62    1.63</time>
   <time name="diis">    5.07    5.19</time>
   <time name="orth">    0.38    0.38</time>
   <time name="total">    7.35    7.48</time>
   <dipole>
    <v name="dipole">      0.00000000       0.00000000      -0.00311721 </v>
    <i name="Tr[quadrupol]"> -10268.85201415 </i>
    <i name="Echarged">      0.00000000 </i>
    <i name="Edipol_quadrupol">      0.00000000 </i>
    <i name="Eion">      0.00000000 </i>
   </dipole>
   <energy>
    <i name="e_fr_energy">   -188.70964709 </i>
    <i name="e_wo_entrp">   -188.44950020 </i>
    <i name="e_0_energy">   -188.57957364 </i>
   </energy>
  </scstep>
  <scstep>
   <time name="diag">    1.59    1.61</time>
   <time name="diis">    5.16    5.19</time>
   <time name="orth">    0.38    0.38</time>
   <time name="total">    7.42    7.47</time>
   <dipole>
    <v name="dipole">      0.00000000       0.00000000      -0.00226503 </v>
    <i name="Tr[quadrupol]"> -10268.93955433 </i>
    <i name="Echarged">      0.00000000 </i>
    <i name="Edipol_quadrupol">      0.00000000 </i>
    <i name="Eion">      0.00000000 </i>
   </dipole>
   <energy>
    <i name="e_fr_energy">   -188.70992742 </i>
    <i name="e_wo_entrp">   -188.44952950 </i>
    <i name="e_0_energy">   -188.57972846 </i>
   </energy>
  </scstep>
  <scstep>
   <time name="diag">    1.63    1.63</time>
   <time name="diis">    5.11    5.13</time>
   <time name="orth">    0.38    0.38</time>
   <time name="total">    7.41    7.43</time>
   <dipole>
    <v name="dipole">      0.00000000       0.00000000      -0.00271026 </v>
    <i name="Tr[quadrupol]"> -10268.99593338 </i>
    <i name="Echarged">      0.00000000 </i>
    <i name="Edipol_quadrupol">      0.00000000 </i>
    <i name="Eion">      0.00000000 </i>
   </dipole>
   <energy>
    <i name="e_fr_energy">   -188.71028138 </i>
    <i name="e_wo_entrp">   -188.45009028 </i>
    <i name="e_0_energy">   -188.58018583 </i>
   </energy>
  </scstep>
  <scstep>
   <time name="diag">    1.61    1.62</time>
   <time name="diis">    5.29    5.31</time>
   <time name="orth">    0.39    0.39</time>
   <time name="total">    7.58    7.60</time>
   <dipole>
    <v name="dipole">      0.00000000       0.00000000      -0.00342870 </v>
    <i name="Tr[quadrupol]"> -10269.05943136 </i>
    <i name="Echarged">      0.00000000 </i>
    <i name="Edipol_quadrupol">      0.00000000 </i>
    <i name="Eion">      0.00000000 </i>
   </dipole>
   <energy>
    <i name="e_fr_energy">   -188.71071730 </i>
    <i name="e_wo_entrp">   -188.45027461 </i>
    <i name="e_0_energy">   -188.58049596 </i>
   </energy>
  </scstep>
  <scstep>
   <time name="diag">    1.62    1.62</time>
   <time name="diis">    5.31    5.32</time>
   <time name="orth">    0.38    0.38</time>
   <time name="total">    7.59    7.61</time>
   <dipole>
    <v name="dipole">      0.00000000       0.00000000      -0.00326903 </v>
    <i name="Tr[quadrupol]"> -10269.12879446 </i>
    <i name="Echarged">      0.00000000 </i>
    <i name="Edipol_quadrupol">      0.00000000 </i>
    <i name="Eion">      0.00000000 </i>
   </dipole>
   <energy>
    <i name="e_fr_energy">   -188.71139382 </i>
    <i name="e_wo_entrp">   -188.45103321 </i>
    <i name="e_0_energy">   -188.58121351 </i>
   </energy>
  </scstep>
  <scstep>
   <time name="diag">    1.60    1.60</time>
   <time name="diis">    4.92    5.03</time>
   <time name="orth">    0.38    0.38</time>
   <time name="total">    7.18    7.30</time>
   <dipole>
    <v name="dipole">      0.00000000       0.00000000      -0.00323963 </v>
    <i name="Tr[quadrupol]"> -10269.16869202 </i>
    <i name="Echarged">      0.00000000 </i>
    <i name="Edipol_quadrupol">      0.00000000 </i>
    <i name="Eion">      0.00000000 </i>
   </dipole>
   <energy>
    <i name="e_fr_energy">   -188.71181911 </i>
    <i name="e_wo_entrp">   -188.45144386 </i>
    <i name="e_0_energy">   -188.58163149 </i>
   </energy>
  </scstep>
  <scstep>
   <time name="diag">    1.63    1.63</time>
   <time name="diis">    5.30    5.32</time>
   <time name="orth">    0.38    0.38</time>
   <time name="total">    7.59    7.62</time>
   <dipole>
    <v name="dipole">      0.00000000       0.00000000      -0.00339322 </v>
    <i name="Tr[quadrupol]"> -10269.25025781 </i>
    <i name="Echarged">      0.00000000 </i>
    <i name="Edipol_quadrupol">      0.00000000 </i>
    <i name="Eion">      0.00000000 </i>
   </dipole>
   <energy>
    <i name="e_fr_energy">   -188.71269221 </i>
    <i name="e_wo_entrp">   -188.45233086 </i>
    <i name="e_0_energy">   -188.58251154 </i>
   </energy>
  </scstep>
  <scstep>
   <time name="diag">    1.61    1.61</time>
   <time name="diis">    4.41    4.42</time>
   <time name="orth">    0.38    0.38</time>
   <time name="total">    6.69    6.71</time>
   <dipole>
    <v name="dipole">      0.00000000       0.00000000      -0.00345866 </v>
    <i name="Tr[quadrupol]"> -10269.27856457 </i>
    <i name="Echarged">      0.00000000 </i>
    <i name="Edipol_quadrupol">      0.00000000 </i>
    <i name="Eion">      0.00000000 </i>
   </dipole>
   <energy>
    <i name="e_fr_energy">   -188.71294877 </i>
    <i name="e_wo_entrp">   -188.45251123 </i>
    <i name="e_0_energy">   -188.58273000 </i>
   </energy>
  </scstep>
  <scstep>
   <time name="diag">    1.62    1.62</time>
   <time name="diis">    4.33    4.34</time>
   <time name="orth">    0.38    0.38</time>
   <time name="total">    6.61    6.64</time>
   <dipole>
    <v name="dipole">      0.00000000       0.00000000      -0.00358103 </v>
    <i name="Tr[quadrupol]"> -10269.31017250 </i>
    <i name="Echarged">      0.00000000 </i>
    <i name="Edipol_quadrupol">      0.00000000 </i>
    <i name="Eion">      0.00000000 </i>
   </dipole>
   <energy>
    <i name="e_fr_energy">   -188.71323871 </i>
    <i name="e_wo_entrp">   -188.45283953 </i>
    <i name="e_0_energy">   -188.58303912 </i>
   </energy>
  </scstep>
  <scstep>
   <time name="diag">    1.60    1.60</time>
   <time name="diis">    3.63    3.66</time>
   <time name="orth">    0.38    0.38</time>
   <time name="total">    5.90    5.95</time>
   <dipole>
    <v name="dipole">      0.00000000       0.00000000      -0.00356033 </v>
    <i name="Tr[quadrupol]"> -10269.32061581 </i>
    <i name="Echarged">      0.00000000 </i>
    <i name="Edipol_quadrupol">      0.00000000 </i>
    <i name="Eion">      0.00000000 </i>
   </dipole>
   <energy>
    <i name="e_fr_energy">   -188.71331375 </i>
    <i name="e_wo_entrp">   -188.45289348 </i>
    <i name="e_0_energy">   -188.58310361 </i>
   </energy>
  </scstep>
  <scstep>
   <time name="diag">    1.62    1.63</time>
   <time name="diis">    3.23    3.25</time>
   <time name="orth">    0.38    0.38</time>
   <time name="total">    5.52    5.55</time>
   <dipole>
    <v name="dipole">      0.00000000       0.00000000      -0.00357073 </v>
    <i name="Tr[quadrupol]"> -10269.32989534 </i>
    <i name="Echarged">      0.00000000 </i>
    <i name="Edipol_quadrupol">      0.00000000 </i>
    <i name="Eion">      0.00000000 </i>
   </dipole>
   <energy>
    <i name="e_fr_energy">   -188.71338355 </i>
    <i name="e_wo_entrp">   -188.45295391 </i>
    <i name="e_0_energy">   -188.58316873 </i>
   </energy>
  </scstep>
  <scstep>
   <time name="diag">    1.61    1.61</time>
   <time name="diis">    3.13    3.14</time>
   <time name="orth">    0.38    0.38</time>
   <time name="total">    5.41    5.44</time>
   <dipole>
    <v name="dipole">      0.00000000       0.00000000      -0.00360301 </v>
    <i name="Tr[quadrupol]"> -10269.33572708 </i>
    <i name="Echarged">      0.00000000 </i>
    <i name="Edipol_quadrupol">      0.00000000 </i>
    <i name="Eion">      0.00000000 </i>
   </dipole>
   <energy>
    <i name="e_fr_energy">   -188.71343631 </i>
    <i name="e_wo_entrp">   -188.45300678 </i>
    <i name="e_0_energy">   -188.58322154 </i>
   </energy>
  </scstep>
  <scstep>
   <time name="diag">    1.58    1.64</time>
   <time name="diis">    3.17    3.18</time>
   <time name="orth">    0.38    0.38</time>
   <time name="total">    5.41    5.49</time>
   <dipole>
    <v name="dipole">      0.00000000       0.00000000      -0.00362158 </v>
    <i name="Tr[quadrupol]"> -10269.34227236 </i>
    <i name="Echarged">      0.00000000 </i>
    <i name="Edipol_quadrupol">      0.00000000 </i>
    <i name="Eion">      0.00000000 </i>
   </dipole>
   <energy>
    <i name="e_fr_energy">   -188.71348298 </i>
    <i name="e_wo_entrp">   -188.45305807 </i>
    <i name="e_0_energy">   -188.58327053 </i>
   </energy>
  </scstep>
  <scstep>
   <time name="diag">    1.60    1.60</time>
   <time name="diis">    2.95    2.96</time>
   <time name="orth">    0.38    0.38</time>
   <time name="total">    5.21    5.23</time>
   <dipole>
    <v name="dipole">      0.00000000       0.00000000      -0.00362010 </v>
    <i name="Tr[quadrupol]"> -10269.34576703 </i>
    <i name="Echarged">      0.00000000 </i>
    <i name="Edipol_quadrupol">      0.00000000 </i>
    <i name="Eion">      0.00000000 </i>
   </dipole>
   <energy>
    <i name="e_fr_energy">   -188.71349820 </i>
    <i name="e_wo_entrp">   -188.45306860 </i>
    <i name="e_0_energy">   -188.58328340 </i>
   </energy>
  </scstep>
  <scstep>
   <time name="diag">    1.63    1.63</time>
   <time name="diis">    2.75    2.76</time>
   <time name="orth">    0.38    0.38</time>
   <time name="total">    5.04    5.06</time>
   <dipole>
    <v name="dipole">      0.00000000       0.00000000      -0.00362642 </v>
    <i name="Tr[quadrupol]"> -10269.34864279 </i>
    <i name="Echarged">      0.00000000 </i>
    <i name="Edipol_quadrupol">      0.00000000 </i>
    <i name="Eion">      0.00000000 </i>
   </dipole>
   <energy>
    <i name="e_fr_energy">   -188.71350693 </i>
    <i name="e_wo_entrp">   -188.45307490 </i>
    <i name="e_0_energy">   -188.58329091 </i>
   </energy>
  </scstep>
  <scstep>
   <time name="diag">    1.61    1.62</time>
   <time name="diis">    2.65    2.66</time>
   <time name="orth">    0.38    0.38</time>
   <time name="total">    4.93    4.95</time>
   <dipole>
    <v name="dipole">      0.00000000       0.00000000      -0.00365369 </v>
    <i name="Tr[quadrupol]"> -10269.35192364 </i>
    <i name="Echarged">      0.00000000 </i>
    <i name="Edipol_quadrupol">      0.00000000 </i>
    <i name="Eion">      0.00000000 </i>
   </dipole>
   <energy>
    <i name="e_fr_energy">   -188.71351121 </i>
    <i name="e_wo_entrp">   -188.45308344 </i>
    <i name="e_0_energy">   -188.58329733 </i>
   </energy>
  </scstep>
  <scstep>
   <time name="diag">    1.61    1.62</time>
   <time name="diis">    2.19    2.20</time>
   <time name="orth">    0.38    0.38</time>
   <time name="total">    4.24    4.25</time>
   <dipole>
    <v name="dipole">      0.00000000       0.00000000      -0.00365976 </v>
    <i name="Tr[quadrupol]"> -10269.35348251 </i>
    <i name="Echarged">      0.00000000 </i>
    <i name="Edipol_quadrupol">      0.00000000 </i>
    <i name="Eion">      0.00000000 </i>
   </dipole>
   <energy>
    <i name="alphaZ">    805.86936381 </i>
    <i name="ewald"> 200160.23779573 </i>
    <i name="hartreedc">-242355.32017252 </i>
    <i name="XCdc">   -343.36996317 </i>
    <i name="pawpsdc">  49363.16342243 </i>
    <i name="pawaedc"> -47440.93525028 </i>
    <i name="eentropy">     -0.26042955 </i>
    <i name="bandstr">  -2037.88415064 </i>
    <i name="atom">  41659.78587232 </i>
    <i name="e_fr_energy">   -188.71351188 </i>
    <i name="e_wo_entrp">   -188.45308233 </i>
    <i name="e_0_energy">   -188.58329711 </i>
   </energy>
  </scstep>
  <structure>
   <crystal>
    <varray name="basis" >
     <v>      11.00258152       0.00000000       0.00000000 </v>
     <v>       5.50129076       9.52851510       0.00000000 </v>
     <v>       0.00000000       0.00000000      24.49178509 </v>
    </varray>
    <i name="volume">   2567.67623402 </i>
    <varray name="rec_basis" >
     <v>       0.09088776      -0.05247407       0.00000000 </v>
     <v>       0.00000000       0.10494815       0.00000000 </v>
     <v>       0.00000000       0.00000000       0.04083002 </v>
    </varray>
   </crystal>
   <varray name="positions" >
    <v>       0.25000000       0.75000000       0.59169983 </v>
    <v>       0.83333333       0.83333333       0.40830017 </v>
    <v>       0.75000000       0.50000000       0.59169983 </v>
    <v>       0.83333333       0.58333333       0.40830017 </v>
    <v>       0.66666667       0.41666667       0.50000000 </v>
    <v>       0.83333333       0.33333333       0.40830017 </v>
    <v>       0.75000000       0.00000000       0.59169983 </v>
    <v>       0.41666667       0.66666667       0.50000000 </v>
    <v>       0.58333333       0.58333333       0.40830017 </v>
    <v>       0.50000000       0.00000000       0.59169983 </v>
    <v>       0.41666667       0.16666667       0.50000000 </v>
    <v>       0.58333333       0.08333333       0.40830017 </v>
    <v>       0.66666667       0.91666667       0.50000000 </v>
    <v>       0.33333333       0.83333333       0.40830017 </v>
    <v>       0.33333333       0.58333333       0.40830017 </v>
    <v>       0.16666667       0.41666667       0.50000000 </v>
    <v>       0.75000000       0.75000000       0.59169983 </v>
    <v>       0.91666667       0.91666667       0.50000000 </v>
    <v>       0.25000000       0.00000000       0.59169983 </v>
    <v>       0.91666667       0.66666667       0.50000000 </v>
    <v>       0.00000000       0.00000000       0.59169983 </v>
    <v>       0.16666667       0.16666667       0.50000000 </v>
    <v>       0.00000000       0.50000000       0.59169983 </v>
    <v>       0.08333333       0.58333333       0.40830017 </v>
    <v>       0.66666667       0.16666667       0.50000000 </v>
    <v>       0.00000000       0.25000000       0.59169983 </v>
    <v>       0.25000000       0.25000000       0.59169983 </v>
    <v>       0.83333333       0.08333333       0.40830017 </v>
    <v>       0.75000000       0.25000000       0.59169983 </v>
    <v>       0.08333333       0.33333333       0.40830017 </v>
    <v>       0.66666667       0.66666667       0.50000000 </v>
    <v>       0.91666667       0.16666667       0.50000000 </v>
    <v>       0.91666667       0.41666667       0.50000000 </v>
    <v>       0.50000000       0.75000000       0.59169983 </v>
    <v>       0.50000000       0.50000000       0.59169983 </v>
    <v>       0.58333333       0.83333333       0.40830017 </v>
    <v>       0.33333333       0.33333333       0.40830017 </v>
    <v>       0.50000000       0.25000000       0.59169983 </v>
    <v>       0.41666667       0.41666667       0.50000000 </v>
    <v>       0.58333333       0.33333333       0.40830017 </v>
    <v>       0.08333333       0.83333333       0.40830017 </v>
    <v>       0.00000000       0.75000000       0.59169983 </v>
    <v>       0.33333333       0.08333333       0.40830017 </v>
    <v>       0.16666667       0.91666667       0.50000000 </v>
    <v>       0.25000000       0.50000000       0.59169983 </v>
    <v>       0.16666667       0.66666667       0.50000000 </v>
    <v>       0.41666667       0.91666667       0.50000000 </v>
    <v>       0.08333333       0.08333333       0.40830017 </v>
   </varray>
  </structure>
  <varray name="forces" >
   <v>      -0.12278774      -0.37069370       1.29651742 </v>
   <v>       0.13423140       0.22225739      -1.83443038 </v>
   <v>      -0.19606666      -0.16502203       1.28702266 </v>
   <v>      -0.12388602      -0.09013282      -1.40318079 </v>
   <v>      -0.22854713      -0.51534336       0.34187620 </v>
   <v>       0.11341507      -0.47674862      -1.31596759 </v>
   <v>       0.13468414       0.40039397       1.59309031 </v>
   <v>       0.02101941       0.15249770       0.54301071 </v>
   <v>       0.13204082       0.08084277      -1.61743240 </v>
   <v>      -0.23680989       0.12714676       1.60729275 </v>
   <v>       0.11210912       0.33441682      -0.03554966 </v>
   <v>      -0.00853482       0.32357893      -1.52934282 </v>
   <v>      -0.52084738      -0.09009900      -0.27856623 </v>
   <v>       0.01135980       0.55181911      -1.30994207 </v>
   <v>      -0.26396627      -0.28531833      -1.39701602 </v>
   <v>       0.30325206      -0.10087580       0.05913773 </v>
   <v>      -0.16731730      -0.09960530       1.63993790 </v>
   <v>       0.69131854       0.18850367      -0.26968611 </v>
   <v>       0.09521017       0.08407893       1.34111312 </v>
   <v>       0.08034834      -0.15987196       0.25417052 </v>
   <v>      -0.00162195       0.27988711       1.38071484 </v>
   <v>      -0.44075609      -0.04458493      -0.30083058 </v>
   <v>       0.21993161      -0.26219328       1.57144062 </v>
   <v>       0.25958127      -0.15896316      -1.60175680 </v>
   <v>       0.21026145       0.43224936       0.00067819 </v>
   <v>      -0.10047953      -0.00792153       0.70091251 </v>
   <v>       0.07584659       0.12877673       0.99177778 </v>
   <v>       0.17198383       0.10595644      -0.69240443 </v>
   <v>      -0.03846927       0.03460634       0.65408054 </v>
   <v>       0.06933387      -0.29222445      -0.83804934 </v>
   <v>      -0.14633256       0.22784439       0.02653346 </v>
   <v>       0.00745380       0.01616816      -0.04895802 </v>
   <v>      -0.05076473      -0.28829470       0.00716149 </v>
   <v>      -0.02613147      -0.05811596       0.73520030 </v>
   <v>      -0.18534822      -0.19880219       0.74801404 </v>
   <v>      -0.14331194       0.10531451      -0.74550153 </v>
   <v>       0.08405991      -0.04271001      -0.83005306 </v>
   <v>       0.08929120       0.32014362       0.68462341 </v>
   <v>      -0.02905185      -0.14039554       0.22560697 </v>
   <v>      -0.18018237      -0.20482544      -0.68802458 </v>
   <v>       0.04075714       0.24387948      -0.69439275 </v>
   <v>       0.16681597      -0.18505579       0.89191041 </v>
   <v>      -0.14218905       0.01183709      -0.82754554 </v>
   <v>      -0.10130205       0.11527018      -0.35779452 </v>
   <v>       0.16230730      -0.04761494       0.67719807 </v>
   <v>       0.13381398       0.01355706       0.19645235 </v>
   <v>      -0.00668260      -0.20341998      -0.22329147 </v>
   <v>      -0.05903988      -0.01219369      -0.61575759 </v>
  </varray>
  <energy>
   <i name="e_fr_energy">   -188.71351188 </i>
   <i name="e_wo_entrp">   -188.58329711 </i>
   <i name="e_0_energy">     -0.26042955 </i>
  </energy>
  <time name="totalsc">  282.62  284.32</time>
 </calculation>
 <calculation>
  <scstep>
   <time name="dav">    9.41    9.45</time>
   <time name="total">    9.69    9.74</time>
   <dipole>
    <v name="dipole">      0.00000000       0.00000000      -0.00366473 </v>
    <i name="Tr[quadrupol]"> -10263.14624390 </i>
    <i name="Echarged">      0.00000000 </i>
    <i name="Edipol_quadrupol">      0.00000000 </i>
    <i name="Eion">      0.00000000 </i>
   </dipole>
   <energy>
    <i name="alphaZ">    805.86936400 </i>
    <i name="ewald"> 197465.74951055 </i>
    <i name="hartreedc">-239676.74367452 </i>
    <i name="XCdc">   -345.57336888 </i>
    <i name="pawpsdc">  49363.15425093 </i>
    <i name="pawaedc"> -47440.92591076 </i>
    <i name="eentropy">     -0.25621341 </i>
    <i name="bandstr">  -2020.84603739 </i>
    <i name="atom">  41659.78587232 </i>
    <i name="e_fr_energy">   -189.78620716 </i>
    <i name="e_wo_entrp">   -189.52999375 </i>
    <i name="e_0_energy">   -189.65810045 </i>
   </energy>
  </scstep>
  <scstep>
   <time name="diag">    1.59    1.60</time>
   <time name="diis">    5.09    5.20</time>
   <time name="orth">    0.38    0.38</time>
   <time name="total">    7.34    7.46</time>
   <dipole>
    <v name="dipole">      0.00000000       0.00000000      -0.00416346 </v>
    <i name="Tr[quadrupol]"> -10262.90368150 </i>
    <i name="Echarged">      0.00000000 </i>
    <i name="Edipol_quadrupol">      0.00000000 </i>
    <i name="Eion">      0.00000000 </i>
   </dipole>
   <energy>
    <i name="e_fr_energy">   -190.16086691 </i>
    <i name="e_wo_entrp">   -189.90903045 </i>
    <i name="e_0_energy">   -190.03494868 </i>
   </energy>
  </scstep>
  <scstep>
   <time name="diag">    1.63    1.63</time>
   <time name="diis">    5.31    5.33</time>
   <time name="orth">    0.38    0.38</time>
   <time name="total">    7.60    7.63</time>
   <dipole>
    <v name="dipole">      0.00000000       0.00000000      -0.01370674 </v>
    <i name="Tr[quadrupol]"> -10263.37185539 </i>
    <i name="Echarged">      0.00000000 </i>
    <i name="Edipol_quadrupol">      0.00000000 </i>
    <i name="Eion">      0.00000000 </i>
   </dipole>
   <energy>
    <i name="e_fr_energy">   -190.24900509 </i>
    <i name="e_wo_entrp">   -189.98542160 </i>
    <i name="e_0_energy">   -190.11721334 </i>
   </energy>
  </scstep>
  <scstep>
   <time name="diag">    1.60    1.61</time>
   <time name="diis">    5.24    5.26</time>
   <time name="orth">    0.38    0.38</time>
   <time name="total">    7.51    7.53</time>
   <dipole>
    <v name="dipole">      0.00000000       0.00000000       0.01307249 </v>
    <i name="Tr[quadrupol]"> -10263.24391358 </i>
    <i name="Echarged">      0.00000000 </i>
    <i name="Edipol_quadrupol">      0.00000000 </i>
    <i name="Eion">      0.00000000 </i>
   </dipole>
   <energy>
    <i name="e_fr_energy">   -190.15419442 </i>
    <i name="e_wo_entrp">   -189.90038724 </i>
    <i name="e_0_energy">   -190.02729083 </i>
   </energy>
  </scstep>
  <scstep>
   <time name="diag">    1.61    1.62</time>
   <time name="diis">    5.15    5.16</time>
   <time name="orth">    0.38    0.38</time>
   <time name="total">    7.43    7.45</time>
   <dipole>
    <v name="dipole">      0.00000000       0.00000000      -0.06416618 </v>
    <i name="Tr[quadrupol]"> -10263.21752701 </i>
    <i name="Echarged">      0.00000000 </i>
    <i name="Edipol_quadrupol">      0.00000000 </i>
    <i name="Eion">      0.00000000 </i>
   </dipole>
   <energy>
    <i name="e_fr_energy">   -190.23115990 </i>
    <i name="e_wo_entrp">   -189.99176583 </i>
    <i name="e_0_energy">   -190.11146286 </i>
   </energy>
  </scstep>
  <scstep>
   <time name="diag">    1.59    1.60</time>
   <time name="diis">    5.21    5.23</time>
   <time name="orth">    0.38    0.38</time>
   <time name="total">    7.47    7.49</time>
   <dipole>
    <v name="dipole">      0.00000000       0.00000000       0.02606368 </v>
    <i name="Tr[quadrupol]"> -10263.22055374 </i>
    <i name="Echarged">      0.00000000 </i>
    <i name="Edipol_quadrupol">      0.00000000 </i>
    <i name="Eion">      0.00000000 </i>
   </dipole>
   <energy>
    <i name="e_fr_energy">   -190.15280428 </i>
    <i name="e_wo_entrp">   -189.90151160 </i>
    <i name="e_0_energy">   -190.02715794 </i>
   </energy>
  </scstep>
  <scstep>
   <time name="diag">    1.62    1.63</time>
   <time name="diis">    5.11    5.22</time>
   <time name="orth">    0.38    0.38</time>
   <time name="total">    7.39    7.51</time>
   <dipole>
    <v name="dipole">      0.00000000       0.00000000      -0.01356492 </v>
    <i name="Tr[quadrupol]"> -10263.21249627 </i>
    <i name="Echarged">      0.00000000 </i>
    <i name="Edipol_quadrupol">      0.00000000 </i>
    <i name="Eion">      0.00000000 </i>
   </dipole>
   <energy>
    <i name="e_fr_energy">   -190.13505688 </i>
    <i name="e_wo_entrp">   -189.87717315 </i>
    <i name="e_0_energy">   -190.00611502 </i>
   </energy>
  </scstep>
  <scstep>
   <time name="diag">    1.60    1.61</time>
   <time name="diis">    5.12    5.14</time>
   <time name="orth">    0.38    0.38</time>
   <time name="total">    7.38    7.41</time>
   <dipole>
    <v name="dipole">      0.00000000       0.00000000      -0.00332443 </v>
    <i name="Tr[quadrupol]"> -10263.18846004 </i>
    <i name="Echarged">      0.00000000 </i>
    <i name="Edipol_quadrupol">      0.00000000 </i>
    <i name="Eion">      0.00000000 </i>
   </dipole>
   <energy>
    <i name="e_fr_energy">   -190.13302597 </i>
    <i name="e_wo_entrp">   -189.87694504 </i>
    <i name="e_0_energy">   -190.00498551 </i>
   </energy>
  </scstep>
  <scstep>
   <time name="diag">    1.62    1.62</time>
   <time name="diis">    5.31    5.32</time>
   <time name="orth">    0.38    0.38</time>
   <time name="total">    7.59    7.61</time>
   <dipole>
    <v name="dipole">      0.00000000       0.00000000      -0.00401918 </v>
    <i name="Tr[quadrupol]"> -10263.17670468 </i>
    <i name="Echarged">      0.00000000 </i>
    <i name="Edipol_quadrupol">      0.00000000 </i>
    <i name="Eion">      0.00000000 </i>
   </dipole>
   <energy>
    <i name="e_fr_energy">   -190.13168792 </i>
    <i name="e_wo_entrp">   -189.87488412 </i>
    <i name="e_0_energy">   -190.00328602 </i>
   </energy>
  </scstep>
  <scstep>
   <time name="diag">    1.59    1.59</time>
   <time name="diis">    5.10    5.11</time>
   <time name="orth">    0.38    0.38</time>
   <time name="total">    7.35    7.37</time>
   <dipole>
    <v name="dipole">      0.00000000       0.00000000      -0.00440611 </v>
    <i name="Tr[quadrupol]"> -10263.17192337 </i>
    <i name="Echarged">      0.00000000 </i>
    <i name="Edipol_quadrupol">      0.00000000 </i>
    <i name="Eion">      0.00000000 </i>
   </dipole>
   <energy>
    <i name="e_fr_energy">   -190.13142642 </i>
    <i name="e_wo_entrp">   -189.87406010 </i>
    <i name="e_0_energy">   -190.00274326 </i>
   </energy>
  </scstep>
  <scstep>
   <time name="diag">    1.62    1.63</time>
   <time name="diis">    5.19    5.20</time>
   <time name="orth">    0.38    0.38</time>
   <time name="total">    7.47    7.49</time>
   <dipole>
    <v name="dipole">      0.00000000       0.00000000      -0.00453405 </v>
    <i name="Tr[quadrupol]"> -10263.17065993 </i>
    <i name="Echarged">      0.00000000 </i>
    <i name="Edipol_quadrupol">      0.00000000 </i>
    <i name="Eion">      0.00000000 </i>
   </dipole>
   <energy>
    <i name="e_fr_energy">   -190.13129137 </i>
    <i name="e_wo_entrp">   -189.87426802 </i>
    <i name="e_0_energy">   -190.00277970 </i>
   </energy>
  </scstep>
  <scstep>
   <time name="diag">    1.60    1.61</time>
   <time name="diis">    5.18    5.20</time>
   <time name="orth">    0.37    0.39</time>
   <time name="total">    7.44    7.50</time>
   <dipole>
    <v name="dipole">      0.00000000       0.00000000      -0.00431709 </v>
    <i name="Tr[quadrupol]"> -10263.17418245 </i>
    <i name="Echarged">      0.00000000 </i>
    <i name="Edipol_quadrupol">      0.00000000 </i>
    <i name="Eion">      0.00000000 </i>
   </dipole>
   <energy>
    <i name="e_fr_energy">   -190.13128265 </i>
    <i name="e_wo_entrp">   -189.87404407 </i>
    <i name="e_0_energy">   -190.00266336 </i>
   </energy>
  </scstep>
  <scstep>
   <time name="diag">    1.59    1.62</time>
   <time name="diis">    5.18    5.19</time>
   <time name="orth">    0.38    0.38</time>
   <time name="total">    7.43    7.48</time>
   <dipole>
    <v name="dipole">      0.00000000       0.00000000      -0.00431047 </v>
    <i name="Tr[quadrupol]"> -10263.17744939 </i>
    <i name="Echarged">      0.00000000 </i>
    <i name="Edipol_quadrupol">      0.00000000 </i>
    <i name="Eion">      0.00000000 </i>
   </dipole>
   <energy>
    <i name="e_fr_energy">   -190.13127014 </i>
    <i name="e_wo_entrp">   -189.87413720 </i>
    <i name="e_0_energy">   -190.00270367 </i>
   </energy>
  </scstep>
  <scstep>
   <time name="diag">    1.58    1.59</time>
   <time name="diis">    5.21    5.24</time>
   <time name="orth">    0.38    0.38</time>
   <time name="total">    7.45    7.49</time>
   <dipole>
    <v name="dipole">      0.00000000       0.00000000      -0.00430516 </v>
    <i name="Tr[quadrupol]"> -10263.18110378 </i>
    <i name="Echarged">      0.00000000 </i>
    <i name="Edipol_quadrupol">      0.00000000 </i>
    <i name="Eion">      0.00000000 </i>
   </dipole>
   <energy>
    <i name="e_fr_energy">   -190.13126741 </i>
    <i name="e_wo_entrp">   -189.87414873 </i>
    <i name="e_0_energy">   -190.00270807 </i>
   </energy>
  </scstep>
  <scstep>
   <time name="diag">    1.62    1.62</time>
   <time name="diis">    4.22    4.24</time>
   <time name="orth">    0.38    0.38</time>
   <time name="total">    6.50    6.52</time>
   <dipole>
    <v name="dipole">      0.00000000       0.00000000      -0.00431196 </v>
    <i name="Tr[quadrupol]"> -10263.18341559 </i>
    <i name="Echarged">      0.00000000 </i>
    <i name="Edipol_quadrupol">      0.00000000 </i>
    <i name="Eion">      0.00000000 </i>
   </dipole>
   <energy>
    <i name="e_fr_energy">   -190.13126452 </i>
    <i name="e_wo_entrp">   -189.87418634 </i>
    <i name="e_0_energy">   -190.00272543 </i>
   </energy>
  </scstep>
  <scstep>
   <time name="diag">    1.60    1.61</time>
   <time name="diis">    3.02    3.03</time>
   <time name="orth">    0.38    0.38</time>
   <time name="total">    5.05    5.07</time>
   <dipole>
    <v name="dipole">      0.00000000       0.00000000      -0.00435925 </v>
    <i name="Tr[quadrupol]"> -10263.18570450 </i>
    <i name="Echarged">      0.00000000 </i>
    <i name="Edipol_quadrupol">      0.00000000 </i>
    <i name="Eion">      0.00000000 </i>
   </dipole>
   <energy>
    <i name="alphaZ">    805.86936384 </i>
    <i name="ewald"> 197465.74951055 </i>
    <i name="hartreedc">-239678.67223310 </i>
    <i name="XCdc">   -345.51801638 </i>
    <i name="pawpsdc">  48917.55970114 </i>
    <i name="pawaedc"> -46992.19529013 </i>
    <i name="eentropy">     -0.25707152 </i>
    <i name="bandstr">  -2022.45310220 </i>
    <i name="atom">  41659.78587232 </i>
    <i name="e_fr_energy">   -190.13126548 </i>
    <i name="e_wo_entrp">   -189.87419396 </i>
    <i name="e_0_energy">   -190.00272972 </i>
   </energy>
  </scstep>
  <structure>
   <crystal>
    <varray name="basis" >
     <v>      11.00258152       0.00000000       0.00000000 </v>
     <v>       5.50129076       9.52851510       0.00000000 </v>
     <v>       0.00000000       0.00000000      24.49178509 </v>
    </varray>
    <i name="volume">   2567.67623402 </i>
    <varray name="rec_basis" >
     <v>       0.09088776      -0.05247407       0.00000000 </v>
     <v>       0.00000000       0.10494815       0.00000000 </v>
     <v>       0.00000000       0.00000000       0.04083002 </v>
    </varray>
   </crystal>
   <varray name="positions" >
    <v>       0.25028002       0.74868623       0.59348750 </v>
    <v>       0.83335148       0.83412103       0.40577081 </v>
    <v>       0.74969065       0.49941515       0.59347441 </v>
    <v>       0.83311281       0.58301390       0.40636543 </v>
    <v>       0.66687840       0.41484025       0.50047139 </v>
    <v>       0.83452625       0.33164370       0.40648568 </v>
    <v>       0.74970387       0.00141903       0.59389642 </v>
    <v>       0.41646095       0.66720713       0.50074872 </v>
    <v>       0.58359535       0.58361985       0.40607001 </v>
    <v>       0.49904786       0.00045062       0.59391600 </v>
    <v>       0.41641816       0.16785187       0.49995098 </v>
    <v>       0.58273374       0.08448012       0.40619147 </v>
    <v>       0.66522771       0.91634735       0.49961591 </v>
    <v>       0.33239035       0.83528903       0.40649399 </v>
    <v>       0.33302875       0.58232214       0.40637393 </v>
    <v>       0.16777618       0.41630915       0.50008154 </v>
    <v>       0.74966296       0.74964699       0.59396102 </v>
    <v>       0.91845447       0.91733474       0.49962815 </v>
    <v>       0.25014323       0.00029798       0.59354899 </v>
    <v>       0.91719658       0.66610007       0.50035046 </v>
    <v>      -0.00050095       0.00099194       0.59360359 </v>
    <v>       0.16539288       0.16650865       0.49958521 </v>
    <v>       0.00113965       0.49907076       0.59386657 </v>
    <v>       0.08441175       0.58276995       0.40609163 </v>
    <v>       0.66654605       0.16819859       0.50000094 </v>
    <v>      -0.00029436       0.24997193       0.59266627 </v>
    <v>       0.25000460       0.25045640       0.59306732 </v>
    <v>       0.83367344       0.08370885       0.40734547 </v>
    <v>       0.74982060       0.25012265       0.59260169 </v>
    <v>       0.08406397       0.33229767       0.40714465 </v>
    <v>       0.66581378       0.66747417       0.50003658 </v>
    <v>       0.91666089       0.16672397       0.49993250 </v>
    <v>       0.91702173       0.41564493       0.50000987 </v>
    <v>       0.50002278       0.74979403       0.59271354 </v>
    <v>       0.49978340       0.49929543       0.59273121 </v>
    <v>       0.58270685       0.83370658       0.40727225 </v>
    <v>       0.33366702       0.33318197       0.40715567 </v>
    <v>       0.49970675       0.25113462       0.59264381 </v>
    <v>       0.41682629       0.41616909       0.50031107 </v>
    <v>       0.58314326       0.33260741       0.40735150 </v>
    <v>       0.08302626       0.83419766       0.40734272 </v>
    <v>       0.00083993       0.74934415       0.59292962 </v>
    <v>       0.33287594       0.08337528       0.40715913 </v>
    <v>       0.16615148       0.91707519       0.49950666 </v>
    <v>       0.25058254       0.49983125       0.59263357 </v>
    <v>       0.16705335       0.66671471       0.50027087 </v>
    <v>       0.41700662       0.91594573       0.49969212 </v>
    <v>       0.08317373       0.08329012       0.40745115 </v>
   </varray>
  </structure>
  <varray name="forces" >
   <v>      -0.07946913      -0.13797002       1.01602054 </v>
   <v>       0.07873311       0.10709111      -1.24949747 </v>
   <v>      -0.10795087      -0.09584325       0.93579875 </v>
   <v>       0.00335463      -0.05635156      -0.96390096 </v>
   <v>      -0.04021448      -0.12970827       0.03123836 </v>
   <v>       0.02262264      -0.23777373      -0.96556567 </v>
   <v>       0.01704805       0.16720171       1.01931261 </v>
   <v>      -0.01007327       0.04382354       0.08531269 </v>
   <v>      -0.02846820       0.00506260      -1.06573667 </v>
   <v>      -0.07498753       0.10780899       1.11679675 </v>
   <v>       0.06252628       0.03744770       0.01325698 </v>
   <v>      -0.00827024       0.17684594      -1.11805139 </v>
   <v>      -0.07959643       0.01833218      -0.06994820 </v>
   <v>      -0.03003813       0.20822775      -0.96876354 </v>
   <v>      -0.01925348      -0.10061771      -0.95305337 </v>
   <v>       0.08321927       0.02484470       0.00675895 </v>
   <v>      -0.05142919      -0.01257832       1.17799622 </v>
   <v>       0.14953693       0.09678016      -0.05333534 </v>
   <v>       0.01365404       0.03428350       0.93028418 </v>
   <v>       0.01562827      -0.04269742       0.06570588 </v>
   <v>       0.04156913       0.11436827       1.02356941 </v>
   <v>      -0.17342084      -0.09291946      -0.07169572 </v>
   <v>       0.11568041      -0.17155592       1.14488775 </v>
   <v>       0.06451754      -0.07593346      -1.12708808 </v>
   <v>       0.04273380       0.01988776       0.00202699 </v>
   <v>      -0.03502762       0.00114349       0.55632509 </v>
   <v>       0.03545849       0.06016247       0.71474823 </v>
   <v>       0.07287527       0.06675785      -0.58021840 </v>
   <v>      -0.01910282       0.02797380       0.59863689 </v>
   <v>       0.09038342      -0.15992667      -0.65169390 </v>
   <v>      -0.07497108      -0.02300052       0.00481213 </v>
   <v>      -0.00262079       0.00873822       0.00288649 </v>
   <v>      -0.05837688      -0.05290263      -0.00169432 </v>
   <v>      -0.03072937      -0.03423062       0.62110099 </v>
   <v>      -0.10019775      -0.13653559       0.64025730 </v>
   <v>      -0.05632947       0.08525459      -0.63755546 </v>
   <v>       0.01877961      -0.05811641      -0.67217678 </v>
   <v>       0.03344267       0.18305392       0.57803931 </v>
   <v>       0.01517571       0.04273275       0.06440635 </v>
   <v>      -0.05958622      -0.06788871      -0.54181695 </v>
   <v>       0.04296543       0.10579539      -0.59677235 </v>
   <v>       0.04840936      -0.04917987       0.65627978 </v>
   <v>      -0.04560198       0.06309935      -0.63617036 </v>
   <v>       0.03702404       0.02561754      -0.06163858 </v>
   <v>       0.08429994      -0.05588737       0.57956158 </v>
   <v>       0.12407952      -0.02497010       0.03723403 </v>
   <v>      -0.07716697      -0.00824169      -0.05878012 </v>
   <v>      -0.05083479      -0.00750596      -0.57810061 </v>
  </varray>
  <energy>
   <i name="e_fr_energy">   -190.13126548 </i>
   <i name="e_wo_entrp">   -190.00272972 </i>
   <i name="e_0_energy">     -0.25707152 </i>
  </energy>
  <time name="totalsc">  121.45  122.17</time>
 </calculation>
 <calculation>
  <scstep>
   <time name="dav">    9.38    9.42</time>
   <time name="total">    9.67    9.72</time>
   <dipole>
    <v name="dipole">      0.00000000       0.00000000      -0.00434846 </v>
    <i name="Tr[quadrupol]"> -10245.37725003 </i>
    <i name="Echarged">      0.00000000 </i>
    <i name="Edipol_quadrupol">      0.00000000 </i>
    <i name="Eion">      0.00000000 </i>
   </dipole>
   <energy>
    <i name="alphaZ">    805.86936451 </i>
    <i name="ewald"> 189501.34040601 </i>
    <i name="hartreedc">-231755.75931225 </i>
    <i name="XCdc">   -351.04747812 </i>
    <i name="pawpsdc">  48917.51294252 </i>
    <i name="pawaedc"> -46992.14848637 </i>
    <i name="eentropy">     -0.23951813 </i>
    <i name="bandstr">  -1974.05210246 </i>
    <i name="atom">  41659.78587232 </i>
    <i name="e_fr_energy">   -188.73831196 </i>
    <i name="e_wo_entrp">   -188.49879383 </i>
    <i name="e_0_energy">   -188.61855290 </i>
   </energy>
  </scstep>
  <scstep>
   <time name="diag">    1.58    1.64</time>
   <time name="diis">    5.13    5.15</time>
   <time name="orth">    0.38    0.38</time>
   <time name="total">    7.37    7.45</time>
   <dipole>
    <v name="dipole">      0.00000000       0.00000000      -0.00461821 </v>
    <i name="Tr[quadrupol]"> -10244.56721918 </i>
    <i name="Echarged">      0.00000000 </i>
    <i name="Edipol_quadrupol">      0.00000000 </i>
    <i name="Eion">      0.00000000 </i>
   </dipole>
   <energy>
    <i name="e_fr_energy">   -192.04668823 </i>
    <i name="e_wo_entrp">   -191.82271456 </i>
    <i name="e_0_energy">   -191.93470140 </i>
   </energy>
  </scstep>
  <scstep>
   <time name="diag">    1.57    1.60</time>
   <time name="diis">    5.29    5.33</time>
   <time name="orth">    0.38    0.38</time>
   <time name="total">    7.52    7.60</time>
   <dipole>
    <v name="dipole">      0.00000000       0.00000000      -0.03246938 </v>
    <i name="Tr[quadrupol]"> -10245.74043058 </i>
    <i name="Echarged">      0.00000000 </i>
    <i name="Edipol_quadrupol">      0.00000000 </i>
    <i name="Eion">      0.00000000 </i>
   </dipole>
   <energy>
    <i name="e_fr_energy">   -192.54440160 </i>
    <i name="e_wo_entrp">   -192.32857392 </i>
    <i name="e_0_energy">   -192.43648776 </i>
   </energy>
  </scstep>
  <scstep>
   <time name="diag">    1.62    1.63</time>
   <time name="diis">    5.16    5.17</time>
   <time name="orth">    0.38    0.38</time>
   <time name="total">    7.44    7.47</time>
   <dipole>
    <v name="dipole">      0.00000000       0.00000000       0.01353758 </v>
    <i name="Tr[quadrupol]"> -10245.43723667 </i>
    <i name="Echarged">      0.00000000 </i>
    <i name="Edipol_quadrupol">      0.00000000 </i>
    <i name="Eion">      0.00000000 </i>
   </dipole>
   <energy>
    <i name="e_fr_energy">   -191.85352864 </i>
    <i name="e_wo_entrp">   -191.62121495 </i>
    <i name="e_0_energy">   -191.73737180 </i>
   </energy>
  </scstep>
  <scstep>
   <time name="diag">    1.61    1.61</time>
   <time name="diis">    5.13    5.14</time>
   <time name="orth">    0.38    0.38</time>
   <time name="total">    7.40    7.42</time>
   <dipole>
    <v name="dipole">      0.00000000       0.00000000      -0.14632201 </v>
    <i name="Tr[quadrupol]"> -10245.55215553 </i>
    <i name="Echarged">      0.00000000 </i>
    <i name="Edipol_quadrupol">      0.00000000 </i>
    <i name="Eion">      0.00000000 </i>
   </dipole>
   <energy>
    <i name="e_fr_energy">   -192.30848373 </i>
    <i name="e_wo_entrp">   -192.09819561 </i>
    <i name="e_0_energy">   -192.20333967 </i>
   </energy>
  </scstep>
  <scstep>
   <time name="diag">    1.62    1.62</time>
   <time name="diis">    5.25    5.27</time>
   <time name="orth">    0.38    0.38</time>
   <time name="total">    7.53    7.55</time>
   <dipole>
    <v name="dipole">      0.00000000       0.00000000       0.08649059 </v>
    <i name="Tr[quadrupol]"> -10245.59600332 </i>
    <i name="Echarged">      0.00000000 </i>
    <i name="Edipol_quadrupol">      0.00000000 </i>
    <i name="Eion">      0.00000000 </i>
   </dipole>
   <energy>
    <i name="e_fr_energy">   -191.93642916 </i>
    <i name="e_wo_entrp">   -191.71004929 </i>
    <i name="e_0_energy">   -191.82323923 </i>
   </energy>
  </scstep>
  <scstep>
   <time name="diag">    1.58    1.59</time>
   <time name="diis">    5.08    5.19</time>
   <time name="orth">    0.38    0.38</time>
   <time name="total">    7.32    7.44</time>
   <dipole>
    <v name="dipole">      0.00000000       0.00000000      -0.04248780 </v>
    <i name="Tr[quadrupol]"> -10245.50517972 </i>
    <i name="Echarged">      0.00000000 </i>
    <i name="Edipol_quadrupol">      0.00000000 </i>
    <i name="Eion">      0.00000000 </i>
   </dipole>
   <energy>
    <i name="e_fr_energy">   -191.82770870 </i>
    <i name="e_wo_entrp">   -191.58510093 </i>
    <i name="e_0_energy">   -191.70640481 </i>
   </energy>
  </scstep>
  <scstep>
   <time name="diag">    1.62    1.63</time>
   <time name="diis">    5.17    5.19</time>
   <time name="orth">    0.38    0.38</time>
   <time name="total">    7.45    7.48</time>
   <dipole>
    <v name="dipole">      0.00000000       0.00000000       0.00563949 </v>
    <i name="Tr[quadrupol]"> -10245.39544646 </i>
    <i name="Echarged">      0.00000000 </i>
    <i name="Edipol_quadrupol">      0.00000000 </i>
    <i name="Eion">      0.00000000 </i>
   </dipole>
   <energy>
    <i name="e_fr_energy">   -191.78389785 </i>
    <i name="e_wo_entrp">   -191.54431516 </i>
    <i name="e_0_energy">   -191.66410651 </i>
   </energy>
  </scstep>
  <scstep>
   <time name="diag">    1.61    1.62</time>
   <time name="diis">    5.14    5.15</time>
   <time name="orth">    0.38    0.38</time>
   <time name="total">    7.41    7.44</time>
   <dipole>
    <v name="dipole">      0.00000000       0.00000000      -0.00550157 </v>
    <i name="Tr[quadrupol]"> -10245.36092406 </i>
    <i name="Echarged">      0.00000000 </i>
    <i name="Edipol_quadrupol">      0.00000000 </i>
    <i name="Eion">      0.00000000 </i>
   </dipole>
   <energy>
    <i name="e_fr_energy">   -191.76846459 </i>
    <i name="e_wo_entrp">   -191.52347620 </i>
    <i name="e_0_energy">   -191.64597039 </i>
   </energy>
  </scstep>
  <scstep>
   <time name="diag">    1.62    1.62</time>
   <time name="diis">    5.11    5.12</time>
   <time name="orth">    0.39    0.39</time>
   <time name="total">    7.39    7.41</time>
   <dipole>
    <v name="dipole">      0.00000000       0.00000000      -0.00625907 </v>
    <i name="Tr[quadrupol]"> -10245.35590148 </i>
    <i name="Echarged">      0.00000000 </i>
    <i name="Edipol_quadrupol">      0.00000000 </i>
    <i name="Eion">      0.00000000 </i>
   </dipole>
   <energy>
    <i name="e_fr_energy">   -191.76803878 </i>
    <i name="e_wo_entrp">   -191.52396522 </i>
    <i name="e_0_energy">   -191.64600200 </i>
   </energy>
  </scstep>
  <scstep>
   <time name="diag">    1.56    1.60</time>
   <time name="diis">    5.16    5.19</time>
   <time name="orth">    0.38    0.38</time>
   <time name="total">    7.38    7.45</time>
   <dipole>
    <v name="dipole">      0.00000000       0.00000000      -0.00596423 </v>
    <i name="Tr[quadrupol]"> -10245.35895624 </i>
    <i name="Echarged">      0.00000000 </i>
    <i name="Edipol_quadrupol">      0.00000000 </i>
    <i name="Eion">      0.00000000 </i>
[...]
       <r>    2.3057    0.0000 </r>
       <r>    2.3458    0.0000 </r>
       <r>    2.4841    0.0000 </r>
       <r>    2.5504    0.0000 </r>
       <r>    2.7266    0.0000 </r>
       <r>    2.9991    0.0000 </r>
       <r>    3.1789    0.0000 </r>
       <r>    3.1995    0.0000 </r>
       <r>    3.5228    0.0000 </r>
       <r>    3.5912    0.0000 </r>
       <r>    3.8030    0.0000 </r>
       <r>    4.0280    0.0000 </r>
       <r>    4.0869    0.0000 </r>
       <r>    4.1759    0.0000 </r>
       <r>    4.4807    0.0000 </r>
       <r>    4.5200    0.0000 </r>
       <r>    4.6154    0.0000 </r>
       <r>    4.6336    0.0000 </r>
       <r>    4.8080    0.0000 </r>
       <r>    4.8473    0.0000 </r>
       <r>    4.8748    0.0000 </r>
       <r>    4.9195    0.0000 </r>
       <r>    4.9901    0.0000 </r>
       <r>    5.0451    0.0000 </r>
       <r>    5.0672    0.0000 </r>
       <r>    5.0930    0.0000 </r>
       <r>    5.1551    0.0000 </r>
       <r>    5.2440    0.0000 </r>
      </set>
     </set>
    </set>
   </array>
  </eigenvalues>
  <separator name="orbital magnetization" >
   <v name="MAGDIPOLOUT">      0.00000000      0.00000000      0.00000000</v>
  </separator>
  <dos>
   <i name="efermi">     -1.10499104 </i>
   <total>
    <array>
     <dimension dim="1">gridpoints</dimension>
     <dimension dim="2">spin</dimension>
     <field>energy</field>
     <field>total</field>
     <field>integrated</field>
     <set>
      <set comment="spin 1">
       <r>    -9.7080     0.0000     0.0000 </r>
       <r>    -9.6544     0.0000     0.0000 </r>
       <r>    -9.6008     0.0000     0.0000 </r>
       <r>    -9.5473     0.0000     0.0000 </r>
       <r>    -9.4937     0.0000     0.0000 </r>
       <r>    -9.4401     0.0000     0.0000 </r>
       <r>    -9.3865     0.0000     0.0000 </r>
       <r>    -9.3329     0.0000     0.0000 </r>
       <r>    -9.2794     0.0000     0.0000 </r>
       <r>    -9.2258     0.0000     0.0000 </r>
       <r>    -9.1722     0.0000     0.0000 </r>
       <r>    -9.1186     0.0000     0.0000 </r>
       <r>    -9.0651     0.0000     0.0000 </r>
       <r>    -9.0115     0.0001     0.0000 </r>
       <r>    -8.9579     0.0023     0.0001 </r>
       <r>    -8.9043     0.0327     0.0019 </r>
       <r>    -8.8508     0.2644     0.0160 </r>
       <r>    -8.7972     1.2376     0.0824 </r>
       <r>    -8.7436     3.3669     0.2627 </r>
       <r>    -8.6900     5.3680     0.5503 </r>
       <r>    -8.6365     5.2696     0.8327 </r>
       <r>    -8.5829     4.1646     1.0558 </r>
       <r>    -8.5293     4.5030     1.2970 </r>
       <r>    -8.4757     5.3941     1.5860 </r>
       <r>    -8.4222     4.5113     1.8277 </r>
       <r>    -8.3686     2.3315     1.9526 </r>
       <r>    -8.3150     0.7365     1.9921 </r>
       <r>    -8.2614     0.1968     2.0026 </r>
       <r>    -8.2079     0.3454     2.0211 </r>
       <r>    -8.1543     1.1351     2.0819 </r>
       <r>    -8.1007     2.5986     2.2212 </r>
       <r>    -8.0471     4.5025     2.4624 </r>
       <r>    -7.9936     6.7186     2.8223 </r>
       <r>    -7.9400     9.1729     3.3138 </r>
       <r>    -7.8864    11.0186     3.9041 </r>
       <r>    -7.8328    10.8757     4.4868 </r>
       <r>    -7.7793     9.0848     4.9735 </r>
       <r>    -7.7257     7.4365     5.3719 </r>
       <r>    -7.6721     6.7002     5.7309 </r>
       <r>    -7.6185     6.7262     6.0913 </r>
       <r>    -7.5650     7.3475     6.4849 </r>
       <r>    -7.5114     8.3441     6.9319 </r>
       <r>    -7.4578     8.9382     7.4108 </r>
       <r>    -7.4042     8.4112     7.8614 </r>
       <r>    -7.3507     8.4133     8.3122 </r>
       <r>    -7.2971    10.7419     8.8877 </r>
       <r>    -7.2435    13.6963     9.6215 </r>
       <r>    -7.1899    14.4825    10.3974 </r>
       <r>    -7.1363    13.0270    11.0953 </r>
       <r>    -7.0828    12.0237    11.7395 </r>
       <r>    -7.0292    13.5384    12.4648 </r>
       <r>    -6.9756    17.3856    13.3963 </r>
       <r>    -6.9220    22.2581    14.5888 </r>
       <r>    -6.8685    27.2677    16.0496 </r>
       <r>    -6.8149    32.3318    17.7818 </r>
       <r>    -6.7613    37.5057    19.7912 </r>
       <r>    -6.7077    43.0389    22.0971 </r>
       <r>    -6.6542    48.7509    24.7089 </r>
       <r>    -6.6006    52.9511    27.5458 </r>
       <r>    -6.5470    54.5086    30.4661 </r>
       <r>    -6.4934    54.8865    33.4067 </r>
       <r>    -6.4399    56.3248    36.4244 </r>
       <r>    -6.3863    58.9593    39.5831 </r>
       <r>    -6.3327    61.7108    42.8893 </r>
       <r>    -6.2791    65.2625    46.3858 </r>
       <r>    -6.2256    70.7243    50.1749 </r>
       <r>    -6.1720    77.3488    54.3189 </r>
       <r>    -6.1184    82.9396    58.7625 </r>
       <r>    -6.0648    85.5523    63.3460 </r>
       <r>    -6.0113    85.2516    67.9134 </r>
       <r>    -5.9577    82.8629    72.3528 </r>
       <r>    -5.9041    78.6847    76.5684 </r>
       <r>    -5.8505    74.0459    80.5355 </r>
       <r>    -5.7970    71.7069    84.3772 </r>
       <r>    -5.7434    72.3529    88.2535 </r>
       <r>    -5.6898    73.5400    92.1935 </r>
       <r>    -5.6362    73.4569    96.1290 </r>
       <r>    -5.5827    72.2468    99.9997 </r>
       <r>    -5.5291    71.4627   103.8283 </r>
       <r>    -5.4755    71.7910   107.6746 </r>
       <r>    -5.4219    72.0168   111.5329 </r>
       <r>    -5.3684    72.5671   115.4207 </r>
       <r>    -5.3148    74.7673   119.4264 </r>
       <r>    -5.2612    77.9912   123.6049 </r>
       <r>    -5.2076    81.4467   127.9684 </r>
       <r>    -5.1541    84.3704   132.4886 </r>
       <r>    -5.1005    85.2443   137.0556 </r>
       <r>    -5.0469    84.3645   141.5755 </r>
       <r>    -4.9933    83.8565   146.0682 </r>
       <r>    -4.9397    84.6752   150.6047 </r>
       <r>    -4.8862    85.7378   155.1981 </r>
       <r>    -4.8326    86.1360   159.8129 </r>
       <r>    -4.7790    85.8434   164.4120 </r>
       <r>    -4.7254    85.0889   168.9707 </r>
       <r>    -4.6719    84.8681   173.5176 </r>
       <r>    -4.6183    86.0983   178.1304 </r>
       <r>    -4.5647    88.0212   182.8461 </r>
       <r>    -4.5111    87.9177   187.5564 </r>
       <r>    -4.4576    84.6862   192.0935 </r>
       <r>    -4.4040    81.2984   196.4491 </r>
       <r>    -4.3504    81.1532   200.7970 </r>
       <r>    -4.2968    84.4648   205.3222 </r>
       <r>    -4.2433    88.3427   210.0552 </r>
       <r>    -4.1897    90.3977   214.8983 </r>
       <r>    -4.1361    91.5394   219.8026 </r>
       <r>    -4.0825    93.4085   224.8070 </r>
       <r>    -4.0290    95.6929   229.9338 </r>
       <r>    -3.9754    96.8548   235.1229 </r>
       <r>    -3.9218    96.1537   240.2744 </r>
       <r>    -3.8682    95.1709   245.3732 </r>
       <r>    -3.8147    95.1133   250.4690 </r>
       <r>    -3.7611    94.6196   255.5383 </r>
       <r>    -3.7075    93.1493   260.5288 </r>
       <r>    -3.6539    91.7986   265.4470 </r>
       <r>    -3.6004    90.9277   270.3185 </r>
       <r>    -3.5468    91.6538   275.2289 </r>
       <r>    -3.4932    94.9432   280.3155 </r>
       <r>    -3.4396    98.9219   285.6153 </r>
       <r>    -3.3861   101.4879   291.0526 </r>
       <r>    -3.3325   102.2071   296.5284 </r>
       <r>    -3.2789   100.7553   301.9264 </r>
       <r>    -3.2253    97.3519   307.1421 </r>
       <r>    -3.1718    93.8412   312.1697 </r>
       <r>    -3.1182    91.8364   317.0899 </r>
       <r>    -3.0646    90.9118   321.9606 </r>
       <r>    -3.0110    90.5874   326.8138 </r>
       <r>    -2.9575    91.1460   331.6970 </r>
       <r>    -2.9039    92.0870   336.6307 </r>
       <r>    -2.8503    93.2658   341.6274 </r>
       <r>    -2.7967    95.1913   346.7274 </r>
       <r>    -2.7431    97.3314   351.9420 </r>
       <r>    -2.6896    98.6147   357.2253 </r>
       <r>    -2.6360    98.7601   362.5164 </r>
       <r>    -2.5824    97.3478   367.7319 </r>
       <r>    -2.5288    93.7497   372.7546 </r>
       <r>    -2.4753    89.5835   377.5541 </r>
       <r>    -2.4217    87.8866   382.2627 </r>
       <r>    -2.3681    90.0366   387.0864 </r>
       <r>    -2.3145    93.6050   392.1014 </r>
       <r>    -2.2610    95.0022   397.1912 </r>
       <r>    -2.2074    93.6072   402.2062 </r>
       <r>    -2.1538    90.7280   407.0670 </r>
       <r>    -2.1002    88.2472   411.7949 </r>
       <r>    -2.0467    89.5661   416.5935 </r>
       <r>    -1.9931    96.3541   421.7557 </r>
       <r>    -1.9395   103.9120   427.3229 </r>
       <r>    -1.8859   106.5174   433.0296 </r>
       <r>    -1.8324   103.9524   438.5989 </r>
       <r>    -1.7788    99.9752   443.9552 </r>
       <r>    -1.7252    98.3190   449.2227 </r>
       <r>    -1.6716    98.2715   454.4876 </r>
       <r>    -1.6181    96.4304   459.6539 </r>
       <r>    -1.5645    93.5173   464.6642 </r>
       <r>    -1.5109    92.7558   469.6336 </r>
       <r>    -1.4573    94.3729   474.6897 </r>
       <r>    -1.4038    95.6294   479.8131 </r>
       <r>    -1.3502    94.8387   484.8941 </r>
       <r>    -1.2966    93.1378   489.8841 </r>
       <r>    -1.2430    89.4934   494.6787 </r>
       <r>    -1.1895    79.6765   498.9474 </r>
       <r>    -1.1359    64.2922   502.3919 </r>
       <r>    -1.0823    49.2088   505.0283 </r>
       <r>    -1.0287    36.9340   507.0071 </r>
       <r>    -0.9752    26.1265   508.4068 </r>
       <r>    -0.9216    16.7601   509.3048 </r>
       <r>    -0.8680    10.1454   509.8483 </r>
       <r>    -0.8144     7.3951   510.2445 </r>
       <r>    -0.7609     8.0338   510.6749 </r>
       <r>    -0.7073     9.5739   511.1878 </r>
       <r>    -0.6537    10.7060   511.7614 </r>
       <r>    -0.6001    12.4893   512.4305 </r>
       <r>    -0.5465    15.5449   513.2634 </r>
       <r>    -0.4930    19.1907   514.2915 </r>
       <r>    -0.4394    21.6548   515.4517 </r>
       <r>    -0.3858    21.7132   516.6150 </r>
       <r>    -0.3322    20.5843   517.7178 </r>
       <r>    -0.2787    20.5810   518.8204 </r>
       <r>    -0.2251    21.9896   519.9986 </r>
       <r>    -0.1715    21.6290   521.1573 </r>
       <r>    -0.1179    17.7746   522.1096 </r>
       <r>    -0.0644    12.9796   522.8050 </r>
       <r>    -0.0108    10.2945   523.3565 </r>
       <r>     0.0428    10.3741   523.9123 </r>
       <r>     0.0964    12.2992   524.5713 </r>
       <r>     0.1499    14.6029   525.3536 </r>
       <r>     0.2035    15.5674   526.1877 </r>
       <r>     0.2571    15.8412   527.0364 </r>
       <r>     0.3107    17.7694   527.9884 </r>
       <r>     0.3642    20.7857   529.1020 </r>
       <r>     0.4178    22.0401   530.2828 </r>
       <r>     0.4714    21.4905   531.4342 </r>
       <r>     0.5250    21.2293   532.5715 </r>
       <r>     0.5785    21.0781   533.7008 </r>
       <r>     0.6321    20.1399   534.7798 </r>
       <r>     0.6857    19.6613   535.8332 </r>
       <r>     0.7393    20.2828   536.9199 </r>
       <r>     0.7928    19.3699   537.9576 </r>
       <r>     0.8464    15.4505   538.7854 </r>
       <r>     0.9000    11.6960   539.4120 </r>
       <r>     0.9536    10.7853   539.9898 </r>
       <r>     1.0071    11.8108   540.6226 </r>
       <r>     1.0607    12.9877   541.3184 </r>
       <r>     1.1143    12.7775   542.0030 </r>
       <r>     1.1679    10.5899   542.5703 </r>
       <r>     1.2214     7.6217   542.9787 </r>
       <r>     1.2750     5.5427   543.2756 </r>
       <r>     1.3286     4.7370   543.5294 </r>
       <r>     1.3822     4.5312   543.7722 </r>
       <r>     1.4357     5.2236   544.0520 </r>
       <r>     1.4893     9.1005   544.5396 </r>
       <r>     1.5429    16.1099   545.4027 </r>
       <r>     1.5965    20.4915   546.5006 </r>
       <r>     1.6501    18.5812   547.4960 </r>
       <r>     1.7036    15.0149   548.3005 </r>
       <r>     1.7572    14.8692   549.0971 </r>
       <r>     1.8108    16.9441   550.0049 </r>
       <r>     1.8644    17.0250   550.9170 </r>
       <r>     1.9179    13.6064   551.6460 </r>
       <r>     1.9715    10.1175   552.1880 </r>
       <r>     2.0251     9.7958   552.7129 </r>
       <r>     2.0787    11.6903   553.3392 </r>
       <r>     2.1322    13.7467   554.0757 </r>
       <r>     2.1858    15.3938   554.9004 </r>
       <r>     2.2394    17.8209   555.8552 </r>
       <r>     2.2930    21.4562   557.0047 </r>
       <r>     2.3465    24.0038   558.2907 </r>
       <r>     2.4001    23.6631   559.5585 </r>
       <r>     2.4537    21.4721   560.7089 </r>
       <r>     2.5073    19.6336   561.7607 </r>
       <r>     2.5608    19.6239   562.8121 </r>
       <r>     2.6144    21.3482   563.9558 </r>
       <r>     2.6680    23.3973   565.2094 </r>
       <r>     2.7216    23.7699   566.4829 </r>
       <r>     2.7751    20.7566   567.5949 </r>
       <r>     2.8287    14.8496   568.3905 </r>
       <r>     2.8823     9.0575   568.8757 </r>
       <r>     2.9359     6.2977   569.2131 </r>
       <r>     2.9894     6.0709   569.5384 </r>
       <r>     3.0430     5.6035   569.8386 </r>
       <r>     3.0966     5.3324   570.1243 </r>
       <r>     3.1502     7.8379   570.5442 </r>
       <r>     3.2037    11.7122   571.1717 </r>
       <r>     3.2573    13.1545   571.8765 </r>
       <r>     3.3109    12.0436   572.5217 </r>
       <r>     3.3645    10.6288   573.0911 </r>
       <r>     3.4180    10.1090   573.6327 </r>
       <r>     3.4716    10.6756   574.2047 </r>
       <r>     3.5252    11.9814   574.8466 </r>
       <r>     3.5788    13.9038   575.5915 </r>
       <r>     3.6323    15.9604   576.4466 </r>
       <r>     3.6859    17.1761   577.3668 </r>
       <r>     3.7395    17.9042   578.3260 </r>
       <r>     3.7931    18.0781   579.2946 </r>
       <r>     3.8467    15.9053   580.1467 </r>
       <r>     3.9002    12.1983   580.8003 </r>
       <r>     3.9538    10.9798   581.3885 </r>
       <r>     4.0074    13.2702   582.0995 </r>
       <r>     4.0610    15.1471   582.9110 </r>
       <r>     4.1145    14.2745   583.6758 </r>
       <r>     4.1681    12.7947   584.3612 </r>
       <r>     4.2217    12.0098   585.0047 </r>
       <r>     4.2753    10.2962   585.5563 </r>
       <r>     4.3288     7.9016   585.9796 </r>
       <r>     4.3824     7.9627   586.4062 </r>
       <r>     4.4360    11.1544   587.0038 </r>
       <r>     4.4896    15.0232   587.8087 </r>
       <r>     4.5431    18.7750   588.8146 </r>
       <r>     4.5967    23.0281   590.0483 </r>
       <r>     4.6503    25.3969   591.4090 </r>
       <r>     4.7039    23.5579   592.6711 </r>
       <r>     4.7574    21.4755   593.8217 </r>
       <r>     4.8110    23.7546   595.0944 </r>
       <r>     4.8646    28.1360   596.6018 </r>
       <r>     4.9182    30.9305   598.2589 </r>
       <r>     4.9717    33.3099   600.0435 </r>
       <r>     5.0253    36.2336   601.9847 </r>
       <r>     5.0789    37.1201   603.9734 </r>
       <r>     5.1325    34.4330   605.8182 </r>
       <r>     5.1860    30.4600   607.4501 </r>
       <r>     5.2396    27.5602   608.9267 </r>
       <r>     5.2932    23.9671   610.2107 </r>
       <r>     5.3468    17.5594   611.1515 </r>
       <r>     5.4003    10.0481   611.6898 </r>
       <r>     5.4539     4.2661   611.9184 </r>
       <r>     5.5075     1.2548   611.9856 </r>
       <r>     5.5611     0.2386   611.9984 </r>
       <r>     5.6146     0.0279   611.9999 </r>
       <r>     5.6682     0.0020   612.0000 </r>
       <r>     5.7218     0.0001   612.0000 </r>
       <r>     5.7754     0.0000   612.0000 </r>
       <r>     5.8289     0.0000   612.0000 </r>
       <r>     5.8825     0.0000   612.0000 </r>
       <r>     5.9361     0.0000   612.0000 </r>
       <r>     5.9897     0.0000   612.0000 </r>
       <r>     6.0433     0.0000   612.0000 </r>
       <r>     6.0968     0.0000   612.0000 </r>
       <r>     6.1504     0.0000   612.0000 </r>
       <r>     6.2040     0.0000   612.0000 </r>
       <r>     6.2576     0.0000   612.0000 </r>
       <r>     6.3111     0.0000   612.0000 </r>
       <r>     6.3647     0.0000   612.0000 </r>
      </set>
     </set>
    </array>
   </total>
  </dos>
 </calculation>
 <structure name="finalpos" >
  <crystal>
   <varray name="basis" >
    <v>      11.00258152       0.00000000       0.00000000 </v>
    <v>       5.50129076       9.52851510       0.00000000 </v>
    <v>       0.00000000       0.00000000      24.49178509 </v>
   </varray>
   <i name="volume">   2567.67623402 </i>
   <varray name="rec_basis" >
    <v>       0.09088776      -0.05247407       0.00000000 </v>
    <v>       0.00000000       0.10494815       0.00000000 </v>
    <v>       0.00000000       0.00000000       0.04083002 </v>
   </varray>
  </crystal>
  <varray name="positions" >
   <v>       0.24948775       0.74706353       0.60207273 </v>
   <v>       0.83433002       0.83545732       0.39202310 </v>
   <v>       0.74840795       0.49928088       0.60068859 </v>
   <v>       0.83494086       0.58272337       0.39823667 </v>
   <v>       0.66766401       0.41401665       0.49906427 </v>
   <v>       0.83716118       0.32905914       0.39823002 </v>
   <v>       0.74743540       0.00364125       0.60397720 </v>
   <v>       0.41577984       0.66775497       0.49974814 </v>
   <v>       0.58449676       0.58368670       0.39546752 </v>
   <v>       0.49736170       0.00237617       0.60590285 </v>
   <v>       0.41821350       0.16643332       0.50000076 </v>
   <v>       0.58265794       0.08547529       0.39580316 </v>
   <v>       0.66622416       0.91501569       0.50030726 </v>
   <v>       0.33234340       0.83710605       0.39954394 </v>
   <v>       0.33439564       0.58193876       0.39580778 </v>
   <v>       0.16654617       0.41759802       0.49942078 </v>
   <v>       0.74859921       0.75011272       0.60609131 </v>
   <v>       0.91815995       0.91729877       0.50009399 </v>
   <v>       0.24915412       0.00097578       0.60360496 </v>
   <v>       0.91637817       0.66567973       0.50022827 </v>
   <v>      -0.00232631       0.00256051       0.60380111 </v>
   <v>       0.16537364       0.16476405       0.50088507 </v>
   <v>       0.00220070       0.49826299       0.60466337 </v>
   <v>       0.08549108       0.58232808       0.39442582 </v>
   <v>       0.66699027       0.16572200       0.49972593 </v>
   <v>      -0.00133497       0.25089442       0.59732189 </v>
   <v>       0.24953341       0.25144921       0.59812070 </v>
   <v>       0.83465549       0.08316163       0.40338158 </v>
   <v>       0.74795034       0.25151514       0.59651094 </v>
   <v>       0.08699549       0.33016317       0.40295312 </v>
   <v>       0.66626942       0.66608199       0.50018323 </v>
   <v>       0.91650934       0.16597425       0.50073678 </v>
   <v>       0.91595374       0.41605658       0.50008049 </v>
   <v>       0.49890612       0.74986260       0.59714726 </v>
   <v>       0.49876551       0.49868267       0.59583045 </v>
   <v>       0.58354262       0.83491124       0.40380745 </v>
   <v>       0.33445746       0.33267128       0.40145204 </v>
   <v>       0.49758474       0.25384040       0.59599952 </v>
   <v>       0.41625929       0.41742984       0.49825520 </v>
   <v>       0.58442510       0.33174242       0.40246296 </v>
   <v>       0.08352493       0.83495798       0.40375457 </v>
   <v>      -0.00056743       0.74969505       0.59680276 </v>
   <v>       0.33315047       0.08441596       0.40348963 </v>
   <v>       0.16699982       0.91591572       0.50196362 </v>
   <v>       0.24988267       0.49977819       0.59554112 </v>
   <v>       0.16822115       0.66603314       0.49859448 </v>
   <v>       0.41671454       0.91601425       0.50120632 </v>
   <v>       0.08413366       0.08242113       0.40458928 </v>
  </varray>
 </structure>
</modeling>
