unknown system                          
           1
    11.002582    0.000000    0.000000
     5.501291    9.528515    0.000000
     0.000000    0.000000   24.491785
   Au   Pd
  24  24
Direct configuration=     1
   0.25000000  0.75000000  0.59169983
   0.83333333  0.83333333  0.40830017
   0.75000000  0.50000000  0.59169983
   0.83333333  0.58333333  0.40830017
   0.66666667  0.41666667  0.50000000
   0.83333333  0.33333333  0.40830017
   0.75000000  0.00000000  0.59169983
   0.41666667  0.66666667  0.50000000
   0.58333333  0.58333333  0.40830017
   0.50000000  0.00000000  0.59169983
   0.41666667  0.16666667  0.50000000
   0.58333333  0.08333333  0.40830017
   0.66666667  0.91666667  0.50000000
   0.33333333  0.83333333  0.40830017
   0.33333333  0.58333333  0.40830017
   0.16666667  0.41666667  0.50000000
   0.75000000  0.75000000  0.59169983
   0.91666667  0.91666667  0.50000000
   0.25000000  0.00000000  0.59169983
   0.91666667  0.66666667  0.50000000
   0.00000000  0.00000000  0.59169983
   0.16666667  0.16666667  0.50000000
   0.00000000  0.50000000  0.59169983
   0.08333333  0.58333333  0.40830017
   0.66666667  0.16666667  0.50000000
   0.00000000  0.25000000  0.59169983
   0.25000000  0.25000000  0.59169983
   0.83333333  0.08333333  0.40830017
   0.75000000  0.25000000  0.59169983
   0.08333333  0.33333333  0.40830017
   0.66666667  0.66666667  0.50000000
   0.91666667  0.16666667  0.50000000
   0.91666667  0.41666667  0.50000000
   0.50000000  0.75000000  0.59169983
   0.50000000  0.50000000  0.59169983
   0.58333333  0.83333333  0.40830017
   0.33333333  0.33333333  0.40830017
   0.50000000  0.25000000  0.59169983
   0.41666667  0.41666667  0.50000000
   0.58333333  0.33333333  0.40830017
   0.08333333  0.83333333  0.40830017
   0.00000000  0.75000000  0.59169983
   0.33333333  0.08333333  0.40830017
   0.16666667  0.91666667  0.50000000
   0.25000000  0.50000000  0.59169983
   0.16666667  0.66666667  0.50000000
   0.41666667  0.91666667  0.50000000
   0.08333333  0.08333333  0.40830017
Direct configuration=     2
   0.25028002  0.74868623  0.59348750
   0.83335148  0.83412103  0.40577081
   0.74969065  0.49941515  0.59347441
   0.83311281  0.58301390  0.40636543
   0.66687840  0.41484025  0.50047139
   0.83452625  0.33164370  0.40648568
   0.74970387  0.00141903  0.59389642
   0.41646095  0.66720713  0.50074872
   0.58359535  0.58361985  0.40607001
   0.49904786  0.00045062  0.59391600
   0.41641816  0.16785187  0.49995098
   0.58273374  0.08448012  0.40619147
   0.66522771  0.91634735  0.49961591
   0.33239035  0.83528903  0.40649399
   0.33302875  0.58232214  0.40637393
   0.16777618  0.41630915  0.50008154
   0.74966296  0.74964699  0.59396102
   0.91845447  0.91733474  0.49962815
   0.25014323  0.00029798  0.59354899
   0.91719658  0.66610007  0.50035046
  -0.00050095  0.00099194  0.59360359
   0.16539288  0.16650865  0.49958521
   0.00113965  0.49907076  0.59386657
   0.08441175  0.58276995  0.40609163
   0.66654605  0.16819859  0.50000094
  -0.00029436  0.24997193  0.59266627
   0.25000460  0.25045640  0.59306732
   0.83367344  0.08370885  0.40734547
   0.74982060  0.25012265  0.59260169
   0.08406397  0.33229767  0.40714465
   0.66581378  0.66747417  0.50003658
   0.91666089  0.16672397  0.49993250
   0.91702173  0.41564493  0.50000987
   0.50002278  0.74979403  0.59271354
   0.49978340  0.49929543  0.59273121
   0.58270685  0.83370658  0.40727225
   0.33366702  0.33318197  0.40715567
   0.49970675  0.25113462  0.59264381
   0.41682629  0.41616909  0.50031107
   0.58314326  0.33260741  0.40735150
   0.08302626  0.83419766  0.40734272
   0.00083993  0.74934415  0.59292962
   0.33287594  0.08337528  0.40715913
   0.16615148  0.91707519  0.49950666
   0.25058254  0.49983125  0.59263357
   0.16705335  0.66671471  0.50027087
   0.41700662  0.91594573  0.49969212
   0.08317373  0.08329012  0.40745115
Direct configuration=     3
   0.25112007  0.74474492  0.59885051
   0.83340590  0.83648413  0.39818274
   0.74876258  0.49766059  0.59879814
   0.83245125  0.58205558  0.40056121
   0.66751362  0.40936099  0.50188555
   0.83810501  0.32657478  0.40104222
   0.74881547  0.00567612  0.60048619
   0.41584379  0.66882853  0.50299486
   0.58438138  0.58447939  0.39937955
   0.49619143  0.00180248  0.60056453
   0.41567264  0.17140747  0.49980393
   0.58093497  0.08792050  0.39986539
   0.66091083  0.91538939  0.49846362
   0.32956141  0.84115611  0.40107545
   0.33211499  0.57928856  0.40059521
   0.17110474  0.41523662  0.50032616
   0.74865185  0.74858796  0.60074457
   0.92381789  0.91933896  0.49851260
   0.25057294  0.00119193  0.59909647
   0.91878631  0.66440027  0.50140183
  -0.00200380  0.00396777  0.59931488
   0.16157150  0.16603462  0.49834083
   0.00455859  0.49628306  0.60036679
   0.08764699  0.58107982  0.39946601
   0.66618420  0.17279438  0.50000374
  -0.00117744  0.24988770  0.59556557
   0.25001838  0.25182558  0.59716978
   0.83469375  0.08483541  0.40448135
   0.74928241  0.25049059  0.59530728
   0.08625589  0.32919066  0.40367808
   0.66325513  0.66989667  0.50014634
   0.91664357  0.16689587  0.49972998
   0.91808691  0.41257970  0.50003950
   0.50009112  0.74917613  0.59575468
   0.49913361  0.49718171  0.59582535
   0.58082740  0.83482631  0.40418851
   0.33466808  0.33272786  0.40372218
   0.49882700  0.25453846  0.59547573
   0.41730514  0.41467637  0.50124429
   0.58257306  0.33042966  0.40450551
   0.08210505  0.83679065  0.40447039
   0.00335972  0.74737659  0.59661898
   0.33150377  0.08350114  0.40373601
   0.16460592  0.91830078  0.49802666
   0.25233016  0.49932499  0.59543478
   0.16821342  0.66685886  0.50108349
   0.41802650  0.91378292  0.49876848
   0.08269493  0.08316047  0.40490408
Direct configuration=     4
   0.25036616  0.74663796  0.60056537
   0.83342975  0.83603320  0.39659859
   0.74896298  0.49792424  0.60002763
   0.83394869  0.58201018  0.39952374
   0.66719081  0.41388243  0.50104202
   0.83669463  0.32816879  0.39964618
   0.74829804  0.00425392  0.60149842
   0.41585799  0.66777289  0.50206856
   0.58289594  0.58373747  0.39826173
   0.49739190  0.00227040  0.60197821
   0.41718558  0.16789616  0.49995447
   0.58132160  0.08681798  0.39831374
   0.66374963  0.91697760  0.49879074
   0.33025901  0.83852501  0.39961104
   0.33388541  0.58087155  0.39953072
   0.16833500  0.41683322  0.50016242
   0.74921519  0.74933395  0.60228802
   0.91971210  0.91871753  0.49911495
   0.24976312  0.00079498  0.60014898
   0.91788808  0.66524327  0.50120479
  -0.00072140  0.00264720  0.60078197
   0.16420089  0.16497882  0.49897684
   0.00398800  0.49645201  0.60198966
   0.08533201  0.58162737  0.39804179
   0.66714471  0.16741633  0.49998396
  -0.00074419  0.25014252  0.59636752
   0.25025241  0.25138497  0.59799380
   0.83396417  0.08452638  0.40346167
   0.74926598  0.25068623  0.59667648
   0.08653675  0.32985842  0.40274505
   0.66540272  0.66632944  0.50008291
   0.91637046  0.16715497  0.49993132
   0.91643168  0.41502529  0.49998115
   0.49982415  0.74923405  0.59687559
   0.49965319  0.49713049  0.59708505
   0.58134606  0.83521801  0.40298975
   0.33428804  0.33193875  0.40261110
   0.49871104  0.25370880  0.59653067
   0.41667606  0.41741971  0.50074563
   0.58302563  0.33184948  0.40372016
   0.08294329  0.83564488  0.40324792
   0.00175972  0.74855758  0.59740060
   0.33186862  0.08476492  0.40290746
   0.16737572  0.91717703  0.49877741
   0.25203615  0.49869685  0.59651801
   0.16893533  0.66635669  0.50062552
   0.41523988  0.91618563  0.49909969
   0.08254135  0.08318446  0.40352100
Direct configuration=     5
   0.25010160  0.74730226  0.60116715
   0.83343811  0.83587496  0.39604268
   0.74903330  0.49801675  0.60045908
   0.83447418  0.58199425  0.39915967
   0.66707753  0.41546910  0.50074601
   0.83619970  0.32872815  0.39915629
   0.74811646  0.00375484  0.60185363
   0.41586297  0.66740244  0.50174350
   0.58237467  0.58347711  0.39786947
   0.49781316  0.00243460  0.60247430
   0.41771651  0.16666397  0.50000730
   0.58145727  0.08643108  0.39776923
   0.66474582  0.91753493  0.49890553
   0.33050381  0.83760170  0.39909715
   0.33450669  0.58142706  0.39915717
   0.16736305  0.41739350  0.50010495
   0.74941287  0.74959574  0.60282964
   0.91827130  0.91849946  0.49932632
   0.24947894  0.00065568  0.60051832
   0.91757287  0.66553910  0.50113564
  -0.00027138  0.00218378  0.60129680
   0.16512360  0.16460832  0.49920003
   0.00378776  0.49651129  0.60255915
   0.08451964  0.58181952  0.39754200
   0.66748177  0.16552907  0.49997702
  -0.00059215  0.25023194  0.59664894
   0.25033453  0.25123036  0.59828296
   0.83370814  0.08441794  0.40310384
   0.74926021  0.25075489  0.59715697
   0.08663531  0.33009274  0.40241763
   0.66615635  0.66507763  0.50006066
   0.91627462  0.16724589  0.50000197
   0.91585083  0.41588349  0.49996068
   0.49973047  0.74925438  0.59726894
   0.49983552  0.49711251  0.59752710
   0.58152808  0.83535546  0.40256908
   0.33415468  0.33166183  0.40222120
   0.49867034  0.25341766  0.59690087
   0.41645530  0.41838241  0.50057064
   0.58318445  0.33234773  0.40344457
   0.08323744  0.83524280  0.40281893
   0.00119825  0.74897202  0.59767489
   0.33199665  0.08520841  0.40261671
   0.16834770  0.91678269  0.49904087
   0.25193297  0.49847642  0.59689814
   0.16918866  0.66618047  0.50046481
   0.41426200  0.91702879  0.49921591
   0.08248745  0.08319288  0.40303564
Direct configuration=     6
   0.25007138  0.74744908  0.60173882
   0.83349656  0.83557926  0.39542092
   0.74922325  0.49855016  0.60089257
   0.83402179  0.58234427  0.39891241
   0.66732147  0.41489161  0.50039490
   0.83566567  0.32974262  0.39875725
   0.74850769  0.00303822  0.60223251
   0.41587329  0.66786315  0.50134077
   0.58294563  0.58364122  0.39748373
   0.49811947  0.00204151  0.60291682
   0.41751266  0.16699290  0.50011114
   0.58178355  0.08608082  0.39714074
   0.66568658  0.91583184  0.49905794
   0.33118086  0.83697420  0.39864035
   0.33377654  0.58177783  0.39877840
   0.16702445  0.41734466  0.50000319
   0.74948602  0.74966618  0.60331064
   0.91863853  0.91755882  0.49958063
   0.24986509  0.00054377  0.60092105
   0.91670617  0.66628960  0.50102071
  -0.00064326  0.00170434  0.60169569
   0.16498137  0.16564027  0.49952253
   0.00311645  0.49717763  0.60309243
   0.08469967  0.58215371  0.39710433
   0.66715184  0.16599299  0.50002834
  -0.00040013  0.25032049  0.59676962
   0.25042548  0.25080755  0.59835384
   0.83359238  0.08402139  0.40287924
   0.74921396  0.25063940  0.59734638
   0.08646603  0.33024962  0.40230185
   0.66628563  0.66605657  0.49997549
   0.91618043  0.16700672  0.50008742
   0.91596867  0.41631054  0.49989817
   0.49973803  0.74944254  0.59742608
   0.49990403  0.49755236  0.59789618
   0.58195938  0.83503468  0.40251682
   0.33388310  0.33228395  0.40206161
   0.49866049  0.25313584  0.59703769
   0.41670591  0.41765146  0.50022974
   0.58346155  0.33230083  0.40342045
   0.08311984  0.83477002  0.40272459
   0.00058715  0.74935745  0.59772288
   0.33213695  0.08504004  0.40235366
   0.16763631  0.91621411  0.49944174
   0.25142531  0.49868537  0.59714368
   0.16845932  0.66675881  0.50015088
   0.41570036  0.91632862  0.49943930
   0.08267711  0.08316100  0.40272387
Direct configuration=     7
   0.25005676  0.74752009  0.60201531
   0.83352483  0.83543624  0.39512021
   0.74931512  0.49880814  0.60110223
   0.83380299  0.58251357  0.39879281
   0.66743945  0.41461231  0.50022509
   0.83540739  0.33023327  0.39856426
   0.74869691  0.00269162  0.60241576
   0.41587829  0.66808597  0.50114598
   0.58322178  0.58372059  0.39729716
   0.49826761  0.00185138  0.60313085
   0.41741408  0.16715198  0.50016136
   0.58194136  0.08591141  0.39683676
   0.66614158  0.91500813  0.49913166
   0.33150832  0.83667070  0.39841942
   0.33342340  0.58194749  0.39859520
   0.16686068  0.41732104  0.49995397
   0.74952140  0.74970025  0.60354329
   0.91881614  0.91710387  0.49970363
   0.25005185  0.00048965  0.60111583
   0.91628698  0.66665258  0.50096512
  -0.00082312  0.00147246  0.60188861
   0.16491258  0.16613939  0.49967851
   0.00279177  0.49749992  0.60335036
   0.08478674  0.58231535  0.39689265
   0.66699226  0.16621737  0.50005316
  -0.00030725  0.25036332  0.59682799
   0.25046947  0.25060306  0.59838812
   0.83353639  0.08382959  0.40277061
   0.74919159  0.25058354  0.59743800
   0.08638416  0.33032550  0.40224585
   0.66634815  0.66653004  0.49993430
   0.91613487  0.16689105  0.50012874
   0.91602566  0.41651709  0.49986794
   0.49974169  0.74953354  0.59750208
   0.49993717  0.49776509  0.59807469
   0.58216799  0.83487953  0.40249154
   0.33375175  0.33258484  0.40198442
   0.49865572  0.25299953  0.59710387
   0.41682712  0.41729793  0.50006487
   0.58359557  0.33227815  0.40340879
   0.08306297  0.83454136  0.40267896
   0.00029159  0.74954387  0.59774609
   0.33220480  0.08495860  0.40222644
   0.16729224  0.91593912  0.49963563
   0.25117978  0.49878642  0.59726243
   0.16810657  0.66703853  0.49999904
   0.41639603  0.91598997  0.49954734
   0.08276883  0.08314558  0.40257308
Direct configuration=     8
   0.25022268  0.74707273  0.60227684
   0.83356669  0.83532008  0.39456864
   0.74928332  0.49884687  0.60123683
   0.83384050  0.58277437  0.39862908
   0.66753491  0.41431625  0.50023317
   0.83567723  0.33004237  0.39838059
   0.74860386  0.00281861  0.60267075
   0.41605515  0.66800264  0.50101296
   0.58336097  0.58393037  0.39699602
   0.49837587  0.00162942  0.60342219
   0.41788075  0.16696329  0.50011814
   0.58188304  0.08592051  0.39649893
   0.66577895  0.91522792  0.49918469
   0.33157989  0.83694065  0.39827411
   0.33333522  0.58184105  0.39831767
   0.16668073  0.41804585  0.49996589
   0.74934882  0.74968428  0.60398949
   0.91884147  0.91737852  0.49974648
   0.25012746  0.00043396  0.60134867
   0.91670699  0.66606469  0.50086594
  -0.00105929  0.00167120  0.60213995
   0.16473034  0.16568752  0.49973013
   0.00278016  0.49773344  0.60365821
   0.08477416  0.58234166  0.39656181
   0.66691749  0.16629905  0.50010926
  -0.00038482  0.25027323  0.59683923
   0.25034167  0.25067175  0.59840076
   0.83379003  0.08364121  0.40282157
   0.74906502  0.25072595  0.59738125
   0.08621085  0.33038332  0.40227147
   0.66611424  0.66665864  0.49995328
   0.91641066  0.16646784  0.50010737
   0.91589685  0.41667107  0.49985732
   0.49979218  0.74947897  0.59746226
   0.49986793  0.49813254  0.59801520
   0.58227239  0.83492027  0.40256307
   0.33383286  0.33283334  0.40197667
   0.49864322  0.25307254  0.59706031
   0.41670153  0.41717368  0.49996505
   0.58358964  0.33209825  0.40340647
   0.08278552  0.83484457  0.40277004
   0.00043053  0.74926021  0.59772624
   0.33230028  0.08462712  0.40224316
   0.16683856  0.91637052  0.49984174
   0.25082724  0.49911903  0.59717727
   0.16809371  0.66666281  0.49988590
   0.41681322  0.91589590  0.49965500
   0.08293934  0.08302993  0.40268295
Direct configuration=     9
   0.25034337  0.74674732  0.60246708
   0.83359713  0.83523559  0.39416743
   0.74926020  0.49887503  0.60133474
   0.83386778  0.58296408  0.39850997
   0.66760435  0.41410090  0.50023906
   0.83587352  0.32990351  0.39824698
   0.74853617  0.00291098  0.60285623
   0.41618380  0.66794202  0.50091620
   0.58346221  0.58408297  0.39677696
   0.49845461  0.00146797  0.60363411
   0.41822022  0.16682603  0.50008670
   0.58184061  0.08592713  0.39625318
   0.66551516  0.91538780  0.49922326
   0.33163196  0.83713701  0.39816841
   0.33327108  0.58176363  0.39811578
   0.16654984  0.41857309  0.49997457
   0.74922328  0.74967267  0.60431407
   0.91885990  0.91757830  0.49977764
   0.25018246  0.00039345  0.60151804
   0.91701250  0.66563705  0.50079379
  -0.00123108  0.00181576  0.60232278
   0.16459777  0.16535883  0.49976767
   0.00277172  0.49790331  0.60388215
   0.08476501  0.58236080  0.39632115
   0.66686310  0.16635847  0.50015006
  -0.00044125  0.25020770  0.59684741
   0.25024871  0.25072171  0.59840995
   0.83397453  0.08350417  0.40285863
   0.74897295  0.25082953  0.59733998
   0.08608478  0.33042539  0.40229011
   0.66594409  0.66675219  0.49996709
   0.91661128  0.16616000  0.50009182
   0.91580315  0.41678309  0.49984960
   0.49982890  0.74943927  0.59743330
   0.49981756  0.49839982  0.59797193
   0.58234834  0.83494990  0.40261510
   0.33389186  0.33301410  0.40197103
   0.49863414  0.25312564  0.59702863
   0.41661017  0.41708330  0.49989244
   0.58358532  0.33196740  0.40340478
   0.08258370  0.83506513  0.40283629
   0.00053159  0.74905388  0.59771180
   0.33236973  0.08438600  0.40225533
   0.16650856  0.91668433  0.49999167
   0.25057079  0.49936097  0.59711532
   0.16808436  0.66638950  0.49980360
   0.41711668  0.91582747  0.49973331
   0.08306337  0.08294581  0.40276286
Direct configuration=    10
   0.25038797  0.74652010  0.60267764
   0.83353584  0.83537426  0.39347095
   0.74931850  0.49874792  0.60140131
   0.83403849  0.58304556  0.39832809
   0.66773975  0.41396668  0.50025475
   0.83614397  0.32955081  0.39809781
   0.74837126  0.00305913  0.60315238
   0.41592583  0.66791308  0.50075485
   0.58347796  0.58407853  0.39640852
   0.49833913  0.00158399  0.60401315
   0.41798862  0.16691343  0.49998542
   0.58181722  0.08593196  0.39588753
   0.66588918  0.91553104  0.49929030
   0.33147674  0.83730860  0.39813600
   0.33349474  0.58191245  0.39776635
   0.16687077  0.41812297  0.49998050
   0.74917428  0.74965167  0.60485383
   0.91843181  0.91759209  0.49983700
   0.25013439  0.00019543  0.60178930
   0.91675650  0.66582987  0.50069275
  -0.00122500  0.00191020  0.60265150
   0.16488805  0.16515444  0.49980320
   0.00282161  0.49782085  0.60425488
   0.08467546  0.58235407  0.39584787
   0.66704519  0.16612778  0.50020431
  -0.00060383  0.25026687  0.59682093
   0.25010107  0.25093024  0.59829963
   0.83411557  0.08339887  0.40298282
   0.74877022  0.25112057  0.59721481
   0.08615059  0.33041473  0.40244690
   0.66593036  0.66644765  0.50002518
   0.91656532  0.16617713  0.50006023
   0.91566995  0.41663165  0.49986480
   0.49975994  0.74935465  0.59733357
   0.49968964  0.49859808  0.59772935
   0.58247746  0.83513406  0.40272983
   0.33391088  0.33287237  0.40200477
   0.49844863  0.25340597  0.59691963
   0.41650034  0.41727628  0.49982728
   0.58369551  0.33190954  0.40339356
   0.08256114  0.83533446  0.40303327
   0.00052638  0.74897034  0.59761376
   0.33240175  0.08439937  0.40241960
   0.16688524  0.91653192  0.50028792
   0.25052438  0.49943301  0.59692643
   0.16839041  0.66637782  0.49966484
   0.41674489  0.91600423  0.49987751
   0.08326589  0.08281327  0.40298318
Direct configuration=    11
   0.25042471  0.74633291  0.60285110
   0.83348536  0.83548851  0.39289719
   0.74936653  0.49864321  0.60145615
   0.83417912  0.58311269  0.39817826
   0.66785130  0.41385610  0.50026769
   0.83636676  0.32926026  0.39797492
   0.74823541  0.00318118  0.60339636
   0.41571332  0.66788924  0.50062192
   0.58349094  0.58407487  0.39610500
   0.49824400  0.00167958  0.60432540
   0.41779783  0.16698544  0.49990198
   0.58179795  0.08593594  0.39558631
   0.66619731  0.91564904  0.49934552
   0.33134887  0.83744995  0.39810929
   0.33367900  0.58203505  0.39747848
   0.16713515  0.41775216  0.49998538
   0.74913390  0.74963436  0.60529849
   0.91807915  0.91760346  0.49988589
   0.25009479  0.00003231  0.60201277
   0.91654560  0.66598872  0.50060951
  -0.00121999  0.00198799  0.60292231
   0.16512718  0.16498607  0.49983247
   0.00286271  0.49775291  0.60456194
   0.08460169  0.58234852  0.39545797
   0.66719519  0.16593774  0.50024900
  -0.00073777  0.25031563  0.59679911
   0.24997945  0.25110203  0.59820875
   0.83423175  0.08331212  0.40308513
   0.74860321  0.25136032  0.59711170
   0.08620481  0.33040595  0.40257605
   0.66591904  0.66619677  0.50007303
   0.91652746  0.16619124  0.50003421
   0.91556021  0.41650689  0.49987732
   0.49970313  0.74928495  0.59725140
   0.49958426  0.49876141  0.59752951
   0.58258384  0.83528578  0.40282435
   0.33392655  0.33275562  0.40203258
   0.49829582  0.25363691  0.59682984
   0.41640985  0.41743526  0.49977361
   0.58378628  0.33186188  0.40338432
   0.08254255  0.83555633  0.40319554
   0.00052209  0.74890151  0.59753299
   0.33242813  0.08441039  0.40255492
   0.16719556  0.91640636  0.50053196
   0.25048615  0.49949235  0.59677083
   0.16864253  0.66636820  0.49955053
   0.41643861  0.91614986  0.49999631
   0.08343272  0.08270408  0.40316468
Direct configuration=    12
   0.25013310  0.74664764  0.60291891
   0.83355640  0.83570699  0.39236995
   0.74942096  0.49876652  0.60145192
   0.83409713  0.58288860  0.39810841
   0.66764072  0.41411969  0.50009170
   0.83629853  0.32937094  0.39794038
   0.74819393  0.00323211  0.60361064
   0.41576660  0.66783877  0.50043959
   0.58378394  0.58388747  0.39588279
   0.49791195  0.00206950  0.60462126
   0.41812355  0.16664951  0.49986388
   0.58194276  0.08596605  0.39538662
   0.66604240  0.91552432  0.49941301
   0.33149732  0.83729761  0.39821961
   0.33369909  0.58207623  0.39719574
   0.16661083  0.41776147  0.49993059
   0.74921139  0.74962440  0.60564159
   0.91839960  0.91720684  0.49998036
   0.24998268  0.00009911  0.60223140
   0.91651033  0.66594403  0.50056482
  -0.00130982  0.00191544  0.60311885
   0.16508164  0.16528439  0.49999018
   0.00277309  0.49765278  0.60479388
   0.08488723  0.58243192  0.39513349
   0.66705278  0.16587880  0.50024848
  -0.00070781  0.25036797  0.59673802
   0.25000322  0.25099173  0.59810171
   0.83402330  0.08329800  0.40318547
   0.74856938  0.25125206  0.59702753
   0.08634845  0.33043876  0.40275496
   0.66601932  0.66619999  0.50009227
   0.91658145  0.16615769  0.50007668
   0.91580111  0.41634605  0.49989738
   0.49968347  0.74933639  0.59714557
   0.49951707  0.49866161  0.59726248
   0.58262398  0.83527582  0.40302128
   0.33387058  0.33278548  0.40202344
   0.49811813  0.25369842  0.59669042
   0.41664326  0.41751825  0.49961800
   0.58392429  0.33193717  0.40340026
   0.08273934  0.83528427  0.40341763
   0.00021180  0.74918032  0.59735747
   0.33250451  0.08460388  0.40270297
   0.16724717  0.91604222  0.50085901
   0.25054937  0.49937018  0.59658477
   0.16837127  0.66663384  0.49937116
   0.41654038  0.91603276  0.50014784
   0.08350878  0.08274602  0.40337565
Direct configuration=    13
   0.25004077  0.74674730  0.60294038
   0.83357890  0.83577617  0.39220300
   0.74943819  0.49880557  0.60145058
   0.83407117  0.58281764  0.39808629
   0.66757404  0.41420315  0.50003597
   0.83627693  0.32940599  0.39792944
   0.74818080  0.00324824  0.60367849
   0.41578347  0.66782278  0.50038185
   0.58387672  0.58382814  0.39581243
   0.49780682  0.00219296  0.60471494
   0.41822669  0.16654314  0.49985181
   0.58198862  0.08597559  0.39532339
   0.66599335  0.91548483  0.49943437
   0.33154432  0.83724937  0.39825454
   0.33370546  0.58208927  0.39710621
   0.16644481  0.41776442  0.49991324
   0.74923593  0.74962125  0.60575023
   0.91850106  0.91708126  0.50001028
   0.24994719  0.00012027  0.60230063
   0.91649916  0.66592989  0.50055067
  -0.00133826  0.00189246  0.60318108
   0.16506721  0.16537885  0.50004012
   0.00274472  0.49762107  0.60486732
   0.08497765  0.58245832  0.39503074
   0.66700769  0.16586014  0.50024831
  -0.00069832  0.25038454  0.59671868
   0.25001074  0.25095681  0.59806781
   0.83395730  0.08329353  0.40321725
   0.74855867  0.25121778  0.59700087
   0.08639393  0.33044914  0.40281160
   0.66605108  0.66620101  0.50009837
   0.91659855  0.16614707  0.50009013
   0.91587739  0.41629512  0.49990374
   0.49967725  0.74935268  0.59711206
   0.49949579  0.49863001  0.59717793
   0.58263669  0.83527267  0.40308364
   0.33385286  0.33279494  0.40202054
   0.49806187  0.25371790  0.59664628
   0.41671717  0.41754453  0.49956873
   0.58396800  0.33196101  0.40340530
   0.08280165  0.83519812  0.40348795
   0.00011355  0.74926860  0.59730190
   0.33252870  0.08466514  0.40274985
   0.16726351  0.91592692  0.50096257
   0.25056939  0.49933149  0.59652586
   0.16828537  0.66671795  0.49931437
   0.41657261  0.91599568  0.50019582
   0.08353286  0.08275931  0.40344245
Direct configuration=    14
   0.24992009  0.74687355  0.60286489
   0.83374168  0.83564286  0.39194375
   0.74931051  0.49891105  0.60136439
   0.83426717  0.58280518  0.39809595
   0.66768741  0.41436800  0.49983536
   0.83634208  0.32937264  0.39798232
   0.74799007  0.00326089  0.60378414
   0.41587506  0.66788495  0.50023777
   0.58395499  0.58381648  0.39570179
   0.49782433  0.00224243  0.60492877
   0.41842861  0.16651099  0.49985678
   0.58206409  0.08601478  0.39528200
   0.66605761  0.91515080  0.49953200
   0.33178401  0.83713292  0.39845784
   0.33384849  0.58192628  0.39688490
   0.16630322  0.41818659  0.49985444
   0.74911463  0.74986509  0.60591492
   0.91845697  0.91715809  0.50006267
   0.24982596  0.00034412  0.60246410
   0.91641966  0.66583328  0.50048950
  -0.00161430  0.00205436  0.60327260
   0.16514612  0.16506077  0.50020796
   0.00274906  0.49770115  0.60495950
   0.08496724  0.58255158  0.39488266
   0.66703956  0.16572851  0.50020546
  -0.00069193  0.25031934  0.59671130
   0.25000733  0.25088273  0.59801488
   0.83388043  0.08332415  0.40331170
   0.74863990  0.25107500  0.59691884
   0.08639646  0.33058591  0.40288079
   0.66625591  0.66620549  0.50010891
   0.91658820  0.16602740  0.50017898
   0.91575054  0.41639911  0.49992552
   0.49965417  0.74950752  0.59703660
   0.49948143  0.49856820  0.59698256
   0.58269829  0.83518630  0.40324978
   0.33394918  0.33295710  0.40200731
   0.49800998  0.25360186  0.59651791
   0.41645730  0.41746331  0.49934611
   0.58395164  0.33203494  0.40337570
   0.08294281  0.83502620  0.40362117
  -0.00011448  0.74933408  0.59716432
   0.33265710  0.08468737  0.40286305
   0.16716311  0.91601812  0.50119617
   0.25042560  0.49940041  0.59631460
   0.16818601  0.66634316  0.49919245
   0.41665130  0.91590435  0.50034283
   0.08355539  0.08275060  0.40367206
Direct configuration=    15
   0.24988231  0.74691307  0.60284126
   0.83379265  0.83560113  0.39186258
   0.74927053  0.49894408  0.60133741
   0.83432853  0.58280128  0.39809897
   0.66772290  0.41441961  0.49977256
   0.83636248  0.32936220  0.39799887
   0.74793036  0.00326485  0.60381721
   0.41590373  0.66790441  0.50019266
   0.58397950  0.58381283  0.39566716
   0.49782981  0.00225792  0.60499571
   0.41849183  0.16650093  0.49985833
   0.58208772  0.08602705  0.39526904
   0.66607773  0.91504623  0.49956257
   0.33185905  0.83709646  0.39852148
   0.33389327  0.58187525  0.39681562
   0.16625889  0.41831876  0.49983604
   0.74907666  0.74994143  0.60596648
   0.91844317  0.91718214  0.50007907
   0.24978801  0.00041420  0.60251528
   0.91639477  0.66580303  0.50047036
  -0.00170072  0.00210504  0.60330125
   0.16517082  0.16496119  0.50026051
   0.00275042  0.49772622  0.60498837
   0.08496398  0.58258077  0.39483630
   0.66704954  0.16568730  0.50019205
  -0.00068993  0.25029893  0.59670898
   0.25000626  0.25085954  0.59799831
   0.83385636  0.08333374  0.40334128
   0.74866533  0.25103030  0.59689316
   0.08639725  0.33062873  0.40290245
   0.66632004  0.66620689  0.50011221
   0.91658497  0.16598993  0.50020680
   0.91571083  0.41643167  0.49993234
   0.49964694  0.74955600  0.59701297
   0.49947693  0.49854884  0.59692139
   0.58271758  0.83515927  0.40330180
   0.33397934  0.33300787  0.40200316
   0.49799373  0.25356553  0.59647772
   0.41637594  0.41743789  0.49927642
   0.58394651  0.33205809  0.40336643
   0.08298700  0.83497237  0.40366288
  -0.00018587  0.74935458  0.59712125
   0.33269729  0.08469432  0.40289849
   0.16713168  0.91604667  0.50126930
   0.25038059  0.49942199  0.59624847
   0.16815490  0.66622582  0.49915428
   0.41667594  0.91587576  0.50038885
   0.08356245  0.08274787  0.40374395
Direct configuration=    16
   0.24988162  0.74687021  0.60266587
   0.83382804  0.83553451  0.39179278
   0.74913151  0.49900140  0.60120939
   0.83446773  0.58291622  0.39812617
   0.66778550  0.41429470  0.49964202
   0.83653808  0.32924804  0.39806828
   0.74777883  0.00331860  0.60387107
   0.41579211  0.66787325  0.50010779
   0.58404858  0.58382936  0.39560292
   0.49787664  0.00215330  0.60518093
   0.41830473  0.16655362  0.49986484
   0.58218933  0.08589780  0.39532848
   0.66628620  0.91495908  0.49967649
   0.33187287  0.83713475  0.39874578
   0.33398995  0.58186124  0.39661333
   0.16640631  0.41804508  0.49976861
   0.74898414  0.75000646  0.60602891
   0.91818678  0.91725786  0.50008450
   0.24974562  0.00049926  0.60269059
   0.91622791  0.66592515  0.50041328
  -0.00189906  0.00218599  0.60337956
   0.16533633  0.16494029  0.50035009
   0.00264904  0.49785871  0.60498947
   0.08493354  0.58258705  0.39474247
   0.66714085  0.16565407  0.50012899
  -0.00084521  0.25042757  0.59676955
   0.24991883  0.25097747  0.59795998
   0.83399062  0.08325878  0.40340422
   0.74857406  0.25112908  0.59678697
   0.08648808  0.33060411  0.40295317
   0.66639110  0.66610553  0.50014266
   0.91642859  0.16604907  0.50030758
   0.91577440  0.41635197  0.49996408
   0.49953835  0.74969414  0.59698932
   0.49942307  0.49851509  0.59671911
   0.58294945  0.83509063  0.40338637
   0.33406469  0.33301159  0.40194473
   0.49797733  0.25356200  0.59636853
   0.41634563  0.41741333  0.49909080
   0.58396233  0.33202250  0.40327530
   0.08308987  0.83500445  0.40374509
  -0.00024345  0.74934918  0.59703237
   0.33275472  0.08468470  0.40301999
   0.16709290  0.91599350  0.50143713
   0.25023860  0.49959151  0.59609830
   0.16827216  0.66613531  0.49905206
   0.41667532  0.91600133  0.50053654
   0.08365540  0.08262115  0.40394351
Direct configuration=    17
   0.24988128  0.74684950  0.60258111
   0.83384514  0.83550231  0.39175904
   0.74906432  0.49902911  0.60114753
   0.83453500  0.58297177  0.39813932