  48  48   0   0
  0.5349325E+02  0.1100258E-08  0.1100258E-08  0.2449179E-08  0.3500000E-15
  1.000000000000000E-004
  CAR 
 unknown system                          
      6.39224065     -9.64185645  301     -1.09697165      1.00000000
     -9.642  0.0000E+00  0.0000E+00
     -9.588  0.0000E+00  0.0000E+00
     -9.535  0.0000E+00  0.0000E+00
     -9.482  0.0000E+00  0.0000E+00
     -9.428  0.0000E+00  0.0000E+00
     -9.375  0.0000E+00  0.0000E+00
     -9.321  0.0000E+00  0.0000E+00
     -9.268  0.0000E+00  0.0000E+00
     -9.214  0.6924E-17  0.3701E-18
     -9.161  0.2757E-14  0.1477E-15
     -9.107  0.6082E-12  0.3265E-13
     -9.054  0.7664E-10  0.4129E-11
     -9.000  0.5525E-08  0.2994E-09
     -8.947  0.2283E-06  0.1250E-07
     -8.894  0.5417E-05  0.3020E-06
     -8.840  0.7401E-04  0.4258E-05
     -8.787  0.5835E-03  0.3544E-04
     -8.733  0.2662E-02  0.1777E-03
     -8.680  0.7058E-02  0.5550E-03
     -8.626  0.1107E-01  0.1146E-02
     -8.573  0.1121E-01  0.1746E-02
     -8.519  0.1017E-01  0.2289E-02
     -8.466  0.1123E-01  0.2890E-02
     -8.413  0.1088E-01  0.3471E-02
     -8.359  0.6778E-02  0.3833E-02
     -8.306  0.2507E-02  0.3967E-02
     -8.252  0.5495E-03  0.3997E-02
     -8.199  0.1660E-03  0.4005E-02
     -8.145  0.6819E-03  0.4042E-02
     -8.092  0.2792E-02  0.4191E-02
     -8.038  0.7175E-02  0.4575E-02
     -7.985  0.1257E-01  0.5247E-02
     -7.932  0.1732E-01  0.6172E-02
     -7.878  0.2102E-01  0.7295E-02
     -7.825  0.2273E-01  0.8510E-02
     -7.771  0.2138E-01  0.9653E-02
     -7.718  0.1703E-01  0.1056E-01
     -7.664  0.1170E-01  0.1119E-01
     -7.611  0.9351E-02  0.1169E-01
     -7.557  0.1144E-01  0.1230E-01
     -7.504  0.1567E-01  0.1314E-01
     -7.451  0.1889E-01  0.1415E-01
     -7.397  0.1861E-01  0.1514E-01
     -7.344  0.1712E-01  0.1606E-01
     -7.290  0.1899E-01  0.1707E-01
     -7.237  0.2339E-01  0.1832E-01
     -7.183  0.2619E-01  0.1972E-01
     -7.130  0.2774E-01  0.2120E-01
     -7.076  0.3210E-01  0.2292E-01
     -7.023  0.3957E-01  0.2503E-01
     -6.970  0.4671E-01  0.2753E-01
     -6.916  0.5242E-01  0.3033E-01
     -6.863  0.5912E-01  0.3349E-01
     -6.809  0.6827E-01  0.3714E-01
     -6.756  0.7809E-01  0.4131E-01
     -6.702  0.8689E-01  0.4596E-01
     -6.649  0.9410E-01  0.5099E-01
     -6.595  0.9891E-01  0.5627E-01
     -6.542  0.1012E+00  0.6168E-01
     -6.488  0.1016E+00  0.6712E-01
     -6.435  0.1035E+00  0.7265E-01
     -6.382  0.1105E+00  0.7856E-01
     -6.328  0.1210E+00  0.8502E-01
     -6.275  0.1317E+00  0.9206E-01
     -6.221  0.1410E+00  0.9960E-01
     -6.168  0.1471E+00  0.1075E+00
     -6.114  0.1486E+00  0.1154E+00
     -6.061  0.1489E+00  0.1234E+00
     -6.007  0.1528E+00  0.1315E+00
     -5.954  0.1598E+00  0.1401E+00
     -5.901  0.1655E+00  0.1489E+00
     -5.847  0.1645E+00  0.1577E+00
     -5.794  0.1558E+00  0.1660E+00
     -5.740  0.1455E+00  0.1738E+00
     -5.687  0.1395E+00  0.1813E+00
     -5.633  0.1354E+00  0.1885E+00
     -5.580  0.1290E+00  0.1954E+00
     -5.526  0.1234E+00  0.2020E+00
     -5.473  0.1269E+00  0.2088E+00
     -5.420  0.1418E+00  0.2164E+00
     -5.366  0.1602E+00  0.2249E+00
     -5.313  0.1724E+00  0.2341E+00
     -5.259  0.1781E+00  0.2437E+00
     -5.206  0.1803E+00  0.2533E+00
     -5.152  0.1789E+00  0.2629E+00
     -5.099  0.1754E+00  0.2722E+00
     -5.045  0.1740E+00  0.2815E+00
     -4.992  0.1749E+00  0.2909E+00
     -4.939  0.1736E+00  0.3002E+00
     -4.885  0.1698E+00  0.3092E+00
     -4.832  0.1691E+00  0.3183E+00
     -4.778  0.1739E+00  0.3276E+00
     -4.725  0.1813E+00  0.3372E+00
     -4.671  0.1857E+00  0.3472E+00
     -4.618  0.1829E+00  0.3570E+00
     -4.564  0.1762E+00  0.3664E+00
     -4.511  0.1731E+00  0.3756E+00
     -4.457  0.1736E+00  0.3849E+00
     -4.404  0.1751E+00  0.3943E+00
     -4.351  0.1784E+00  0.4038E+00
     -4.297  0.1805E+00  0.4134E+00
     -4.244  0.1797E+00  0.4230E+00
     -4.190  0.1805E+00  0.4327E+00
     -4.137  0.1837E+00  0.4425E+00
     -4.083  0.1845E+00  0.4524E+00
     -4.030  0.1809E+00  0.4620E+00
     -3.976  0.1778E+00  0.4715E+00
     -3.923  0.1806E+00  0.4812E+00
     -3.870  0.1882E+00  0.4913E+00
     -3.816  0.1951E+00  0.5017E+00
     -3.763  0.1980E+00  0.5123E+00
     -3.709  0.1994E+00  0.5229E+00
     -3.656  0.2041E+00  0.5338E+00
     -3.602  0.2119E+00  0.5452E+00
     -3.549  0.2176E+00  0.5568E+00
     -3.495  0.2186E+00  0.5685E+00
     -3.442  0.2163E+00  0.5800E+00
     -3.389  0.2120E+00  0.5914E+00
     -3.335  0.2065E+00  0.6024E+00
     -3.282  0.2002E+00  0.6131E+00
     -3.228  0.1934E+00  0.6234E+00
     -3.175  0.1873E+00  0.6334E+00
     -3.121  0.1847E+00  0.6433E+00
     -3.068  0.1865E+00  0.6533E+00
     -3.014  0.1889E+00  0.6634E+00
     -2.961  0.1873E+00  0.6734E+00
     -2.908  0.1824E+00  0.6831E+00
     -2.854  0.1795E+00  0.6927E+00
     -2.801  0.1806E+00  0.7024E+00
     -2.747  0.1822E+00  0.7121E+00
     -2.694  0.1806E+00  0.7218E+00
     -2.640  0.1761E+00  0.7312E+00
     -2.587  0.1709E+00  0.7403E+00
     -2.533  0.1686E+00  0.7493E+00
     -2.480  0.1714E+00  0.7585E+00
     -2.427  0.1774E+00  0.7680E+00
     -2.373  0.1828E+00  0.7778E+00
     -2.320  0.1842E+00  0.7876E+00
     -2.266  0.1819E+00  0.7973E+00
     -2.213  0.1801E+00  0.8069E+00
     -2.159  0.1803E+00  0.8166E+00
     -2.106  0.1810E+00  0.8263E+00
     -2.052  0.1826E+00  0.8360E+00
     -1.999  0.1858E+00  0.8459E+00
     -1.945  0.1898E+00  0.8561E+00
     -1.892  0.1945E+00  0.8665E+00
     -1.839  0.1988E+00  0.8771E+00
     -1.785  0.1987E+00  0.8877E+00
     -1.732  0.1948E+00  0.8981E+00
     -1.678  0.1903E+00  0.9083E+00
     -1.625  0.1849E+00  0.9182E+00
     -1.571  0.1803E+00  0.9278E+00
     -1.518  0.1803E+00  0.9375E+00
     -1.464  0.1823E+00  0.9472E+00
     -1.411  0.1820E+00  0.9569E+00
     -1.358  0.1825E+00  0.9667E+00
     -1.304  0.1846E+00  0.9766E+00
     -1.251  0.1801E+00  0.9862E+00
     -1.197  0.1642E+00  0.9950E+00
     -1.144  0.1410E+00  0.1002E+01
     -1.090  0.1161E+00  0.1009E+01
     -1.037  0.9023E-01  0.1014E+01
     -0.983  0.6267E-01  0.1017E+01
     -0.930  0.3928E-01  0.1019E+01
     -0.877  0.2553E-01  0.1020E+01
     -0.823  0.1990E-01  0.1021E+01
     -0.770  0.1789E-01  0.1022E+01
     -0.716  0.1633E-01  0.1023E+01
     -0.663  0.1571E-01  0.1024E+01
     -0.609  0.1926E-01  0.1025E+01
     -0.556  0.2822E-01  0.1027E+01
     -0.502  0.3940E-01  0.1029E+01
     -0.449  0.4611E-01  0.1031E+01
     -0.396  0.4332E-01  0.1033E+01
     -0.342  0.3457E-01  0.1035E+01
     -0.289  0.3112E-01  0.1037E+01
     -0.235  0.3734E-01  0.1039E+01
     -0.182  0.4254E-01  0.1041E+01
     -0.128  0.3824E-01  0.1043E+01
     -0.075  0.2906E-01  0.1045E+01
     -0.021  0.2324E-01  0.1046E+01
      0.032  0.2547E-01  0.1047E+01
      0.085  0.3272E-01  0.1049E+01
      0.139  0.3804E-01  0.1051E+01
      0.192  0.3982E-01  0.1053E+01
      0.246  0.4002E-01  0.1056E+01
      0.299  0.3944E-01  0.1058E+01
      0.353  0.3842E-01  0.1060E+01
      0.406  0.3669E-01  0.1062E+01
      0.460  0.3426E-01  0.1063E+01
      0.513  0.3337E-01  0.1065E+01
      0.567  0.3466E-01  0.1067E+01
      0.620  0.3641E-01  0.1069E+01
      0.673  0.3817E-01  0.1071E+01
      0.727  0.4034E-01  0.1073E+01
      0.780  0.3919E-01  0.1075E+01
      0.834  0.3016E-01  0.1077E+01
      0.887  0.1878E-01  0.1078E+01
      0.941  0.1535E-01  0.1079E+01
      0.994  0.2038E-01  0.1080E+01
      1.048  0.2651E-01  0.1081E+01
      1.101  0.2812E-01  0.1083E+01
      1.154  0.2481E-01  0.1084E+01
      1.208  0.1988E-01  0.1085E+01
      1.261  0.1608E-01  0.1086E+01
      1.315  0.1326E-01  0.1087E+01
      1.368  0.1098E-01  0.1087E+01
      1.422  0.1162E-01  0.1088E+01
      1.475  0.1820E-01  0.1089E+01
      1.529  0.2875E-01  0.1090E+01
      1.582  0.3618E-01  0.1092E+01
      1.635  0.3806E-01  0.1094E+01
      1.689  0.3936E-01  0.1097E+01
      1.742  0.4125E-01  0.1099E+01
      1.796  0.3877E-01  0.1101E+01
      1.849  0.3081E-01  0.1102E+01
      1.903  0.2222E-01  0.1104E+01
      1.956  0.1724E-01  0.1105E+01
      2.010  0.1558E-01  0.1105E+01
      2.063  0.1620E-01  0.1106E+01
      2.116  0.2137E-01  0.1107E+01
      2.170  0.2978E-01  0.1109E+01
      2.223  0.3599E-01  0.1111E+01
      2.277  0.3889E-01  0.1113E+01
      2.330  0.4072E-01  0.1115E+01
      2.384  0.4169E-01  0.1117E+01
      2.437  0.4059E-01  0.1120E+01
      2.491  0.3933E-01  0.1122E+01
      2.544  0.4201E-01  0.1124E+01
      2.598  0.4883E-01  0.1127E+01
      2.651  0.5438E-01  0.1129E+01
      2.704  0.5250E-01  0.1132E+01
      2.758  0.4248E-01  0.1135E+01
      2.811  0.2985E-01  0.1136E+01
      2.865  0.2098E-01  0.1137E+01
      2.918  0.1712E-01  0.1138E+01
      2.972  0.1562E-01  0.1139E+01
      3.025  0.1430E-01  0.1140E+01
      3.079  0.1591E-01  0.1141E+01
      3.132  0.2331E-01  0.1142E+01
      3.185  0.2970E-01  0.1143E+01
      3.239  0.2693E-01  0.1145E+01
      3.292  0.1869E-01  0.1146E+01
      3.346  0.1318E-01  0.1147E+01
      3.399  0.1208E-01  0.1147E+01
      3.453  0.1416E-01  0.1148E+01
      3.506  0.1947E-01  0.1149E+01
      3.560  0.2741E-01  0.1150E+01
      3.613  0.3521E-01  0.1152E+01
      3.666  0.3765E-01  0.1154E+01
      3.720  0.3453E-01  0.1156E+01
      3.773  0.3152E-01  0.1158E+01
      3.827  0.2922E-01  0.1159E+01
      3.880  0.2558E-01  0.1161E+01
      3.934  0.2315E-01  0.1162E+01
      3.987  0.2533E-01  0.1163E+01
      4.041  0.2924E-01  0.1165E+01
      4.094  0.2931E-01  0.1167E+01
      4.147  0.2672E-01  0.1168E+01
      4.201  0.2538E-01  0.1169E+01
      4.254  0.2356E-01  0.1171E+01
      4.308  0.1893E-01  0.1172E+01
      4.361  0.1675E-01  0.1173E+01
      4.415  0.2157E-01  0.1174E+01
      4.468  0.2859E-01  0.1175E+01
      4.522  0.3447E-01  0.1177E+01
      4.575  0.4277E-01  0.1179E+01
      4.628  0.5107E-01  0.1182E+01
      4.682  0.5183E-01  0.1185E+01
      4.735  0.4737E-01  0.1187E+01
      4.789  0.4689E-01  0.1190E+01
      4.842  0.5251E-01  0.1193E+01
      4.896  0.5896E-01  0.1196E+01
      4.949  0.6297E-01  0.1199E+01
      5.003  0.6623E-01  0.1203E+01
      5.056  0.6988E-01  0.1206E+01
      5.110  0.6830E-01  0.1210E+01
      5.163  0.6011E-01  0.1213E+01
      5.216  0.5364E-01  0.1216E+01
      5.270  0.4991E-01  0.1219E+01
      5.323  0.4193E-01  0.1221E+01
      5.377  0.2896E-01  0.1223E+01
      5.430  0.1609E-01  0.1223E+01
      5.484  0.6885E-02  0.1224E+01
      5.537  0.2074E-02  0.1224E+01
      5.591  0.4038E-03  0.1224E+01
      5.644  0.4810E-04  0.1224E+01
      5.697  0.3402E-05  0.1224E+01
      5.751  0.1407E-06  0.1224E+01
      5.804  0.3371E-08  0.1224E+01
      5.858  0.4656E-10  0.1224E+01
      5.911  0.3693E-12  0.1224E+01
      5.965  0.1680E-14  0.1224E+01
      6.018  0.2770E-17  0.1224E+01
      6.072  0.0000E+00  0.1224E+01
      6.125  0.0000E+00  0.1224E+01
      6.178  0.0000E+00  0.1224E+01
      6.232  0.0000E+00  0.1224E+01
      6.285  0.0000E+00  0.1224E+01
      6.339  0.0000E+00  0.1224E+01
      6.392  0.0000E+00  0.1224E+01
