unknown system                          
           1
    11.002582    0.000000    0.000000
     5.501291    9.528515    0.000000
     0.000000    0.000000   24.491785
   Au   Pd
  24  24
Direct configuration=     1
   0.08333333  0.08333333  0.40830017
   0.50000000  0.00000000  0.59169983
   0.58333333  0.33333333  0.40830017
   0.41666667  0.41666667  0.50000000
   0.50000000  0.25000000  0.59169983
   0.58333333  0.58333333  0.40830017
   0.50000000  0.50000000  0.59169983
   0.16666667  0.91666667  0.50000000
   0.58333333  0.83333333  0.40830017
   0.75000000  0.00000000  0.59169983
   0.66666667  0.41666667  0.50000000
   0.75000000  0.25000000  0.59169983
   0.83333333  0.58333333  0.40830017
   0.66666667  0.66666667  0.50000000
   0.75000000  0.50000000  0.59169983
   0.41666667  0.91666667  0.50000000
   0.33333333  0.83333333  0.40830017
   0.25000000  0.75000000  0.59169983
   0.08333333  0.33333333  0.40830017
   0.25000000  0.00000000  0.59169983
   0.08333333  0.58333333  0.40830017
   0.33333333  0.08333333  0.40830017
   0.91666667  0.66666667  0.50000000
   0.00000000  0.50000000  0.59169983
   0.33333333  0.58333333  0.40830017
   0.83333333  0.83333333  0.40830017
   0.91666667  0.16666667  0.50000000
   0.00000000  0.00000000  0.59169983
   0.91666667  0.41666667  0.50000000
   0.00000000  0.25000000  0.59169983
   0.83333333  0.33333333  0.40830017
   0.66666667  0.16666667  0.50000000
   0.83333333  0.08333333  0.40830017
   0.50000000  0.75000000  0.59169983
   0.08333333  0.83333333  0.40830017
   0.41666667  0.66666667  0.50000000
   0.91666667  0.91666667  0.50000000
   0.00000000  0.75000000  0.59169983
   0.16666667  0.16666667  0.50000000
   0.41666667  0.16666667  0.50000000
   0.58333333  0.08333333  0.40830017
   0.66666667  0.91666667  0.50000000
   0.33333333  0.33333333  0.40830017
   0.16666667  0.41666667  0.50000000
   0.25000000  0.50000000  0.59169983
   0.16666667  0.66666667  0.50000000
   0.25000000  0.25000000  0.59169983
   0.75000000  0.75000000  0.59169983
Direct configuration=     2
   0.08148702  0.08392434  0.40645895
   0.50025383 -0.00033401  0.59357507
   0.58356034  0.33202837  0.40626865
   0.41420599  0.41730543  0.49959574
   0.49873342  0.25014646  0.59357878
   0.58274694  0.58286986  0.40604065
   0.49887282  0.50134398  0.59394099
   0.16443215  0.91660707  0.50005303
   0.58434802  0.83445158  0.40604724
   0.75142829 -0.00135039  0.59320056
   0.66849217  0.41527389  0.49958116
   0.75189307  0.24864206  0.59358820
   0.83369841  0.58278339  0.40609816
   0.66644964  0.66741135  0.50074950
   0.75058909  0.50035601  0.59388416
   0.41717454  0.91689227  0.50047268
   0.33272779  0.83196950  0.40604413
   0.24949114  0.74940819  0.59357919
   0.08337171  0.33327311  0.40673410
   0.24891986  0.00137478  0.59380264
   0.08452855  0.58383301  0.40648567
   0.33388435  0.08472290  0.40641706
   0.91697011  0.66817496  0.50039797
   0.00111612  0.49944148  0.59340124
   0.33261701  0.58374717  0.40730793
   0.83320851  0.83491753  0.40741037
   0.91659550  0.16671541  0.49995119
  -0.00035921  0.00013697  0.59260809
   0.91784583  0.41470146  0.50010623
   0.00048142  0.24944185  0.59244330
   0.83371775  0.33249929  0.40728244
   0.66777304  0.16475840  0.49938514
   0.83349137  0.08253894  0.40770447
   0.50029308  0.74980903  0.59296089
   0.08279806  0.83317720  0.40734496
   0.41601034  0.66665328  0.50001259
   0.91633172  0.91709775  0.49969653
   0.00017415  0.75018528  0.59250017
   0.16564415  0.16869273  0.50050302
   0.41644900  0.16719952  0.49974631
   0.58382762  0.08316630  0.40760460
   0.66721782  0.91765407  0.49978688
   0.33372116  0.33314789  0.40740754
   0.16769565  0.41554156  0.50030276
   0.24929821  0.50021124  0.59268418
   0.16639673  0.66667903  0.49998429
   0.24953603  0.25038981  0.59243414
   0.74985971  0.75038873  0.59283646
Direct configuration=     3
   0.07599066  0.08568372  0.40097776
   0.50100945 -0.00132836  0.59915755
   0.58423611  0.32814357  0.40022093
   0.40688072  0.41920698  0.49839230
   0.49496290  0.25058245  0.59917229
   0.58100126  0.58149015  0.39931420
   0.49551726  0.50534491  0.60061278
   0.15778012  0.91642966  0.50021088
   0.58736869  0.83778052  0.39934041
   0.75568024 -0.00537042  0.59766814
   0.67392658  0.41112768  0.49833431
   0.75752862  0.24459954  0.59920975
   0.83478520  0.58114626  0.39954291
   0.66580356  0.66962823  0.50298071
   0.75234276  0.50141582  0.60038677
   0.41868644  0.91756388  0.50187981
   0.33092513  0.82790943  0.39932806
   0.24797628  0.74764642  0.59917391
   0.08348594  0.33309381  0.40207201
   0.24570436  0.00546742  0.60006257
   0.08808665  0.58532050  0.40108403
   0.33552467  0.08885957  0.40081116
   0.91787345  0.67266506  0.50158271
   0.00443874  0.49777878  0.59846622
   0.33048456  0.58497915  0.40435411
   0.83283691  0.83963357  0.40476150
   0.91638364  0.16686051  0.49980590
  -0.00142856  0.00054471  0.59531191
   0.92135612  0.40885117  0.50042248
   0.00191456  0.24778027  0.59465656
   0.83486214  0.33001640  0.40425271
   0.67106663  0.15907761  0.49755473
   0.83396185  0.08017409  0.40593109
   0.50116557  0.74924051  0.59671501
   0.08120458  0.83271239  0.40450136
   0.41405650  0.66661343  0.50005007
   0.91533460  0.91838108  0.49879311
   0.00069258  0.75073684  0.59488273
   0.16260018  0.17472419  0.50200047
   0.41580102  0.16878581  0.49899109
   0.58529910  0.08266904  0.40553394
   0.66885859  0.92059352  0.49915243
   0.33487570  0.33259582  0.40475025
   0.17075887  0.41219220  0.50120406
   0.24720901  0.50084007  0.59561453
   0.16559314  0.66671582  0.49993753
   0.24815484  0.25155026  0.59462013
   0.74944209  0.75154594  0.59622012
Direct configuration=     4
   0.07864930  0.08401286  0.39948585
   0.50098334 -0.00101162  0.60083204
   0.58407926  0.32850504  0.39850224
   0.41180330  0.41841481  0.49886791
   0.49653920  0.25101032  0.60040089
   0.58185353  0.58153506  0.39772655
   0.49774962  0.50254526  0.60200852
   0.16084243  0.91712537  0.50018403
   0.58677272  0.83640428  0.39766920
   0.75457230 -0.00427357  0.59906664
   0.67049562  0.41244947  0.49871327
   0.75470067  0.24651784  0.60066918
   0.83444073  0.58217584  0.39833821
   0.66750316  0.66780552  0.50219048
   0.75266231  0.50038699  0.60225705
   0.41568495  0.91923294  0.50135331
   0.33066371  0.83074881  0.39780730
   0.24715432  0.74967538  0.60087869
   0.08366770  0.33370894  0.40070606
   0.24629970  0.00385220  0.60171938
   0.08650180  0.58491436  0.39965312
   0.33478701  0.08665530  0.39944597
   0.91811011  0.66961624  0.50100783
   0.00339848  0.49855060  0.59995214
   0.33174647  0.58367239  0.40325735
   0.83406507  0.83803318  0.40365183
   0.91696239  0.16587299  0.49986445
   0.00018827 -0.00077718  0.59635421
   0.92019581  0.41256940  0.50038900
   0.00122378  0.24858170  0.59585078
   0.83366313  0.33081419  0.40295969
   0.66930486  0.16210463  0.49840360
   0.83389417  0.08044868  0.40468282
   0.49965173  0.75023453  0.59805009
   0.08090261  0.83331654  0.40329667
   0.41493408  0.66624857  0.50008563
   0.91464685  0.91907619  0.49908177
   0.00111272  0.75030722  0.59601726
   0.16489568  0.17097781  0.50130219
   0.41699300  0.16695618  0.49937849
   0.58513993  0.08327220  0.40425257
   0.66741792  0.92052123  0.49948894
   0.33465406  0.33346858  0.40341546
   0.16680773  0.41419299  0.50080238
   0.24760670  0.50078803  0.59672344
   0.16489885  0.66687085  0.49999568
   0.24892590  0.25081944  0.59577623
   0.75025300  0.75107141  0.59748362
Direct configuration=     5
   0.08009908  0.08310172  0.39867230
   0.50096910 -0.00083891  0.60174516
   0.58399373  0.32870215  0.39756501
   0.41448762  0.41798283  0.49912726
   0.49739878  0.25124364  0.60107086
   0.58231828  0.58155955  0.39686079
   0.49896695  0.50101859  0.60276963
   0.16251233  0.91750475  0.50016938
   0.58644772  0.83565380  0.39675787
   0.75396814 -0.00367545  0.59982925
   0.66862469  0.41317025  0.49891992
   0.75315856  0.24756392  0.60146502
   0.83425288  0.58273728  0.39768128
   0.66842998  0.66681157  0.50175956
   0.75283656  0.49982596  0.60327693
   0.41404821  0.92014309  0.50106620
   0.33052116  0.83229715  0.39697802
   0.24670609  0.75078179  0.60180833
   0.08376682  0.33404438  0.39996119
   0.24662434  0.00297141  0.60262286
   0.08563757  0.58469288  0.39887283
   0.33438475  0.08545329  0.39870151
   0.91823916  0.66795370  0.50069435
   0.00283122  0.49897148  0.60076243
   0.33243461  0.58295980  0.40265928
   0.83473481  0.83716047  0.40304672
   0.91727798  0.16533449  0.49989637
   0.00106994 -0.00149802  0.59692258
   0.91956309  0.41459700  0.50037073
   0.00084709  0.24901872  0.59650200
   0.83300931  0.33124923  0.40225459
   0.66834414  0.16375529  0.49886650
   0.83385727  0.08059842  0.40400212
   0.49882622  0.75077658  0.59877812
   0.08073795  0.83364598  0.40263974
   0.41541263  0.66604961  0.50010502
   0.91427181  0.91945525  0.49923917
   0.00134183  0.75007294  0.59663593
   0.16614745  0.16893488  0.50092141
   0.41764299  0.16595847  0.49958974
   0.58505313  0.08360112  0.40355382
   0.66663231  0.92048180  0.49967245
   0.33453320  0.33394451  0.40268759
   0.16465313  0.41528404  0.50058335
   0.24782356  0.50075966  0.59732813
   0.16452025  0.66695538  0.50002739
   0.24934637  0.25042092  0.59640666
   0.75069520  0.75081264  0.59817262
Direct configuration=     6
   0.08024727  0.08368479  0.39840569
   0.50073396 -0.00079224  0.60203286
   0.58405626  0.32937017  0.39710300
   0.41420784  0.41730953  0.49942138
   0.49775506  0.25096318  0.60122619
   0.58232229  0.58225163  0.39663299
   0.49898963  0.50148322  0.60294508
   0.16394585  0.91665583  0.50004684
   0.58596801  0.83507171  0.39656071
   0.75355191 -0.00295402  0.60009216
   0.66881583  0.41403113  0.49910241
   0.75316327  0.24761881  0.60167612
   0.83376827  0.58319321  0.39749927
   0.66715986  0.66712585  0.50144021
   0.75199813  0.50018344  0.60363745
   0.41520251  0.91850776  0.50086566
   0.33145487  0.83198064  0.39676310
   0.24801197  0.74985838  0.60215347
   0.08367248  0.33358003  0.39977149
   0.24718844  0.00274796  0.60303785
   0.08531682  0.58475038  0.39860256
   0.33447384  0.08503969  0.39850602
   0.91753335  0.66823193  0.50040690
   0.00250721  0.49916721  0.60113462
   0.33273266  0.58331912  0.40263202
   0.83450851  0.83631938  0.40295945
   0.91690624  0.16644944  0.49989990
   0.00046302 -0.00078602  0.59715834
   0.91853281  0.41450175  0.50029551
   0.00076708  0.24902053  0.59651170
   0.83311878  0.33148601  0.40225565
   0.66771317  0.16473009  0.49938214
   0.83373757  0.08123055  0.40374641
   0.49901198  0.75049042  0.59866816
   0.08161867  0.83330878  0.40256367
   0.41573698  0.66681952  0.50017120
   0.91425545  0.91912843  0.49951459
   0.00104208  0.74979450  0.59673409
   0.16563761  0.16888801  0.50051223
   0.41711272  0.16684374  0.49975193
   0.58467852  0.08313545  0.40337995
   0.66603568  0.91961492  0.49983517
   0.33436062  0.33368395  0.40269867
   0.16597539  0.41503136  0.50035837
   0.24862304  0.50054026  0.59729811
   0.16503057  0.66694480  0.49998211
   0.24969818  0.25008364  0.59641262
   0.75065772  0.75036114  0.59821395
Direct configuration=     7
   0.08029027  0.08385398  0.39832833
   0.50066573 -0.00077870  0.60211635
   0.58407441  0.32956400  0.39696893
   0.41412666  0.41711416  0.49950672
   0.49785844  0.25088181  0.60127127
   0.58232346  0.58245244  0.39656689
   0.49899620  0.50161804  0.60299599
   0.16436180  0.91640950  0.50001129
   0.58582881  0.83490281  0.39650350
   0.75343114 -0.00274469  0.60016845
   0.66887130  0.41428092  0.49915537
   0.75316464  0.24763473  0.60173737
   0.83362766  0.58332550  0.39744645
   0.66679131  0.66721704  0.50134755
   0.75175485  0.50028716  0.60374207
   0.41553745  0.91803324  0.50080747
   0.33172581  0.83188880  0.39670073
   0.24839089  0.74959044  0.60225361
   0.08364510  0.33344530  0.39971645
   0.24735213  0.00268313  0.60315827
   0.08522376  0.58476706  0.39852413
   0.33449968  0.08491968  0.39844930
   0.91732855  0.66831267  0.50032350
   0.00241320  0.49922401  0.60124262
   0.33281914  0.58342339  0.40262411
   0.83444285  0.83607532  0.40293412
   0.91679837  0.16677295  0.49990093
   0.00028691 -0.00057942  0.59722675
   0.91823386  0.41447412  0.50027368
   0.00074386  0.24902105  0.59651452
   0.83315055  0.33155472  0.40225596
   0.66753008  0.16501294  0.49953176
   0.83370284  0.08141398  0.40367222
   0.49906588  0.75040739  0.59863625
   0.08187422  0.83321093  0.40254160
   0.41583110  0.66704292  0.50019041
   0.91425071  0.91903360  0.49959451
   0.00095511  0.74971371  0.59676258
   0.16548967  0.16887441  0.50039351
   0.41695886  0.16710062  0.49979899
   0.58456982  0.08300033  0.40332949
   0.66586256  0.91936338  0.49988238
   0.33431054  0.33360834  0.40270188
   0.16635907  0.41495804  0.50029308
   0.24885502  0.50047660  0.59728940
   0.16517865  0.66694173  0.49996898
   0.24980026  0.24998577  0.59641434
   0.75064684  0.75023013  0.59822594
Direct configuration=     8
   0.08017217  0.08388403  0.39824409
   0.50071941 -0.00098938  0.60220433
   0.58397404  0.32981735  0.39685141
   0.41410959  0.41743310  0.49957396
   0.49792684  0.25078190  0.60141675
   0.58246514  0.58237973  0.39641276
   0.49908158  0.50169543  0.60305016
   0.16413876  0.91642087  0.50002745
   0.58565636  0.83497482  0.39633290
   0.75333697 -0.00287746  0.60027157
   0.66849622  0.41477456  0.49922941
   0.75331031  0.24783196  0.60184781
   0.83370184  0.58312373  0.39734126
   0.66662210  0.66710336  0.50120750
   0.75150290  0.50048178  0.60393005
   0.41586470  0.91820210  0.50073641
   0.33189256  0.83170745  0.39654322
   0.24843725  0.74946238  0.60239808
   0.08338990  0.33359325  0.39965947
   0.24741458  0.00264420  0.60331222
   0.08539320  0.58467513  0.39842696
   0.33470692  0.08489572  0.39841784
   0.91725791  0.66812900  0.50021678
   0.00257127  0.49899510  0.60127647
   0.33293559  0.58351376  0.40280518
   0.83411568  0.83620380  0.40301512
   0.91677792  0.16673531  0.49986757
   0.00043063 -0.00054948  0.59722962
   0.91817496  0.41455663  0.50028592
   0.00091227  0.24905070  0.59637147
   0.83308696  0.33189595  0.40233749
   0.66756195  0.16492383  0.49968815
   0.83359152  0.08142882  0.40376058
   0.49943109  0.75034199  0.59848939
   0.08218793  0.83327632  0.40263958
   0.41588627  0.66662595  0.50021943
   0.91424897  0.91922249  0.49970278
   0.00096092  0.74964170  0.59666780
   0.16530496  0.16897608  0.50019891
   0.41669538  0.16685965  0.49986572
   0.58464879  0.08274755  0.40349189
   0.66554886  0.91947336  0.49998009
   0.33434489  0.33345897  0.40280610
   0.16642476  0.41500698  0.50018960
   0.24905040  0.50032290  0.59718484
   0.16543659  0.66695371  0.49995410
   0.24965615  0.25003605  0.59623013
   0.75044401  0.75015685  0.59808969
Direct configuration=     9
   0.08006925  0.08391021  0.39817068
   0.50076618 -0.00117297  0.60228100
   0.58388657  0.33003813  0.39674899
   0.41409472  0.41771103  0.49963255
   0.49798646  0.25069483  0.60154353
   0.58258861  0.58231637  0.39627844
   0.49915598  0.50176287  0.60309737
   0.16394439  0.91643078  0.50004153
   0.58550608  0.83503758  0.39618423
   0.75325492 -0.00299316  0.60036143
   0.66816937  0.41520473  0.49929393
   0.75343725  0.24800383  0.60194406
   0.83376649  0.58294790  0.39724959
   0.66647464  0.66700429  0.50108545
   0.75128334  0.50065138  0.60409387
   0.41614989  0.91834924  0.50067449
   0.33203788  0.83154941  0.39640595
   0.24847765  0.74935078  0.60252397
   0.08316750  0.33372219  0.39960982
   0.24746901  0.00261028  0.60344637
   0.08554087  0.58459502  0.39834227
   0.33488752  0.08487484  0.39839042
   0.91719635  0.66796895  0.50012378
   0.00270902  0.49879562  0.60130598
   0.33303706  0.58359252  0.40296296
   0.83383057  0.83631576  0.40308571
   0.91676011  0.16670251  0.49983851
   0.00055587 -0.00052338  0.59723213
   0.91812364  0.41462853  0.50029659
   0.00105902  0.24907653  0.59624681
   0.83303154  0.33219332  0.40240855
   0.66758973  0.16484617  0.49982443
   0.83349452  0.08144175  0.40383758
   0.49974935  0.75028499  0.59836141
   0.08246130  0.83333331  0.40272496
   0.41593434  0.66626259  0.50024472
   0.91424745  0.91938710  0.49979712
   0.00096599  0.74957895  0.59658521
   0.16514399  0.16906468  0.50002934
   0.41646578  0.16664967  0.49992388
   0.58471761  0.08252727  0.40363341
   0.66527549  0.91956921  0.50006524
   0.33437483  0.33332880  0.40289693
   0.16648200  0.41504963  0.50009943
   0.24922067  0.50018897  0.59709372
   0.16566137  0.66696415  0.49994114
   0.24953056  0.25007987  0.59606959
   0.75026725  0.75009299  0.59797095
Direct configuration=    10
   0.08002357  0.08389583  0.39806997
   0.50069150 -0.00121002  0.60241390
   0.58385696  0.33000092  0.39669368
   0.41430414  0.41742877  0.49968852
   0.49805478  0.25058288  0.60170845
   0.58273461  0.58223925  0.39604113
   0.49921393  0.50172091  0.60321144
   0.16407921  0.91651623  0.50010877
   0.58553429  0.83493232  0.39593376
   0.75334684 -0.00313548  0.60049545
   0.66808538  0.41514095  0.49936811
   0.75366544  0.24801670  0.60207187
   0.83381126  0.58300954  0.39707723
   0.66650653  0.66695780  0.50087683
   0.75141853  0.50070609  0.60434110
   0.41582779  0.91844650  0.50059754
   0.33207822  0.83156324  0.39622173
   0.24843445  0.74941350  0.60268764
   0.08316418  0.33372307  0.39952800
   0.24760748  0.00244921  0.60355689
   0.08570407  0.58468033  0.39824071
   0.33478395  0.08497318  0.39832900
   0.91724585  0.66791778  0.50000292
   0.00275499  0.49873103  0.60127868
   0.33317955  0.58355516  0.40316758
   0.83375926  0.83637412  0.40324717
   0.91651512  0.16684463  0.49979810
   0.00070132 -0.00057149  0.59724168
   0.91809795  0.41473679  0.50034801
   0.00118002  0.24912877  0.59604021
   0.83288076  0.33234199  0.40254124
   0.66747251  0.16492547  0.50000138
   0.83330356  0.08150036  0.40401800
   0.49979126  0.75035592  0.59817079
   0.08247208  0.83340603  0.40287167
   0.41570704  0.66640889  0.50029090
   0.91404582  0.91942653  0.49991101
   0.00099562  0.74945493  0.59640291
   0.16500179  0.16902010  0.49978474
   0.41630237  0.16670746  0.50002189
   0.58485014  0.08256268  0.40390295
   0.66531502  0.91964717  0.50019503
   0.33455175  0.33321522  0.40305609
   0.16632403  0.41522541  0.49996406
   0.24933998  0.50001521  0.59695819
   0.16539483  0.66709622  0.49993998
   0.24953027  0.25000541  0.59582249
   0.75035997  0.74991648  0.59776060
Direct configuration=    11
   0.07995886  0.08387546  0.39792734
   0.50058573 -0.00126250  0.60260212
   0.58381503  0.32994821  0.39661535
   0.41460075  0.41702900  0.49976778
   0.49815154  0.25042432  0.60194204
   0.58294140  0.58213003  0.39570501
   0.49929602  0.50166147  0.60337301
   0.16427015  0.91663725  0.50020399
   0.58557423  0.83478325  0.39557900
   0.75347705 -0.00333706  0.60068527
   0.66796642  0.41505062  0.49947317
   0.75398863  0.24803493  0.60225290
   0.83387467  0.58309683  0.39683311
   0.66655170  0.66689195  0.50058135
   0.75161002  0.50078357  0.60469126
   0.41537160  0.91858426  0.50048856
   0.33213535  0.83158283  0.39596082
   0.24837326  0.74950234  0.60291945
   0.08315947  0.33372433  0.39941211
   0.24780359  0.00222108  0.60371342
   0.08593522  0.58480116  0.39809686
   0.33463726  0.08511246  0.39824200
   0.91731597  0.66784530  0.49983175
   0.00282010  0.49863954  0.60124001
   0.33338137  0.58350225  0.40345739
   0.83365826  0.83645677  0.40347586
   0.91616814  0.16704593  0.49974086
   0.00090732 -0.00063964  0.59725522
   0.91806157  0.41489012  0.50042084
   0.00135139  0.24920275  0.59574760
   0.83266720  0.33255256  0.40272919
   0.66730649  0.16503777  0.50025201
   0.83303309  0.08158337  0.40427352
   0.49985063  0.75045638  0.59790082
   0.08248735  0.83350904  0.40307945
   0.41538512  0.66661611  0.50035632
   0.91376025  0.91948236  0.50007232
   0.00103759  0.74927929  0.59614471
   0.16480040  0.16895697  0.49943830
   0.41607093  0.16678932  0.50016071
   0.58503784  0.08261284  0.40428472
   0.66537100  0.91975759  0.50037887
   0.33480233  0.33305437  0.40328151
   0.16610029  0.41547436  0.49977234
   0.24950895  0.49976912  0.59676623
   0.16501732  0.66728328  0.49993834
   0.24952987  0.24989996  0.59547252
   0.75049128  0.74966647  0.59746268
Direct configuration=    12
   0.07982944  0.08383471  0.39764207
   0.50037419 -0.00136745  0.60297857
   0.58373115  0.32984279  0.39645869
   0.41519398  0.41622945  0.49992632
   0.49834507  0.25010720  0.60240921
   0.58335496  0.58191158  0.39503276
   0.49946018  0.50154259  0.60369613
   0.16465205  0.91687930  0.50039445
   0.58565413  0.83448511  0.39486949
   0.75373745 -0.00374020  0.60106490
   0.66772851  0.41486997  0.49968329
   0.75463501  0.24807140  0.60261495
   0.83400149  0.58327143  0.39634487
   0.66664205  0.66676025  0.49999041
   0.75199299  0.50093854  0.60539158
   0.41445921  0.91885976  0.50027059
   0.33224960  0.83162202  0.39543899
   0.24825088  0.74968001  0.60338307
   0.08315005  0.33372685  0.39918034
   0.24819582  0.00176483  0.60402648
   0.08639753  0.58504283  0.39780916
   0.33434387  0.08539102  0.39806800
   0.91745619  0.66770034  0.49948940
   0.00295031  0.49845656  0.60116269
   0.33378501  0.58339643  0.40403700
   0.83345627  0.83662209  0.40393324
   0.91547418  0.16744853  0.49962639
   0.00131932 -0.00077592  0.59728229
   0.91798882  0.41519679  0.50056649
   0.00169413  0.24935071  0.59516238
   0.83224009  0.33297369  0.40310508
   0.66697445  0.16526238  0.50075326
   0.83249216  0.08174938  0.40478457
   0.49996936  0.75065731  0.59736087
   0.08251788  0.83371506  0.40349501
   0.41474126  0.66703055  0.50048714
   0.91318910  0.91959404  0.50039493
   0.00112154  0.74892799  0.59562832
   0.16439760  0.16883069  0.49874543
   0.41560805  0.16695303  0.50043836
   0.58541325  0.08271316  0.40504825
   0.66548297  0.91997844  0.50074653
   0.33530349  0.33273265  0.40373236
   0.16565281  0.41597228  0.49938889
   0.24984691  0.49927693  0.59638232
   0.16426230  0.66765739  0.49993506
   0.24952906  0.24968905  0.59477258
   0.75075390  0.74916647  0.59686684
Direct configuration=    13
   0.07992437  0.08386460  0.39785133
   0.50052937 -0.00129046  0.60270242
   0.58379268  0.32992012  0.39657361
   0.41475881  0.41681596  0.49981002
   0.49820310  0.25033982  0.60206651
   0.58305159  0.58207182  0.39552589
   0.49933976  0.50162979  0.60345910
   0.16437191  0.91670175  0.50025474
   0.58559552  0.83470382  0.39538996
   0.75354643 -0.00344447  0.60078642
   0.66790303  0.41500249  0.49952915
   0.75416085  0.24804465  0.60234936
   0.83390846  0.58314335  0.39670302
   0.66657578  0.66685686  0.50042390
   0.75171206  0.50082486  0.60487785
   0.41512850  0.91865766  0.50043048
   0.33216579  0.83159327  0.39582178
   0.24834065  0.74954968  0.60304298
   0.08315696  0.33372500  0.39935036
   0.24790810  0.00209952  0.60379683
   0.08605840  0.58486555  0.39802020
   0.33455908  0.08518668  0.39819564
   0.91735333  0.66780668  0.49974053
   0.00285479  0.49859078  0.60121941
   0.33348892  0.58347406  0.40361182
   0.83360444  0.83650082  0.40359773
   0.91598324  0.16715320  0.49971036
   0.00101709 -0.00067595  0.59726243
   0.91804219  0.41497183  0.50045965
   0.00144271  0.24924217  0.59559167
   0.83255340  0.33266476  0.40282934
   0.66721802  0.16509762  0.50038557
   0.83288897  0.08162760  0.40440969
   0.49988227  0.75050992  0.59775695
   0.08249548  0.83356393  0.40319017
   0.41521356  0.66672654  0.50039117
   0.91360807  0.91951212  0.50015827
   0.00105996  0.74918568  0.59600712
   0.16469307  0.16892332  0.49925369
   0.41594760  0.16683294  0.50023469
   0.58513787  0.08263957  0.40448815
   0.66540083  0.91981643  0.50047683
   0.33493586  0.33296865  0.40340164
   0.16598106  0.41560703  0.49967017
   0.24959900  0.49963798  0.59666394
   0.16481615  0.66738296  0.49993747
   0.24952965  0.24984376  0.59528603
   0.75056125  0.74953325  0.59730393
Direct configuration=    14
   0.07964000  0.08389288  0.39771587
   0.50067504 -0.00125810  0.60283405
   0.58394321  0.32982837  0.39660229
   0.41465593  0.41669293  0.49997165
   0.49848286  0.25017854  0.60229780
   0.58285127  0.58209036  0.39525164
   0.49941576  0.50164387  0.60361484
   0.16392834  0.91692641  0.50033663
   0.58560547  0.83504574  0.39509878
   0.75370968 -0.00331713  0.60104157
   0.66788221  0.41509376  0.49966079
   0.75427055  0.24776237  0.60253346
   0.83421190  0.58329843  0.39642027
   0.66632595  0.66707945  0.50014617
   0.75185518  0.50071806  0.60510127
   0.41523828  0.91855290  0.50027791
   0.33207980  0.83167903  0.39557367
   0.24846182  0.74928836  0.60322876
   0.08314759  0.33395895  0.39919595
   0.24786905  0.00223139  0.60386273
   0.08609525  0.58495546  0.39786547
   0.33477253  0.08498574  0.39808166
   0.91717103  0.66780135  0.49954884
   0.00300110  0.49875733  0.60111356
   0.33373148  0.58343711  0.40379409
   0.83389696  0.83634802  0.40375898
   0.91599273  0.16706533  0.49970581
   0.00092054 -0.00066663  0.59727374
   0.91772775  0.41515551  0.50044722
   0.00166994  0.24891782  0.59538602
   0.83261774  0.33242467  0.40295204
   0.66705726  0.16520705  0.50076507
   0.83302554  0.08169651  0.40466068
   0.49978583  0.75024768  0.59752137
   0.08218545  0.83374695  0.40340612
   0.41513181  0.66689896  0.50041624
   0.91365444  0.91967390  0.50029823
   0.00124262  0.74900341  0.59585550
   0.16448778  0.16898081  0.49898634
   0.41601973  0.16676180  0.50038352
   0.58485166  0.08260874  0.40482298
   0.66506639  0.91973461  0.50063864
   0.33495288  0.33307213  0.40354389
   0.16573803  0.41574241  0.49947713
   0.24958142  0.49963561  0.59652285
   0.16489628  0.66739238  0.49998589
   0.24971727  0.24955082  0.59500238
   0.75075865  0.74947796  0.59701963
Direct configuration=    15
   0.07956190  0.08390064  0.39767867
   0.50071505 -0.00124921  0.60287020
   0.58398456  0.32980317  0.39661017
   0.41462767  0.41665914  0.50001604
   0.49855969  0.25013424  0.60236132
   0.58279626  0.58209545  0.39517632
   0.49943663  0.50164773  0.60365761
   0.16380651  0.91698811  0.50035912
   0.58560821  0.83513964  0.39501881
   0.75375452 -0.00328216  0.60111164
   0.66787649  0.41511883  0.49969695
   0.75430068  0.24768485  0.60258403
   0.83429524  0.58334102  0.39634261
   0.66625733  0.66714059  0.50006989
   0.75189449  0.50068873  0.60516263
   0.41526843  0.91852412  0.50023600
   0.33205618  0.83170259  0.39550553
   0.24849510  0.74921659  0.60327979
   0.08314502  0.33402320  0.39915354
   0.24785833  0.00226761  0.60388083
   0.08610537  0.58498015  0.39782297
   0.33483115  0.08493056  0.39805036
   0.91712096  0.66779988  0.49949619
   0.00304128  0.49880307  0.60108449
   0.33379810  0.58342697  0.40384415
   0.83397730  0.83630605  0.40380327
   0.91599534  0.16704120  0.49970456
   0.00089403 -0.00066407  0.59727685
   0.91764139  0.41520596  0.50044381
   0.00173235  0.24882874  0.59532954
   0.83263541  0.33235873  0.40298574
   0.66701311  0.16523710  0.50086930
   0.83306306  0.08171543  0.40472961
   0.49975935  0.75017565  0.59745667
   0.08210030  0.83379722  0.40346543
   0.41510936  0.66694632  0.50042312
   0.91366718  0.91971833  0.50033666
   0.00129279  0.74895335  0.59581386
   0.16443139  0.16899660  0.49891291
   0.41603954  0.16674227  0.50042440
   0.58477305  0.08260027  0.40491494
   0.66497453  0.91971214  0.50068308
   0.33495756  0.33310055  0.40358296
   0.16567128  0.41577959  0.49942412
   0.24957659  0.49963496  0.59648410
   0.16491829  0.66739497  0.49999918
   0.24976880  0.24947037  0.59492448
   0.75081286  0.74946278  0.59694154
Direct configuration=    16
   0.07965539  0.08397024  0.39758847
   0.50102226 -0.00151378  0.60290143
   0.58418286  0.32962146  0.39678627
   0.41445974  0.41692095  0.50015851
   0.49854772  0.25029252  0.60255021
   0.58285704  0.58220787  0.39507465
   0.49960176  0.50144709  0.60377088
   0.16372737  0.91697830  0.50041329
   0.58582347  0.83519471  0.39484772
   0.75394301 -0.00340399  0.60134400
   0.66774527  0.41537131  0.49980015
   0.75419972  0.24775964  0.60270619
   0.83407108  0.58342729  0.39612714
   0.66601954  0.66717024  0.49984947
   0.75205858  0.50045286  0.60513592
   0.41515455  0.91860032  0.50012968
   0.33181783  0.83182147  0.39537211
   0.24856240  0.74914444  0.60334012
   0.08321365  0.33399830  0.39902654
   0.24790561  0.00220914  0.60380270
   0.08628034  0.58496701  0.39771766
   0.33470266  0.08495955  0.39796086
   0.91694658  0.66791004  0.49937576
   0.00314007  0.49871270  0.60094409
   0.33375060  0.58351230  0.40385797
   0.83404580  0.83647398  0.40383263
   0.91600505  0.16708970  0.49978616
   0.00094801 -0.00083213  0.59735919
   0.91730253  0.41534771  0.50036804
   0.00164957  0.24872539  0.59528830
   0.83273162  0.33239290  0.40297621
   0.66700140  0.16523822  0.50114348
   0.83297654  0.08171493  0.40489937
   0.49974862  0.75002326  0.59735104
   0.08206606  0.83376191  0.40355068
   0.41514137  0.66691796  0.50038694
   0.91348818  0.91975333  0.50043681
   0.00132331  0.74907343  0.59582887
   0.16454374  0.16898639  0.49877291
   0.41616489  0.16657719  0.50049910
   0.58466680  0.08260016  0.40508466
   0.66486318  0.91965304  0.50074693
   0.33487182  0.33327010  0.40359109
   0.16551874  0.41569469  0.49931845
   0.24967076  0.49952991  0.59649458
   0.16520575  0.66724669  0.50003682
   0.24989989  0.24941548  0.59483062
   0.75077727  0.74961378  0.59683535
Direct configuration=    17
   0.07968932  0.08399550  0.39755574
   0.50113376 -0.00160979  0.60291276
   0.58425483  0.32955552  0.39685017
   0.41439879  0.41701596  0.50021021