  48  48   0   0
  0.5349325E+02  0.1100258E-08  0.1100258E-08  0.2449179E-08  0.3500000E-15
  1.000000000000000E-004
  CAR 
 unknown system                          
      6.30104070    -10.02732556  301     -1.10997806      1.00000000
    -10.027  0.0000E+00  0.0000E+00
     -9.973  0.0000E+00  0.0000E+00
     -9.918  0.0000E+00  0.0000E+00
     -9.864  0.0000E+00  0.0000E+00
     -9.810  0.0000E+00  0.0000E+00
     -9.755  0.0000E+00  0.0000E+00
     -9.701  0.0000E+00  0.0000E+00
     -9.646  0.0000E+00  0.0000E+00
     -9.592  0.8839E-17  0.4811E-18
     -9.537  0.3626E-14  0.1978E-15
     -9.483  0.7983E-12  0.4365E-13
     -9.429  0.9918E-10  0.5442E-11
     -9.374  0.6982E-08  0.3855E-09
     -9.320  0.2798E-06  0.1561E-07
     -9.265  0.6412E-05  0.3646E-06
     -9.211  0.8444E-04  0.4960E-05
     -9.156  0.6417E-03  0.3989E-04
     -9.102  0.2826E-02  0.1937E-03
     -9.048  0.7248E-02  0.5882E-03
     -8.993  0.1103E-01  0.1189E-02
     -8.939  0.1090E-01  0.1782E-02
     -8.884  0.9438E-02  0.2295E-02
     -8.830  0.9610E-02  0.2818E-02
     -8.775  0.9273E-02  0.3323E-02
     -8.721  0.6917E-02  0.3700E-02
     -8.667  0.3928E-02  0.3913E-02
     -8.612  0.2213E-02  0.4034E-02
     -8.558  0.2592E-02  0.4175E-02
     -8.503  0.3708E-02  0.4377E-02
     -8.449  0.3861E-02  0.4587E-02
     -8.394  0.4209E-02  0.4816E-02
     -8.340  0.6377E-02  0.5163E-02
     -8.286  0.8404E-02  0.5621E-02
     -8.231  0.8715E-02  0.6095E-02
     -8.177  0.8750E-02  0.6571E-02
     -8.122  0.8045E-02  0.7009E-02
     -8.068  0.6422E-02  0.7359E-02
     -8.013  0.6999E-02  0.7740E-02
     -7.959  0.9966E-02  0.8282E-02
     -7.905  0.1151E-01  0.8908E-02
     -7.850  0.1071E-01  0.9491E-02
     -7.796  0.9538E-02  0.1001E-01
     -7.741  0.7899E-02  0.1044E-01
     -7.687  0.6749E-02  0.1081E-01
     -7.632  0.8719E-02  0.1128E-01
     -7.578  0.1299E-01  0.1199E-01
     -7.524  0.1791E-01  0.1296E-01
     -7.469  0.2438E-01  0.1429E-01
     -7.415  0.3304E-01  0.1609E-01
     -7.360  0.4380E-01  0.1847E-01
     -7.306  0.5419E-01  0.2142E-01
     -7.252  0.6008E-01  0.2469E-01
     -7.197  0.6077E-01  0.2800E-01
     -7.143  0.5775E-01  0.3114E-01
     -7.088  0.5368E-01  0.3407E-01
     -7.034  0.5087E-01  0.3683E-01
     -6.979  0.4803E-01  0.3945E-01
     -6.925  0.4589E-01  0.4195E-01
     -6.871  0.4645E-01  0.4447E-01
     -6.816  0.4924E-01  0.4715E-01
     -6.762  0.5710E-01  0.5026E-01
     -6.707  0.7098E-01  0.5413E-01
     -6.653  0.8172E-01  0.5857E-01
     -6.598  0.8320E-01  0.6310E-01
     -6.544  0.8364E-01  0.6765E-01
     -6.490  0.9280E-01  0.7270E-01
     -6.435  0.1121E+00  0.7881E-01
     -6.381  0.1369E+00  0.8626E-01
     -6.326  0.1567E+00  0.9479E-01
     -6.272  0.1633E+00  0.1037E+00
     -6.217  0.1579E+00  0.1123E+00
     -6.163  0.1493E+00  0.1204E+00
     -6.109  0.1458E+00  0.1283E+00
     -6.054  0.1469E+00  0.1363E+00
     -6.000  0.1473E+00  0.1444E+00
     -5.945  0.1469E+00  0.1523E+00
     -5.891  0.1468E+00  0.1603E+00
     -5.836  0.1461E+00  0.1683E+00
     -5.782  0.1449E+00  0.1762E+00
     -5.728  0.1412E+00  0.1839E+00
     -5.673  0.1350E+00  0.1912E+00
     -5.619  0.1309E+00  0.1983E+00
     -5.564  0.1322E+00  0.2055E+00
     -5.510  0.1364E+00  0.2130E+00
     -5.455  0.1401E+00  0.2206E+00
     -5.401  0.1434E+00  0.2284E+00
     -5.347  0.1472E+00  0.2364E+00
     -5.292  0.1530E+00  0.2447E+00
     -5.238  0.1619E+00  0.2535E+00
     -5.183  0.1723E+00  0.2629E+00
     -5.129  0.1799E+00  0.2727E+00
     -5.074  0.1822E+00  0.2826E+00
     -5.020  0.1803E+00  0.2924E+00
     -4.966  0.1769E+00  0.3021E+00
     -4.911  0.1736E+00  0.3115E+00
     -4.857  0.1709E+00  0.3208E+00
     -4.802  0.1692E+00  0.3300E+00
     -4.748  0.1658E+00  0.3390E+00
     -4.693  0.1589E+00  0.3477E+00
     -4.639  0.1507E+00  0.3559E+00
     -4.585  0.1468E+00  0.3639E+00
     -4.530  0.1492E+00  0.3720E+00
     -4.476  0.1549E+00  0.3804E+00
     -4.421  0.1626E+00  0.3893E+00
     -4.367  0.1697E+00  0.3985E+00
     -4.312  0.1724E+00  0.4079E+00
     -4.258  0.1732E+00  0.4173E+00
     -4.204  0.1762E+00  0.4269E+00
     -4.149  0.1789E+00  0.4367E+00
     -4.095  0.1772E+00  0.4463E+00
     -4.040  0.1746E+00  0.4558E+00
     -3.986  0.1774E+00  0.4655E+00
     -3.931  0.1832E+00  0.4754E+00
     -3.877  0.1857E+00  0.4855E+00
     -3.823  0.1863E+00  0.4957E+00
     -3.768  0.1901E+00  0.5060E+00
     -3.714  0.1978E+00  0.5168E+00
     -3.659  0.2061E+00  0.5280E+00
     -3.605  0.2102E+00  0.5395E+00
     -3.550  0.2071E+00  0.5507E+00
     -3.496  0.2008E+00  0.5617E+00
     -3.442  0.1981E+00  0.5724E+00
     -3.387  0.1990E+00  0.5833E+00
     -3.333  0.2001E+00  0.5942E+00
     -3.278  0.2006E+00  0.6051E+00
     -3.224  0.1997E+00  0.6160E+00
     -3.169  0.1975E+00  0.6267E+00
     -3.115  0.1962E+00  0.6374E+00
     -3.061  0.1965E+00  0.6481E+00
     -3.006  0.1980E+00  0.6589E+00
     -2.952  0.1995E+00  0.6697E+00
     -2.897  0.2005E+00  0.6806E+00
     -2.843  0.2002E+00  0.6915E+00
     -2.788  0.1985E+00  0.7023E+00
     -2.734  0.1985E+00  0.7131E+00
     -2.680  0.1987E+00  0.7240E+00
     -2.625  0.1947E+00  0.7346E+00
     -2.571  0.1881E+00  0.7448E+00
     -2.516  0.1838E+00  0.7548E+00
     -2.462  0.1822E+00  0.7647E+00
     -2.407  0.1790E+00  0.7745E+00
     -2.353  0.1735E+00  0.7839E+00
     -2.299  0.1710E+00  0.7932E+00
     -2.244  0.1760E+00  0.8028E+00
     -2.190  0.1863E+00  0.8129E+00
     -2.135  0.1948E+00  0.8235E+00
     -2.081  0.1973E+00  0.8343E+00
     -2.026  0.1960E+00  0.8449E+00
     -1.972  0.1925E+00  0.8554E+00
     -1.918  0.1895E+00  0.8657E+00
     -1.863  0.1909E+00  0.8761E+00
     -1.809  0.1942E+00  0.8867E+00
     -1.754  0.1948E+00  0.8973E+00
     -1.700  0.1939E+00  0.9078E+00
     -1.645  0.1924E+00  0.9183E+00
     -1.591  0.1900E+00  0.9287E+00
     -1.537  0.1894E+00  0.9390E+00
     -1.482  0.1916E+00  0.9494E+00
     -1.428  0.1922E+00  0.9599E+00
     -1.373  0.1862E+00  0.9700E+00
     -1.319  0.1753E+00  0.9795E+00
     -1.264  0.1622E+00  0.9884E+00
     -1.210  0.1460E+00  0.9963E+00
     -1.156  0.1263E+00  0.1003E+01
     -1.101  0.1037E+00  0.1009E+01
     -1.047  0.7934E-01  0.1013E+01
     -0.992  0.5462E-01  0.1016E+01
     -0.938  0.3410E-01  0.1018E+01
     -0.883  0.2235E-01  0.1019E+01
     -0.829  0.1918E-01  0.1020E+01
     -0.775  0.2177E-01  0.1021E+01
     -0.720  0.2720E-01  0.1023E+01
     -0.666  0.3371E-01  0.1025E+01
     -0.611  0.4126E-01  0.1027E+01
     -0.557  0.4725E-01  0.1030E+01
     -0.502  0.4591E-01  0.1032E+01
     -0.448  0.3710E-01  0.1034E+01
     -0.394  0.3031E-01  0.1036E+01
     -0.339  0.3259E-01  0.1037E+01
     -0.285  0.3798E-01  0.1040E+01
     -0.230  0.3857E-01  0.1042E+01
     -0.176  0.3503E-01  0.1044E+01
     -0.121  0.2923E-01  0.1045E+01
     -0.067  0.2206E-01  0.1046E+01
     -0.013  0.1736E-01  0.1047E+01
      0.042  0.1882E-01  0.1048E+01
      0.096  0.2620E-01  0.1050E+01
      0.151  0.3263E-01  0.1052E+01
      0.205  0.3165E-01  0.1053E+01
      0.260  0.2804E-01  0.1055E+01
      0.314  0.2922E-01  0.1056E+01
      0.368  0.3327E-01  0.1058E+01
      0.423  0.3581E-01  0.1060E+01
      0.477  0.3842E-01  0.1062E+01
      0.532  0.4367E-01  0.1065E+01
      0.586  0.4966E-01  0.1067E+01
      0.641  0.5186E-01  0.1070E+01
      0.695  0.4934E-01  0.1073E+01
      0.749  0.4378E-01  0.1075E+01
      0.804  0.3623E-01  0.1077E+01
      0.858  0.3022E-01  0.1079E+01
      0.913  0.2857E-01  0.1080E+01
      0.967  0.2875E-01  0.1082E+01
      1.022  0.2663E-01  0.1083E+01
      1.076  0.2175E-01  0.1085E+01
      1.130  0.1685E-01  0.1085E+01
      1.185  0.1269E-01  0.1086E+01
      1.239  0.9099E-02  0.1087E+01
      1.294  0.8147E-02  0.1087E+01
      1.348  0.9988E-02  0.1088E+01
      1.403  0.1335E-01  0.1088E+01
      1.457  0.1922E-01  0.1089E+01
      1.511  0.2767E-01  0.1091E+01
      1.566  0.3503E-01  0.1093E+01
      1.620  0.3629E-01  0.1095E+01
      1.675  0.3209E-01  0.1097E+01
      1.729  0.2936E-01  0.1098E+01
      1.784  0.3025E-01  0.1100E+01
      1.838  0.3106E-01  0.1101E+01
      1.892  0.3198E-01  0.1103E+01
      1.947  0.3414E-01  0.1105E+01
      2.001  0.3518E-01  0.1107E+01
      2.056  0.3373E-01  0.1109E+01
      2.110  0.3277E-01  0.1111E+01
      2.165  0.3550E-01  0.1113E+01
      2.219  0.4005E-01  0.1115E+01
      2.273  0.4264E-01  0.1117E+01
      2.328  0.4110E-01  0.1119E+01
      2.382  0.3802E-01  0.1121E+01
      2.437  0.3710E-01  0.1123E+01
      2.491  0.3786E-01  0.1125E+01
      2.546  0.4046E-01  0.1128E+01
      2.600  0.4445E-01  0.1130E+01
      2.654  0.4469E-01  0.1132E+01
      2.709  0.3872E-01  0.1135E+01
      2.763  0.3009E-01  0.1136E+01
      2.818  0.2164E-01  0.1137E+01
      2.872  0.1577E-01  0.1138E+01
      2.927  0.1349E-01  0.1139E+01
      2.981  0.1074E-01  0.1140E+01
      3.035  0.6662E-02  0.1140E+01
      3.090  0.5984E-02  0.1140E+01
      3.144  0.1065E-01  0.1141E+01
      3.199  0.1792E-01  0.1142E+01
      3.253  0.2410E-01  0.1143E+01
      3.308  0.2510E-01  0.1145E+01
      3.362  0.2032E-01  0.1146E+01
      3.416  0.1895E-01  0.1147E+01
      3.471  0.2853E-01  0.1148E+01
      3.525  0.4203E-01  0.1150E+01
      3.580  0.4809E-01  0.1153E+01
      3.634  0.4519E-01  0.1156E+01
      3.689  0.3806E-01  0.1158E+01
      3.743  0.3055E-01  0.1159E+01
      3.797  0.2560E-01  0.1161E+01
      3.852  0.2325E-01  0.1162E+01
      3.906  0.2277E-01  0.1163E+01
      3.961  0.2565E-01  0.1165E+01
      4.015  0.2862E-01  0.1166E+01
      4.069  0.2667E-01  0.1168E+01
      4.124  0.2243E-01  0.1169E+01
      4.178  0.2011E-01  0.1170E+01
      4.233  0.1843E-01  0.1171E+01
      4.287  0.1574E-01  0.1172E+01
      4.342  0.1561E-01  0.1173E+01
      4.396  0.2219E-01  0.1174E+01
      4.450  0.3176E-01  0.1176E+01
      4.505  0.3817E-01  0.1178E+01
      4.559  0.4244E-01  0.1180E+01
      4.614  0.4706E-01  0.1183E+01
      4.668  0.4962E-01  0.1185E+01
      4.723  0.4756E-01  0.1188E+01
      4.777  0.4510E-01  0.1190E+01
      4.831  0.4746E-01  0.1193E+01
      4.886  0.5226E-01  0.1196E+01
      4.940  0.5676E-01  0.1199E+01
      4.995  0.6112E-01  0.1202E+01
      5.049  0.6508E-01  0.1206E+01
      5.104  0.6879E-01  0.1209E+01
      5.158  0.7159E-01  0.1213E+01
      5.212  0.7009E-01  0.1217E+01
      5.267  0.5943E-01  0.1220E+01
      5.321  0.3984E-01  0.1223E+01
      5.376  0.1944E-01  0.1224E+01
      5.430  0.6413E-02  0.1224E+01
      5.485  0.1344E-02  0.1224E+01
      5.539  0.1711E-03  0.1224E+01
      5.593  0.1285E-04  0.1224E+01
      5.648  0.5585E-06  0.1224E+01
      5.702  0.1388E-07  0.1224E+01
      5.757  0.1958E-09  0.1224E+01
      5.811  0.1559E-11  0.1224E+01
      5.866  0.6972E-14  0.1224E+01
      5.920  0.1632E-16  0.1224E+01
      5.974  0.0000E+00  0.1224E+01
      6.029  0.0000E+00  0.1224E+01
      6.083  0.0000E+00  0.1224E+01
      6.138  0.0000E+00  0.1224E+01
      6.192  0.0000E+00  0.1224E+01
      6.247  0.0000E+00  0.1224E+01
      6.301  0.0000E+00  0.1224E+01
