<?xml version="1.0" encoding="ISO-8859-1"?>
<modeling>
 <generator>
  <i name="program" type="string">vasp </i>
  <i name="version" type="string">5.4.1  </i>
  <i name="subversion" type="string">24Jun15 (build Mar 14 2019 10:18:33) complex                          parallel </i>
  <i name="platform" type="string">INTEL-19.0.2+OPENMPI-3.1.3 </i>
  <i name="date" type="string">2022 07 15 </i>
  <i name="time" type="string">18:25:52 </i>
 </generator>
 <incar>
  <i type="int" name="ISTART">     0</i>
  <i type="string" name="PREC">normal</i>
  <i type="string" name="ALGO"> Fast</i>
  <i type="int" name="NELM">   500</i>
  <i type="int" name="IBRION">     2</i>
  <i type="int" name="NFREE">     2</i>
  <i name="EDIFF">      0.00000100</i>
  <i name="EDIFFG">     -0.02000000</i>
  <i type="int" name="NSW">   500</i>
  <i type="int" name="ISIF">     0</i>
  <i type="int" name="ISYM">     2</i>
  <i name="ENCUT">    400.00000000</i>
  <i name="POTIM">      0.35000000</i>
  <i type="string" name="LREAL"> Auto</i>
  <i type="logical" name="LPLANE"> T  </i>
  <i type="int" name="ISMEAR">     0</i>
  <i name="SIGMA">      0.10000000</i>
  <i type="int" name="NWRITE">     1</i>
  <i type="logical" name="LWAVE"> F  </i>
  <i type="logical" name="LCHARG"> F  </i>
  <i type="logical" name="LVTOT"> F  </i>
  <i type="logical" name="LORBIT"> F  </i>
  <i type="logical" name="LAECHG"> F  </i>
  <v type="int" name="KPOINT_BSE">    -1     0     0     0</v>
  <i type="int" name="NELM">   500</i>
  <i type="string" name="GGA"> PE          ! optPBE-vdW XC-functional</i>
  <i type="int" name="VOSKOWN">     1</i>
  <i type="logical" name="LDIPOL"> T  </i>
  <i type="logical" name="LMONO"> F  </i>
  <i type="int" name="IDIPOL">     3</i>
  <v name="DIPOL">      0.00000000      0.00000000      0.50000000</v>
 </incar>
 <kpoints>
  <generation param="Monkhorst-Pack">
   <v type="int" name="divisions">       2        2        1 </v>
   <v name="usershift">      0.00000000       0.00000000       0.00000000 </v>
   <v name="genvec1">      0.50000000      -0.00000000       0.00000000 </v>
   <v name="genvec2">      0.00000000       0.50000000       0.00000000 </v>
   <v name="genvec3">      0.00000000       0.00000000       1.00000000 </v>
   <v name="shift">      0.50000000       0.50000000       0.00000000 </v>
  </generation>
  <varray name="kpointlist" >
   <v>       0.25000000       0.25000000       0.00000000 </v>
   <v>       0.00000000       0.25000000       0.00000000 </v>
   <v>      -0.25000000       0.00000000       0.00000000 </v>
   <v>      -0.25000000       0.25000000       0.00000000 </v>
   <v>       0.50000000      -0.25000000       0.00000000 </v>
   <v>      -0.25000000       0.50000000       0.00000000 </v>
  </varray>
  <varray name="weights" >
   <v>       0.16666667 </v>
   <v>       0.16666667 </v>
   <v>       0.16666667 </v>
   <v>       0.16666667 </v>
   <v>       0.16666667 </v>
   <v>       0.16666667 </v>
  </varray>
 </kpoints>
 <parameters>
  <separator name="general" >
   <i type="string" name="SYSTEM">unknown system</i>
   <i type="logical" name="LCOMPAT"> F  </i>
  </separator>
  <separator name="electronic" >
   <i type="string" name="PREC">normal</i>
   <i name="ENMAX">    400.00000000</i>
   <i name="ENAUG">    416.23000000</i>
   <i name="EDIFF">      0.00000100</i>
   <i type="int" name="IALGO">    68</i>
   <i type="int" name="IWAVPR">    11</i>
   <i type="int" name="NBANDS">   306</i>
   <i name="NELECT">    504.00000000</i>
   <i type="int" name="TURBO">     0</i>
   <i type="int" name="IRESTART">     0</i>
   <i type="int" name="NREBOOT">     0</i>
   <i type="int" name="NMIN">     0</i>
   <i name="EREF">      0.00000000</i>
   <separator name="electronic smearing" >
    <i type="int" name="ISMEAR">     0</i>
    <i name="SIGMA">      0.10000000</i>
    <i name="KSPACING">      0.50000000</i>
    <i type="logical" name="KGAMMA"> T  </i>
   </separator>
   <separator name="electronic projectors" >
    <i type="logical" name="LREAL"> T  </i>
    <v name="ROPT">     -0.00050000     -0.00050000</v>
    <i type="int" name="LMAXPAW">  -100</i>
    <i type="int" name="LMAXMIX">     2</i>
    <i type="logical" name="NLSPLINE"> F  </i>
   </separator>
   <separator name="electronic startup" >
    <i type="int" name="ISTART">     0</i>
    <i type="int" name="ICHARG">     2</i>
    <i type="int" name="INIWAV">     1</i>
   </separator>
   <separator name="electronic spin" >
    <i type="int" name="ISPIN">     1</i>
    <i type="logical" name="LNONCOLLINEAR"> F  </i>
    <v name="MAGMOM">      1.00000000      1.00000000      1.00000000      1.00000000      1.00000000      1.00000000      1.00000000      1.00000000      1.00000000      1.00000000      1.00000000      1.00000000      1.00000000      1.00000000      1.00000000      1.00000000      1.00000000      1.00000000      1.00000000      1.00000000
      1.00000000      1.00000000      1.00000000      1.00000000      1.00000000      1.00000000      1.00000000      1.00000000      1.00000000      1.00000000      1.00000000      1.00000000      1.00000000      1.00000000      1.00000000      1.00000000      1.00000000      1.00000000      1.00000000      1.00000000
      1.00000000      1.00000000      1.00000000      1.00000000      1.00000000      1.00000000      1.00000000      1.00000000</v>
    <i name="NUPDOWN">     -1.00000000</i>
    <i type="logical" name="LSORBIT"> F  </i>
    <v name="SAXIS">      0.00000000      0.00000000      1.00000000</v>
    <i type="logical" name="LSPIRAL"> F  </i>
    <v name="QSPIRAL">      0.00000000      0.00000000      0.00000000</v>
    <i type="logical" name="LZEROZ"> F  </i>
   </separator>
   <separator name="electronic exchange-correlation" >
    <i type="logical" name="LASPH"> F  </i>
    <i type="logical" name="LMETAGGA"> F  </i>
   </separator>
   <separator name="electronic convergence" >
    <i type="int" name="NELM">   500</i>
    <i type="int" name="NELMDL">    -5</i>
    <i type="int" name="NELMIN">     2</i>
    <i name="ENINI">    400.00000000</i>
    <separator name="electronic convergence detail" >
     <i type="logical" name="LDIAG"> T  </i>
     <i type="logical" name="LSUBROT"> F  </i>
     <i name="WEIMIN">      0.00100000</i>
     <i name="EBREAK">      0.00000000</i>
     <i name="DEPER">      0.30000000</i>
     <i type="int" name="NRMM">     4</i>
     <i name="TIME">      0.40000000</i>
    </separator>
   </separator>
   <separator name="electronic mixer" >
    <i name="AMIX">      0.40000000</i>
    <i name="BMIX">      1.00000000</i>
    <i name="AMIN">      0.10000000</i>
    <i name="AMIX_MAG">      1.60000000</i>
    <i name="BMIX_MAG">      1.00000000</i>
    <separator name="electronic mixer details" >
     <i type="int" name="IMIX">     4</i>
     <i type="logical" name="MIXFIRST"> F  </i>
     <i type="int" name="MAXMIX">   -45</i>
     <i name="WC">    100.00000000</i>
     <i type="int" name="INIMIX">     1</i>
     <i type="int" name="MIXPRE">     1</i>
     <i type="int" name="MREMOVE">     5</i>
    </separator>
   </separator>
   <separator name="electronic dipolcorrection" >
    <i type="logical" name="LDIPOL"> T  </i>
    <i type="logical" name="LMONO"> F  </i>
    <i type="int" name="IDIPOL">     3</i>
    <i name="EPSILON">      1.00000000</i>
    <v name="DIPOL">      0.00000000      0.00000000      0.50000000</v>
    <i name="EFIELD">      0.00000000</i>
   </separator>
  </separator>
  <separator name="grids" >
   <i type="int" name="NGX">    54</i>
   <i type="int" name="NGY">    54</i>
   <i type="int" name="NGZ">   120</i>
   <i type="int" name="NGXF">   108</i>
   <i type="int" name="NGYF">   108</i>
   <i type="int" name="NGZF">   240</i>
   <i type="logical" name="ADDGRID"> F  </i>
  </separator>
  <separator name="ionic" >
   <i type="int" name="NSW">   500</i>
   <i type="int" name="IBRION">     2</i>
   <i type="int" name="ISIF">     0</i>
   <i name="PSTRESS">      0.00000000</i>
   <i name="EDIFFG">     -0.02000000</i>
   <i type="int" name="NFREE">     2</i>
   <i name="POTIM">      0.35000000</i>
   <i name="SMASS">     -3.00000000</i>
   <i name="SCALEE">      1.00000000</i>
  </separator>
  <separator name="ionic md" >
   <i name="TEBEG">      0.00010000</i>
   <i name="TEEND">      0.00010000</i>
   <i type="int" name="NBLOCK">     1</i>
   <i type="int" name="KBLOCK">   500</i>
   <i type="int" name="NPACO">   256</i>
   <i name="APACO">     16.00000000</i>
  </separator>
  <separator name="symmetry" >
   <i type="int" name="ISYM">     2</i>
   <i name="SYMPREC">      0.00001000</i>
  </separator>
  <separator name="dos" >
   <i type="logical" name="LORBIT"> F  </i>
   <v name="RWIGS">     -1.00000000     -1.00000000</v>
   <i type="int" name="NEDOS">   301</i>
   <i name="EMIN">     10.00000000</i>
   <i name="EMAX">    -10.00000000</i>
   <i name="EFERMI">      0.00000000</i>
  </separator>
  <separator name="writing" >
   <i type="int" name="NWRITE">     1</i>
   <i type="logical" name="LWAVE"> F  </i>
   <i type="logical" name="LCHARG"> F  </i>
   <i type="logical" name="LPARD"> F  </i>
   <i type="logical" name="LVTOT"> F  </i>
   <i type="logical" name="LVHAR"> F  </i>
   <i type="logical" name="LELF"> F  </i>
   <i type="logical" name="LOPTICS"> F  </i>
   <v name="STM">      0.00000000      0.00000000      0.00000000      0.00000000      0.00000000      0.00000000      0.00000000</v>
  </separator>
  <separator name="performance" >
   <i type="int" name="NPAR">     6</i>
   <i type="int" name="NSIM">     4</i>
   <i type="int" name="NBLK">    -1</i>
   <i type="logical" name="LPLANE"> T  </i>
   <i type="logical" name="LSCALAPACK"> T  </i>
   <i type="logical" name="LSCAAWARE"> F  </i>
   <i type="logical" name="LSCALU"> F  </i>
   <i type="logical" name="LASYNC"> F  </i>
   <i type="logical" name="LORBITALREAL"> F  </i>
  </separator>
  <separator name="miscellaneous" >
   <i type="int" name="IDIOT">     3</i>
   <i type="logical" name="LMUSIC"> F  </i>
   <v name="POMASS">    196.96600000    106.42000000</v>
   <v name="DARWINR">      0.00000000      0.00000000</v>
   <v name="DARWINV">      1.00000000      1.00000000</v>
   <i type="logical" name="LCORR"> T  </i>
  </separator>
  <i type="logical" name="GGA_COMPAT"> T  </i>
  <i type="logical" name="LBERRY"> F  </i>
  <i type="int" name="ICORELEVEL">     0</i>
  <i type="logical" name="LDAU"> F  </i>
  <i type="int" name="I_CONSTRAINED_M">     0</i>
  <separator name="electronic exchange-correlation" >
   <i type="string" name="GGA">PE</i>
   <i type="int" name="VOSKOWN">     1</i>
   <i type="logical" name="LHFCALC"> F  </i>
   <i type="string" name="PRECFOCK"></i>
   <i type="logical" name="LSYMGRAD"> F  </i>
   <i type="logical" name="LHFONE"> F  </i>
   <i type="logical" name="LRHFCALC"> F  </i>
   <i type="logical" name="LTHOMAS"> F  </i>
   <i type="logical" name="LMODELHF"> F  </i>
   <i name="ENCUT4O">     -1.00000000</i>
   <i type="int" name="EXXOEP">     0</i>
   <i type="int" name="FOURORBIT">     0</i>
   <i name="AEXX">      0.00000000</i>
   <i name="HFALPHA">      0.00000000</i>
   <i name="MCALPHA">      0.00000000</i>
   <i name="ALDAX">      1.00000000</i>
   <i name="AGGAX">      1.00000000</i>
   <i name="ALDAC">      1.00000000</i>
   <i name="AGGAC">      1.00000000</i>
   <i type="int" name="NKREDX">     1</i>
   <i type="int" name="NKREDY">     1</i>
   <i type="int" name="NKREDZ">     1</i>
   <i type="logical" name="SHIFTRED"> F  </i>
   <i type="logical" name="ODDONLY"> F  </i>
   <i type="logical" name="EVENONLY"> F  </i>
   <i type="int" name="LMAXFOCK">     0</i>
   <i type="int" name="NMAXFOCKAE">     0</i>
   <i type="logical" name="LFOCKAEDFT"> F  </i>
   <i name="HFSCREEN">      0.00000000</i>
   <i name="HFSCREENC">      0.00000000</i>
   <i type="int" name="NBANDSGWLOW">     0</i>
  </separator>
  <separator name="vdW DFT" >
   <i type="logical" name="LUSE_VDW"> F  </i>
   <i name="Zab_VDW">     -0.84910000</i>
   <i name="PARAM1">      0.12340000</i>
   <i name="PARAM2">      1.00000000</i>
   <i name="PARAM3">      0.00000000</i>
  </separator>
  <separator name="model GW" >
   <i type="int" name="MODEL_GW">     0</i>
   <i name="MODEL_EPS0">     32.09595293</i>
   <i name="MODEL_ALPHA">      1.00000000</i>
  </separator>
  <separator name="linear response parameters" >
   <i type="logical" name="LEPSILON"> F  </i>
   <i type="logical" name="LRPA"> F  </i>
   <i type="logical" name="LNABLA"> F  </i>
   <i type="logical" name="LVEL"> F  </i>
   <i type="int" name="KINTER">     0</i>
   <i name="CSHIFT">      0.10000000</i>
   <i name="OMEGAMAX">     -1.00000000</i>
   <i name="DEG_THRESHOLD">      0.00200000</i>
  </separator>
  <separator name="orbital magnetization" >
   <i type="logical" name="NUCIND"> F  </i>
   <v name="MAGPOS">      0.00000000      0.00000000      0.00000000</v>
   <i type="logical" name="LNICSALL"> T  </i>
   <i type="logical" name="ORBITALMAG"> F  </i>
   <i type="logical" name="LMAGBLOCH"> F  </i>
   <i type="logical" name="LCHIMAG"> F  </i>
   <i type="logical" name="LGAUGE"> T  </i>
   <i type="int" name="MAGATOM">     0</i>
   <v name="MAGDIPOL">      0.00000000      0.00000000      0.00000000</v>
   <v name="AVECCONST">      0.00000000      0.00000000      0.00000000</v>
  </separator>
  <separator name="response functions" >
   <i type="logical" name="LADDER"> F  </i>
   <i type="logical" name="LFXC"> F  </i>
   <i type="logical" name="LHARTREE"> T  </i>
   <i type="int" name="IBSE">     0</i>
   <v type="int" name="KPOINT">    -1     0     0     0</v>
   <i type="logical" name="LTCTE"> F  </i>
   <i type="logical" name="LTETE"> F  </i>
   <i type="logical" name="LTRIPLET"> F  </i>
   <i type="logical" name="LFXCEPS"> F  </i>
   <i type="logical" name="LFXHEG"> F  </i>
   <i type="int" name="NATURALO">     0</i>
   <i type="logical" name="L2ORDER"> F  </i>
   <i type="logical" name="LUSEW"> F  </i>
   <i name="ENCUTGW">     -2.00000000</i>
   <i name="ENCUTGWSOFT">     -2.00000000</i>
   <i name="ENCUTLF">     -1.00000000</i>
   <i type="int" name="LMAXMP2">    -1</i>
   <i name="SCISSOR">      0.00000000</i>
   <i type="int" name="NOMEGA">     0</i>
   <i type="int" name="NOMEGAR">     0</i>
   <i type="int" name="NBANDSGW">    -1</i>
   <i type="int" name="NBANDSO">    -1</i>
   <i type="int" name="NBANDSV">    -1</i>
   <i type="int" name="NELM">   500</i>
   <i type="int" name="NELMHF">     1</i>
   <i type="int" name="DIM">     3</i>
   <i type="int" name="ANTIRES">     0</i>
   <i name="OMEGAMAX">    -30.00000000</i>
   <i name="OMEGAMIN">    -30.00000000</i>
   <i name="OMEGATL">   -200.00000000</i>
   <i type="int" name="OMEGAGRID">     0</i>
   <i name="CSHIFT">     -0.10000000</i>
   <i type="logical" name="SELFENERGY"> F  </i>
   <i type="logical" name="LSPECTRAL"> F  </i>
   <i type="logical" name="LSPECTRALGW"> F  </i>
   <i type="logical" name="LSINGLES"> F  </i>
   <i type="logical" name="LFERMIGW"> F  </i>
   <i type="logical" name="ODDONLYGW"> F  </i>
   <i type="logical" name="EVENONLYGW"> F  </i>
   <i type="int" name="NKREDLFX">     1</i>
   <i type="int" name="NKREDLFY">     1</i>
   <i type="int" name="NKREDLFZ">     1</i>
   <i type="int" name="MAXMEM">  1800</i>
   <i type="int" name="TELESCOPE">     0</i>
   <i type="int" name="TAUPAR">     1</i>
   <i type="int" name="OMEGAPAR">    -1</i>
   <i name="LAMBDA">      1.00000000</i>
  </separator>
  <separator name="External order field" >
   <i name="OFIELD_KAPPA">      0.00000000</i>
   <v name="OFIELD_K">      0.00000000      0.00000000      0.00000000</v>
   <i name="OFIELD_Q6_NEAR">      0.00000000</i>
   <i name="OFIELD_Q6_FAR">      0.00000000</i>
   <i name="OFIELD_A">      0.00000000</i>
  </separator>
 </parameters>
 <atominfo>
  <atoms>      48 </atoms>
  <types>       2 </types>
  <array name="atoms" >
   <dimension dim="1">ion</dimension>
   <field type="string">element</field>
   <field type="int">atomtype</field>
   <set>
    <rc><c>Au</c><c>   1</c></rc>
    <rc><c>Au</c><c>   1</c></rc>
    <rc><c>Au</c><c>   1</c></rc>
    <rc><c>Au</c><c>   1</c></rc>
    <rc><c>Au</c><c>   1</c></rc>
    <rc><c>Au</c><c>   1</c></rc>
    <rc><c>Au</c><c>   1</c></rc>
    <rc><c>Au</c><c>   1</c></rc>
    <rc><c>Au</c><c>   1</c></rc>
    <rc><c>Au</c><c>   1</c></rc>
    <rc><c>Au</c><c>   1</c></rc>
    <rc><c>Au</c><c>   1</c></rc>
    <rc><c>Au</c><c>   1</c></rc>
    <rc><c>Au</c><c>   1</c></rc>
    <rc><c>Au</c><c>   1</c></rc>
    <rc><c>Au</c><c>   1</c></rc>
    <rc><c>Au</c><c>   1</c></rc>
    <rc><c>Au</c><c>   1</c></rc>
    <rc><c>Au</c><c>   1</c></rc>
    <rc><c>Au</c><c>   1</c></rc>
    <rc><c>Au</c><c>   1</c></rc>
    <rc><c>Au</c><c>   1</c></rc>
    <rc><c>Au</c><c>   1</c></rc>
    <rc><c>Au</c><c>   1</c></rc>
    <rc><c>Pd</c><c>   2</c></rc>
    <rc><c>Pd</c><c>   2</c></rc>
    <rc><c>Pd</c><c>   2</c></rc>
    <rc><c>Pd</c><c>   2</c></rc>
    <rc><c>Pd</c><c>   2</c></rc>
    <rc><c>Pd</c><c>   2</c></rc>
    <rc><c>Pd</c><c>   2</c></rc>
    <rc><c>Pd</c><c>   2</c></rc>
    <rc><c>Pd</c><c>   2</c></rc>
    <rc><c>Pd</c><c>   2</c></rc>
    <rc><c>Pd</c><c>   2</c></rc>
    <rc><c>Pd</c><c>   2</c></rc>
    <rc><c>Pd</c><c>   2</c></rc>
    <rc><c>Pd</c><c>   2</c></rc>
    <rc><c>Pd</c><c>   2</c></rc>
    <rc><c>Pd</c><c>   2</c></rc>
    <rc><c>Pd</c><c>   2</c></rc>
    <rc><c>Pd</c><c>   2</c></rc>
    <rc><c>Pd</c><c>   2</c></rc>
    <rc><c>Pd</c><c>   2</c></rc>
    <rc><c>Pd</c><c>   2</c></rc>
    <rc><c>Pd</c><c>   2</c></rc>
    <rc><c>Pd</c><c>   2</c></rc>
    <rc><c>Pd</c><c>   2</c></rc>
   </set>
  </array>
  <array name="atomtypes" >
   <dimension dim="1">type</dimension>
   <field type="int">atomspertype</field>
   <field type="string">element</field>
   <field>mass</field>
   <field>valence</field>
   <field type="string">pseudopotential</field>
   <set>
    <rc><c>  24</c><c>Au</c><c>    196.96600000</c><c>     11.00000000</c><c>  PAW_PBE Au 04Oct2007                  </c></rc>
    <rc><c>  24</c><c>Pd</c><c>    106.42000000</c><c>     10.00000000</c><c>  PAW_PBE Pd 04Jan2005                  </c></rc>
   </set>
  </array>
 </atominfo>
 <structure name="initialpos" >
  <crystal>
   <varray name="basis" >
    <v>      11.00258152       0.00000000       0.00000000 </v>
    <v>       5.50129076       9.52851510       0.00000000 </v>
    <v>       0.00000000       0.00000000      24.49178509 </v>
   </varray>
   <i name="volume">   2567.67623402 </i>
   <varray name="rec_basis" >
    <v>       0.09088776      -0.05247407       0.00000000 </v>
    <v>       0.00000000       0.10494815       0.00000000 </v>
    <v>       0.00000000       0.00000000       0.04083002 </v>
   </varray>
  </crystal>
  <varray name="positions" >
   <v>       0.25000000       0.75000000       0.59169983 </v>
   <v>       0.50000000       0.25000000       0.59169983 </v>
   <v>       0.58333333       0.83333333       0.40830017 </v>
   <v>       0.41666667       0.91666667       0.50000000 </v>
   <v>       0.41666667       0.16666667       0.50000000 </v>
   <v>       0.58333333       0.08333333       0.40830017 </v>
   <v>       0.66666667       0.91666667       0.50000000 </v>
   <v>       0.16666667       0.91666667       0.50000000 </v>
   <v>       0.33333333       0.83333333       0.40830017 </v>
   <v>       0.83333333       0.08333333       0.40830017 </v>
   <v>       0.16666667       0.66666667       0.50000000 </v>
   <v>       0.66666667       0.16666667       0.50000000 </v>
   <v>       0.16666667       0.41666667       0.50000000 </v>
   <v>       0.25000000       0.00000000       0.59169983 </v>
   <v>       0.41666667       0.66666667       0.50000000 </v>
   <v>       0.08333333       0.58333333       0.40830017 </v>
   <v>       0.33333333       0.08333333       0.40830017 </v>
   <v>       0.91666667       0.16666667       0.50000000 </v>
   <v>       0.00000000       0.75000000       0.59169983 </v>
   <v>       0.91666667       0.91666667       0.50000000 </v>
   <v>       0.08333333       0.83333333       0.40830017 </v>
   <v>       0.00000000       0.00000000       0.59169983 </v>
   <v>       0.66666667       0.66666667       0.50000000 </v>
   <v>       0.75000000       0.50000000       0.59169983 </v>
   <v>       0.83333333       0.83333333       0.40830017 </v>
   <v>       0.50000000       0.75000000       0.59169983 </v>
   <v>       0.50000000       0.50000000       0.59169983 </v>
   <v>       0.83333333       0.58333333       0.40830017 </v>
   <v>       0.75000000       0.25000000       0.59169983 </v>
   <v>       0.75000000       0.00000000       0.59169983 </v>
   <v>       0.66666667       0.41666667       0.50000000 </v>
   <v>       0.83333333       0.33333333       0.40830017 </v>
   <v>       0.08333333       0.08333333       0.40830017 </v>
   <v>       0.41666667       0.41666667       0.50000000 </v>
   <v>       0.58333333       0.33333333       0.40830017 </v>
   <v>       0.50000000       0.00000000       0.59169983 </v>
   <v>       0.25000000       0.50000000       0.59169983 </v>
   <v>       0.33333333       0.58333333       0.40830017 </v>
   <v>       0.25000000       0.25000000       0.59169983 </v>
   <v>       0.33333333       0.33333333       0.40830017 </v>
   <v>       0.16666667       0.16666667       0.50000000 </v>
   <v>       0.00000000       0.50000000       0.59169983 </v>
   <v>       0.91666667       0.66666667       0.50000000 </v>
   <v>       0.00000000       0.25000000       0.59169983 </v>
   <v>       0.91666667       0.41666667       0.50000000 </v>
   <v>       0.08333333       0.33333333       0.40830017 </v>
   <v>       0.58333333       0.58333333       0.40830017 </v>
   <v>       0.75000000       0.75000000       0.59169983 </v>
  </varray>
 </structure>
 <calculation>
  <scstep>
   <time name="dav">    7.06    7.16</time>
   <time name="total">    7.12    7.22</time>
   <dipole>
    <v name="dipole">      0.00000000       0.00000000       0.00000074 </v>
    <i name="Tr[quadrupol]"> -10184.00748625 </i>
    <i name="Echarged">      0.00000000 </i>
    <i name="Edipol_quadrupol">      0.00000000 </i>
    <i name="Eion">      0.00000000 </i>
   </dipole>
   <energy>
    <i name="alphaZ">    805.86936440 </i>
    <i name="ewald"> 200883.09623960 </i>
    <i name="hartreedc">-243300.90663546 </i>
    <i name="XCdc">   -327.42912941 </i>
    <i name="pawpsdc">  40340.05962942 </i>
    <i name="pawaedc"> -38292.62782345 </i>
    <i name="eentropy">     -0.13196791 </i>
    <i name="bandstr">   1432.99085332 </i>
    <i name="atom">  41659.78587232 </i>
    <i name="e_fr_energy">   3200.70640284 </i>
    <i name="e_wo_entrp">   3200.83837075 </i>
    <i name="e_0_energy">   3200.77238679 </i>
   </energy>
  </scstep>
  <scstep>
   <time name="dav">    8.26    8.29</time>
   <time name="total">    8.26    8.29</time>
   <dipole>
    <v name="dipole">      0.00000000       0.00000000       0.00000074 </v>
    <i name="Tr[quadrupol]"> -10184.00748625 </i>
    <i name="Echarged">      0.00000000 </i>
    <i name="Edipol_quadrupol">      0.00000000 </i>
    <i name="Eion">      0.00000000 </i>
   </dipole>
   <energy>
    <i name="e_fr_energy">     16.18792425 </i>
    <i name="e_wo_entrp">     16.30446568 </i>
    <i name="e_0_energy">     16.24619496 </i>
   </energy>
  </scstep>
  <scstep>
   <time name="dav">    7.94    7.96</time>
   <time name="total">    7.94    7.97</time>
   <dipole>
    <v name="dipole">      0.00000000       0.00000000       0.00000074 </v>
    <i name="Tr[quadrupol]"> -10184.00748625 </i>
    <i name="Echarged">      0.00000000 </i>
    <i name="Edipol_quadrupol">      0.00000000 </i>
    <i name="Eion">      0.00000000 </i>
   </dipole>
   <energy>
    <i name="e_fr_energy">   -199.34951901 </i>
    <i name="e_wo_entrp">   -199.12349441 </i>
    <i name="e_0_energy">   -199.23650671 </i>
   </energy>
  </scstep>
  <scstep>
   <time name="dav">    8.17    8.20</time>
   <time name="total">    8.18    8.21</time>
   <dipole>
    <v name="dipole">      0.00000000       0.00000000       0.00000074 </v>
    <i name="Tr[quadrupol]"> -10184.00748625 </i>
    <i name="Echarged">      0.00000000 </i>
    <i name="Edipol_quadrupol">      0.00000000 </i>
    <i name="Eion">      0.00000000 </i>
   </dipole>
   <energy>
    <i name="e_fr_energy">   -205.29042742 </i>
    <i name="e_wo_entrp">   -205.05502430 </i>
    <i name="e_0_energy">   -205.17272586 </i>
   </energy>
  </scstep>
  <scstep>
   <time name="dav">    8.45    8.48</time>
   <time name="total">    8.70    8.73</time>
   <dipole>
    <v name="dipole">      0.00000000       0.00000000       0.00000074 </v>
    <i name="Tr[quadrupol]"> -10184.00748625 </i>
    <i name="Echarged">      0.00000000 </i>
    <i name="Edipol_quadrupol">      0.00000000 </i>
    <i name="Eion">      0.00000000 </i>
   </dipole>
   <energy>
    <i name="e_fr_energy">   -205.47059874 </i>
    <i name="e_wo_entrp">   -205.23474218 </i>
    <i name="e_0_energy">   -205.35267046 </i>
   </energy>
  </scstep>
  <scstep>
   <time name="diag">    1.28    1.28</time>
   <time name="diis">    3.45    3.55</time>
   <time name="orth">    0.32    0.32</time>
   <time name="total">    5.35    5.45</time>
   <dipole>
    <v name="dipole">      0.00000000       0.00000000       0.33848102 </v>
    <i name="Tr[quadrupol]"> -10183.25388899 </i>
    <i name="Echarged">      0.00000000 </i>
    <i name="Edipol_quadrupol">      0.00000000 </i>
    <i name="Eion">      0.00000000 </i>
   </dipole>
   <energy>
    <i name="e_fr_energy">   -199.28250805 </i>
    <i name="e_wo_entrp">   -199.04339339 </i>
    <i name="e_0_energy">   -199.16295072 </i>
   </energy>
  </scstep>
  <scstep>
   <time name="diag">    1.29    1.29</time>
   <time name="diis">    3.48    3.49</time>
   <time name="orth">    0.32    0.33</time>
   <time name="total">    5.39    5.41</time>
   <dipole>
    <v name="dipole">      0.00000000       0.00000000      -0.34488909 </v>
    <i name="Tr[quadrupol]"> -10183.56757929 </i>
    <i name="Echarged">      0.00000000 </i>
    <i name="Edipol_quadrupol">      0.00000000 </i>
    <i name="Eion">      0.00000000 </i>
   </dipole>
   <energy>
    <i name="e_fr_energy">   -196.41867418 </i>
    <i name="e_wo_entrp">   -196.22652946 </i>
    <i name="e_0_energy">   -196.32260182 </i>
   </energy>
  </scstep>
  <scstep>
   <time name="diag">    1.28    1.30</time>
   <time name="diis">    3.51    3.53</time>
   <time name="orth">    0.32    0.32</time>
   <time name="total">    5.41    5.46</time>
   <dipole>
    <v name="dipole">      0.00000000       0.00000000       1.64281572 </v>
    <i name="Tr[quadrupol]"> -10186.02198205 </i>
    <i name="Echarged">      0.00000000 </i>
    <i name="Edipol_quadrupol">      0.00000000 </i>
    <i name="Eion">      0.00000000 </i>
   </dipole>
   <energy>
    <i name="e_fr_energy">   -216.83056484 </i>
    <i name="e_wo_entrp">   -216.56337620 </i>
    <i name="e_0_energy">   -216.69697052 </i>
   </energy>
  </scstep>
  <scstep>
   <time name="diag">    1.29    1.29</time>
   <time name="diis">    3.48    3.49</time>
   <time name="orth">    0.32    0.32</time>
   <time name="total">    5.39    5.41</time>
   <dipole>
    <v name="dipole">      0.00000000       0.00000000      -1.12185791 </v>
    <i name="Tr[quadrupol]"> -10186.80689910 </i>
    <i name="Echarged">      0.00000000 </i>
    <i name="Edipol_quadrupol">      0.00000000 </i>
    <i name="Eion">      0.00000000 </i>
   </dipole>
   <energy>
    <i name="e_fr_energy">   -214.83410845 </i>
    <i name="e_wo_entrp">   -214.65014434 </i>
    <i name="e_0_energy">   -214.74212640 </i>
   </energy>
  </scstep>
  <scstep>
   <time name="diag">    1.28    1.29</time>
   <time name="diis">    3.52    3.53</time>
   <time name="orth">    0.32    0.32</time>
   <time name="total">    5.42    5.43</time>
   <dipole>
    <v name="dipole">      0.00000000       0.00000000       0.26552569 </v>
    <i name="Tr[quadrupol]"> -10186.48903915 </i>
    <i name="Echarged">      0.00000000 </i>
    <i name="Edipol_quadrupol">      0.00000000 </i>
    <i name="Eion">      0.00000000 </i>
   </dipole>
   <energy>
    <i name="e_fr_energy">   -194.89295769 </i>
    <i name="e_wo_entrp">   -194.67743493 </i>
    <i name="e_0_energy">   -194.78519631 </i>
   </energy>
  </scstep>
  <scstep>
   <time name="diag">    1.29    1.29</time>
   <time name="diis">    3.51    3.52</time>
   <time name="orth">    0.32    0.32</time>
   <time name="total">    5.41    5.43</time>
   <dipole>
    <v name="dipole">      0.00000000       0.00000000       0.01905101 </v>
    <i name="Tr[quadrupol]"> -10185.85953386 </i>
    <i name="Echarged">      0.00000000 </i>
    <i name="Edipol_quadrupol">      0.00000000 </i>
    <i name="Eion">      0.00000000 </i>
   </dipole>
   <energy>
    <i name="e_fr_energy">   -188.87985761 </i>
    <i name="e_wo_entrp">   -188.67965926 </i>
    <i name="e_0_energy">   -188.77975844 </i>
   </energy>
  </scstep>
  <scstep>
   <time name="diag">    1.29    1.30</time>
   <time name="diis">    3.49    3.50</time>
   <time name="orth">    0.32    0.32</time>
   <time name="total">    5.40    5.42</time>
   <dipole>
    <v name="dipole">      0.00000000       0.00000000       0.11144878 </v>
    <i name="Tr[quadrupol]"> -10186.48942395 </i>
    <i name="Echarged">      0.00000000 </i>
    <i name="Edipol_quadrupol">      0.00000000 </i>
    <i name="Eion">      0.00000000 </i>
   </dipole>
   <energy>
    <i name="e_fr_energy">   -187.79804592 </i>
    <i name="e_wo_entrp">   -187.57790317 </i>
    <i name="e_0_energy">   -187.68797454 </i>
   </energy>
  </scstep>
  <scstep>
   <time name="diag">    1.29    1.29</time>
   <time name="diis">    3.51    3.52</time>
   <time name="orth">    0.32    0.32</time>
   <time name="total">    5.42    5.44</time>
   <dipole>
    <v name="dipole">      0.00000000       0.00000000      -0.01472039 </v>
    <i name="Tr[quadrupol]"> -10186.79665695 </i>
    <i name="Echarged">      0.00000000 </i>
    <i name="Edipol_quadrupol">      0.00000000 </i>
    <i name="Eion">      0.00000000 </i>
   </dipole>
   <energy>
    <i name="e_fr_energy">   -187.59138362 </i>
    <i name="e_wo_entrp">   -187.35249444 </i>
    <i name="e_0_energy">   -187.47193903 </i>
   </energy>
  </scstep>
  <scstep>
   <time name="diag">    1.28    1.36</time>
   <time name="diis">    3.47    3.48</time>
   <time name="orth">    0.32    0.32</time>
   <time name="total">    5.37    5.47</time>
   <dipole>
    <v name="dipole">      0.00000000       0.00000000       0.00882319 </v>
    <i name="Tr[quadrupol]"> -10186.76081704 </i>
    <i name="Echarged">      0.00000000 </i>
    <i name="Edipol_quadrupol">      0.00000000 </i>
    <i name="Eion">      0.00000000 </i>
   </dipole>
   <energy>
    <i name="e_fr_energy">   -187.33720986 </i>
    <i name="e_wo_entrp">   -187.08635047 </i>
    <i name="e_0_energy">   -187.21178016 </i>
   </energy>
  </scstep>
  <scstep>
   <time name="diag">    1.29    1.29</time>
   <time name="diis">    3.49    3.51</time>
   <time name="orth">    0.32    0.32</time>
   <time name="total">    5.39    5.41</time>
   <dipole>
    <v name="dipole">      0.00000000       0.00000000       0.00333346 </v>
    <i name="Tr[quadrupol]"> -10187.02837900 </i>
    <i name="Echarged">      0.00000000 </i>
    <i name="Edipol_quadrupol">      0.00000000 </i>
    <i name="Eion">      0.00000000 </i>
   </dipole>
   <energy>
    <i name="e_fr_energy">   -187.25801759 </i>
    <i name="e_wo_entrp">   -187.00574632 </i>
    <i name="e_0_energy">   -187.13188196 </i>
   </energy>
  </scstep>
  <scstep>
   <time name="diag">    1.30    1.30</time>
   <time name="diis">    3.51    3.52</time>
   <time name="orth">    0.32    0.32</time>
   <time name="total">    5.43    5.44</time>
   <dipole>
    <v name="dipole">      0.00000000       0.00000000      -0.00083685 </v>
    <i name="Tr[quadrupol]"> -10187.27778330 </i>
    <i name="Echarged">      0.00000000 </i>
    <i name="Edipol_quadrupol">      0.00000000 </i>
    <i name="Eion">      0.00000000 </i>
   </dipole>
   <energy>
    <i name="e_fr_energy">   -187.21628943 </i>
    <i name="e_wo_entrp">   -186.96431377 </i>
    <i name="e_0_energy">   -187.09030160 </i>
   </energy>
  </scstep>
  <scstep>
   <time name="diag">    1.29    1.29</time>
   <time name="diis">    3.51    3.52</time>
   <time name="orth">    0.32    0.32</time>
   <time name="total">    5.41    5.43</time>
   <dipole>
    <v name="dipole">      0.00000000       0.00000000       0.01353048 </v>
    <i name="Tr[quadrupol]"> -10187.53182525 </i>
    <i name="Echarged">      0.00000000 </i>
    <i name="Edipol_quadrupol">      0.00000000 </i>
    <i name="Eion">      0.00000000 </i>
   </dipole>
   <energy>
    <i name="e_fr_energy">   -187.19378012 </i>
    <i name="e_wo_entrp">   -186.95108960 </i>
    <i name="e_0_energy">   -187.07243486 </i>
   </energy>
  </scstep>
  <scstep>
   <time name="diag">    1.28    1.28</time>
   <time name="diis">    3.49    3.50</time>
   <time name="orth">    0.32    0.32</time>
   <time name="total">    5.38    5.40</time>
   <dipole>
    <v name="dipole">      0.00000000       0.00000000       0.01708896 </v>
    <i name="Tr[quadrupol]"> -10187.75159488 </i>
    <i name="Echarged">      0.00000000 </i>
    <i name="Edipol_quadrupol">      0.00000000 </i>
    <i name="Eion">      0.00000000 </i>
   </dipole>
   <energy>
    <i name="e_fr_energy">   -187.14341763 </i>
    <i name="e_wo_entrp">   -186.89315947 </i>
    <i name="e_0_energy">   -187.01828855 </i>
   </energy>
  </scstep>
  <scstep>
   <time name="diag">    1.28    1.30</time>
   <time name="diis">    3.48    3.49</time>
   <time name="orth">    0.31    0.32</time>
   <time name="total">    5.37    5.41</time>
   <dipole>
    <v name="dipole">      0.00000000       0.00000000       0.00994708 </v>
    <i name="Tr[quadrupol]"> -10187.86023935 </i>
    <i name="Echarged">      0.00000000 </i>
    <i name="Edipol_quadrupol">      0.00000000 </i>
    <i name="Eion">      0.00000000 </i>
   </dipole>
   <energy>
    <i name="e_fr_energy">   -187.12541222 </i>
    <i name="e_wo_entrp">   -186.86993854 </i>
    <i name="e_0_energy">   -186.99767538 </i>
   </energy>
  </scstep>
  <scstep>
   <time name="diag">    1.29    1.29</time>
   <time name="diis">    3.49    3.50</time>
   <time name="orth">    0.32    0.32</time>
   <time name="total">    5.39    5.41</time>
   <dipole>
    <v name="dipole">      0.00000000       0.00000000       0.00618148 </v>
    <i name="Tr[quadrupol]"> -10187.98573706 </i>
    <i name="Echarged">      0.00000000 </i>
    <i name="Edipol_quadrupol">      0.00000000 </i>
    <i name="Eion">      0.00000000 </i>
   </dipole>
   <energy>
    <i name="e_fr_energy">   -187.12052843 </i>
    <i name="e_wo_entrp">   -186.86279087 </i>
    <i name="e_0_energy">   -186.99165965 </i>
   </energy>
  </scstep>
  <scstep>
   <time name="diag">    1.29    1.29</time>
   <time name="diis">    3.49    3.50</time>
   <time name="orth">    0.31    0.32</time>
   <time name="total">    5.39    5.41</time>
   <dipole>
    <v name="dipole">      0.00000000       0.00000000       0.00138248 </v>
    <i name="Tr[quadrupol]"> -10188.14177897 </i>
    <i name="Echarged">      0.00000000 </i>
    <i name="Edipol_quadrupol">      0.00000000 </i>
    <i name="Eion">      0.00000000 </i>
   </dipole>
   <energy>
    <i name="e_fr_energy">   -187.11720084 </i>
    <i name="e_wo_entrp">   -186.85689983 </i>
    <i name="e_0_energy">   -186.98705033 </i>
   </energy>
  </scstep>
  <scstep>
   <time name="diag">    1.28    1.28</time>
   <time name="diis">    3.44    3.54</time>
   <time name="orth">    0.32    0.32</time>
   <time name="total">    5.33    5.43</time>
   <dipole>
    <v name="dipole">      0.00000000       0.00000000       0.00079173 </v>
    <i name="Tr[quadrupol]"> -10188.22395267 </i>
    <i name="Echarged">      0.00000000 </i>
    <i name="Edipol_quadrupol">      0.00000000 </i>
    <i name="Eion">      0.00000000 </i>
   </dipole>
   <energy>
    <i name="e_fr_energy">   -187.11605736 </i>
    <i name="e_wo_entrp">   -186.85638438 </i>
    <i name="e_0_energy">   -186.98622087 </i>
   </energy>
  </scstep>
  <scstep>
   <time name="diag">    1.28    1.29</time>
   <time name="diis">    3.51    3.52</time>
   <time name="orth">    0.32    0.32</time>
   <time name="total">    5.40    5.42</time>
   <dipole>
    <v name="dipole">      0.00000000       0.00000000       0.00503871 </v>
    <i name="Tr[quadrupol]"> -10188.31498786 </i>
    <i name="Echarged">      0.00000000 </i>
    <i name="Edipol_quadrupol">      0.00000000 </i>
    <i name="Eion">      0.00000000 </i>
   </dipole>
   <energy>
    <i name="e_fr_energy">   -187.11533954 </i>
    <i name="e_wo_entrp">   -186.85672254 </i>
    <i name="e_0_energy">   -186.98603104 </i>
   </energy>
  </scstep>
  <scstep>
   <time name="diag">    1.29    1.29</time>
   <time name="diis">    3.47    3.49</time>
   <time name="orth">    0.31    0.32</time>
   <time name="total">    5.37    5.40</time>
   <dipole>
    <v name="dipole">      0.00000000       0.00000000       0.00552729 </v>
    <i name="Tr[quadrupol]"> -10188.49583744 </i>
    <i name="Echarged">      0.00000000 </i>
    <i name="Edipol_quadrupol">      0.00000000 </i>
    <i name="Eion">      0.00000000 </i>
   </dipole>
   <energy>
    <i name="e_fr_energy">   -187.11531215 </i>
    <i name="e_wo_entrp">   -186.85655986 </i>
    <i name="e_0_energy">   -186.98593601 </i>
   </energy>
  </scstep>
  <scstep>
   <time name="diag">    1.29    1.30</time>
   <time name="diis">    3.54    3.55</time>
   <time name="orth">    0.32    0.32</time>
   <time name="total">    5.45    5.47</time>
   <dipole>
    <v name="dipole">      0.00000000       0.00000000       0.00517327 </v>
    <i name="Tr[quadrupol]"> -10188.54004245 </i>
    <i name="Echarged">      0.00000000 </i>
    <i name="Edipol_quadrupol">      0.00000000 </i>
    <i name="Eion">      0.00000000 </i>
   </dipole>
   <energy>
    <i name="e_fr_energy">   -187.11527568 </i>
    <i name="e_wo_entrp">   -186.85657972 </i>
    <i name="e_0_energy">   -186.98592770 </i>
   </energy>
  </scstep>
  <scstep>
   <time name="diag">    1.28    1.29</time>
   <time name="diis">    3.51    3.52</time>
   <time name="orth">    0.32    0.32</time>
   <time name="total">    5.41    5.43</time>
   <dipole>
    <v name="dipole">      0.00000000       0.00000000       0.00370970 </v>
    <i name="Tr[quadrupol]"> -10188.61767931 </i>
    <i name="Echarged">      0.00000000 </i>
    <i name="Edipol_quadrupol">      0.00000000 </i>
    <i name="Eion">      0.00000000 </i>
   </dipole>
   <energy>
    <i name="e_fr_energy">   -187.11564560 </i>
    <i name="e_wo_entrp">   -186.85693625 </i>
    <i name="e_0_energy">   -186.98629092 </i>
   </energy>
  </scstep>
  <scstep>
   <time name="diag">    1.29    1.29</time>
   <time name="diis">    3.66    3.67</time>
   <time name="orth">    0.32    0.32</time>
   <time name="total">    5.56    5.58</time>
   <dipole>
    <v name="dipole">      0.00000000       0.00000000       0.00357954 </v>
    <i name="Tr[quadrupol]"> -10188.65572625 </i>
    <i name="Echarged">      0.00000000 </i>
    <i name="Edipol_quadrupol">      0.00000000 </i>
    <i name="Eion">      0.00000000 </i>
   </dipole>
   <energy>
    <i name="e_fr_energy">   -187.11590470 </i>
    <i name="e_wo_entrp">   -186.85728940 </i>
    <i name="e_0_energy">   -186.98659705 </i>
   </energy>
  </scstep>
  <scstep>
   <time name="diag">    1.29    1.30</time>
   <time name="diis">    3.64    3.65</time>
   <time name="orth">    0.31    0.32</time>
   <time name="total">    5.55    5.57</time>
   <dipole>
    <v name="dipole">      0.00000000       0.00000000       0.00334359 </v>
    <i name="Tr[quadrupol]"> -10188.74463109 </i>
    <i name="Echarged">      0.00000000 </i>
    <i name="Edipol_quadrupol">      0.00000000 </i>
    <i name="Eion">      0.00000000 </i>
   </dipole>
   <energy>
    <i name="e_fr_energy">   -187.11653790 </i>
    <i name="e_wo_entrp">   -186.85801380 </i>
    <i name="e_0_energy">   -186.98727585 </i>
   </energy>
  </scstep>
  <scstep>
   <time name="diag">    1.29    1.29</time>
   <time name="diis">    3.30    3.39</time>
   <time name="orth">    0.31    0.32</time>
   <time name="total">    5.20    5.31</time>
   <dipole>
    <v name="dipole">      0.00000000       0.00000000       0.00294060 </v>
    <i name="Tr[quadrupol]"> -10188.79317541 </i>
    <i name="Echarged">      0.00000000 </i>
    <i name="Edipol_quadrupol">      0.00000000 </i>
    <i name="Eion">      0.00000000 </i>
   </dipole>
   <energy>
    <i name="e_fr_energy">   -187.11691896 </i>
    <i name="e_wo_entrp">   -186.85839984 </i>
    <i name="e_0_energy">   -186.98765940 </i>
   </energy>
  </scstep>
  <scstep>
   <time name="diag">    1.27    1.30</time>
   <time name="diis">    3.42    3.44</time>
   <time name="orth">    0.31    0.32</time>
   <time name="total">    5.31    5.36</time>
   <dipole>
    <v name="dipole">      0.00000000       0.00000000       0.00209256 </v>
    <i name="Tr[quadrupol]"> -10188.87561857 </i>
    <i name="Echarged">      0.00000000 </i>
    <i name="Edipol_quadrupol">      0.00000000 </i>
    <i name="Eion">      0.00000000 </i>
   </dipole>
   <energy>
    <i name="e_fr_energy">   -187.11762302 </i>
    <i name="e_wo_entrp">   -186.85921411 </i>
    <i name="e_0_energy">   -186.98841856 </i>
   </energy>
  </scstep>
  <scstep>
   <time name="diag">    1.30    1.30</time>
   <time name="diis">    3.32    3.33</time>
   <time name="orth">    0.31    0.32</time>
   <time name="total">    5.23    5.25</time>
   <dipole>
    <v name="dipole">      0.00000000       0.00000000       0.00121005 </v>
    <i name="Tr[quadrupol]"> -10188.94495107 </i>
    <i name="Echarged">      0.00000000 </i>
    <i name="Edipol_quadrupol">      0.00000000 </i>
    <i name="Eion">      0.00000000 </i>
   </dipole>
   <energy>
    <i name="e_fr_energy">   -187.11815863 </i>
    <i name="e_wo_entrp">   -186.85967418 </i>
    <i name="e_0_energy">   -186.98891640 </i>
   </energy>
  </scstep>
  <scstep>
   <time name="diag">    1.29    1.29</time>
   <time name="diis">    3.02    3.03</time>
   <time name="orth">    0.32    0.32</time>
   <time name="total">    4.93    4.95</time>
   <dipole>
    <v name="dipole">      0.00000000       0.00000000       0.00067424 </v>
    <i name="Tr[quadrupol]"> -10188.99373698 </i>
    <i name="Echarged">      0.00000000 </i>
    <i name="Edipol_quadrupol">      0.00000000 </i>
    <i name="Eion">      0.00000000 </i>
   </dipole>
   <energy>
    <i name="e_fr_energy">   -187.11845296 </i>
    <i name="e_wo_entrp">   -186.85996069 </i>
    <i name="e_0_energy">   -186.98920683 </i>
   </energy>
  </scstep>
  <scstep>
   <time name="diag">    1.29    1.30</time>
   <time name="diis">    2.66    2.67</time>
   <time name="orth">    0.31    0.32</time>
   <time name="total">    4.57    4.59</time>
   <dipole>
    <v name="dipole">      0.00000000       0.00000000       0.00032763 </v>
    <i name="Tr[quadrupol]"> -10189.01243027 </i>
    <i name="Echarged">      0.00000000 </i>
    <i name="Edipol_quadrupol">      0.00000000 </i>
    <i name="Eion">      0.00000000 </i>
   </dipole>
   <energy>
    <i name="e_fr_energy">   -187.11856009 </i>
    <i name="e_wo_entrp">   -186.86002163 </i>
    <i name="e_0_energy">   -186.98929086 </i>
   </energy>
  </scstep>
  <scstep>
   <time name="diag">    1.29    1.30</time>
   <time name="diis">    2.35    2.36</time>
   <time name="orth">    0.31    0.32</time>
   <time name="total">    4.26    4.27</time>
   <dipole>
    <v name="dipole">      0.00000000       0.00000000       0.00007335 </v>
    <i name="Tr[quadrupol]"> -10189.02563657 </i>
    <i name="Echarged">      0.00000000 </i>
    <i name="Edipol_quadrupol">      0.00000000 </i>
    <i name="Eion">      0.00000000 </i>
   </dipole>
   <energy>
    <i name="e_fr_energy">   -187.11862959 </i>
    <i name="e_wo_entrp">   -186.86008073 </i>
    <i name="e_0_energy">   -186.98935516 </i>
   </energy>
  </scstep>
  <scstep>
   <time name="diag">    1.29    1.30</time>
   <time name="diis">    2.17    2.18</time>
   <time name="orth">    0.32    0.32</time>
   <time name="total">    4.08    4.09</time>
   <dipole>
    <v name="dipole">      0.00000000       0.00000000       0.00000099 </v>
    <i name="Tr[quadrupol]"> -10189.03296374 </i>
    <i name="Echarged">      0.00000000 </i>
    <i name="Edipol_quadrupol">      0.00000000 </i>
    <i name="Eion">      0.00000000 </i>
   </dipole>
   <energy>
    <i name="e_fr_energy">   -187.11866450 </i>
    <i name="e_wo_entrp">   -186.86012590 </i>
    <i name="e_0_energy">   -186.98939520 </i>
   </energy>
  </scstep>
  <scstep>
   <time name="diag">    1.29    1.30</time>
   <time name="diis">    2.09    2.11</time>
   <time name="orth">    0.32    0.32</time>
   <time name="total">    4.01    4.03</time>
   <dipole>
    <v name="dipole">      0.00000000       0.00000000      -0.00008248 </v>
    <i name="Tr[quadrupol]"> -10189.03846130 </i>
    <i name="Echarged">      0.00000000 </i>
    <i name="Edipol_quadrupol">      0.00000000 </i>
    <i name="Eion">      0.00000000 </i>
   </dipole>
   <energy>
    <i name="e_fr_energy">   -187.11868898 </i>
    <i name="e_wo_entrp">   -186.86015563 </i>
    <i name="e_0_energy">   -186.98942230 </i>
   </energy>
  </scstep>
  <scstep>
   <time name="diag">    1.30    1.30</time>
   <time name="diis">    2.16    2.17</time>
   <time name="orth">    0.31    0.32</time>
   <time name="total">    4.07    4.09</time>
   <dipole>
    <v name="dipole">      0.00000000       0.00000000      -0.00027226 </v>
    <i name="Tr[quadrupol]"> -10189.04811115 </i>
    <i name="Echarged">      0.00000000 </i>
    <i name="Edipol_quadrupol">      0.00000000 </i>
    <i name="Eion">      0.00000000 </i>
   </dipole>
   <energy>
    <i name="e_fr_energy">   -187.11872016 </i>
    <i name="e_wo_entrp">   -186.86018020 </i>
    <i name="e_0_energy">   -186.98945018 </i>
   </energy>
  </scstep>
  <scstep>
   <time name="diag">    1.28    1.29</time>
   <time name="diis">    1.75    1.84</time>
   <time name="orth">    0.32    0.32</time>
   <time name="total">    3.65    3.75</time>
   <dipole>
    <v name="dipole">      0.00000000       0.00000000      -0.00032724 </v>
    <i name="Tr[quadrupol]"> -10189.05182127 </i>
    <i name="Echarged">      0.00000000 </i>
    <i name="Edipol_quadrupol">      0.00000000 </i>
    <i name="Eion">      0.00000000 </i>
   </dipole>
   <energy>
    <i name="e_fr_energy">   -187.11872577 </i>
    <i name="e_wo_entrp">   -186.86019142 </i>
    <i name="e_0_energy">   -186.98945860 </i>
   </energy>
  </scstep>
  <scstep>
   <time name="diag">    1.29    1.29</time>
   <time name="diis">    1.90    1.90</time>
   <time name="orth">    0.32    0.32</time>
   <time name="total">    3.80    3.81</time>
   <dipole>
    <v name="dipole">      0.00000000       0.00000000      -0.00039558 </v>
    <i name="Tr[quadrupol]"> -10189.05634303 </i>
    <i name="Echarged">      0.00000000 </i>
    <i name="Edipol_quadrupol">      0.00000000 </i>
    <i name="Eion">      0.00000000 </i>
   </dipole>
   <energy>
    <i name="e_fr_energy">   -187.11872849 </i>
    <i name="e_wo_entrp">   -186.86019476 </i>
    <i name="e_0_energy">   -186.98946162 </i>
   </energy>
  </scstep>
  <scstep>
   <time name="diag">    1.29    1.30</time>
   <time name="diis">    1.61    1.61</time>
   <time name="orth">    0.32    0.32</time>
   <time name="total">    3.27    3.28</time>
   <dipole>
    <v name="dipole">      0.00000000       0.00000000      -0.00042185 </v>
    <i name="Tr[quadrupol]"> -10189.05844802 </i>
    <i name="Echarged">      0.00000000 </i>
    <i name="Edipol_quadrupol">      0.00000000 </i>
    <i name="Eion">      0.00000000 </i>
   </dipole>
   <energy>
    <i name="alphaZ">    805.86929751 </i>
    <i name="ewald"> 200883.09623960 </i>
    <i name="hartreedc">-243054.83351354 </i>
    <i name="XCdc">   -342.94229120 </i>
    <i name="pawpsdc">  49532.19640666 </i>
    <i name="pawaedc"> -47610.20221219 </i>
    <i name="eentropy">     -0.25853234 </i>
    <i name="bandstr">  -2059.82999599 </i>
    <i name="atom">  41659.78587232 </i>
    <i name="e_fr_energy">   -187.11872918 </i>
    <i name="e_wo_entrp">   -186.86019684 </i>
    <i name="e_0_energy">   -186.98946301 </i>
   </energy>
  </scstep>
  <structure>
   <crystal>
    <varray name="basis" >
     <v>      11.00258152       0.00000000       0.00000000 </v>
     <v>       5.50129076       9.52851510       0.00000000 </v>
     <v>       0.00000000       0.00000000      24.49178509 </v>
    </varray>
    <i name="volume">   2567.67623402 </i>
    <varray name="rec_basis" >
     <v>       0.09088776      -0.05247407       0.00000000 </v>
     <v>       0.00000000       0.10494815       0.00000000 </v>
     <v>       0.00000000       0.00000000       0.04083002 </v>
    </varray>
   </crystal>
   <varray name="positions" >
    <v>       0.25000000       0.75000000       0.59169983 </v>
    <v>       0.50000000       0.25000000       0.59169983 </v>
    <v>       0.58333333       0.83333333       0.40830017 </v>
    <v>       0.41666667       0.91666667       0.50000000 </v>
    <v>       0.41666667       0.16666667       0.50000000 </v>
    <v>       0.58333333       0.08333333       0.40830017 </v>
    <v>       0.66666667       0.91666667       0.50000000 </v>
    <v>       0.16666667       0.91666667       0.50000000 </v>
    <v>       0.33333333       0.83333333       0.40830017 </v>
    <v>       0.83333333       0.08333333       0.40830017 </v>
    <v>       0.16666667       0.66666667       0.50000000 </v>
    <v>       0.66666667       0.16666667       0.50000000 </v>
    <v>       0.16666667       0.41666667       0.50000000 </v>
    <v>       0.25000000       0.00000000       0.59169983 </v>
    <v>       0.41666667       0.66666667       0.50000000 </v>
    <v>       0.08333333       0.58333333       0.40830017 </v>
    <v>       0.33333333       0.08333333       0.40830017 </v>
    <v>       0.91666667       0.16666667       0.50000000 </v>
    <v>       0.00000000       0.75000000       0.59169983 </v>
    <v>       0.91666667       0.91666667       0.50000000 </v>
    <v>       0.08333333       0.83333333       0.40830017 </v>
    <v>       0.00000000       0.00000000       0.59169983 </v>
    <v>       0.66666667       0.66666667       0.50000000 </v>
    <v>       0.75000000       0.50000000       0.59169983 </v>
    <v>       0.83333333       0.83333333       0.40830017 </v>
    <v>       0.50000000       0.75000000       0.59169983 </v>
    <v>       0.50000000       0.50000000       0.59169983 </v>
    <v>       0.83333333       0.58333333       0.40830017 </v>
    <v>       0.75000000       0.25000000       0.59169983 </v>
    <v>       0.75000000       0.00000000       0.59169983 </v>
    <v>       0.66666667       0.41666667       0.50000000 </v>
    <v>       0.83333333       0.33333333       0.40830017 </v>
    <v>       0.08333333       0.08333333       0.40830017 </v>
    <v>       0.41666667       0.41666667       0.50000000 </v>
    <v>       0.58333333       0.33333333       0.40830017 </v>
    <v>       0.50000000       0.00000000       0.59169983 </v>
    <v>       0.25000000       0.50000000       0.59169983 </v>
    <v>       0.33333333       0.58333333       0.40830017 </v>
    <v>       0.25000000       0.25000000       0.59169983 </v>
    <v>       0.33333333       0.33333333       0.40830017 </v>
    <v>       0.16666667       0.16666667       0.50000000 </v>
    <v>       0.00000000       0.50000000       0.59169983 </v>
    <v>       0.91666667       0.66666667       0.50000000 </v>
    <v>       0.00000000       0.25000000       0.59169983 </v>
    <v>       0.91666667       0.41666667       0.50000000 </v>
    <v>       0.08333333       0.33333333       0.40830017 </v>
    <v>       0.58333333       0.58333333       0.40830017 </v>
    <v>       0.75000000       0.75000000       0.59169983 </v>
   </varray>
  </structure>
  <varray name="forces" >
   <v>       0.27589531      -0.45708864       1.87636750 </v>
   <v>       0.03564581       0.17429820       1.53501763 </v>
   <v>       0.25936113      -0.46133428      -1.89375384 </v>
   <v>       0.06049639       0.16386519       0.63263201 </v>
   <v>      -0.34322295       0.44237463       0.29616793 </v>
   <v>       0.12988254       0.25720268      -1.88319624 </v>
   <v>       0.31441291      -0.40689477       0.59070418 </v>
   <v>       0.19111003       0.52894102      -0.28319993 </v>
   <v>      -0.11421727      -0.21105193      -1.88863730 </v>
   <v>       0.13600475       0.25848323      -1.84109824 </v>
   <v>       0.01121599      -0.70384372      -0.00375220 </v>
   <v>       0.17591541       0.66611835       0.27095177 </v>
   <v>      -0.32546059      -0.20451400       0.24915580 </v>
   <v>       0.36724157       0.39699057       1.63347343 </v>
   <v>       0.17259689      -0.89649699      -0.00038748 </v>
   <v>      -0.26962442      -0.16196837      -1.54158629 </v>
   <v>      -0.40335481       0.51427754      -1.65184915 </v>
   <v>       0.46422479       0.86514000      -0.02172268 </v>
   <v>      -0.52778570      -0.28444361       1.60505846 </v>
   <v>      -0.58457662      -0.23831424       0.03854940 </v>
   <v>      -0.02066949      -0.03274273      -1.86452972 </v>
   <v>      -0.23736455       0.45753729       1.87752136 </v>
   <v>       0.34670536      -0.55076313       0.03033048 </v>
   <v>       0.01419296      -0.13845887       1.30648072 </v>
   <v>      -0.07311246      -0.24123745      -0.96951534 </v>
   <v>       0.12300058      -0.00558848       1.02190051 </v>
   <v>      -0.03698152      -0.09665766       0.72133024 </v>
   <v>      -0.06156798      -0.23389979      -0.65877686 </v>
   <v>       0.05010819       0.12790060       0.82994691 </v>
   <v>      -0.13675727      -0.01519109       1.00679060 </v>
   <v>      -0.06154075      -0.04439412      -0.21913991 </v>
   <v>       0.15588909       0.25466192      -0.57169361 </v>
   <v>       0.06041525       0.31366641      -0.90473871 </v>
   <v>       0.24631655       0.12423039      -0.15137813 </v>
   <v>      -0.07900511       0.34106999      -0.70855258 </v>
   <v>       0.06058696      -0.13669376       1.00864253 </v>
   <v>      -0.00297736      -0.16149443       0.84992600 </v>
   <v>       0.20663128      -0.32151051      -0.84713604 </v>
   <v>      -0.23341836       0.09835041       0.80663132 </v>
   <v>       0.15033907       0.16323977      -0.87471861 </v>
   <v>      -0.19159190       0.43274655       0.02688785 </v>
   <v>       0.04175695      -0.12162122       0.61781081 </v>
   <v>      -0.31793976      -0.20155609       0.04788906 </v>
   <v>       0.10151229       0.19504858       0.68411541 </v>
   <v>       0.05691140      -0.08926001      -0.18760881 </v>
   <v>      -0.20583864      -0.03644120      -0.65810882 </v>
   <v>       0.01424746      -0.41411424      -0.78229037 </v>
   <v>       0.00439057       0.09143202       0.84308894 </v>
  </varray>
  <energy>
   <i name="e_fr_energy">   -187.11872918 </i>
   <i name="e_wo_entrp">   -186.98946301 </i>
   <i name="e_0_energy">     -0.25853234 </i>
  </energy>
  <time name="totalsc">  219.54  220.91</time>
 </calculation>
 <calculation>
  <scstep>
   <time name="dav">    7.19    7.21</time>
   <time name="total">    7.49    7.52</time>
   <dipole>
    <v name="dipole">      0.00000000       0.00000000      -0.00045397 </v>
    <i name="Tr[quadrupol]"> -10203.67896792 </i>
    <i name="Echarged">      0.00000000 </i>
    <i name="Edipol_quadrupol">      0.00000000 </i>
    <i name="Eion">      0.00000000 </i>
   </dipole>
   <energy>
    <i name="alphaZ">    805.86929142 </i>
    <i name="ewald"> 198027.67521960 </i>
    <i name="hartreedc">-240217.84922404 </i>
    <i name="XCdc">   -345.35208802 </i>
    <i name="pawpsdc">  49532.19826483 </i>
    <i name="pawaedc"> -47610.20405935 </i>
    <i name="eentropy">     -0.25201426 </i>
    <i name="bandstr">  -2040.26859529 </i>
    <i name="atom">  41659.78587232 </i>
    <i name="e_fr_energy">   -188.39733280 </i>
    <i name="e_wo_entrp">   -188.14531854 </i>
    <i name="e_0_energy">   -188.27132567 </i>
   </energy>
  </scstep>
  <scstep>
   <time name="diag">    1.29    1.30</time>
   <time name="diis">    3.48    3.54</time>
   <time name="orth">    0.32    0.32</time>
   <time name="total">    5.39    5.45</time>
   <dipole>
    <v name="dipole">      0.00000000       0.00000000      -0.00505838 </v>
    <i name="Tr[quadrupol]"> -10203.42565903 </i>
    <i name="Echarged">      0.00000000 </i>
    <i name="Edipol_quadrupol">      0.00000000 </i>
    <i name="Eion">      0.00000000 </i>
   </dipole>
   <energy>
    <i name="e_fr_energy">   -188.84904372 </i>
    <i name="e_wo_entrp">   -188.59481820 </i>
    <i name="e_0_energy">   -188.72193096 </i>
   </energy>
  </scstep>
  <scstep>
   <time name="diag">    1.29    1.29</time>
   <time name="diis">    3.56    3.57</time>
   <time name="orth">    0.32    0.32</time>
   <time name="total">    5.46    5.48</time>
   <dipole>
    <v name="dipole">      0.00000000       0.00000000       0.01241092 </v>
    <i name="Tr[quadrupol]"> -10203.83473403 </i>
    <i name="Echarged">      0.00000000 </i>
    <i name="Edipol_quadrupol">      0.00000000 </i>
    <i name="Eion">      0.00000000 </i>
   </dipole>
   <energy>
    <i name="e_fr_energy">   -188.89312680 </i>
    <i name="e_wo_entrp">   -188.64337610 </i>
    <i name="e_0_energy">   -188.76825145 </i>
   </energy>
  </scstep>
  <scstep>
   <time name="diag">    1.29    1.30</time>
   <time name="diis">    3.50    3.52</time>
   <time name="orth">    0.32    0.32</time>
   <time name="total">    5.40    5.43</time>
   <dipole>
    <v name="dipole">      0.00000000       0.00000000      -0.03862071 </v>
    <i name="Tr[quadrupol]"> -10203.82131569 </i>
    <i name="Echarged">      0.00000000 </i>
    <i name="Edipol_quadrupol">      0.00000000 </i>
    <i name="Eion">      0.00000000 </i>
   </dipole>
   <energy>
    <i name="e_fr_energy">   -188.88108626 </i>
    <i name="e_wo_entrp">   -188.61947748 </i>
    <i name="e_0_energy">   -188.75028187 </i>
   </energy>
  </scstep>
  <scstep>
   <time name="diag">    1.29    1.29</time>
   <time name="diis">    3.45    3.49</time>
   <time name="orth">    0.31    0.34</time>
   <time name="total">    5.36    5.47</time>
   <dipole>
    <v name="dipole">      0.00000000       0.00000000       0.07969957 </v>
    <i name="Tr[quadrupol]"> -10203.76694789 </i>
    <i name="Echarged">      0.00000000 </i>
    <i name="Edipol_quadrupol">      0.00000000 </i>
    <i name="Eion">      0.00000000 </i>
   </dipole>
   <energy>
    <i name="e_fr_energy">   -188.95328193 </i>
    <i name="e_wo_entrp">   -188.73237265 </i>
    <i name="e_0_energy">   -188.84282729 </i>
   </energy>
  </scstep>
  <scstep>
   <time name="diag">    1.30    1.30</time>
   <time name="diis">    3.50    3.53</time>
   <time name="orth">    0.32    0.32</time>
   <time name="total">    5.40    5.45</time>
   <dipole>
    <v name="dipole">      0.00000000       0.00000000      -0.02776163 </v>
    <i name="Tr[quadrupol]"> -10203.75199753 </i>
    <i name="Echarged">      0.00000000 </i>
    <i name="Edipol_quadrupol">      0.00000000 </i>
    <i name="Eion">      0.00000000 </i>
   </dipole>
   <energy>
    <i name="e_fr_energy">   -188.83606286 </i>
    <i name="e_wo_entrp">   -188.58075976 </i>
    <i name="e_0_energy">   -188.70841131 </i>
   </energy>
  </scstep>
  <scstep>
   <time name="diag">    1.30    1.30</time>
   <time name="diis">    3.53    3.54</time>
   <time name="orth">    0.32    0.32</time>
   <time name="total">    5.44    5.46</time>
   <dipole>
    <v name="dipole">      0.00000000       0.00000000       0.00183904 </v>
    <i name="Tr[quadrupol]"> -10203.75371165 </i>
    <i name="Echarged">      0.00000000 </i>
    <i name="Edipol_quadrupol">      0.00000000 </i>
    <i name="Eion">      0.00000000 </i>
   </dipole>
   <energy>
    <i name="e_fr_energy">   -188.82172698 </i>
    <i name="e_wo_entrp">   -188.56896796 </i>
    <i name="e_0_energy">   -188.69534747 </i>
   </energy>
  </scstep>
  <scstep>
   <time name="diag">    1.29    1.29</time>
   <time name="diis">    3.54    3.55</time>
   <time name="orth">    0.32    0.32</time>
   <time name="total">    5.44    5.47</time>
   <dipole>
    <v name="dipole">      0.00000000       0.00000000      -0.00103877 </v>
    <i name="Tr[quadrupol]"> -10203.72401867 </i>
    <i name="Echarged">      0.00000000 </i>
    <i name="Edipol_quadrupol">      0.00000000 </i>
    <i name="Eion">      0.00000000 </i>
   </dipole>
   <energy>
    <i name="e_fr_energy">   -188.81964172 </i>
    <i name="e_wo_entrp">   -188.56415399 </i>
    <i name="e_0_energy">   -188.69189786 </i>
   </energy>
  </scstep>
  <scstep>
   <time name="diag">    1.28    1.29</time>
   <time name="diis">    3.58    3.60</time>
   <time name="orth">    0.32    0.32</time>
   <time name="total">    5.49    5.51</time>
   <dipole>
    <v name="dipole">      0.00000000       0.00000000      -0.00287334 </v>
    <i name="Tr[quadrupol]"> -10203.70497482 </i>
    <i name="Echarged">      0.00000000 </i>
    <i name="Edipol_quadrupol">      0.00000000 </i>
    <i name="Eion">      0.00000000 </i>
   </dipole>
   <energy>
    <i name="e_fr_energy">   -188.81845605 </i>
    <i name="e_wo_entrp">   -188.56437828 </i>
    <i name="e_0_energy">   -188.69141716 </i>
   </energy>
  </scstep>
  <scstep>
   <time name="diag">    1.30    1.30</time>
   <time name="diis">    3.54    3.55</time>
   <time name="orth">    0.32    0.32</time>
   <time name="total">    5.45    5.46</time>
   <dipole>
    <v name="dipole">      0.00000000       0.00000000      -0.00345080 </v>
    <i name="Tr[quadrupol]"> -10203.70962166 </i>
    <i name="Echarged">      0.00000000 </i>
    <i name="Edipol_quadrupol">      0.00000000 </i>
    <i name="Eion">      0.00000000 </i>
   </dipole>
   <energy>
    <i name="e_fr_energy">   -188.81830214 </i>
    <i name="e_wo_entrp">   -188.56341867 </i>
    <i name="e_0_energy">   -188.69086040 </i>
   </energy>
  </scstep>
  <scstep>
   <time name="diag">    1.30    1.30</time>
   <time name="diis">    3.53    3.54</time>
   <time name="orth">    0.32    0.32</time>
   <time name="total">    5.44    5.46</time>
   <dipole>
    <v name="dipole">      0.00000000       0.00000000      -0.00368963 </v>
    <i name="Tr[quadrupol]"> -10203.70692989 </i>
    <i name="Echarged">      0.00000000 </i>
    <i name="Edipol_quadrupol">      0.00000000 </i>
    <i name="Eion">      0.00000000 </i>
   </dipole>
   <energy>
    <i name="e_fr_energy">   -188.81812487 </i>
    <i name="e_wo_entrp">   -188.56293577 </i>
    <i name="e_0_energy">   -188.69053032 </i>
   </energy>
  </scstep>
  <scstep>
   <time name="diag">    1.29    1.29</time>
   <time name="diis">    3.50    3.51</time>
   <time name="orth">    0.32    0.32</time>
   <time name="total">    5.40    5.42</time>
   <dipole>
    <v name="dipole">      0.00000000       0.00000000      -0.00334112 </v>
    <i name="Tr[quadrupol]"> -10203.70981046 </i>
    <i name="Echarged">      0.00000000 </i>
    <i name="Edipol_quadrupol">      0.00000000 </i>
    <i name="Eion">      0.00000000 </i>
   </dipole>
   <energy>
    <i name="e_fr_energy">   -188.81811859 </i>
    <i name="e_wo_entrp">   -188.56321776 </i>
    <i name="e_0_energy">   -188.69066817 </i>
   </energy>
  </scstep>
  <scstep>
   <time name="diag">    1.28    1.33</time>
   <time name="diis">    3.48    3.55</time>
   <time name="orth">    0.32    0.32</time>
   <time name="total">    5.38    5.50</time>
   <dipole>
    <v name="dipole">      0.00000000       0.00000000      -0.00322382 </v>
    <i name="Tr[quadrupol]"> -10203.71673072 </i>
    <i name="Echarged">      0.00000000 </i>
    <i name="Edipol_quadrupol">      0.00000000 </i>
    <i name="Eion">      0.00000000 </i>
   </dipole>
   <energy>
    <i name="e_fr_energy">   -188.81810372 </i>
    <i name="e_wo_entrp">   -188.56310099 </i>
    <i name="e_0_energy">   -188.69060235 </i>
   </energy>
  </scstep>
  <scstep>
   <time name="diag">    1.28    1.29</time>
   <time name="diis">    3.54    3.55</time>
   <time name="orth">    0.32    0.32</time>
   <time name="total">    5.44    5.46</time>
   <dipole>
    <v name="dipole">      0.00000000       0.00000000      -0.00321887 </v>
    <i name="Tr[quadrupol]"> -10203.72013916 </i>
    <i name="Echarged">      0.00000000 </i>
    <i name="Edipol_quadrupol">      0.00000000 </i>
    <i name="Eion">      0.00000000 </i>
   </dipole>
   <energy>
    <i name="e_fr_energy">   -188.81809988 </i>
    <i name="e_wo_entrp">   -188.56324423 </i>
    <i name="e_0_energy">   -188.69067205 </i>
   </energy>
  </scstep>
  <scstep>
   <time name="diag">    1.28    1.29</time>
   <time name="diis">    2.80    2.82</time>
   <time name="orth">    0.32    0.32</time>
   <time name="total">    4.45    4.48</time>
   <dipole>
    <v name="dipole">      0.00000000       0.00000000      -0.00326812 </v>
    <i name="Tr[quadrupol]"> -10203.72306962 </i>
    <i name="Echarged">      0.00000000 </i>
    <i name="Edipol_quadrupol">      0.00000000 </i>
    <i name="Eion">      0.00000000 </i>
   </dipole>
   <energy>
    <i name="alphaZ">    805.86883939 </i>
    <i name="ewald"> 198027.67521960 </i>
    <i name="hartreedc">-240219.83601793 </i>
    <i name="XCdc">   -345.28053699 </i>
    <i name="pawpsdc">  49029.17389892 </i>
    <i name="pawaedc"> -47103.94175452 </i>
    <i name="eentropy">     -0.25489780 </i>
    <i name="bandstr">  -2042.00872214 </i>
    <i name="atom">  41659.78587232 </i>
    <i name="e_fr_energy">   -188.81809914 </i>
    <i name="e_wo_entrp">   -188.56320134 </i>
    <i name="e_0_energy">   -188.69065024 </i>
   </energy>
  </scstep>
  <structure>
   <crystal>
    <varray name="basis" >
     <v>      11.00258152       0.00000000       0.00000000 </v>
     <v>       5.50129076       9.52851510       0.00000000 </v>
     <v>       0.00000000       0.00000000      24.49178509 </v>
    </varray>
    <i name="volume">   2567.67623402 </i>
    <varray name="rec_basis" >
     <v>       0.09088776      -0.05247407       0.00000000 </v>
     <v>       0.00000000       0.10494815       0.00000000 </v>
     <v>       0.00000000       0.00000000       0.04083002 </v>
    </varray>
   </crystal>
   <varray name="positions" >
    <v>       0.25165678       0.74838004       0.59428701 </v>
    <v>       0.49980054       0.25061773       0.59381635 </v>
    <v>       0.58494689       0.83169833       0.40568902 </v>
    <v>       0.41656197       0.91724742       0.50087229 </v>
    <v>       0.41482932       0.16823448       0.50040836 </v>
    <v>       0.58327620       0.08424488       0.40570357 </v>
    <v>       0.66835272       0.91522460       0.50081448 </v>
    <v>       0.16631593       0.91854128       0.49960952 </v>
    <v>       0.33335676       0.83258535       0.40569607 </v>
    <v>       0.83329273       0.08424942       0.40576162 </v>
    <v>       0.16794833       0.66417219       0.49999483 </v>
    <v>       0.66602621       0.16902745       0.50037359 </v>
    <v>       0.16603015       0.41594185       0.50034354 </v>
    <v>       0.25042368       0.00140697       0.59395210 </v>
    <v>       0.41878504       0.66348941       0.49999947 </v>
    <v>       0.08279280       0.58275930       0.40617459 </v>
    <v>       0.33118401       0.08515598       0.40602256 </v>
    <v>       0.91655843       0.16973280       0.49997005 </v>
    <v>      -0.00111587       0.74899191       0.59391292 </v>
    <v>       0.91529475       0.91582206       0.50005315 </v>
    <v>       0.08332791       0.83321729       0.40572931 </v>
    <v>      -0.00153931       0.00162155       0.59428860 </v>
    <v>       0.66870677       0.66471472       0.50004182 </v>
    <v>       0.75028892       0.49950929       0.59350124 </v>
    <v>       0.83353641       0.83247837       0.40696338 </v>
    <v>       0.50038742       0.74998019       0.59310885 </v>
    <v>       0.50005778       0.49965744       0.59269442 </v>
    <v>       0.83355885       0.58250437       0.40739183 </v>
    <v>       0.74992715       0.25045329       0.59284418 </v>
    <v>       0.74960717      -0.00005384       0.59308802 </v>
    <v>       0.66655645       0.41650933       0.49969784 </v>
    <v>       0.83336053       0.33423588       0.40751190 </v>
    <v>       0.08296293       0.08444499       0.40705269 </v>
    <v>       0.41720254       0.41710695       0.49979128 </v>
    <v>       0.58248646       0.33454211       0.40732320 </v>
    <v>       0.50042818      -0.00048445       0.59309057 </v>
    <v>       0.25027704       0.49942765       0.59287173 </v>
    <v>       0.33453727       0.58219387       0.40713212 </v>
    <v>       0.24910930       0.25034856       0.59281203 </v>
    <v>       0.33350550       0.33391187       0.40709409 </v>
    <v>       0.16531177       0.16820036       0.50003707 </v>
    <v>       0.00034368       0.49956896       0.59255168 </v>
    <v>       0.91604799       0.66595233       0.50006603 </v>
    <v>      -0.00003407       0.25069127       0.59264311 </v>
    <v>       0.91699952       0.41635032       0.49974132 </v>
    <v>       0.08276613       0.33320418       0.40739275 </v>
    <v>       0.58411089       0.58186568       0.40722153 </v>
    <v>       0.74985145       0.75032404       0.59286230 </v>
   </varray>
  </structure>
  <varray name="forces" >
   <v>       0.10439047      -0.13186187       1.21235586 </v>
   <v>      -0.00871805       0.09269735       1.16656394 </v>
   <v>       0.08233063      -0.16793369      -1.22200269 </v>
   <v>       0.05358482      -0.00020772       0.09465053 </v>
   <v>      -0.04872698       0.11881537       0.04889086 </v>
   <v>       0.02811421       0.09858224      -1.16877805 </v>
   <v>      -0.01458689      -0.02708758       0.09580795 </v>
   <v>      -0.00349731       0.12319013      -0.03072430 </v>
   <v>       0.03805233      -0.13555055      -1.22439501 </v>
   <v>       0.08946060       0.17783071      -1.22010338 </v>
   <v>      -0.01352737      -0.17412062       0.00649537 </v>
   <v>       0.04569619       0.25066531       0.04516846 </v>
   <v>      -0.18599305      -0.02205851       0.05080955 </v>
   <v>       0.10861871       0.20220009       1.21808417 </v>
   <v>       0.09214155      -0.22033243      -0.00603707 </v>
   <v>      -0.14450688      -0.12895356      -1.11464315 </v>
   <v>      -0.15419489       0.19094656      -1.10575030 </v>
   <v>       0.12103765       0.27875260      -0.00951172 </v>
   <v>      -0.20614036      -0.15010729       1.13251207 </v>
   <v>      -0.02375034      -0.06422737      -0.00637599 </v>
   <v>      -0.03437950      -0.04620508      -1.23656689 </v>
   <v>      -0.10177092       0.16548297       1.20610189 </v>
   <v>       0.12121776      -0.25799680       0.00113595 </v>
   <v>       0.00951107      -0.08334717       0.99831907 </v>
   <v>      -0.05246819      -0.10071669      -0.71899220 </v>
   <v>       0.08607349      -0.03893768       0.74321785 </v>
   <v>       0.01199508      -0.08983374       0.61540650 </v>
   <v>      -0.04268558      -0.17279130      -0.58151123 </v>
   <v>       0.03639694       0.09500029       0.68444984 </v>
   <v>      -0.07458914       0.05152426       0.80040165 </v>
   <v>       0.05812781      -0.01370733      -0.07549211 </v>
   <v>       0.09017620       0.17186004      -0.54757909 </v>
   <v>      -0.01081937       0.17838874      -0.73410000 </v>
   <v>       0.06617267      -0.05049286      -0.03197489 </v>
   <v>      -0.03786839       0.17592113      -0.60722098 </v>
   <v>       0.08614881      -0.02801124       0.80707666 </v>
   <v>      -0.01925883      -0.11135949       0.67840616 </v>
   <v>       0.08333662      -0.16621407      -0.69456658 </v>
   <v>      -0.12154612       0.08015527       0.72340841 </v>
   <v>       0.06176890       0.11279341      -0.63109631 </v>
   <v>      -0.05444245       0.16910457       0.01714322 </v>
   <v>      -0.00295642      -0.09088574       0.53623109 </v>
   <v>      -0.05804210      -0.21674475       0.00549306 </v>
   <v>       0.06752278       0.13903041       0.60305294 </v>
   <v>       0.02135055       0.03445247      -0.05623113 </v>
   <v>      -0.11686412       0.02153533      -0.56174893 </v>
   <v>       0.03186630      -0.24210331      -0.65097507 </v>
   <v>      -0.06375888       0.00285919       0.74519401 </v>
  </varray>
  <energy>
   <i name="e_fr_energy">   -188.81809914 </i>
   <i name="e_wo_entrp">   -188.69065024 </i>
   <i name="e_0_energy">     -0.25489780 </i>
  </energy>
  <time name="totalsc">   85.00   85.59</time>
 </calculation>
 <calculation>
  <scstep>
   <time name="dav">    7.16    7.19</time>
   <time name="total">    7.46    7.49</time>
   <dipole>
    <v name="dipole">      0.00000000       0.00000000      -0.00332245 </v>
    <i name="Tr[quadrupol]"> -10249.41784627 </i>
    <i name="Echarged">      0.00000000 </i>
    <i name="Edipol_quadrupol">      0.00000000 </i>
    <i name="Eion">      0.00000000 </i>
   </dipole>
   <energy>
    <i name="alphaZ">    805.86880857 </i>
    <i name="ewald"> 189627.44535086 </i>
    <i name="hartreedc">-231866.22316492 </i>
    <i name="XCdc">   -351.10798344 </i>
    <i name="pawpsdc">  49029.09175100 </i>
    <i name="pawaedc"> -47103.85953975 </i>
    <i name="eentropy">     -0.22457206 </i>
    <i name="bandstr">  -1987.49601478 </i>
    <i name="atom">  41659.78587232 </i>
    <i name="e_fr_energy">   -186.71949221 </i>
    <i name="e_wo_entrp">   -186.49492014 </i>
    <i name="e_0_energy">   -186.60720618 </i>
   </energy>
  </scstep>
  <scstep>
   <time name="diag">    1.29    1.29</time>
   <time name="diis">    3.50    3.51</time>
   <time name="orth">    0.32    0.32</time>
   <time name="total">    5.40    5.42</time>
   <dipole>
    <v name="dipole">      0.00000000       0.00000000      -0.00282788 </v>
    <i name="Tr[quadrupol]"> -10248.60564447 </i>
    <i name="Echarged">      0.00000000 </i>
    <i name="Edipol_quadrupol">      0.00000000 </i>
    <i name="Eion">      0.00000000 </i>
   </dipole>
   <energy>
    <i name="e_fr_energy">   -190.78264313 </i>
    <i name="e_wo_entrp">   -190.54182445 </i>
    <i name="e_0_energy">   -190.66223379 </i>
   </energy>
  </scstep>
  <scstep>
   <time name="diag">    1.28    1.29</time>
   <time name="diis">    3.56    3.59</time>
   <time name="orth">    0.32    0.32</time>
   <time name="total">    5.46    5.50</time>
   <dipole>
    <v name="dipole">      0.00000000       0.00000000      -0.10154309 </v>
    <i name="Tr[quadrupol]"> -10249.43608880 </i>
    <i name="Echarged">      0.00000000 </i>
    <i name="Edipol_quadrupol">      0.00000000 </i>
    <i name="Eion">      0.00000000 </i>
   </dipole>
   <energy>
    <i name="e_fr_energy">   -190.92923064 </i>
    <i name="e_wo_entrp">   -190.71075683 </i>
    <i name="e_0_energy">   -190.81999374 </i>
   </energy>
  </scstep>
  <scstep>
   <time name="diag">    1.29    1.30</time>
   <time name="diis">    3.49    3.53</time>
   <time name="orth">    0.31    0.34</time>
   <time name="total">    5.39    5.49</time>
   <dipole>
    <v name="dipole">      0.00000000       0.00000000       0.16967717 </v>
    <i name="Tr[quadrupol]"> -10249.58688156 </i>
    <i name="Echarged">      0.00000000 </i>
    <i name="Edipol_quadrupol">      0.00000000 </i>
    <i name="Eion">      0.00000000 </i>
   </dipole>
   <energy>
    <i name="e_fr_energy">   -190.99415480 </i>
    <i name="e_wo_entrp">   -190.80824166 </i>
    <i name="e_0_energy">   -190.90119823 </i>
   </energy>
  </scstep>
  <scstep>
   <time name="diag">    1.29    1.30</time>
   <time name="diis">    3.52    3.53</time>
   <time name="orth">    0.32    0.32</time>
   <time name="total">    5.42    5.44</time>
   <dipole>
    <v name="dipole">      0.00000000       0.00000000      -0.14564991 </v>
    <i name="Tr[quadrupol]"> -10249.66647146 </i>
    <i name="Echarged">      0.00000000 </i>
    <i name="Edipol_quadrupol">      0.00000000 </i>
    <i name="Eion">      0.00000000 </i>
   </dipole>
   <energy>
    <i name="e_fr_energy">   -190.98757304 </i>
    <i name="e_wo_entrp">   -190.74043411 </i>
    <i name="e_0_energy">   -190.86400358 </i>
   </energy>
  </scstep>
  <scstep>
   <time name="diag">    1.29    1.30</time>
   <time name="diis">    3.50    3.51</time>
   <time name="orth">    0.32    0.32</time>
   <time name="total">    5.40    5.42</time>
   <dipole>
    <v name="dipole">      0.00000000       0.00000000      -0.01359682 </v>
    <i name="Tr[quadrupol]"> -10249.51967220 </i>
    <i name="Echarged">      0.00000000 </i>
    <i name="Edipol_quadrupol">      0.00000000 </i>
    <i name="Eion">      0.00000000 </i>
   </dipole>
   <energy>
    <i name="e_fr_energy">   -190.61632490 </i>
    <i name="e_wo_entrp">   -190.40593510 </i>
    <i name="e_0_energy">   -190.51113000 </i>
   </energy>
  </scstep>
  <scstep>
   <time name="diag">    1.29    1.29</time>
   <time name="diis">    3.51    3.53</time>
   <time name="orth">    0.32    0.32</time>
   <time name="total">    5.41    5.44</time>
   <dipole>
    <v name="dipole">      0.00000000       0.00000000       0.00567576 </v>
    <i name="Tr[quadrupol]"> -10249.53869173 </i>
    <i name="Echarged">      0.00000000 </i>
    <i name="Edipol_quadrupol">      0.00000000 </i>
    <i name="Eion">      0.00000000 </i>
   </dipole>
   <energy>
    <i name="e_fr_energy">   -190.52265547 </i>
    <i name="e_wo_entrp">   -190.28998298 </i>
    <i name="e_0_energy">   -190.40631922 </i>
   </energy>
  </scstep>
  <scstep>
   <time name="diag">    1.30    1.30</time>
   <time name="diis">    3.51    3.54</time>
   <time name="orth">    0.31    0.32</time>
   <time name="total">    5.41    5.45</time>
   <dipole>
    <v name="dipole">      0.00000000       0.00000000      -0.00669610 </v>
    <i name="Tr[quadrupol]"> -10249.39151227 </i>
    <i name="Echarged">      0.00000000 </i>
    <i name="Edipol_quadrupol">      0.00000000 </i>
    <i name="Eion">      0.00000000 </i>
   </dipole>
   <energy>
    <i name="e_fr_energy">   -190.49647921 </i>
    <i name="e_wo_entrp">   -190.26711129 </i>
    <i name="e_0_energy">   -190.38179525 </i>
   </energy>
  </scstep>
  <scstep>
   <time name="diag">    1.29    1.30</time>
   <time name="diis">    3.47    3.49</time>
   <time name="orth">    0.32    0.32</time>
   <time name="total">    5.38    5.40</time>
   <dipole>
    <v name="dipole">      0.00000000       0.00000000      -0.01051610 </v>
    <i name="Tr[quadrupol]"> -10249.39636765 </i>
    <i name="Echarged">      0.00000000 </i>
    <i name="Edipol_quadrupol">      0.00000000 </i>
    <i name="Eion">      0.00000000 </i>
   </dipole>
   <energy>
    <i name="e_fr_energy">   -190.48653685 </i>
    <i name="e_wo_entrp">   -190.25138747 </i>
    <i name="e_0_energy">   -190.36896216 </i>
   </energy>
  </scstep>
  <scstep>
   <time name="diag">    1.29    1.29</time>
   <time name="diis">    3.53    3.53</time>
   <time name="orth">    0.32    0.32</time>
   <time name="total">    5.42    5.44</time>
   <dipole>
    <v name="dipole">      0.00000000       0.00000000      -0.01427747 </v>
    <i name="Tr[quadrupol]"> -10249.38795021 </i>
    <i name="Echarged">      0.00000000 </i>
    <i name="Edipol_quadrupol">      0.00000000 </i>
    <i name="Eion">      0.00000000 </i>
[...]
       <r>    2.2207    0.0000 </r>
       <r>    2.2643    0.0000 </r>
       <r>    2.3969    0.0000 </r>
       <r>    2.5863    0.0000 </r>
       <r>    2.6333    0.0000 </r>
       <r>    2.9180    0.0000 </r>
       <r>    3.1753    0.0000 </r>
       <r>    3.2691    0.0000 </r>
       <r>    3.4802    0.0000 </r>
       <r>    3.5377    0.0000 </r>
       <r>    3.6643    0.0000 </r>
       <r>    3.9387    0.0000 </r>
       <r>    3.9801    0.0000 </r>
       <r>    4.1293    0.0000 </r>
       <r>    4.4309    0.0000 </r>
       <r>    4.4813    0.0000 </r>
       <r>    4.5862    0.0000 </r>
       <r>    4.6399    0.0000 </r>
       <r>    4.6657    0.0000 </r>
       <r>    4.7993    0.0000 </r>
       <r>    4.8425    0.0000 </r>
       <r>    4.9272    0.0000 </r>
       <r>    4.9681    0.0000 </r>
       <r>    5.0429    0.0000 </r>
       <r>    5.0820    0.0000 </r>
       <r>    5.1655    0.0000 </r>
       <r>    5.2003    0.0000 </r>
       <r>    5.2362    0.0000 </r>
      </set>
     </set>
    </set>
   </array>
  </eigenvalues>
  <separator name="orbital magnetization" >
   <v name="MAGDIPOLOUT">      0.00000000      0.00000000      0.00000000</v>
  </separator>
  <dos>
   <i name="efermi">     -1.10997806 </i>
   <total>
    <array>
     <dimension dim="1">gridpoints</dimension>
     <dimension dim="2">spin</dimension>
     <field>energy</field>
     <field>total</field>
     <field>integrated</field>
     <set>
      <set comment="spin 1">
       <r>   -10.0273     0.0000     0.0000 </r>
       <r>    -9.9729     0.0000     0.0000 </r>
       <r>    -9.9185     0.0000     0.0000 </r>
       <r>    -9.8640     0.0000     0.0000 </r>
       <r>    -9.8096     0.0000     0.0000 </r>
       <r>    -9.7552     0.0000     0.0000 </r>
       <r>    -9.7008     0.0000     0.0000 </r>
       <r>    -9.6463     0.0000     0.0000 </r>
       <r>    -9.5919     0.0000     0.0000 </r>
       <r>    -9.5375     0.0000     0.0000 </r>
       <r>    -9.4830     0.0000     0.0000 </r>
       <r>    -9.4286     0.0000     0.0000 </r>
       <r>    -9.3742     0.0000     0.0000 </r>
       <r>    -9.3198     0.0001     0.0000 </r>
       <r>    -9.2653     0.0032     0.0002 </r>
       <r>    -9.2109     0.0422     0.0025 </r>
       <r>    -9.1565     0.3209     0.0199 </r>
       <r>    -9.1021     1.4129     0.0968 </r>
       <r>    -9.0476     3.6238     0.2941 </r>
       <r>    -8.9932     5.5157     0.5943 </r>
       <r>    -8.9388     5.4486     0.8908 </r>
       <r>    -8.8843     4.7189     1.1477 </r>
       <r>    -8.8299     4.8048     1.4092 </r>
       <r>    -8.7755     4.6366     1.6616 </r>
       <r>    -8.7211     3.4586     1.8498 </r>
       <r>    -8.6666     1.9641     1.9567 </r>
       <r>    -8.6122     1.1067     2.0169 </r>
       <r>    -8.5578     1.2962     2.0875 </r>
       <r>    -8.5033     1.8540     2.1884 </r>
       <r>    -8.4489     1.9306     2.2935 </r>
       <r>    -8.3945     2.1047     2.4080 </r>
       <r>    -8.3401     3.1884     2.5816 </r>
       <r>    -8.2856     4.2021     2.8103 </r>
       <r>    -8.2312     4.3574     3.0474 </r>
       <r>    -8.1768     4.3751     3.2856 </r>
       <r>    -8.1223     4.0227     3.5045 </r>
       <r>    -8.0679     3.2110     3.6793 </r>
       <r>    -8.0135     3.4997     3.8698 </r>
       <r>    -7.9591     4.9829     4.1410 </r>
       <r>    -7.9046     5.7552     4.4542 </r>
       <r>    -7.8502     5.3558     4.7457 </r>
       <r>    -7.7958     4.7690     5.0053 </r>
       <r>    -7.7414     3.9495     5.2203 </r>
       <r>    -7.6869     3.3747     5.4039 </r>
       <r>    -7.6325     4.3597     5.6412 </r>
       <r>    -7.5781     6.4958     5.9948 </r>
       <r>    -7.5236     8.9549     6.4822 </r>
       <r>    -7.4692    12.1876     7.1455 </r>
       <r>    -7.4148    16.5217     8.0448 </r>
       <r>    -7.3604    21.8997     9.2367 </r>
       <r>    -7.3059    27.0963    10.7115 </r>
       <r>    -7.2515    30.0378    12.3464 </r>
       <r>    -7.1971    30.3867    14.0003 </r>
       <r>    -7.1426    28.8746    15.5719 </r>
       <r>    -7.0882    26.8411    17.0328 </r>
       <r>    -7.0338    25.4342    18.4171 </r>
       <r>    -6.9794    24.0163    19.7243 </r>
       <r>    -6.9249    22.9466    20.9732 </r>
       <r>    -6.8705    23.2251    22.2373 </r>
       <r>    -6.8161    24.6181    23.5772 </r>
       <r>    -6.7617    28.5491    25.1311 </r>
       <r>    -6.7072    35.4886    27.0626 </r>
       <r>    -6.6528    40.8585    29.2865 </r>
       <r>    -6.5984    41.5985    31.5506 </r>
       <r>    -6.5439    41.8202    33.8268 </r>
       <r>    -6.4895    46.3986    36.3522 </r>
       <r>    -6.4351    56.0591    39.4034 </r>
       <r>    -6.3807    68.4590    43.1294 </r>
       <r>    -6.3262    78.3697    47.3949 </r>
       <r>    -6.2718    81.6570    51.8393 </r>
       <r>    -6.2174    78.9691    56.1375 </r>
       <r>    -6.1629    74.6307    60.1995 </r>
       <r>    -6.1085    72.9170    64.1682 </r>
       <r>    -6.0541    73.4696    68.1670 </r>
       <r>    -5.9997    73.6556    72.1759 </r>
       <r>    -5.9452    73.4641    76.1744 </r>
       <r>    -5.8908    73.3806    80.1683 </r>
       <r>    -5.8364    73.0411    84.1438 </r>
       <r>    -5.7820    72.4299    88.0860 </r>
       <r>    -5.7275    70.6060    91.9289 </r>
       <r>    -5.6731    67.5013    95.6029 </r>
       <r>    -5.6187    65.4615    99.1658 </r>
       <r>    -5.5642    66.1121   102.7642 </r>
       <r>    -5.5098    68.2162   106.4770 </r>
       <r>    -5.4554    70.0604   110.2903 </r>
       <r>    -5.4010    71.6828   114.1918 </r>
       <r>    -5.3465    73.6198   118.1988 </r>
       <r>    -5.2921    76.5233   122.3638 </r>
       <r>    -5.2377    80.9644   126.7705 </r>
       <r>    -5.1832    86.1317   131.4585 </r>
       <r>    -5.1288    89.9326   136.3533 </r>
       <r>    -5.0744    91.1089   141.3122 </r>
       <r>    -5.0200    90.1555   146.2192 </r>
       <r>    -4.9655    88.4728   151.0345 </r>
       <r>    -4.9111    86.7780   155.7577 </r>
       <r>    -4.8567    85.4456   160.4083 </r>
       <r>    -4.8022    84.5805   165.0118 </r>
       <r>    -4.7478    82.8784   169.5227 </r>
       <r>    -4.6934    79.4322   173.8461 </r>
       <r>    -4.6390    75.3707   177.9483 </r>
       <r>    -4.5845    73.4031   181.9435 </r>
       <r>    -4.5301    74.5852   186.0030 </r>
       <r>    -4.4757    77.4493   190.2184 </r>
       <r>    -4.4213    81.2996   194.6434 </r>
       <r>    -4.3668    84.8441   199.2613 </r>
       <r>    -4.3124    86.1816   203.9520 </r>
       <r>    -4.2580    86.5862   208.6647 </r>
       <r>    -4.2035    88.1078   213.4602 </r>
       <r>    -4.1491    89.4727   218.3300 </r>
       <r>    -4.0947    88.6130   223.1530 </r>
       <r>    -4.0403    87.3134   227.9053 </r>
       <r>    -3.9858    88.7243   232.7344 </r>
       <r>    -3.9314    91.5994   237.7199 </r>
       <r>    -3.8770    92.8728   242.7748 </r>
       <r>    -3.8225    93.1691   247.8458 </r>
       <r>    -3.7681    95.0565   253.0195 </r>
       <r>    -3.7137    98.9172   258.4034 </r>
       <r>    -3.6593   103.0655   264.0130 </r>
       <r>    -3.6048   105.1108   269.7340 </r>
       <r>    -3.5504   103.5616   275.3706 </r>
       <r>    -3.4960   100.3838   280.8343 </r>
       <r>    -3.4416    99.0250   286.2240 </r>
       <r>    -3.3871    99.5123   291.6403 </r>
       <r>    -3.3327   100.0641   297.0865 </r>
       <r>    -3.2783   100.3014   302.5457 </r>
       <r>    -3.2238    99.8601   307.9809 </r>
       <r>    -3.1694    98.7576   313.3561 </r>
       <r>    -3.1150    98.0985   318.6954 </r>
       <r>    -3.0606    98.2497   324.0429 </r>
       <r>    -3.0061    98.9925   329.4308 </r>
       <r>    -2.9517    99.7725   334.8612 </r>
       <r>    -2.8973   100.2651   340.3185 </r>
       <r>    -2.8428   100.0754   345.7654 </r>
       <r>    -2.7884    99.2490   351.1673 </r>
       <r>    -2.7340    99.2599   356.5698 </r>
       <r>    -2.6796    99.3697   361.9783 </r>
       <r>    -2.6251    97.3522   367.2769 </r>
       <r>    -2.5707    94.0350   372.3951 </r>
       <r>    -2.5163    91.9157   377.3978 </r>
       <r>    -2.4618    91.0985   382.3561 </r>
       <r>    -2.4074    89.4963   387.2272 </r>
       <r>    -2.3530    86.7722   391.9501 </r>
       <r>    -2.2986    85.5090   396.6041 </r>
       <r>    -2.2441    88.0188   401.3948 </r>
       <r>    -2.1897    93.1655   406.4656 </r>
       <r>    -2.1353    97.3813   411.7659 </r>
       <r>    -2.0809    98.6511   417.1352 </r>
       <r>    -2.0264    97.9892   422.4686 </r>
       <r>    -1.9720    96.2542   427.7075 </r>
       <r>    -1.9176    94.7494   432.8645 </r>
       <r>    -1.8631    95.4691   438.0607 </r>
       <r>    -1.8087    97.0922   443.3452 </r>
       <r>    -1.7543    97.3863   448.6458 </r>
       <r>    -1.6999    96.9595   453.9231 </r>
       <r>    -1.6454    96.1912   459.1585 </r>
       <r>    -1.5910    95.0068   464.3296 </r>
       <r>    -1.5366    94.6872   469.4832 </r>
       <r>    -1.4821    95.8048   474.6976 </r>
       <r>    -1.4277    96.1197   479.9292 </r>
       <r>    -1.3733    93.1197   484.9975 </r>
       <r>    -1.3189    87.6394   489.7676 </r>
       <r>    -1.2644    81.0780   494.1805 </r>
       <r>    -1.2100    73.0093   498.1542 </r>
       <r>    -1.1556    63.1406   501.5908 </r>
       <r>    -1.1012    51.8654   504.4137 </r>
       <r>    -1.0467    39.6682   506.5728 </r>
       <r>    -0.9923    27.3112   508.0593 </r>
       <r>    -0.9379    17.0513   508.9874 </r>
       <r>    -0.8834    11.1761   509.5956 </r>
       <r>    -0.8290     9.5911   510.1177 </r>
       <r>    -0.7746    10.8849   510.7101 </r>
       <r>    -0.7202    13.6021   511.4504 </r>
       <r>    -0.6657    16.8550   512.3678 </r>
       <r>    -0.6113    20.6298   513.4907 </r>
       <r>    -0.5569    23.6232   514.7764 </r>
       <r>    -0.5024    22.9541   516.0258 </r>
       <r>    -0.4480    18.5477   517.0353 </r>
       <r>    -0.3936    15.1528   517.8600 </r>
       <r>    -0.3392    16.2934   518.7468 </r>
       <r>    -0.2847    18.9879   519.7803 </r>
       <r>    -0.2303    19.2861   520.8300 </r>
       <r>    -0.1759    17.5143   521.7833 </r>
       <r>    -0.1215    14.6129   522.5786 </r>
       <r>    -0.0670    11.0286   523.1789 </r>
       <r>    -0.0126     8.6793   523.6513 </r>
       <r>     0.0418     9.4110   524.1635 </r>
       <r>     0.0963    13.0978   524.8764 </r>
       <r>     0.1507    16.3155   525.7644 </r>
       <r>     0.2051    15.8249   526.6257 </r>
       <r>     0.2595    14.0204   527.3888 </r>
       <r>     0.3140    14.6087   528.1839 </r>
       <r>     0.3684    16.6369   529.0895 </r>
       <r>     0.4228    17.9064   530.0641 </r>
       <r>     0.4773    19.2093   531.1096 </r>
       <r>     0.5317    21.8339   532.2980 </r>
       <r>     0.5861    24.8285   533.6493 </r>
       <r>     0.6405    25.9309   535.0607 </r>
       <r>     0.6950    24.6682   536.4033 </r>
       <r>     0.7494    21.8886   537.5947 </r>
       <r>     0.8038    18.1131   538.5805 </r>
       <r>     0.8583    15.1109   539.4030 </r>
       <r>     0.9127    14.2859   540.1805 </r>
       <r>     0.9671    14.3763   540.9630 </r>
       <r>     1.0215    13.3172   541.6878 </r>
       <r>     1.0760    10.8746   542.2797 </r>
       <r>     1.1304     8.4245   542.7383 </r>
       <r>     1.1848     6.3466   543.0837 </r>
       <r>     1.2392     4.5497   543.3313 </r>
       <r>     1.2937     4.0737   543.5530 </r>
       <r>     1.3481     4.9939   543.8249 </r>
       <r>     1.4025     6.6754   544.1882 </r>
       <r>     1.4570     9.6112   544.7113 </r>
       <r>     1.5114    13.8334   545.4642 </r>
       <r>     1.5658    17.5148   546.4175 </r>
       <r>     1.6202    18.1456   547.4051 </r>
       <r>     1.6747    16.0429   548.2783 </r>
       <r>     1.7291    14.6814   549.0774 </r>
       <r>     1.7835    15.1238   549.9006 </r>
       <r>     1.8380    15.5279   550.7457 </r>
       <r>     1.8924    15.9897   551.6160 </r>
       <r>     1.9468    17.0691   552.5450 </r>
       <r>     2.0012    17.5906   553.5024 </r>
       <r>     2.0557    16.8653   554.4204 </r>
       <r>     2.1101    16.3848   555.3122 </r>
       <r>     2.1645    17.7522   556.2784 </r>
       <r>     2.2189    20.0237   557.3682 </r>
       <r>     2.2734    21.3191   558.5286 </r>
       <r>     2.3278    20.5501   559.6471 </r>
       <r>     2.3822    19.0087   560.6817 </r>
       <r>     2.4367    18.5498   561.6913 </r>
       <r>     2.4911    18.9280   562.7215 </r>
       <r>     2.5455    20.2309   563.8227 </r>
       <r>     2.5999    22.2233   565.0322 </r>
       <r>     2.6544    22.3459   566.2485 </r>
       <r>     2.7088    19.3613   567.3023 </r>
       <r>     2.7632    15.0474   568.1213 </r>
       <r>     2.8177    10.8212   568.7102 </r>
       <r>     2.8721     7.8865   569.1395 </r>
       <r>     2.9265     6.7443   569.5066 </r>
       <r>     2.9809     5.3710   569.7989 </r>
       <r>     3.0354     3.3311   569.9802 </r>
       <r>     3.0898     2.9920   570.1430 </r>
       <r>     3.1442     5.3272   570.4330 </r>
       <r>     3.1987     8.9579   570.9205 </r>
       <r>     3.2531    12.0518   571.5765 </r>
       <r>     3.3075    12.5506   572.2596 </r>
       <r>     3.3619    10.1590   572.8125 </r>
       <r>     3.4164     9.4746   573.3282 </r>
       <r>     3.4708    14.2645   574.1046 </r>
       <r>     3.5252    21.0155   575.2484 </r>
       <r>     3.5796    24.0446   576.5571 </r>
       <r>     3.6341    22.5951   577.7869 </r>
       <r>     3.6885    19.0284   578.8226 </r>
       <r>     3.7429    15.2768   579.6541 </r>
       <r>     3.7974    12.8018   580.3509 </r>
       <r>     3.8518    11.6238   580.9835 </r>
       <r>     3.9062    11.3868   581.6033 </r>
       <r>     3.9606    12.8236   582.3012 </r>
       <r>     4.0151    14.3115   583.0802 </r>
       <r>     4.0695    13.3343   583.8059 </r>
       <r>     4.1239    11.2167   584.4164 </r>
       <r>     4.1784    10.0545   584.9637 </r>
       <r>     4.2328     9.2166   585.4653 </r>
       <r>     4.2872     7.8706   585.8937 </r>
       <r>     4.3416     7.8045   586.3185 </r>
       <r>     4.3961    11.0934   586.9223 </r>
       <r>     4.4505    15.8821   587.7867 </r>
       <r>     4.5049    19.0862   588.8255 </r>
       <r>     4.5593    21.2207   589.9805 </r>
       <r>     4.6138    23.5311   591.2613 </r>
       <r>     4.6682    24.8077   592.6115 </r>
       <r>     4.7226    23.7809   593.9058 </r>
       <r>     4.7771    22.5480   595.1331 </r>
       <r>     4.8315    23.7306   596.4247 </r>
       <r>     4.8859    26.1282   597.8468 </r>
       <r>     4.9403    28.3783   599.3914 </r>
       <r>     4.9948    30.5599   601.0547 </r>
       <r>     5.0492    32.5398   602.8257 </r>
       <r>     5.1036    34.3929   604.6977 </r>
       <r>     5.1581    35.7928   606.6458 </r>
       <r>     5.2125    35.0428   608.5531 </r>
       <r>     5.2669    29.7168   610.1705 </r>
       <r>     5.3213    19.9212   611.2548 </r>
       <r>     5.3758     9.7208   611.7839 </r>
       <r>     5.4302     3.2063   611.9584 </r>
       <r>     5.4846     0.6720   611.9950 </r>
       <r>     5.5391     0.0856   611.9996 </r>
       <r>     5.5935     0.0064   612.0000 </r>
       <r>     5.6479     0.0003   612.0000 </r>
       <r>     5.7023     0.0000   612.0000 </r>
       <r>     5.7568     0.0000   612.0000 </r>
       <r>     5.8112     0.0000   612.0000 </r>
       <r>     5.8656     0.0000   612.0000 </r>
       <r>     5.9200     0.0000   612.0000 </r>
       <r>     5.9745     0.0000   612.0000 </r>
       <r>     6.0289     0.0000   612.0000 </r>
       <r>     6.0833     0.0000   612.0000 </r>
       <r>     6.1378     0.0000   612.0000 </r>
       <r>     6.1922     0.0000   612.0000 </r>
       <r>     6.2466     0.0000   612.0000 </r>
       <r>     6.3010     0.0000   612.0000 </r>
      </set>
     </set>
    </array>
   </total>
  </dos>
 </calculation>
 <structure name="finalpos" >
  <crystal>
   <varray name="basis" >
    <v>      11.00258152       0.00000000       0.00000000 </v>
    <v>       5.50129076       9.52851510       0.00000000 </v>
    <v>       0.00000000       0.00000000      24.49178509 </v>
   </varray>
   <i name="volume">   2567.67623402 </i>
   <varray name="rec_basis" >
    <v>       0.09088776      -0.05247407       0.00000000 </v>
    <v>       0.00000000       0.10494815       0.00000000 </v>
    <v>       0.00000000       0.00000000       0.04083002 </v>
   </varray>
  </crystal>
  <varray name="positions" >
   <v>       0.25191778       0.74868938       0.60761951 </v>
   <v>       0.49903349       0.25189217       0.60450385 </v>
   <v>       0.58643179       0.82891666       0.39102892 </v>
   <v>       0.41659697       0.91671029       0.49906707 </v>
   <v>       0.41587476       0.16801748       0.49956700 </v>
   <v>       0.58276134       0.08471586       0.39200578 </v>
   <v>       0.66864520       0.91516585       0.49761988 </v>
   <v>       0.16764729       0.91717843       0.50026829 </v>
   <v>       0.33439232       0.83011427       0.39237219 </v>
   <v>       0.83251507       0.08656091       0.39280886 </v>
   <v>       0.16823834       0.66425171       0.50085681 </v>
   <v>       0.66637309       0.16967535       0.49967553 </v>
   <v>       0.16525934       0.41623549       0.50074903 </v>
   <v>       0.25025393       0.00370694       0.60536774 </v>
   <v>       0.41912083       0.66309788       0.50075899 </v>
   <v>       0.08261028       0.58055423       0.39631460 </v>
   <v>       0.32951971       0.08547072       0.39526605 </v>
   <v>       0.91779982       0.16889790       0.50105087 </v>
   <v>      -0.00293504       0.74934337       0.60389331 </v>
   <v>       0.91768531       0.91558903       0.49864253 </v>
   <v>       0.08321806       0.83192196       0.39348590 </v>
   <v>      -0.00295012       0.00300687       0.60730469 </v>
   <v>       0.67055913       0.66374891       0.49982044 </v>
   <v>       0.74966746       0.50073808       0.60418908 </v>
   <v>       0.83335317       0.83180495       0.40005474 </v>
   <v>       0.49975258       0.75154796       0.59768316 </v>
   <v>       0.49958230       0.50063884       0.59893156 </v>
   <v>       0.83350179       0.58068176       0.40346218 </v>
   <v>       0.74950669       0.25139467       0.59857821 </v>
   <v>       0.74869760       0.00138459       0.59654722 </v>
   <v>       0.66808581       0.41681161       0.50183929 </v>
   <v>       0.83348318       0.33484804       0.40497407 </v>
   <v>       0.08224100       0.08357506       0.40286319 </v>
   <v>       0.41837205       0.41569962       0.50231261 </v>
   <v>       0.58140586       0.33491019       0.40421815 </v>
   <v>       0.50050110       0.00088483       0.59639307 </v>
   <v>       0.24927490       0.50017374       0.59909988 </v>
   <v>       0.33497658       0.58086008       0.40378306 </v>
   <v>       0.24768294       0.25227579       0.59827973 </v>
   <v>       0.33337045       0.33373184       0.40295533 </v>
   <v>       0.16677039       0.16679630       0.50122681 </v>
   <v>       0.00008437       0.50004470       0.59756224 </v>
   <v>       0.91873666       0.66518090       0.49971037 </v>
   <v>      -0.00077811       0.25198298       0.59851521 </v>
   <v>       0.91645387       0.41679979       0.50214291 </v>
   <v>       0.08160081       0.33229723       0.40480096 </v>
   <v>       0.58511673       0.57931720       0.40331730 </v>
   <v>       0.74799114       0.75215761       0.59651180 </v>
  </varray>
 </structure>
</modeling>
