unknown system                          
           1
    11.002582    0.000000    0.000000
     5.501291    9.528515    0.000000
     0.000000    0.000000   24.491785
   Au   Pd
  24  24
Direct configuration=     1
   0.25000000  0.75000000  0.59169983
   0.50000000  0.25000000  0.59169983
   0.58333333  0.83333333  0.40830017
   0.41666667  0.91666667  0.50000000
   0.41666667  0.16666667  0.50000000
   0.58333333  0.08333333  0.40830017
   0.66666667  0.91666667  0.50000000
   0.16666667  0.91666667  0.50000000
   0.33333333  0.83333333  0.40830017
   0.83333333  0.08333333  0.40830017
   0.16666667  0.66666667  0.50000000
   0.66666667  0.16666667  0.50000000
   0.16666667  0.41666667  0.50000000
   0.25000000  0.00000000  0.59169983
   0.41666667  0.66666667  0.50000000
   0.08333333  0.58333333  0.40830017
   0.33333333  0.08333333  0.40830017
   0.91666667  0.16666667  0.50000000
   0.00000000  0.75000000  0.59169983
   0.91666667  0.91666667  0.50000000
   0.08333333  0.83333333  0.40830017
   0.00000000  0.00000000  0.59169983
   0.66666667  0.66666667  0.50000000
   0.75000000  0.50000000  0.59169983
   0.83333333  0.83333333  0.40830017
   0.50000000  0.75000000  0.59169983
   0.50000000  0.50000000  0.59169983
   0.83333333  0.58333333  0.40830017
   0.75000000  0.25000000  0.59169983
   0.75000000  0.00000000  0.59169983
   0.66666667  0.41666667  0.50000000
   0.83333333  0.33333333  0.40830017
   0.08333333  0.08333333  0.40830017
   0.41666667  0.41666667  0.50000000
   0.58333333  0.33333333  0.40830017
   0.50000000  0.00000000  0.59169983
   0.25000000  0.50000000  0.59169983
   0.33333333  0.58333333  0.40830017
   0.25000000  0.25000000  0.59169983
   0.33333333  0.33333333  0.40830017
   0.16666667  0.16666667  0.50000000
   0.00000000  0.50000000  0.59169983
   0.91666667  0.66666667  0.50000000
   0.00000000  0.25000000  0.59169983
   0.91666667  0.41666667  0.50000000
   0.08333333  0.33333333  0.40830017
   0.58333333  0.58333333  0.40830017
   0.75000000  0.75000000  0.59169983
Direct configuration=     2
   0.25165678  0.74838004  0.59428701
   0.49980054  0.25061773  0.59381635
   0.58494689  0.83169833  0.40568902
   0.41656197  0.91724742  0.50087229
   0.41482932  0.16823448  0.50040836
   0.58327620  0.08424488  0.40570357
   0.66835272  0.91522460  0.50081448
   0.16631593  0.91854128  0.49960952
   0.33335676  0.83258535  0.40569607
   0.83329273  0.08424942  0.40576162
   0.16794833  0.66417219  0.49999483
   0.66602621  0.16902745  0.50037359
   0.16603015  0.41594185  0.50034354
   0.25042368  0.00140697  0.59395210
   0.41878504  0.66348941  0.49999947
   0.08279280  0.58275930  0.40617459
   0.33118401  0.08515598  0.40602256
   0.91655843  0.16973280  0.49997005
  -0.00111587  0.74899191  0.59391292
   0.91529475  0.91582206  0.50005315
   0.08332791  0.83321729  0.40572931
  -0.00153931  0.00162155  0.59428860
   0.66870677  0.66471472  0.50004182
   0.75028892  0.49950929  0.59350124
   0.83353641  0.83247837  0.40696338
   0.50038742  0.74998019  0.59310885
   0.50005778  0.49965744  0.59269442
   0.83355885  0.58250437  0.40739183
   0.74992715  0.25045329  0.59284418
   0.74960717 -0.00005384  0.59308802
   0.66655645  0.41650933  0.49969784
   0.83336053  0.33423588  0.40751190
   0.08296293  0.08444499  0.40705269
   0.41720254  0.41710695  0.49979128
   0.58248646  0.33454211  0.40732320
   0.50042818 -0.00048445  0.59309057
   0.25027704  0.49942765  0.59287173
   0.33453727  0.58219387  0.40713212
   0.24910930  0.25034856  0.59281203
   0.33350550  0.33391187  0.40709409
   0.16531177  0.16820036  0.50003707
   0.00034368  0.49956896  0.59255168
   0.91604799  0.66595233  0.50006603
  -0.00003407  0.25069127  0.59264311
   0.91699952  0.41635032  0.49974132
   0.08276613  0.33320418  0.40739275
   0.58411089  0.58186568  0.40722153
   0.74985145  0.75032404  0.59286230
Direct configuration=     3
   0.25662711  0.74352016  0.60204855
   0.49920217  0.25247091  0.60016591
   0.58978754  0.82679330  0.39785556
   0.41624788  0.91898967  0.50348915
   0.40931727  0.17293792  0.50163345
   0.58310481  0.08697952  0.39791379
   0.67341087  0.91089839  0.50325791
   0.16526371  0.92416511  0.49843807
   0.33342705  0.83034139  0.39788378
   0.83317090  0.08699768  0.39814597
   0.17179333  0.65668874  0.49997931
   0.66410483  0.17610978  0.50149438
   0.16412059  0.41376741  0.50137417
   0.25169471  0.00562787  0.60070892
   0.42514017  0.65395762  0.49999786
   0.08117120  0.58103722  0.39979787
   0.32473603  0.09062390  0.39918973
   0.91623373  0.17893118  0.49988019
  -0.00446348  0.74596763  0.60055220
   0.91117899  0.91328824  0.50021261
   0.08331166  0.83286916  0.39801674
  -0.00615724  0.00648620  0.60205492
   0.67482709  0.65885886  0.50016728
   0.75115567  0.49803716  0.59890546
   0.83414566  0.82991347  0.40295301
   0.50154970  0.74992078  0.59733591
   0.50023110  0.49862975  0.59567818
   0.83423538  0.58001749  0.40466682
   0.74970860  0.25181316  0.59627723
   0.74842870 -0.00021535  0.59725258
   0.66622580  0.41603732  0.49879138
   0.83344211  0.33694351  0.40514711
   0.08185174  0.08777997  0.40331027
   0.41881015  0.41842780  0.49916510
   0.57994582  0.33816846  0.40439229
   0.50171274 -0.00193782  0.59726279
   0.25110815  0.49771060  0.59638742
   0.33814908  0.57877549  0.40362796
   0.24643718  0.25139425  0.59614864
   0.33402199  0.33564748  0.40347584
   0.16124710  0.17280143  0.50014829
   0.00137472  0.49827586  0.59510724
   0.91419196  0.66380934  0.50026412
  -0.00013626  0.25276507  0.59547293
   0.91799806  0.41540129  0.49896528
   0.08106454  0.33281673  0.40467050
   0.58644356  0.57746271  0.40398561
   0.74940582  0.75129617  0.59634972
Direct configuration=     4
   0.25460380  0.74567537  0.60376646
   0.49903604  0.25186733  0.60222473
   0.58797228  0.82820410  0.39608240
   0.41729483  0.91743117  0.50281480
   0.41296460  0.17061008  0.50122490
   0.58279252  0.08617017  0.39635553
   0.66784470  0.91434284  0.50235330
   0.16483350  0.92158943  0.49869556
   0.33483142  0.83030104  0.39611436
   0.83296294  0.08749401  0.39638984
   0.16932854  0.66044402  0.49995437
   0.66477028  0.17309966  0.50121171
   0.16313050  0.41614548  0.50089651
   0.25044524  0.00466705  0.60288442
   0.42238745  0.66011486  0.50004157
   0.08186989  0.58053763  0.39800780
   0.32718843  0.08887212  0.39755140
   0.91555130  0.17456831  0.49996140
  -0.00293600  0.74647183  0.60235364
   0.91571398  0.91432005  0.50008133
   0.08314621  0.83249756  0.39631704
  -0.00453224  0.00469765  0.60375429
   0.67224237  0.66019444  0.50021668
   0.75099310  0.49845296  0.60067468
   0.83380560  0.83074352  0.40184163
   0.50200437  0.74929320  0.59839595
   0.50123391  0.49799669  0.59693970
   0.83442651  0.57967411  0.40337779
   0.74949873  0.25212881  0.59757906
   0.74812486  0.00095570  0.59871246
   0.66813543  0.41614462  0.49909532
   0.83315250  0.33688644  0.40369683
   0.08110875  0.08722963  0.40196015
   0.41839826  0.41538857  0.49946083
   0.58092288  0.33690225  0.40309330
   0.50206927 -0.00092348  0.59879648
   0.25075904  0.49769031  0.59758854
   0.33670730  0.57989207  0.40225962
   0.24687206  0.25192869  0.59783986
   0.33338120  0.33583248  0.40259389
   0.16358131  0.17068532  0.50012907
   0.00093221  0.49803801  0.59621603
   0.91773695  0.66185000  0.50013591
  -0.00028435  0.25286513  0.59682205
   0.91707168  0.41788502  0.49929429
   0.08068903  0.33395014  0.40352735
   0.58645924  0.57812560  0.40265544
   0.74877759  0.75006802  0.59805975
Direct configuration=     5
   0.25370024  0.74663783  0.60453363
   0.49896184  0.25159778  0.60314414
   0.58716163  0.82883412  0.39529056
   0.41776237  0.91673518  0.50251366
   0.41459339  0.16957053  0.50104246
   0.58265306  0.08580874  0.39565966
   0.66535901  0.91588104  0.50194933
   0.16464138  0.92043920  0.49881055
   0.33545857  0.83028303  0.39532419
   0.83287007  0.08771566  0.39560560
   0.16822783  0.66212102  0.49994324
   0.66506745  0.17175543  0.50108548
   0.16268835  0.41720746  0.50068321
   0.24988726  0.00423797  0.60385593
   0.42115816  0.66286451  0.50006108
   0.08218190  0.58031452  0.39720841
   0.32828361  0.08808982  0.39681976
   0.91524655  0.17261997  0.49999767
  -0.00225387  0.74669700  0.60315810
   0.91773918  0.91478083  0.50002270
   0.08307232  0.83233161  0.39555800
  -0.00380657  0.00389893  0.60451318
   0.67108811  0.66079087  0.50023874
   0.75092050  0.49863864  0.60146477
   0.83365374  0.83111419  0.40134531
   0.50220742  0.74901294  0.59886933
   0.50168174  0.49771398  0.59750306
   0.83451186  0.57952077  0.40280215
   0.74940501  0.25226977  0.59816042
   0.74798917  0.00147866  0.59936440
   0.66898822  0.41619253  0.49923105
   0.83302317  0.33686096  0.40304918
   0.08077696  0.08698387  0.40135722
   0.41821433  0.41403134  0.49959289
   0.58135921  0.33633680  0.40251320
   0.50222848 -0.00047051  0.59948138
   0.25060313  0.49768124  0.59812492
   0.33606344  0.58039070  0.40164855
   0.24706626  0.25216735  0.59859512
   0.33309504  0.33591510  0.40220004
   0.16462371  0.16974032  0.50012049
   0.00073460  0.49793180  0.59671118
   0.91932004  0.66097502  0.50007865
  -0.00035049  0.25290981  0.59742453
   0.91665799  0.41899418  0.49944122
   0.08052134  0.33445629  0.40301684
   0.58646624  0.57842163  0.40206143
   0.74849705  0.74951956  0.59882340
Direct configuration=     6
   0.25276532  0.74755954  0.60486725
   0.49895205  0.25139771  0.60379394
   0.58647418  0.82976346  0.39487204
   0.41605330  0.91713402  0.50211215
   0.41460346  0.16885413  0.50083319
   0.58282562  0.08506814  0.39535628
   0.66760488  0.91535909  0.50136253
   0.16612217  0.91897079  0.49896232
   0.33527334  0.83081355  0.39489639
   0.83251246  0.08722981  0.39515815
   0.16875587  0.66366443  0.49995865
   0.66620070  0.16950157  0.50085691
   0.16493962  0.41594699  0.50042125
   0.24987537  0.00334697  0.60433468
   0.41876675  0.66381215  0.50003982
   0.08253983  0.58091335  0.39665081
   0.32939994  0.08694236  0.39661029
   0.91604122  0.17091202  0.50003682
  -0.00210785  0.74761208  0.60347821
   0.91673355  0.91511307  0.50004536
   0.08319538  0.83233443  0.39511491
  -0.00291001  0.00288250  0.60494460
   0.67052725  0.66292335  0.50018989
   0.75079268  0.49886041  0.60204553
   0.83320610  0.83201267  0.40150691
   0.50144406  0.74932301  0.59904548
   0.50110104  0.49839958  0.59756520
   0.83377328  0.58065475  0.40246869
   0.74970968  0.25164603  0.59841236
   0.74870419  0.00108498  0.59934163
   0.66825545  0.41650430  0.49950544
   0.83319205  0.33612833  0.40267171
   0.08131804  0.08605814  0.40124842
   0.41766360  0.41548737  0.49990051
   0.58173471  0.33562608  0.40237281
   0.50146918 -0.00003848  0.59977776
   0.25037283  0.49839222  0.59826688
   0.33539091  0.58124030  0.40168647
   0.24775788  0.25177861  0.59883937
   0.33292596  0.33527824  0.40215104
   0.16585590  0.16818266  0.50013337
   0.00051236  0.49835953  0.59718284
   0.91766265  0.66461200  0.50005850
  -0.00034530  0.25217725  0.59757858
   0.91649038  0.41746991  0.49977639
   0.08120251  0.33385466  0.40283947
   0.58586830  0.57916564  0.40181198
   0.74879717  0.74968631  0.59891619
Direct configuration=     7
   0.25257377  0.74774838  0.60493561
   0.49895005  0.25135672  0.60392708
   0.58633333  0.82995387  0.39478629
   0.41570313  0.91721574  0.50202988
   0.41460553  0.16870734  0.50079032
   0.58286097  0.08491640  0.39529413
   0.66806503  0.91525214  0.50124230
   0.16642556  0.91866993  0.49899342
   0.33523538  0.83092225  0.39480874
   0.83243919  0.08713027  0.39506648
   0.16886406  0.66398066  0.49996181
   0.66643289  0.16903978  0.50081008
   0.16540088  0.41568873  0.50036758
   0.24987293  0.00316442  0.60443277
   0.41827678  0.66400631  0.50003547
   0.08261316  0.58103605  0.39653657
   0.32962867  0.08670726  0.39656738
   0.91620403  0.17056208  0.50004485
  -0.00207793  0.74779957  0.60354380
   0.91652751  0.91518114  0.50005001
   0.08322060  0.83233501  0.39502413
  -0.00272632  0.00267425  0.60503299
   0.67041233  0.66336028  0.50017988
   0.75076650  0.49890585  0.60216452
   0.83311439  0.83219676  0.40154002
   0.50128765  0.74938655  0.59908158
   0.50098206  0.49854006  0.59757793
   0.83362195  0.58088708  0.40240036
   0.74977211  0.25151823  0.59846398
   0.74885069  0.00100432  0.59933696
   0.66810531  0.41656817  0.49956166
   0.83322666  0.33597822  0.40259437
   0.08142890  0.08586847  0.40122613
   0.41755076  0.41578569  0.49996354
   0.58181165  0.33548046  0.40234405
   0.50131361  0.00005003  0.59983848
   0.25032564  0.49853789  0.59829596
   0.33525311  0.58141437  0.40169424
   0.24789958  0.25169896  0.59888941
   0.33289132  0.33514775  0.40214100
   0.16610836  0.16786352  0.50013601
   0.00046683  0.49844717  0.59727948
   0.91732307  0.66535718  0.50005437
  -0.00034424  0.25202716  0.59761014
   0.91645604  0.41715760  0.49984506
   0.08134207  0.33373139  0.40280312
   0.58574579  0.57931808  0.40176087
   0.74885866  0.74972047  0.59893520
Direct configuration=     8
   0.25246867  0.74774570  0.60517131
   0.49912918  0.25136237  0.60413834
   0.58626831  0.83013044  0.39454475
   0.41588971  0.91740302  0.50190051
   0.41518891  0.16804632  0.50077364
   0.58282891  0.08490199  0.39514545
   0.66807811  0.91515768  0.50106046
   0.16623324  0.91871200  0.49904112
   0.33485150  0.83116350  0.39449915
   0.83249737  0.08672808  0.39482032
   0.16829480  0.66414665  0.49998800
   0.66595393  0.16947449  0.50068304
   0.16500939  0.41619600  0.50032108
   0.25009642  0.00300211  0.60466041
   0.41879912  0.66331358  0.50000433
   0.08245620  0.58140426  0.39638179
   0.32974346  0.08638062  0.39650940
   0.91691259  0.16994882  0.50002380
  -0.00216584  0.74798384  0.60364407
   0.91677850  0.91530718  0.50007606
   0.08314692  0.83261788  0.39480053
  -0.00258682  0.00254868  0.60528855
   0.67006781  0.66391693  0.50011332
   0.75060558  0.49904690  0.60238176
   0.83312724  0.83243188  0.40161521
   0.50088858  0.74969400  0.59897403
   0.50046727  0.49905586  0.59748896
   0.83337920  0.58138145  0.40249092
   0.74989873  0.25106719  0.59840431
   0.74906498  0.00074092  0.59917284
   0.66732067  0.41690751  0.49971990
   0.83339345  0.33561336  0.40260600
   0.08182724  0.08533710  0.40136496
   0.41819580  0.41599509  0.50019753
   0.58166011  0.33536323  0.40254551
   0.50104298 -0.00006281  0.59963869
   0.25003017  0.49905132  0.59822766
   0.33529736  0.58148280  0.40187696
   0.24800862  0.25146055  0.59881026
   0.33310602  0.33469863  0.40220712
   0.16597521  0.16756632  0.50019288
   0.00063287  0.49871856  0.59725791
   0.91772601  0.66548646  0.50008569
  -0.00015728  0.25150158  0.59753682
   0.91662204  0.41671546  0.50003245
   0.08159759  0.33336359  0.40292609
   0.58545672  0.57959692  0.40189742
   0.74889246  0.75019401  0.59875868
Direct configuration=     9
   0.25241337  0.74774428  0.60529531
   0.49922342  0.25136534  0.60424949
   0.58623411  0.83022334  0.39441767
   0.41598787  0.91750155  0.50183244
   0.41549584  0.16769854  0.50076486
   0.58281204  0.08489442  0.39506723
   0.66808499  0.91510799  0.50096479
   0.16613206  0.91873414  0.49906622
   0.33464953  0.83129042  0.39433627
   0.83252799  0.08651649  0.39469082
   0.16799530  0.66423397  0.50000178
   0.66570194  0.16970319  0.50061620
   0.16480342  0.41646288  0.50029662
   0.25021400  0.00291671  0.60478018
   0.41907394  0.66294911  0.49998794
   0.08237362  0.58159798  0.39630037
   0.32980386  0.08620876  0.39647890
   0.91728538  0.16962617  0.50001273
  -0.00221210  0.74808079  0.60369682
   0.91691055  0.91537350  0.50008976
   0.08310815  0.83276670  0.39468289
  -0.00251343  0.00248261  0.60542300
   0.66988656  0.66420980  0.50007830
   0.75052092  0.49912111  0.60249606
   0.83313400  0.83255559  0.40165478
   0.50067862  0.74985576  0.59891745
   0.50019644  0.49932723  0.59744216
   0.83325148  0.58164154  0.40253857
   0.74996534  0.25082988  0.59837292
   0.74917773  0.00060234  0.59908649
   0.66690785  0.41708604  0.49980315
   0.83348121  0.33542139  0.40261212
   0.08203681  0.08505753  0.40143800
   0.41853517  0.41610526  0.50032063
   0.58158038  0.33530155  0.40265151
   0.50090060 -0.00012217  0.59953357
   0.24987472  0.49932144  0.59819173
   0.33532064  0.58151880  0.40197309
   0.24806598  0.25133511  0.59876862
   0.33321898  0.33446233  0.40224190
   0.16590515  0.16740996  0.50022279
   0.00072022  0.49886135  0.59724656
   0.91793800  0.66555448  0.50010216
  -0.00005892  0.25122506  0.59749825
   0.91670937  0.41648285  0.50013103
   0.08173202  0.33317009  0.40299078
   0.58530463  0.57974362  0.40196927
   0.74891025  0.75044314  0.59866581
Direct configuration=    10
   0.25230576  0.74781551  0.60560205
   0.49926645  0.25145547  0.60445201
   0.58618879  0.83023999  0.39407812
   0.41596824  0.91734748  0.50163717
   0.41541795  0.16800827  0.50076262
   0.58276603  0.08495492  0.39484321
   0.66828142  0.91512816  0.50074310
   0.16667879  0.91813475  0.49916795
   0.33438646  0.83130491  0.39393709
   0.83256986  0.08635399  0.39438271
   0.16789713  0.66418617  0.50000231
   0.66564932  0.17006874  0.50049091
   0.16483810  0.41638246  0.50023454
   0.25041954  0.00279298  0.60506123
   0.41908394  0.66317439  0.49994462
   0.08229784  0.58169712  0.39614037
   0.32980286  0.08598893  0.39640234
   0.91698715  0.16973630  0.49995526
  -0.00231046  0.74824539  0.60384928
   0.91685611  0.91578780  0.50011798
   0.08308054  0.83289941  0.39438873
  -0.00237880  0.00236488  0.60579278
   0.67015902  0.66398717  0.50002776
   0.75044415  0.49921094  0.60267137
   0.83320173  0.83271689  0.40170735
   0.50044897  0.75009288  0.59872142
   0.49985426  0.49970577  0.59745462
   0.83324435  0.58174117  0.40277282
   0.75003363  0.25058114  0.59820948
   0.74910383  0.00053011  0.59881162
   0.66732234  0.41690124  0.49999935
   0.83357963  0.33519277  0.40278230
   0.08226043  0.08470221  0.40159703
   0.41854105  0.41593546  0.50061020
   0.58147982  0.33523337  0.40292599
   0.50085033 -0.00019364  0.59920558
   0.24970221  0.49951523  0.59808816
   0.33528117  0.58148505  0.40223683
   0.24809886  0.25131695  0.59855230
   0.33327882  0.33421306  0.40243472
   0.16598171  0.16749647  0.50034058
   0.00082867  0.49896819  0.59716635
   0.91815820  0.66522941  0.50013363
  -0.00003003  0.25103049  0.59742080
   0.91635313  0.41663618  0.50034771
   0.08177519  0.33302661  0.40323405
   0.58519128  0.57986522  0.40218048
   0.74880422  0.75081163  0.59838113
Direct configuration=    11
   0.25214685  0.74792071  0.60605505
   0.49933000  0.25158858  0.60475108
   0.58612185  0.83026458  0.39357667
   0.41593925  0.91711995  0.50134878
   0.41530292  0.16846569  0.50075932
   0.58269808  0.08504427  0.39451237
   0.66857152  0.91515794  0.50041571
   0.16748621  0.91724957  0.49931819
   0.33399796  0.83132631  0.39334758
   0.83263171  0.08611401  0.39392769
   0.16775215  0.66411558  0.50000309
   0.66557161  0.17060860  0.50030586
   0.16488931  0.41626368  0.50014285
   0.25072308  0.00261024  0.60547629
   0.41909870  0.66350707  0.49988063
   0.08218594  0.58184353  0.39590408
   0.32980139  0.08566428  0.39628928
   0.91654671  0.16989895  0.49987040
  -0.00245574  0.74848848  0.60407444
   0.91677572  0.91639964  0.50015965
   0.08303977  0.83309539  0.39395429
  -0.00217999  0.00219103  0.60633887
   0.67056140  0.66365839  0.49995313
   0.75033077  0.49934360  0.60293027
   0.83330175  0.83295511  0.40178498
   0.50010981  0.75044306  0.59843192
   0.49934893  0.50026479  0.59747303
   0.83323381  0.58188832  0.40311877
   0.75013447  0.25021379  0.59796812
   0.74899469  0.00042344  0.59840569
   0.66793446  0.41662832  0.50028910
   0.83372499  0.33485513  0.40303363
   0.08259067  0.08417746  0.40183189
   0.41854974  0.41568469  0.50103784
   0.58133131  0.33513268  0.40333136
   0.50077609 -0.00029918  0.59872119
   0.24944746  0.49980141  0.59793520
   0.33522288  0.58143520  0.40262632
   0.24814741  0.25129012  0.59823283
   0.33336721  0.33384494  0.40271947
   0.16609478  0.16762422  0.50051453
   0.00098883  0.49912596  0.59704791
   0.91848338  0.66474934  0.50018011
   0.00001262  0.25074315  0.59730642
   0.91582704  0.41686263  0.50066770
   0.08183895  0.33281473  0.40359332
   0.58502389  0.58004480  0.40249240
   0.74864763  0.75135583  0.59796070
Direct configuration=    12
   0.25198989  0.74808632  0.60647259
   0.49922058  0.25166228  0.60495247
   0.58612811  0.83008979  0.39311762
   0.41623792  0.91724344  0.50096349
   0.41545205  0.16835432  0.50070664
   0.58266736  0.08499389  0.39417570
   0.66841170  0.91547420  0.49993141
   0.16733789  0.91734788  0.49951636
   0.33432288  0.83084586  0.39279958
   0.83258328  0.08646579  0.39351002
   0.16791522  0.66416597  0.49998729
   0.66566594  0.17019715  0.50015507
   0.16485382  0.41611977  0.50003509
   0.25053578  0.00285581  0.60579538
   0.41907599  0.66339796  0.49990242
   0.08232945  0.58157993  0.39575346
   0.32980459  0.08555081  0.39618920
   0.91721840  0.16943711  0.49982021
  -0.00250346  0.74861201  0.60425549
   0.91707010  0.91636315  0.50014277
   0.08306980  0.83274965  0.39357677
  -0.00217961  0.00223176  0.60680819
   0.67062399  0.66365963  0.49998183
   0.75029222  0.49950204  0.60313682
   0.83331182  0.83285952  0.40178538
   0.50033669  0.75033591  0.59818215
   0.49957519  0.50022127  0.59761464
   0.83345399  0.58152104  0.40339264
   0.75013132  0.25038158  0.59786349
   0.74864861  0.00084459  0.59808069
   0.66805875  0.41704170  0.50056899
   0.83364480  0.33499532  0.40327878
   0.08228050  0.08428329  0.40205799
   0.41802615  0.41604829  0.50140684
   0.58138845  0.33524819  0.40363309
   0.50079420  0.00003186  0.59826450
   0.24941208  0.49964505  0.59791499
   0.33500937  0.58129446  0.40295865
   0.24813849  0.25139731  0.59803837
   0.33311636  0.33407439  0.40292424
   0.16615495  0.16724677  0.50066403
   0.00082399  0.49903480  0.59699984
   0.91850247  0.66481314  0.50018254
  -0.00011446  0.25087231  0.59727864
   0.91596377  0.41685415  0.50096488
   0.08159217  0.33291007  0.40391460
   0.58517353  0.57989082  0.40272004
   0.74845291  0.75116766  0.59762415
Direct configuration=    13
   0.25192097  0.74815904  0.60665594
   0.49917254  0.25169465  0.60504091
   0.58613086  0.83001303  0.39291604
   0.41636907  0.91729767  0.50079430
   0.41551753  0.16830541  0.50068351
   0.58265387  0.08497176  0.39402785
   0.66834152  0.91561307  0.49971874
   0.16727276  0.91739105  0.49960338
   0.33446556  0.83063488  0.39255894
   0.83256202  0.08662026  0.39332661
   0.16798683  0.66418810  0.49998036
   0.66570737  0.17001647  0.50008885
   0.16483823  0.41605658  0.49998776
   0.25045353  0.00296364  0.60593550
   0.41906601  0.66335005  0.49991198
   0.08239247  0.58146417  0.39568732
   0.32980599  0.08550098  0.39614526
   0.91751335  0.16923431  0.49979817
  -0.00252442  0.74866626  0.60433500
   0.91719937  0.91634712  0.50013535
   0.08308298  0.83259783  0.39341098
  -0.00217944  0.00224965  0.60701428
   0.67065148  0.66366018  0.49999443
   0.75027529  0.49957162  0.60322752
   0.83331625  0.83281754  0.40178555
   0.50043632  0.75028886  0.59807246
   0.49967454  0.50020216  0.59767683
   0.83355068  0.58135976  0.40351291
   0.75012994  0.25045527  0.59781754
   0.74849664  0.00102953  0.59793798
   0.66811333  0.41722323  0.50069190
   0.83360959  0.33505689  0.40338644
   0.08214429  0.08432976  0.40215728
   0.41779623  0.41620795  0.50156887
   0.58141354  0.33529891  0.40376559
   0.50080215  0.00017723  0.59806395
   0.24939654  0.49957638  0.59790612
   0.33491561  0.58123265  0.40310458
   0.24813457  0.25144439  0.59795297
   0.33300621  0.33417514  0.40301416
   0.16618138  0.16708102  0.50072969
   0.00075160  0.49899476  0.59697873
   0.91851086  0.66484116  0.50018361
  -0.00017026  0.25092903  0.59726644
   0.91602382  0.41685043  0.50109538
   0.08148380  0.33295194  0.40405569
   0.58523924  0.57982321  0.40282000
   0.74836740  0.75108503  0.59747637
Direct configuration=    14
   0.25216843  0.74805793  0.60686972
   0.49908232  0.25183566  0.60507055
   0.58638506  0.82962353  0.39262769
   0.41628840  0.91711512  0.50045537
   0.41546165  0.16832456  0.50051674
   0.58261755  0.08505896  0.39373606
   0.66849738  0.91540478  0.49931707
   0.16751825  0.91739146  0.49976356
   0.33459657  0.83035473  0.39232516
   0.83243582  0.08688191  0.39309146
   0.16775446  0.66451433  0.50004959
   0.66592712  0.17012285  0.49999515
   0.16474236  0.41616133  0.50000615
   0.25046867  0.00311259  0.60600043
   0.41883073  0.66366094  0.50004634
   0.08233800  0.58125846  0.39567815
   0.32959180  0.08566434  0.39607900
   0.91744657  0.16916348  0.49987956
  -0.00270258  0.74861689  0.60435565
   0.91755492  0.91569133  0.50004891
   0.08309112  0.83242476  0.39324372
  -0.00253638  0.00250179  0.60722914
   0.67033855  0.66421165  0.50001508
   0.75030149  0.49955714  0.60341265
   0.83335616  0.83258707  0.40164037
   0.50028944  0.75043280  0.59794808
   0.49997942  0.49996829  0.59790757
   0.83364880  0.58116764  0.40358340
   0.75010554  0.25074817  0.59780643
   0.74851509  0.00125227  0.59779882
   0.66802621  0.41698231  0.50088606
   0.83336239  0.33540830  0.40355435
   0.08209516  0.08428310  0.40219710
   0.41804931  0.41600144  0.50174503
   0.58146714  0.33530319  0.40393682
   0.50071676  0.00032498  0.59786712
   0.24931673  0.49959882  0.59805097
   0.33489608  0.58116575  0.40317871
   0.24803362  0.25156681  0.59797668
   0.33305044  0.33424773  0.40304152
   0.16657370  0.16662383  0.50083318
   0.00060742  0.49899650  0.59704014
   0.91848306  0.66539025  0.50016196
  -0.00033527  0.25109993  0.59741253
   0.91638531  0.41663745  0.50127364
   0.08136148  0.33287477  0.40416911
   0.58541304  0.57960422  0.40285874
   0.74840468  0.75102387  0.59731875
Direct configuration=    15
   0.25220434  0.74804326  0.60690074
   0.49906923  0.25185612  0.60507485
   0.58642195  0.82956700  0.39258584
   0.41627670  0.91708863  0.50040618
   0.41545354  0.16832733  0.50049253
   0.58261228  0.08507161  0.39369371
   0.66852000  0.91537455  0.49925878
   0.16755388  0.91739152  0.49978681
   0.33461559  0.83031407  0.39229123
   0.83241751  0.08691988  0.39305733
   0.16772073  0.66456168  0.50005964
   0.66595901  0.17013829  0.49998155
   0.16472845  0.41617653  0.50000882
   0.25047087  0.00313421  0.60600986
   0.41879658  0.66370607  0.50006584
   0.08233010  0.58122861  0.39567682
   0.32956072  0.08568804  0.39606938
   0.91743687  0.16915320  0.49989138
  -0.00272844  0.74860973  0.60435865
   0.91760652  0.91559615  0.50003637
   0.08309230  0.83239964  0.39321944
  -0.00258818  0.00253839  0.60726033
   0.67029313  0.66429168  0.50001808
   0.75030529  0.49955504  0.60343952
   0.83336196  0.83255362  0.40161930
   0.50026812  0.75045369  0.59793003
   0.50002367  0.49993435  0.59794106
   0.83366304  0.58113975  0.40359363
   0.75010200  0.25079068  0.59780482
   0.74851777  0.00128460  0.59777862
   0.66801356  0.41694734  0.50091423
   0.83332651  0.33545930  0.40357872
   0.08208803  0.08427633  0.40220288
   0.41808604  0.41597147  0.50177060
   0.58147492  0.33530381  0.40396168
   0.50070436  0.00034643  0.59783855
   0.24930515  0.49960207  0.59807199
   0.33489325  0.58115604  0.40318947
   0.24801897  0.25158457  0.59798012
   0.33305686  0.33425827  0.40304550
   0.16663064  0.16655747  0.50084820
   0.00058649  0.49899675  0.59704905
   0.91847903  0.66546994  0.50015881
  -0.00035922  0.25112474  0.59743373
   0.91643777  0.41660654  0.50129951
   0.08134373  0.33286357  0.40418557
   0.58543827  0.57957244  0.40286436
   0.74841009  0.75101499  0.59729587
Direct configuration=    16
   0.25234101  0.74795467  0.60703980
   0.49905506  0.25187104  0.60501521
   0.58650812  0.82936026  0.39232274
   0.41630829  0.91703725  0.50012236
   0.41559620  0.16822097  0.50031021
   0.58258756  0.08508452  0.39340532
   0.66834518  0.91566012  0.49895043
   0.16742935  0.91750368  0.49990855
   0.33456766  0.83023025  0.39219080
   0.83242944  0.08690056  0.39293629
   0.16797324  0.66440369  0.50017716
   0.66627936  0.16977238  0.49993942
   0.16471402  0.41645084  0.50012107
   0.25044123  0.00318413  0.60595455
   0.41873876  0.66356473  0.50021763
   0.08227875  0.58106833  0.39572778
   0.32947409  0.08571956  0.39598754
   0.91742793  0.16897028  0.50001535
  -0.00276927  0.74861814  0.60434117
   0.91767669  0.91560916  0.49988559
   0.08305814  0.83243203  0.39317449
  -0.00274993  0.00262974  0.60734922
   0.67038252  0.66408481  0.49999023
   0.75025341  0.49969447  0.60360505
   0.83341435  0.83246886  0.40132556
   0.50008954  0.75070739  0.59789727
   0.50004486  0.49991969  0.59818631
   0.83366038  0.58110406  0.40359622
   0.75005040  0.25091790  0.59789311
   0.74855732  0.00135561  0.59764149
   0.66782561  0.41712161  0.50106927
   0.83321319  0.33561408  0.40375119
   0.08214756  0.08405083  0.40220535
   0.41824414  0.41596055  0.50187574
   0.58142359  0.33527108  0.40403395
   0.50068723  0.00035759  0.59767233
   0.24917679  0.49981917  0.59826475
   0.33498764  0.58111856  0.40321549
   0.24792476  0.25169228  0.59807650
   0.33321025  0.33423156  0.40299342
   0.16685648  0.16640041  0.50094790
   0.00050585  0.49909190  0.59715951
   0.91850446  0.66548674  0.50011885
  -0.00038471  0.25117550  0.59765232
   0.91638025  0.41670406  0.50141898
   0.08136164  0.33268916  0.40421274
   0.58540112  0.57950465  0.40288645
   0.74837051  0.75121113  0.59721734
Direct configuration=    17
   0.25244949  0.74788435  0.60715018
   0.49904382  0.25188287  0.60496787
   0.58657652  0.82919616  0.39211389
   0.41633337  0.91699647  0.49989706