unknown system                          
           1
    11.002582    0.000000    0.000000
     5.501291    9.528515    0.000000
     0.000000    0.000000   26.191785
   Au   O    Pd
  24   8  24
Direct configuration=     1
   0.08333333  0.08333333  0.38179910
   0.25000000  0.50000000  0.55329505
   0.66666667  0.91666667  0.46754708
   0.83333333  0.83333333  0.38179910
   0.75000000  0.50000000  0.55329505
   0.08333333  0.33333333  0.38179910
   0.91666667  0.41666667  0.46754708
   0.00000000  0.25000000  0.55329505
   0.75000000  0.25000000  0.55329505
   0.66666667  0.41666667  0.46754708
   0.83333333  0.08333333  0.38179910
   0.58333333  0.58333333  0.38179910
   0.58333333  0.83333333  0.38179910
   0.00000000  0.75000000  0.55329505
   0.50000000  0.25000000  0.55329505
   0.41666667  0.41666667  0.46754708
   0.16666667  0.16666667  0.46754708
   0.25000000  0.00000000  0.55329505
   0.58333333  0.33333333  0.38179910
   0.25000000  0.75000000  0.55329505
   0.33333333  0.83333333  0.38179910
   0.25000000  0.25000000  0.55329505
   0.33333333  0.58333333  0.38179910
   0.16666667  0.66666667  0.46754708
   0.08333333  0.83333333  0.61820090
   0.08333333  0.58333333  0.61820090
   0.33333333  0.33333333  0.61820090
   0.08333333  0.08333333  0.61820090
   0.83333333  0.83333333  0.61820090
   0.58333333  0.58333333  0.61820090
   0.33333333  0.58333333  0.61820090
   0.58333333  0.83333333  0.61820090
   0.08333333  0.83333333  0.38179910
   0.50000000  0.00000000  0.55329505
   0.75000000  0.75000000  0.55329505
   0.33333333  0.33333333  0.38179910
   0.33333333  0.08333333  0.38179910
   0.16666667  0.91666667  0.46754708
   0.91666667  0.91666667  0.46754708
   0.41666667  0.66666667  0.46754708
   0.50000000  0.50000000  0.55329505
   0.41666667  0.91666667  0.46754708
   0.50000000  0.75000000  0.55329505
   0.00000000  0.50000000  0.55329505
   0.91666667  0.66666667  0.46754708
   0.66666667  0.16666667  0.46754708
   0.75000000  0.00000000  0.55329505
   0.83333333  0.33333333  0.38179910
   0.08333333  0.58333333  0.38179910
   0.83333333  0.58333333  0.38179910
   0.66666667  0.66666667  0.46754708
   0.00000000  0.00000000  0.55329505
   0.91666667  0.16666667  0.46754708
   0.16666667  0.41666667  0.46754708
   0.58333333  0.08333333  0.38179910
   0.41666667  0.16666667  0.46754708
Direct configuration=     2
   0.08333333  0.08333333  0.38179910
   0.24962332  0.49955466  0.55622244
   0.66617874  0.91737203  0.46793473
   0.83333333  0.83333333  0.38179910
   0.74963572  0.50131627  0.55594750
   0.08333333  0.33333333  0.38179910
   0.91616605  0.41841788  0.46799754
  -0.00076024  0.25046150  0.55599942
   0.75019697  0.24861210  0.55480118
   0.66634454  0.41702478  0.46767306
   0.83333333  0.08333333  0.38179910
   0.58333333  0.58333333  0.38179910
   0.58333333  0.83333333  0.38179910
  -0.00220915  0.75085308  0.55595674
   0.50180599  0.24797667  0.55572818
   0.41629668  0.41608460  0.46777878
   0.16876701  0.16563799  0.46739628
   0.25156517 -0.00138291  0.55552628
   0.58333333  0.33333333  0.38179910
   0.25192406  0.75106619  0.55617158
   0.33333333  0.83333333  0.38179910
   0.25028461  0.24984792  0.55567007
   0.33333333  0.58333333  0.38179910
   0.16484611  0.66771086  0.46714058
   0.08258520  0.83543007  0.61552771
   0.08140478  0.58188013  0.61559414
   0.33481650  0.33057059  0.61586153
   0.08280548  0.08332336  0.61510543
   0.83047291  0.83544192  0.61477769
   0.58298834  0.58293973  0.61461473
   0.33543262  0.58337687  0.61558944
   0.58299844  0.83447719  0.61389246
   0.08333333  0.83333333  0.38179910
   0.50155587 -0.00194590  0.55525963
   0.74906395  0.75103736  0.55665938
   0.33333333  0.33333333  0.38179910
   0.33333333  0.08333333  0.38179910
   0.16656077  0.91604208  0.46763864
   0.91737327  0.91731070  0.46811840
   0.41669115  0.66846325  0.46830891
   0.49996442  0.50094772  0.55688349
   0.41652801  0.91617551  0.46825032
   0.50100795  0.75002879  0.55638756
   0.00001647  0.50121341  0.55551384
   0.91645401  0.66680897  0.46796530
   0.66686766  0.16498013  0.46822976
   0.75042203 -0.00128442  0.55548752
   0.83333333  0.33333333  0.38179910
   0.08333333  0.58333333  0.38179910
   0.83333333  0.58333333  0.38179910
   0.66641853  0.66787799  0.46786113
  -0.00055968  0.00037743  0.55638065
   0.91695667  0.16464377  0.46777526
   0.16653068  0.41727837  0.46729830
   0.58333333  0.08333333  0.38179910
   0.41731743  0.16552922  0.46733485
Direct configuration=     3
   0.08333333  0.08333333  0.38179910
   0.24898273  0.49879729  0.56120089
   0.66534895  0.91857161  0.46859398
   0.83333333  0.83333333  0.38179910
   0.74901621  0.50355478  0.56045836
   0.08333333  0.33333333  0.38179910
   0.91531469  0.42139606  0.46876361
  -0.00205312  0.25124636  0.56059857
   0.75053194  0.24625177  0.55736256
   0.66579672  0.41763380  0.46788730
   0.83333333  0.08333333  0.38179910
   0.58333333  0.58333333  0.38179910
   0.58333333  0.83333333  0.38179910
  -0.00596612  0.75230385  0.56048331
   0.50487733  0.24453572  0.55986604
   0.41566747  0.41509471  0.46817284
   0.17233894  0.16388859  0.46713983
   0.25422697 -0.00373473  0.55932080
   0.58333333  0.33333333  0.38179910
   0.25519619  0.75287940  0.56106352
   0.33333333  0.83333333  0.38179910
   0.25076863  0.24958928  0.55970912
   0.33333333  0.58333333  0.38179910
   0.16175000  0.66948667  0.46644928
   0.08131288  0.83899587  0.61098157
   0.07812501  0.57940877  0.61116099
   0.33733884  0.32587216  0.61188310
   0.08190780  0.08330641  0.60984116
   0.82560836  0.83902787  0.60895604
   0.58240163  0.58227036  0.60851594
   0.33900276  0.58345092  0.61114830
   0.58242890  0.83642248  0.60656535
   0.08333333  0.83333333  0.38179910
   0.50420186 -0.00525517  0.55860068
   0.74747206  0.75280153  0.56238090
   0.33333333  0.33333333  0.38179910
   0.33333333  0.08333333  0.38179910
   0.16638067  0.91497989  0.46779436
   0.91857495  0.91840596  0.46909002
   0.41673280  0.67151860  0.46960452
   0.49990390  0.50255945  0.56298613
   0.41629219  0.91534022  0.46944628
   0.50272210  0.75007776  0.56164680
   0.00004449  0.50327698  0.55928721
   0.91609237  0.66705097  0.46867656
   0.66720948  0.16211192  0.46939075
   0.75113976 -0.00346875  0.55921611
   0.83333333  0.33333333  0.38179910
   0.08333333  0.58333333  0.38179910
   0.83333333  0.58333333  0.38179910
   0.66599654  0.66993801  0.46839522
  -0.00151151  0.00101931  0.56162813
   0.91744987  0.16120354  0.46816332
   0.16629941  0.41831865  0.46687521
   0.58333333  0.08333333  0.38179910
   0.41842413  0.16359484  0.46697394
Direct configuration=     4
   0.08333333  0.08333333  0.38179910
   0.24907869  0.49891074  0.56045516
   0.66547324  0.91839192  0.46849523
   0.83333333  0.83333333  0.38179910
   0.74910900  0.50321947  0.55978267
   0.08333333  0.33333333  0.38179910
   0.91544222  0.42094996  0.46864885
  -0.00185946  0.25112879  0.55990966
   0.75048177  0.24660532  0.55697889
   0.66587878  0.41754257  0.46785521
   0.83333333  0.08333333  0.38179910
   0.58333333  0.58333333  0.38179910
   0.58333333  0.83333333  0.38179910
  -0.00540336  0.75208654  0.55980528
   0.50441727  0.24505115  0.55924623
   0.41576172  0.41524298  0.46811381
   0.17180390  0.16415063  0.46717824
   0.25382826 -0.00338245  0.55875242
   0.58333333  0.33333333  0.38179910
   0.25470605  0.75260780  0.56033075
   0.33333333  0.83333333  0.38179910
   0.25069613  0.24962803  0.55910411
   0.33333333  0.58333333  0.38179910
   0.16221377  0.66922067  0.46655283
   0.08150346  0.83846174  0.61166254
   0.07861629  0.57977895  0.61182503
   0.33696102  0.32657594  0.61247904
   0.08204227  0.08330895  0.61062970
   0.82633703  0.83849072  0.60982807
   0.58248951  0.58237062  0.60942949
   0.33846798  0.58343983  0.61181354
   0.58251422  0.83613109  0.60766288
   0.08333333  0.83333333  0.38179910
   0.50380551 -0.00475947  0.55810022
   0.74771051  0.75253727  0.56152387
   0.33333333  0.33333333  0.38179910
   0.33333333  0.08333333  0.38179910
   0.16640765  0.91513900  0.46777104
   0.91839495  0.91824190  0.46894448
   0.41672656  0.67106093  0.46941045
   0.49991296  0.50231803  0.56207201
   0.41632752  0.91546534  0.46926714
   0.50246533  0.75007043  0.56085901
   0.00004030  0.50296787  0.55872199
   0.91614654  0.66701472  0.46857002
   0.66715828  0.16254155  0.46921684
   0.75103225 -0.00314156  0.55865760
   0.83333333  0.33333333  0.38179910
   0.08333333  0.58333333  0.38179910
   0.83333333  0.58333333  0.38179910
   0.66605975  0.66962944  0.46831522
  -0.00136893  0.00092316  0.56084211
   0.91737599  0.16171885  0.46810519
   0.16633406  0.41816282  0.46693858
   0.58333333  0.08333333  0.38179910
   0.41825836  0.16388460  0.46702800
Direct configuration=     5
   0.08333333  0.08333333  0.38179910
   0.24895785  0.50047847  0.55973594
   0.66632470  0.91755324  0.46972073
   0.83333333  0.83333333  0.38179910
   0.75715470  0.49894164  0.56051616
   0.08333333  0.33333333  0.38179910
   0.91530788  0.42044031  0.47078131
  -0.00479770  0.25753029  0.56085102
   0.75020931  0.24640259  0.55796909
   0.66589809  0.41759875  0.46957418
   0.83333333  0.08333333  0.38179910
   0.58333333  0.58333333  0.38179910
   0.58333333  0.83333333  0.38179910
  -0.00297457  0.75124962  0.55908188
   0.50926825  0.24182950  0.56047737
   0.41516337  0.41558840  0.47014996
   0.17167093  0.16439720  0.46897856
   0.25848692 -0.00411075  0.55951196
   0.58333333  0.33333333  0.38179910
   0.25599363  0.75543827  0.56114023
   0.33333333  0.83333333  0.38179910
   0.24873766  0.24594888  0.55970966
   0.33333333  0.58333333  0.38179910
   0.16190892  0.66938811  0.46846692
   0.08071375  0.84245805  0.61029856
   0.07419873  0.57627047  0.61095716
   0.34101366  0.32093118  0.61270773
   0.08117086  0.08318475  0.60974705
   0.82005282  0.84376673  0.60866388
   0.58164530  0.58224809  0.60838596
   0.34280697  0.58264631  0.61115218
   0.58044150  0.83821608  0.60560124
   0.08333333  0.83333333  0.38179910
   0.50182256 -0.00132201  0.55865755
   0.75054996  0.74853049  0.56339084
   0.33333333  0.33333333  0.38179910
   0.33333333  0.08333333  0.38179910
   0.16661612  0.91488430  0.46923993
   0.91840097  0.91796566  0.47040049
   0.41651810  0.67106319  0.47131249
   0.50102685  0.49808277  0.56390039
   0.41624364  0.91514203  0.47063338
   0.49908716  0.75295790  0.56233981
  -0.00207518  0.50123885  0.55999741
   0.91526718  0.66838007  0.46981547
   0.66687141  0.16234702  0.47077809
   0.74869576  0.00038268  0.55988814
   0.83333333  0.33333333  0.38179910
   0.08333333  0.58333333  0.38179910
   0.83333333  0.58333333  0.38179910
   0.66587392  0.67027674  0.46968111
  -0.00362135  0.00153240  0.56282927
   0.91788566  0.16182844  0.46954841
   0.16665863  0.41817465  0.46808522
   0.58333333  0.08333333  0.38179910
   0.41843230  0.16380295  0.46816518
Direct configuration=     6
   0.08333333  0.08333333  0.38179910
   0.24889297  0.50132016  0.55934979
   0.66678183  0.91710296  0.47037868
   0.83333333  0.83333333  0.38179910
   0.76147434  0.49664493  0.56090997
   0.08333333  0.33333333  0.38179910
   0.91523576  0.42016668  0.47192619
  -0.00637520  0.26096717  0.56135642
   0.75006303  0.24629375  0.55850072
   0.66590846  0.41762891  0.47049708
   0.83333333  0.08333333  0.38179910
   0.58333333  0.58333333  0.38179910
   0.58333333  0.83333333  0.38179910
  -0.00167059  0.75080029  0.55869350
   0.51187268  0.24009984  0.56113836
   0.41484212  0.41577384  0.47124314
   0.17159955  0.16452957  0.46994512
   0.26098810 -0.00450176  0.55991974
   0.58333333  0.33333333  0.38179910
   0.25668491  0.75695791  0.56157482
   0.33333333  0.83333333  0.38179910
   0.24768618  0.24397359  0.56003478
   0.33333333  0.58333333  0.38179910
   0.16174525  0.66947800  0.46949456
   0.08028977  0.84460362  0.60956625
   0.07182700  0.57438681  0.61049121
   0.34318948  0.31790059  0.61283051
   0.08070301  0.08311807  0.60927316
   0.81667890  0.84659935  0.60803884
   0.58119205  0.58218231  0.60782570
   0.34513652  0.58222028  0.61079711
   0.57932868  0.83933548  0.60449437
   0.08333333  0.83333333  0.38179910
   0.50075794  0.00052352  0.55895678
   0.75207443  0.74637929  0.56439319
   0.33333333  0.33333333  0.38179910
   0.33333333  0.08333333  0.38179910
   0.16672804  0.91474756  0.47002857
   0.91840420  0.91781735  0.47118221
   0.41640618  0.67106440  0.47233367
   0.50162488  0.49580891  0.56488202
   0.41619861  0.91496846  0.47136689
   0.49727346  0.75450814  0.56313483
  -0.00321095  0.50031056  0.56068217
   0.91479507  0.66911311  0.47048413
   0.66671739  0.16224257  0.47161631
   0.74744134  0.00227480  0.56054879
   0.83333333  0.33333333  0.38179910
   0.08333333  0.58333333  0.38179910
   0.83333333  0.58333333  0.38179910
   0.66577415  0.67062427  0.47041444
  -0.00483065  0.00185949  0.56389615
   0.91815930  0.16188727  0.47032326
   0.16683289  0.41818100  0.46870084
   0.58333333  0.08333333  0.38179910
   0.41852568  0.16375912  0.46877572
Direct configuration=     7
   0.08333333  0.08333333  0.38179910
   0.24977088  0.49880640  0.55850167
   0.66743937  0.91640536  0.47151009
   0.83333333  0.83333333  0.38179910
   0.75920410  0.49807198  0.56237958
   0.08333333  0.33333333  0.38179910
   0.91589992  0.41971472  0.47245490
  -0.00497633  0.25906336  0.56276636
   0.75142288  0.24700508  0.55952803
   0.66545223  0.41784049  0.47197547
   0.83333333  0.08333333  0.38179910
   0.58333333  0.58333333  0.38179910
   0.58333333  0.83333333  0.38179910
  -0.00106819  0.75048098  0.55760561
   0.51077675  0.24054425  0.56265791
   0.41536576  0.41583420  0.47274047
   0.17050302  0.16480774  0.47120608
   0.26059474 -0.00284862  0.56081921
   0.58333333  0.33333333  0.38179910
   0.25839072  0.75824609  0.56159195
   0.33333333  0.83333333  0.38179910
   0.24729324  0.24453381  0.56088420
   0.33333333  0.58333333  0.38179910
   0.16282871  0.66930304  0.47064841
   0.08063419  0.84509806  0.61048543
   0.06807013  0.57137680  0.61079636
   0.34697369  0.31211745  0.61285190
   0.08064113  0.08477429  0.60934274
   0.81255631  0.85180575  0.60893220
   0.58371638  0.58201574  0.60801136
   0.34600004  0.58276794  0.61199400
   0.57800511  0.84177420  0.60553117
   0.08333333  0.83333333  0.38179910
   0.49989287  0.00497334  0.55843752
   0.75507180  0.74138434  0.56458102
   0.33333333  0.33333333  0.38179910
   0.33333333  0.08333333  0.38179910
   0.16649848  0.91530253  0.47147849
   0.91763191  0.91841384  0.47228929
   0.41650098  0.66999000  0.47395593
   0.50635323  0.48907174  0.56455693
   0.41677526  0.91468648  0.47202323
   0.49587751  0.75284253  0.56300860
  -0.00274984  0.49855389  0.56117168
   0.91436785  0.66927538  0.47151133
   0.66661896  0.16285208  0.47252503
   0.74642228  0.00412285  0.56102064
   0.83333333  0.33333333  0.38179910
   0.08333333  0.58333333  0.38179910
   0.83333333  0.58333333  0.38179910
   0.66528562  0.67055339  0.47179644
  -0.00949646  0.00715691  0.56368639
   0.91854098  0.16234076  0.47180149
   0.16657257  0.41799627  0.46990160
   0.58333333  0.08333333  0.38179910
   0.41852959  0.16428811  0.46989952
Direct configuration=     8
   0.08333333  0.08333333  0.38179910
   0.24983819  0.49861367  0.55843665
   0.66748979  0.91635188  0.47159683
   0.83333333  0.83333333  0.38179910
   0.75903004  0.49818140  0.56249225
   0.08333333  0.33333333  0.38179910
   0.91595084  0.41968007  0.47249544
  -0.00486908  0.25891740  0.56287447
   0.75152714  0.24705962  0.55960679
   0.66541725  0.41785671  0.47208882
   0.83333333  0.08333333  0.38179910
   0.58333333  0.58333333  0.38179910
   0.58333333  0.83333333  0.38179910
  -0.00102200  0.75045650  0.55752221
   0.51069272  0.24057832  0.56277441
   0.41540590  0.41583882  0.47285528
   0.17041895  0.16482907  0.47130276
   0.26056458 -0.00272187  0.56088817
   0.58333333  0.33333333  0.38179910
   0.25852151  0.75834486  0.56159327
   0.33333333  0.83333333  0.38179910
   0.24726311  0.24457676  0.56094933
   0.33333333  0.58333333  0.38179910
   0.16291178  0.66928963  0.47073687
   0.08066059  0.84513597  0.61055590
   0.06778209  0.57114602  0.61081975
   0.34726383  0.31167405  0.61285354
   0.08063639  0.08490127  0.60934807
   0.81224023  0.85220493  0.60900070
   0.58390992  0.58200297  0.60802559
   0.34606624  0.58280993  0.61208576
   0.57790363  0.84196118  0.60561066
   0.08333333  0.83333333  0.38179910
   0.49982655  0.00531451  0.55839771
   0.75530161  0.74100137  0.56459543
   0.33333333  0.33333333  0.38179910
   0.33333333  0.08333333  0.38179910
   0.16648088  0.91534508  0.47158965
   0.91757269  0.91845957  0.47237417
   0.41650825  0.66990763  0.47408031
   0.50671576  0.48855520  0.56453200
   0.41681947  0.91466486  0.47207355
   0.49577048  0.75271483  0.56299892
  -0.00271449  0.49841921  0.56120922
   0.91433510  0.66928782  0.47159008
   0.66661141  0.16289881  0.47259471
   0.74634415  0.00426455  0.56105682
   0.83333333  0.33333333  0.38179910
   0.08333333  0.58333333  0.38179910
   0.83333333  0.58333333  0.38179910
   0.66524816  0.67054795  0.47190240
  -0.00985419  0.00756306  0.56367030
   0.91857024  0.16237553  0.47191483
   0.16655261  0.41798211  0.46999367
   0.58333333  0.08333333  0.38179910
   0.41852989  0.16432867  0.46998568
Direct configuration=     9
   0.08333333  0.08333333  0.38179910
   0.25000294  0.49773866  0.55881640
   0.66769672  0.91616402  0.47208019
   0.83333333  0.83333333  0.38179910
   0.75788551  0.49828435  0.56351880
   0.08333333  0.33333333  0.38179910
   0.91582155  0.41962078  0.47242661
  -0.00471313  0.25872277  0.56378797
   0.75203950  0.24807413  0.56063745
   0.66552459  0.41787777  0.47255340
   0.83333333  0.08333333  0.38179910
   0.58333333  0.58333333  0.38179910
   0.58333333  0.83333333  0.38179910
  -0.00121151  0.75097331  0.55793823
   0.51042221  0.24152320  0.56369916
   0.41662163  0.41520906  0.47302405
   0.16996341  0.16480606  0.47159259
   0.25987105 -0.00197083  0.56163061
   0.58333333  0.33333333  0.38179910
   0.25751667  0.75704403  0.56253419
   0.33333333  0.83333333  0.38179910
   0.24677509  0.24679442  0.56168001
   0.33333333  0.58333333  0.38179910
   0.16399585  0.66924537  0.47057720
   0.08036819  0.84564006  0.61056241
   0.06626433  0.57026648  0.61167478
   0.34867848  0.30830849  0.61370727
   0.08102659  0.08521966  0.61035798
   0.81025063  0.85436051  0.60971838
   0.58457725  0.58152279  0.60862121
   0.34692920  0.58277808  0.61202861
   0.57749402  0.84306957  0.60585896
   0.08333333  0.83333333  0.38179910
   0.50131735  0.00410664  0.55830267
   0.75436043  0.74232220  0.56536317
   0.33333333  0.33333333  0.38179910
   0.33333333  0.08333333  0.38179910
   0.16625001  0.91592714  0.47233223
   0.91683644  0.91951691  0.47265684
   0.41679739  0.66909992  0.47461422
   0.50729289  0.48760066  0.56531176
   0.41710452  0.91469281  0.47219568
   0.49739713  0.75298349  0.56301371
  -0.00218322  0.49639627  0.56094374
   0.91449053  0.66847716  0.47188646
   0.66653103  0.16368335  0.47293581
   0.74667665  0.00372737  0.56126935
   0.83333333  0.33333333  0.38179910
   0.08333333  0.58333333  0.38179910
   0.83333333  0.58333333  0.38179910
   0.66498391  0.66996088  0.47258708
  -0.01009398  0.00757040  0.56379320
   0.91841572  0.16292805  0.47255871
   0.16622079  0.41763115  0.47039728
   0.58333333  0.08333333  0.38179910
   0.41835345  0.16505503  0.47044596
Direct configuration=    10
   0.08333333  0.08333333  0.38179910
   0.25017735  0.49681234  0.55921842
   0.66791579  0.91596514  0.47259189
   0.83333333  0.83333333  0.38179910
   0.75667386  0.49839335  0.56460556
   0.08333333  0.33333333  0.38179910
   0.91568467  0.41955800  0.47235376
  -0.00454804  0.25851673  0.56475504
   0.75258191  0.24914815  0.56172855
   0.66563822  0.41790006  0.47304522
   0.83333333  0.08333333  0.38179910
   0.58333333  0.58333333  0.38179910
   0.58333333  0.83333333  0.38179910
  -0.00141214  0.75152042  0.55837865
   0.51013583  0.24252351  0.56467815
   0.41790867  0.41454235  0.47320272
   0.16948115  0.16478170  0.47189942
   0.25913685 -0.00117575  0.56241659
   0.58333333  0.33333333  0.38179910
   0.25645290  0.75566692  0.56353029
   0.33333333  0.83333333  0.38179910
   0.24625845  0.24914213  0.56245355
   0.33333333  0.58333333  0.38179910
   0.16514350  0.66919851  0.47040817
   0.08005864  0.84617371  0.61056930
   0.06465755  0.56933536  0.61257996
   0.35017610  0.30474556  0.61461108
   0.08143967  0.08555672  0.61142712
   0.80814434  0.85664250  0.61047815
   0.58528373  0.58101446  0.60925177
   0.34784277  0.58274436  0.61196811
   0.57706038  0.84424296  0.60612182
   0.08333333  0.83333333  0.38179910
   0.50289558  0.00282793  0.55820205
   0.75336405  0.74372049  0.56617595
   0.33333333  0.33333333  0.38179910
   0.33333333  0.08333333  0.38179910
   0.16600560  0.91654333  0.47311837
   0.91605700  0.92063626  0.47295608
   0.41710350  0.66824484  0.47517944
   0.50790386  0.48659014  0.56613724
   0.41740628  0.91472241  0.47232496
   0.49911918  0.75326790  0.56302937
  -0.00162080  0.49425470  0.56066269
   0.91465508  0.66761895  0.47220022
   0.66644593  0.16451390  0.47329691
   0.74702864  0.00315868  0.56149436
   0.83333333  0.33333333  0.38179910
   0.08333333  0.58333333  0.38179910
   0.83333333  0.58333333  0.38179910
   0.66470416  0.66933937  0.47331192
  -0.01034783  0.00757816  0.56392331
   0.91825213  0.16351297  0.47324036
   0.16586951  0.41725962  0.47082457
   0.58333333  0.08333333  0.38179910
   0.41816666  0.16582398  0.47093324
Direct configuration=    11
   0.08333333  0.08333333  0.38179910
   0.24949217  0.49700935  0.55967480
   0.66816351  0.91580291  0.47269808
   0.83333333  0.83333333  0.38179910
   0.75787336  0.49780215  0.56525933
   0.08333333  0.33333333  0.38179910
   0.91519608  0.41942253  0.47237011
  -0.00465745  0.25872459  0.56550053
   0.75273250  0.24930926  0.56269151
   0.66604429  0.41778351  0.47330519
   0.83333333  0.08333333  0.38179910
   0.58333333  0.58333333  0.38179910
   0.58333333  0.83333333  0.38179910
  -0.00175838  0.75060166  0.55887754
   0.51124150  0.24219857  0.56531142
   0.41840862  0.41415619  0.47323583
   0.16951559  0.16471050  0.47215144
   0.25931924 -0.00121976  0.56303537
   0.58333333  0.33333333  0.38179910
   0.25672274  0.75520648  0.56405341
   0.33333333  0.83333333  0.38179910
   0.24612414  0.24942842  0.56290390
   0.33333333  0.58333333  0.38179910
   0.16548734  0.66919859  0.47023334
   0.07933306  0.84671925  0.61084812
   0.06317998  0.56848121  0.61290482
   0.35126217  0.30203340  0.61602583
   0.08158780  0.08522439  0.61243520
   0.80678129  0.85794454  0.61137130
   0.58462817  0.58146707  0.61011798
   0.34825366  0.58239997  0.61222216
   0.57663794  0.84508294  0.60664387
   0.08333333  0.83333333  0.38179910
   0.50303182  0.00271530  0.55809131
   0.75351263  0.74449680  0.56691581
   0.33333333  0.33333333  0.38179910
   0.33333333  0.08333333  0.38179910
   0.16605282  0.91673094  0.47367844
   0.91579662  0.92110703  0.47303725
   0.41711821  0.66806399  0.47565109
   0.50790153  0.48684401  0.56686292
   0.41727862  0.91488352  0.47239716
   0.49906066  0.75363231  0.56307099
  -0.00173508  0.49459979  0.56076079
   0.91499063  0.66718619  0.47242561
   0.66649982  0.16502288  0.47368837
   0.74699753  0.00371183  0.56153601
   0.83333333  0.33333333  0.38179910
   0.08333333  0.58333333  0.38179910
   0.83333333  0.58333333  0.38179910
   0.66469681  0.66888487  0.47373699
  -0.00954292  0.00741683  0.56421711
   0.91796135  0.16405320  0.47369563
   0.16592199  0.41707942  0.47094619
   0.58333333  0.08333333  0.38179910
   0.41799213  0.16627018  0.47126645
Direct configuration=    12
   0.08333333  0.08333333  0.38179910
   0.24803743  0.49742763  0.56064376
   0.66868946  0.91545849  0.47292354
   0.83333333  0.83333333  0.38179910
   0.76042005  0.49654696  0.56664735
   0.08333333  0.33333333  0.38179910
   0.91415873  0.41913490  0.47240483
  -0.00488976  0.25916592  0.56708330
   0.75305223  0.24965133  0.56473600
   0.66690644  0.41753606  0.47385713
   0.83333333  0.08333333  0.38179910
   0.58333333  0.58333333  0.38179910
   0.58333333  0.83333333  0.38179910
  -0.00249350  0.74865100  0.55993675
   0.51358898  0.24150869  0.56665594
   0.41947010  0.41333633  0.47330611
   0.16958872  0.16455932  0.47268651
   0.25970648 -0.00131319  0.56434912
   0.58333333  0.33333333  0.38179910
   0.25729564  0.75422893  0.56516406
   0.33333333  0.83333333  0.38179910
   0.24583899  0.25003624  0.56386005
   0.33333333  0.58333333  0.38179910
   0.16621734  0.66919877  0.46986216
   0.07779256  0.84787750  0.61144010
   0.06004291  0.56666774  0.61359454
   0.35356802  0.29627515  0.61902953
   0.08190231  0.08451880  0.61457549
   0.80388735  0.86070892  0.61326759
   0.58323633  0.58242802  0.61195706
   0.34912604  0.58166879  0.61276154
   0.57574105  0.84686633  0.60775224
   0.08333333  0.83333333  0.38179910
   0.50332107  0.00247617  0.55785619
   0.75382810  0.74614500  0.56848661
   0.33333333  0.33333333  0.38179910
   0.33333333  0.08333333  0.38179910
   0.16615307  0.91712924  0.47486755
   0.91524381  0.92210654  0.47320958
   0.41714943  0.66768002  0.47665245
   0.50789659  0.48738302  0.56840363
   0.41700758  0.91522558  0.47255044
   0.49893640  0.75440600  0.56315935
  -0.00197771  0.49533244  0.56096906
   0.91570304  0.66626737  0.47290415
   0.66661422  0.16610351  0.47451950
   0.74693149  0.00488625  0.56162445
   0.83333333  0.33333333  0.38179910
   0.08333333  0.58333333  0.38179910
   0.83333333  0.58333333  0.38179910
   0.66468120  0.66791993  0.47463946
  -0.00783400  0.00707431  0.56484089
   0.91734397  0.16520020  0.47466224
   0.16603342  0.41669684  0.47120442
   0.58333333  0.08333333  0.38179910
   0.41762159  0.16721752  0.47197389
Direct configuration=    13
   0.08333333  0.08333333  0.38179910
   0.24823224  0.49699106  0.56124282
   0.66902330  0.91521179  0.47266563
   0.83333333  0.83333333  0.38179910
   0.76023901  0.49771754  0.56771864
   0.08333333  0.33333333  0.38179910
   0.91411488  0.41876731  0.47260729
  -0.00382661  0.25817906  0.56812838
   0.75328350  0.24911910  0.56589297
   0.66706325  0.41743515  0.47424250
   0.83333333  0.08333333  0.38179910
   0.58333333  0.58333333  0.38179910
   0.58333333  0.83333333  0.38179910
  -0.00311768  0.74806124  0.56054418
   0.51232136  0.24183754  0.56788429
   0.41879793  0.41371250  0.47361655
   0.16989592  0.16464252  0.47310795
   0.26014810 -0.00152114  0.56516100
   0.58333333  0.33333333  0.38179910
   0.25760473  0.75534890  0.56542240
   0.33333333  0.83333333  0.38179910
   0.24718818  0.24885785  0.56452668
   0.33333333  0.58333333  0.38179910
   0.16548638  0.66936591  0.46995883
   0.07690695  0.84766634  0.61205636
   0.05871805  0.56605470  0.61429156
   0.35577690  0.29240264  0.62037760
   0.08196762  0.08375173  0.61555073
   0.80220340  0.86313329  0.61415117
   0.58254095  0.58410210  0.61263569
   0.34794311  0.58121984  0.61392209
   0.57468691  0.84762202  0.60826018
   0.08333333  0.83333333  0.38179910
   0.50209089  0.00360095  0.55786259
   0.75408265  0.74662574  0.56956187
   0.33333333  0.33333333  0.38179910
   0.33333333  0.08333333  0.38179910
   0.16643242  0.91690963  0.47533579
   0.91599125  0.92148139  0.47335824
   0.41705639  0.66797297  0.47711684
   0.50906592  0.48761791  0.56888820
   0.41658321  0.91540381  0.47259573
   0.49902755  0.75378825  0.56388977
  -0.00306236  0.49663059  0.56086848
   0.91602487  0.66637549  0.47298432
   0.66695844  0.16617779  0.47504154
   0.74832087  0.00411000  0.56199462
   0.83333333  0.33333333  0.38179910
   0.08333333  0.58333333  0.38179910
   0.83333333  0.58333333  0.38179910
   0.66496386  0.66794369  0.47493818
  -0.00646127  0.00722646  0.56537283
   0.91719767  0.16544422  0.47513025
   0.16638620  0.41678259  0.47117438
   0.58333333  0.08333333  0.38179910
   0.41770041  0.16710761  0.47226396
Direct configuration=    14
   0.08333333  0.08333333  0.38179910
   0.24848256  0.49643008  0.56201257
   0.66945226  0.91489479  0.47233422
   0.83333333  0.83333333  0.38179910
   0.76000638  0.49922168  0.56909520
   0.08333333  0.33333333  0.38179910
   0.91405854  0.41829496  0.47286744
  -0.00246052  0.25691100  0.56947127
   0.75358067  0.24843521  0.56737962
   0.66726475  0.41730547  0.47473768
   0.83333333  0.08333333  0.38179910
   0.58333333  0.58333333  0.38179910
   0.58333333  0.83333333  0.38179910
  -0.00391971  0.74730342  0.56132470
   0.51069254  0.24226008  0.56946266
   0.41793422  0.41419587  0.47401544
   0.17029067  0.16474943  0.47364948
   0.26071556 -0.00178836  0.56620421
   0.58333333  0.33333333  0.38179910
   0.25800190  0.75678801  0.56575436
   0.33333333  0.83333333  0.38179910
   0.24892183  0.24734370  0.56538325
   0.33333333  0.58333333  0.38179910
   0.16454714  0.66958067  0.47008304
   0.07576899  0.84739502  0.61284821
   0.05701569  0.56526698  0.61518719
   0.35861518  0.28742666  0.62210980
   0.08205153  0.08276610  0.61680386
   0.80003962  0.86624848  0.61528652
   0.58164743  0.58625320  0.61350768
   0.34642310  0.58064296  0.61541333
   0.57333239  0.84859304  0.60891286
   0.08333333  0.83333333  0.38179910
   0.50051018  0.00504623  0.55787081
   0.75440974  0.74724346  0.57094351
   0.33333333  0.33333333  0.38179910
   0.33333333  0.08333333  0.38179910
   0.16679137  0.91662745  0.47593745
   0.91695167  0.92067810  0.47354927
   0.41693683  0.66834940  0.47771354
   0.51056844  0.48791972  0.56951085
   0.41603792  0.91563283  0.47265393
   0.49914466  0.75299448  0.56482833
  -0.00445607  0.49829864  0.56073923
   0.91643841  0.66651440  0.47308734