<?xml version="1.0" encoding="ISO-8859-1"?>
<modeling>
 <generator>
  <i name="program" type="string">vasp </i>
  <i name="version" type="string">5.4.1  </i>
  <i name="subversion" type="string">24Jun15 (build Mar 14 2019 10:18:33) complex                          parallel </i>
  <i name="platform" type="string">INTEL-19.0.2+OPENMPI-3.1.3 </i>
  <i name="date" type="string">2023 01 22 </i>
  <i name="time" type="string">14:11:48 </i>
 </generator>
 <incar>
  <i type="int" name="ISTART">     0</i>
  <i type="string" name="PREC">normal</i>
  <i type="string" name="ALGO"> Fast</i>
  <i type="int" name="NELM">   500</i>
  <i type="int" name="IBRION">     2</i>
  <i type="int" name="NFREE">     2</i>
  <i name="EDIFF">      0.00000100</i>
  <i name="EDIFFG">     -0.02000000</i>
  <i type="int" name="NSW">   500</i>
  <i type="int" name="ISIF">     0</i>
  <i type="int" name="ISYM">     2</i>
  <i name="ENCUT">    400.00000000</i>
  <i name="POTIM">      0.35000000</i>
  <i type="string" name="LREAL"> Auto</i>
  <i type="logical" name="LPLANE"> T  </i>
  <i type="int" name="ISMEAR">     0</i>
  <i name="SIGMA">      0.10000000</i>
  <i type="int" name="NWRITE">     1</i>
  <i type="logical" name="LWAVE"> F  </i>
  <i type="logical" name="LCHARG"> F  </i>
  <i type="logical" name="LVTOT"> F  </i>
  <i type="logical" name="LORBIT"> F  </i>
  <i type="logical" name="LAECHG"> F  </i>
  <v type="int" name="KPOINT_BSE">    -1     0     0     0</v>
  <i type="int" name="NELM">   500</i>
  <i type="string" name="GGA"> PE          ! optPBE-vdW XC-functional</i>
  <i type="int" name="VOSKOWN">     1</i>
  <i type="logical" name="LDIPOL"> T  </i>
  <i type="logical" name="LMONO"> F  </i>
  <i type="int" name="IDIPOL">     3</i>
  <v name="DIPOL">      0.00000000      0.00000000      0.50000000</v>
 </incar>
 <kpoints>
  <generation param="Monkhorst-Pack">
   <v type="int" name="divisions">       2        2        1 </v>
   <v name="usershift">      0.00000000       0.00000000       0.00000000 </v>
   <v name="genvec1">      0.50000000       0.00000000       0.00000000 </v>
   <v name="genvec2">      0.00000000       0.50000000       0.00000000 </v>
   <v name="genvec3">      0.00000000       0.00000000       1.00000000 </v>
   <v name="shift">      0.50000000       0.50000000       0.00000000 </v>
  </generation>
  <varray name="kpointlist" >
   <v>       0.25000000       0.25000000       0.00000000 </v>
   <v>       0.00000000       0.25000000       0.00000000 </v>
   <v>      -0.25000000       0.00000000       0.00000000 </v>
   <v>      -0.25000000       0.25000000       0.00000000 </v>
   <v>       0.50000000      -0.25000000       0.00000000 </v>
   <v>      -0.25000000       0.50000000       0.00000000 </v>
  </varray>
  <varray name="weights" >
   <v>       0.16666667 </v>
   <v>       0.16666667 </v>
   <v>       0.16666667 </v>
   <v>       0.16666667 </v>
   <v>       0.16666667 </v>
   <v>       0.16666667 </v>
  </varray>
 </kpoints>
 <parameters>
  <separator name="general" >
   <i type="string" name="SYSTEM">unknown system</i>
   <i type="logical" name="LCOMPAT"> F  </i>
  </separator>
  <separator name="electronic" >
   <i type="string" name="PREC">normal</i>
   <i name="ENMAX">    400.00000000</i>
   <i name="ENAUG">    605.39200000</i>
   <i name="EDIFF">      0.00000100</i>
   <i type="int" name="IALGO">    68</i>
   <i type="int" name="IWAVPR">    11</i>
   <i type="int" name="NBANDS">   336</i>
   <i name="NELECT">    552.00000000</i>
   <i type="int" name="TURBO">     0</i>
   <i type="int" name="IRESTART">     0</i>
   <i type="int" name="NREBOOT">     0</i>
   <i type="int" name="NMIN">     0</i>
   <i name="EREF">      0.00000000</i>
   <separator name="electronic smearing" >
    <i type="int" name="ISMEAR">     0</i>
    <i name="SIGMA">      0.10000000</i>
    <i name="KSPACING">      0.50000000</i>
    <i type="logical" name="KGAMMA"> T  </i>
   </separator>
   <separator name="electronic projectors" >
    <i type="logical" name="LREAL"> T  </i>
    <v name="ROPT">     -0.00050000     -0.00050000     -0.00050000</v>
    <i type="int" name="LMAXPAW">  -100</i>
    <i type="int" name="LMAXMIX">     2</i>
    <i type="logical" name="NLSPLINE"> F  </i>
   </separator>
   <separator name="electronic startup" >
    <i type="int" name="ISTART">     0</i>
    <i type="int" name="ICHARG">     2</i>
    <i type="int" name="INIWAV">     1</i>
   </separator>
   <separator name="electronic spin" >
    <i type="int" name="ISPIN">     1</i>
    <i type="logical" name="LNONCOLLINEAR"> F  </i>
    <v name="MAGMOM">      1.00000000      1.00000000      1.00000000      1.00000000      1.00000000      1.00000000      1.00000000      1.00000000      1.00000000      1.00000000      1.00000000      1.00000000      1.00000000      1.00000000      1.00000000      1.00000000      1.00000000      1.00000000      1.00000000      1.00000000
      1.00000000      1.00000000      1.00000000      1.00000000      1.00000000      1.00000000      1.00000000      1.00000000      1.00000000      1.00000000      1.00000000      1.00000000      1.00000000      1.00000000      1.00000000      1.00000000      1.00000000      1.00000000      1.00000000      1.00000000
      1.00000000      1.00000000      1.00000000      1.00000000      1.00000000      1.00000000      1.00000000      1.00000000      1.00000000      1.00000000      1.00000000      1.00000000      1.00000000      1.00000000      1.00000000      1.00000000</v>
    <i name="NUPDOWN">     -1.00000000</i>
    <i type="logical" name="LSORBIT"> F  </i>
    <v name="SAXIS">      0.00000000      0.00000000      1.00000000</v>
    <i type="logical" name="LSPIRAL"> F  </i>
    <v name="QSPIRAL">      0.00000000      0.00000000      0.00000000</v>
    <i type="logical" name="LZEROZ"> F  </i>
   </separator>
   <separator name="electronic exchange-correlation" >
    <i type="logical" name="LASPH"> F  </i>
    <i type="logical" name="LMETAGGA"> F  </i>
   </separator>
   <separator name="electronic convergence" >
    <i type="int" name="NELM">   500</i>
    <i type="int" name="NELMDL">    -5</i>
    <i type="int" name="NELMIN">     2</i>
    <i name="ENINI">    400.00000000</i>
    <separator name="electronic convergence detail" >
     <i type="logical" name="LDIAG"> T  </i>
     <i type="logical" name="LSUBROT"> F  </i>
     <i name="WEIMIN">      0.00100000</i>
     <i name="EBREAK">      0.00000000</i>
     <i name="DEPER">      0.30000000</i>
     <i type="int" name="NRMM">     4</i>
     <i name="TIME">      0.40000000</i>
    </separator>
   </separator>
   <separator name="electronic mixer" >
    <i name="AMIX">      0.40000000</i>
    <i name="BMIX">      1.00000000</i>
    <i name="AMIN">      0.10000000</i>
    <i name="AMIX_MAG">      1.60000000</i>
    <i name="BMIX_MAG">      1.00000000</i>
    <separator name="electronic mixer details" >
     <i type="int" name="IMIX">     4</i>
     <i type="logical" name="MIXFIRST"> F  </i>
     <i type="int" name="MAXMIX">   -45</i>
     <i name="WC">    100.00000000</i>
     <i type="int" name="INIMIX">     1</i>
     <i type="int" name="MIXPRE">     1</i>
     <i type="int" name="MREMOVE">     5</i>
    </separator>
   </separator>
   <separator name="electronic dipolcorrection" >
    <i type="logical" name="LDIPOL"> T  </i>
    <i type="logical" name="LMONO"> F  </i>
    <i type="int" name="IDIPOL">     3</i>
    <i name="EPSILON">      1.00000000</i>
    <v name="DIPOL">      0.00000000      0.00000000      0.50000000</v>
    <i name="EFIELD">      0.00000000</i>
   </separator>
  </separator>
  <separator name="grids" >
   <i type="int" name="NGX">    54</i>
   <i type="int" name="NGY">    54</i>
   <i type="int" name="NGZ">   128</i>
   <i type="int" name="NGXF">   108</i>
   <i type="int" name="NGYF">   108</i>
   <i type="int" name="NGZF">   256</i>
   <i type="logical" name="ADDGRID"> F  </i>
  </separator>
  <separator name="ionic" >
   <i type="int" name="NSW">   500</i>
   <i type="int" name="IBRION">     2</i>
   <i type="int" name="ISIF">     0</i>
   <i name="PSTRESS">      0.00000000</i>
   <i name="EDIFFG">     -0.02000000</i>
   <i type="int" name="NFREE">     2</i>
   <i name="POTIM">      0.35000000</i>
   <i name="SMASS">     -3.00000000</i>
   <i name="SCALEE">      1.00000000</i>
  </separator>
  <separator name="ionic md" >
   <i name="TEBEG">      0.00010000</i>
   <i name="TEEND">      0.00010000</i>
   <i type="int" name="NBLOCK">     1</i>
   <i type="int" name="KBLOCK">   500</i>
   <i type="int" name="NPACO">   256</i>
   <i name="APACO">     16.00000000</i>
  </separator>
  <separator name="symmetry" >
   <i type="int" name="ISYM">     2</i>
   <i name="SYMPREC">      0.00001000</i>
  </separator>
  <separator name="dos" >
   <i type="logical" name="LORBIT"> F  </i>
   <v name="RWIGS">     -1.00000000     -1.00000000     -1.00000000</v>
   <i type="int" name="NEDOS">   301</i>
   <i name="EMIN">     10.00000000</i>
   <i name="EMAX">    -10.00000000</i>
   <i name="EFERMI">      0.00000000</i>
  </separator>
  <separator name="writing" >
   <i type="int" name="NWRITE">     1</i>
   <i type="logical" name="LWAVE"> F  </i>
   <i type="logical" name="LCHARG"> F  </i>
   <i type="logical" name="LPARD"> F  </i>
   <i type="logical" name="LVTOT"> F  </i>
   <i type="logical" name="LVHAR"> F  </i>
   <i type="logical" name="LELF"> F  </i>
   <i type="logical" name="LOPTICS"> F  </i>
   <v name="STM">      0.00000000      0.00000000      0.00000000      0.00000000      0.00000000      0.00000000      0.00000000</v>
  </separator>
  <separator name="performance" >
   <i type="int" name="NPAR">     6</i>
   <i type="int" name="NSIM">     4</i>
   <i type="int" name="NBLK">    -1</i>
   <i type="logical" name="LPLANE"> T  </i>
   <i type="logical" name="LSCALAPACK"> T  </i>
   <i type="logical" name="LSCAAWARE"> F  </i>
   <i type="logical" name="LSCALU"> F  </i>
   <i type="logical" name="LASYNC"> F  </i>
   <i type="logical" name="LORBITALREAL"> F  </i>
  </separator>
  <separator name="miscellaneous" >
   <i type="int" name="IDIOT">     3</i>
   <i type="logical" name="LMUSIC"> F  </i>
   <v name="POMASS">    196.96600000     16.00000000    106.42000000</v>
   <v name="DARWINR">      0.00000000      0.00000000      0.00000000</v>
   <v name="DARWINV">      1.00000000      1.00000000      1.00000000</v>
   <i type="logical" name="LCORR"> T  </i>
  </separator>
  <i type="logical" name="GGA_COMPAT"> T  </i>
  <i type="logical" name="LBERRY"> F  </i>
  <i type="int" name="ICORELEVEL">     0</i>
  <i type="logical" name="LDAU"> F  </i>
  <i type="int" name="I_CONSTRAINED_M">     0</i>
  <separator name="electronic exchange-correlation" >
   <i type="string" name="GGA">PE</i>
   <i type="int" name="VOSKOWN">     1</i>
   <i type="logical" name="LHFCALC"> F  </i>
   <i type="string" name="PRECFOCK"></i>
   <i type="logical" name="LSYMGRAD"> F  </i>
   <i type="logical" name="LHFONE"> F  </i>
   <i type="logical" name="LRHFCALC"> F  </i>
   <i type="logical" name="LTHOMAS"> F  </i>
   <i type="logical" name="LMODELHF"> F  </i>
   <i name="ENCUT4O">     -1.00000000</i>
   <i type="int" name="EXXOEP">     0</i>
   <i type="int" name="FOURORBIT">     0</i>
   <i name="AEXX">      0.00000000</i>
   <i name="HFALPHA">      0.00000000</i>
   <i name="MCALPHA">      0.00000000</i>
   <i name="ALDAX">      1.00000000</i>
   <i name="AGGAX">      1.00000000</i>
   <i name="ALDAC">      1.00000000</i>
   <i name="AGGAC">      1.00000000</i>
   <i type="int" name="NKREDX">     1</i>
   <i type="int" name="NKREDY">     1</i>
   <i type="int" name="NKREDZ">     1</i>
   <i type="logical" name="SHIFTRED"> F  </i>
   <i type="logical" name="ODDONLY"> F  </i>
   <i type="logical" name="EVENONLY"> F  </i>
   <i type="int" name="LMAXFOCK">     0</i>
   <i type="int" name="NMAXFOCKAE">     0</i>
   <i type="logical" name="LFOCKAEDFT"> F  </i>
   <i name="HFSCREEN">      0.00000000</i>
   <i name="HFSCREENC">      0.00000000</i>
   <i type="int" name="NBANDSGWLOW">     0</i>
  </separator>
  <separator name="vdW DFT" >
   <i type="logical" name="LUSE_VDW"> F  </i>
   <i name="Zab_VDW">     -0.84910000</i>
   <i name="PARAM1">      0.12340000</i>
   <i name="PARAM2">      1.00000000</i>
   <i name="PARAM3">      0.00000000</i>
  </separator>
  <separator name="model GW" >
   <i type="int" name="MODEL_GW">     0</i>
   <i name="MODEL_EPS0">     29.42037089</i>
   <i name="MODEL_ALPHA">      1.00000000</i>
  </separator>
  <separator name="linear response parameters" >
   <i type="logical" name="LEPSILON"> F  </i>
   <i type="logical" name="LRPA"> F  </i>
   <i type="logical" name="LNABLA"> F  </i>
   <i type="logical" name="LVEL"> F  </i>
   <i type="int" name="KINTER">     0</i>
   <i name="CSHIFT">      0.10000000</i>
   <i name="OMEGAMAX">     -1.00000000</i>
   <i name="DEG_THRESHOLD">      0.00200000</i>
  </separator>
  <separator name="orbital magnetization" >
   <i type="logical" name="NUCIND"> F  </i>
   <v name="MAGPOS">      0.00000000      0.00000000      0.00000000</v>
   <i type="logical" name="LNICSALL"> T  </i>
   <i type="logical" name="ORBITALMAG"> F  </i>
   <i type="logical" name="LMAGBLOCH"> F  </i>
   <i type="logical" name="LCHIMAG"> F  </i>
   <i type="logical" name="LGAUGE"> T  </i>
   <i type="int" name="MAGATOM">     0</i>
   <v name="MAGDIPOL">      0.00000000      0.00000000      0.00000000</v>
   <v name="AVECCONST">      0.00000000      0.00000000      0.00000000</v>
  </separator>
  <separator name="response functions" >
   <i type="logical" name="LADDER"> F  </i>
   <i type="logical" name="LFXC"> F  </i>
   <i type="logical" name="LHARTREE"> T  </i>
   <i type="int" name="IBSE">     0</i>
   <v type="int" name="KPOINT">    -1     0     0     0</v>
   <i type="logical" name="LTCTE"> F  </i>
   <i type="logical" name="LTETE"> F  </i>
   <i type="logical" name="LTRIPLET"> F  </i>
   <i type="logical" name="LFXCEPS"> F  </i>
   <i type="logical" name="LFXHEG"> F  </i>
   <i type="int" name="NATURALO">     0</i>
   <i type="logical" name="L2ORDER"> F  </i>
   <i type="logical" name="LUSEW"> F  </i>
   <i name="ENCUTGW">     -2.00000000</i>
   <i name="ENCUTGWSOFT">     -2.00000000</i>
   <i name="ENCUTLF">     -1.00000000</i>
   <i type="int" name="LMAXMP2">    -1</i>
   <i name="SCISSOR">      0.00000000</i>
   <i type="int" name="NOMEGA">     0</i>
   <i type="int" name="NOMEGAR">     0</i>
   <i type="int" name="NBANDSGW">    -1</i>
   <i type="int" name="NBANDSO">    -1</i>
   <i type="int" name="NBANDSV">    -1</i>
   <i type="int" name="NELM">   500</i>
   <i type="int" name="NELMHF">     1</i>
   <i type="int" name="DIM">     3</i>
   <i type="int" name="ANTIRES">     0</i>
   <i name="OMEGAMAX">    -30.00000000</i>
   <i name="OMEGAMIN">    -30.00000000</i>
   <i name="OMEGATL">   -200.00000000</i>
   <i type="int" name="OMEGAGRID">     0</i>
   <i name="CSHIFT">     -0.10000000</i>
   <i type="logical" name="SELFENERGY"> F  </i>
   <i type="logical" name="LSPECTRAL"> F  </i>
   <i type="logical" name="LSPECTRALGW"> F  </i>
   <i type="logical" name="LSINGLES"> F  </i>
   <i type="logical" name="LFERMIGW"> F  </i>
   <i type="logical" name="ODDONLYGW"> F  </i>
   <i type="logical" name="EVENONLYGW"> F  </i>
   <i type="int" name="NKREDLFX">     1</i>
   <i type="int" name="NKREDLFY">     1</i>
   <i type="int" name="NKREDLFZ">     1</i>
   <i type="int" name="MAXMEM">  1800</i>
   <i type="int" name="TELESCOPE">     0</i>
   <i type="int" name="TAUPAR">     1</i>
   <i type="int" name="OMEGAPAR">    -1</i>
   <i name="LAMBDA">      1.00000000</i>
  </separator>
  <separator name="External order field" >
   <i name="OFIELD_KAPPA">      0.00000000</i>
   <v name="OFIELD_K">      0.00000000      0.00000000      0.00000000</v>
   <i name="OFIELD_Q6_NEAR">      0.00000000</i>
   <i name="OFIELD_Q6_FAR">      0.00000000</i>
   <i name="OFIELD_A">      0.00000000</i>
  </separator>
 </parameters>
 <atominfo>
  <atoms>      56 </atoms>
  <types>       3 </types>
  <array name="atoms" >
   <dimension dim="1">ion</dimension>
   <field type="string">element</field>
   <field type="int">atomtype</field>
   <set>
    <rc><c>Au</c><c>   1</c></rc>
    <rc><c>Au</c><c>   1</c></rc>
    <rc><c>Au</c><c>   1</c></rc>
    <rc><c>Au</c><c>   1</c></rc>
    <rc><c>Au</c><c>   1</c></rc>
    <rc><c>Au</c><c>   1</c></rc>
    <rc><c>Au</c><c>   1</c></rc>
    <rc><c>Au</c><c>   1</c></rc>
    <rc><c>Au</c><c>   1</c></rc>
    <rc><c>Au</c><c>   1</c></rc>
    <rc><c>Au</c><c>   1</c></rc>
    <rc><c>Au</c><c>   1</c></rc>
    <rc><c>Au</c><c>   1</c></rc>
    <rc><c>Au</c><c>   1</c></rc>
    <rc><c>Au</c><c>   1</c></rc>
    <rc><c>Au</c><c>   1</c></rc>
    <rc><c>Au</c><c>   1</c></rc>
    <rc><c>Au</c><c>   1</c></rc>
    <rc><c>Au</c><c>   1</c></rc>
    <rc><c>Au</c><c>   1</c></rc>
    <rc><c>Au</c><c>   1</c></rc>
    <rc><c>Au</c><c>   1</c></rc>
    <rc><c>Au</c><c>   1</c></rc>
    <rc><c>Au</c><c>   1</c></rc>
    <rc><c>O </c><c>   2</c></rc>
    <rc><c>O </c><c>   2</c></rc>
    <rc><c>O </c><c>   2</c></rc>
    <rc><c>O </c><c>   2</c></rc>
    <rc><c>O </c><c>   2</c></rc>
    <rc><c>O </c><c>   2</c></rc>
    <rc><c>O </c><c>   2</c></rc>
    <rc><c>O </c><c>   2</c></rc>
    <rc><c>Pd</c><c>   3</c></rc>
    <rc><c>Pd</c><c>   3</c></rc>
    <rc><c>Pd</c><c>   3</c></rc>
    <rc><c>Pd</c><c>   3</c></rc>
    <rc><c>Pd</c><c>   3</c></rc>
    <rc><c>Pd</c><c>   3</c></rc>
    <rc><c>Pd</c><c>   3</c></rc>
    <rc><c>Pd</c><c>   3</c></rc>
    <rc><c>Pd</c><c>   3</c></rc>
    <rc><c>Pd</c><c>   3</c></rc>
    <rc><c>Pd</c><c>   3</c></rc>
    <rc><c>Pd</c><c>   3</c></rc>
    <rc><c>Pd</c><c>   3</c></rc>
    <rc><c>Pd</c><c>   3</c></rc>
    <rc><c>Pd</c><c>   3</c></rc>
    <rc><c>Pd</c><c>   3</c></rc>
    <rc><c>Pd</c><c>   3</c></rc>
    <rc><c>Pd</c><c>   3</c></rc>
    <rc><c>Pd</c><c>   3</c></rc>
    <rc><c>Pd</c><c>   3</c></rc>
    <rc><c>Pd</c><c>   3</c></rc>
    <rc><c>Pd</c><c>   3</c></rc>
    <rc><c>Pd</c><c>   3</c></rc>
    <rc><c>Pd</c><c>   3</c></rc>
   </set>
  </array>
  <array name="atomtypes" >
   <dimension dim="1">type</dimension>
   <field type="int">atomspertype</field>
   <field type="string">element</field>
   <field>mass</field>
   <field>valence</field>
   <field type="string">pseudopotential</field>
   <set>
    <rc><c>  24</c><c>Au</c><c>    196.96600000</c><c>     11.00000000</c><c>  PAW_PBE Au 04Oct2007                  </c></rc>
    <rc><c>   8</c><c>O </c><c>     16.00000000</c><c>      6.00000000</c><c>  PAW_PBE O 08Apr2002                   </c></rc>
    <rc><c>  24</c><c>Pd</c><c>    106.42000000</c><c>     10.00000000</c><c>  PAW_PBE Pd 04Jan2005                  </c></rc>
   </set>
  </array>
 </atominfo>
 <structure name="initialpos" >
  <crystal>
   <varray name="basis" >
    <v>      11.00258152       0.00000000       0.00000000 </v>
    <v>       5.50129076       9.52851510       0.00000000 </v>
    <v>       0.00000000       0.00000000      26.19178509 </v>
   </varray>
   <i name="volume">   2745.90128299 </i>
   <varray name="rec_basis" >
    <v>       0.09088776      -0.05247407       0.00000000 </v>
    <v>       0.00000000       0.10494815       0.00000000 </v>
    <v>       0.00000000       0.00000000       0.03817991 </v>
   </varray>
  </crystal>
  <varray name="positions" >
   <v>       0.25000000       0.50000000       0.55329505 </v>
   <v>       0.41666667       0.16666667       0.46754708 </v>
   <v>       0.50000000       0.00000000       0.55329505 </v>
   <v>       0.91666667       0.16666667       0.46754708 </v>
   <v>       0.00000000       0.00000000       0.55329505 </v>
   <v>       0.75000000       0.50000000       0.55329505 </v>
   <v>       0.83333333       0.58333333       0.38179910 </v>
   <v>       0.75000000       0.25000000       0.55329505 </v>
   <v>       0.00000000       0.25000000       0.55329505 </v>
   <v>       0.66666667       0.41666667       0.46754708 </v>
   <v>       0.83333333       0.33333333       0.38179910 </v>
   <v>       0.75000000       0.00000000       0.55329505 </v>
   <v>       0.25000000       0.75000000       0.55329505 </v>
   <v>       0.08333333       0.83333333       0.38179910 </v>
   <v>       0.16666667       0.66666667       0.46754708 </v>
   <v>       0.50000000       0.75000000       0.55329505 </v>
   <v>       0.58333333       0.83333333       0.38179910 </v>
   <v>       0.33333333       0.08333333       0.38179910 </v>
   <v>       0.50000000       0.50000000       0.55329505 </v>
   <v>       0.25000000       0.00000000       0.55329505 </v>
   <v>       0.50000000       0.25000000       0.55329505 </v>
   <v>       0.41666667       0.41666667       0.46754708 </v>
   <v>       0.16666667       0.41666667       0.46754708 </v>
   <v>       0.83333333       0.08333333       0.38179910 </v>
   <v>       0.08333333       0.33333333       0.61820090 </v>
   <v>       0.08333333       0.83333333       0.61820090 </v>
   <v>       0.33333333       0.08333333       0.61820090 </v>
   <v>       0.33333333       0.33333333       0.61820090 </v>
   <v>       0.83333333       0.83333333       0.61820090 </v>
   <v>       0.58333333       0.83333333       0.61820090 </v>
   <v>       0.83333333       0.08333333       0.61820090 </v>
   <v>       0.33333333       0.83333333       0.61820090 </v>
   <v>       0.41666667       0.66666667       0.46754708 </v>
   <v>       0.58333333       0.58333333       0.38179910 </v>
   <v>       0.08333333       0.08333333       0.38179910 </v>
   <v>       0.58333333       0.33333333       0.38179910 </v>
   <v>       0.58333333       0.08333333       0.38179910 </v>
   <v>       0.75000000       0.75000000       0.55329505 </v>
   <v>       0.33333333       0.58333333       0.38179910 </v>
   <v>       0.16666667       0.91666667       0.46754708 </v>
   <v>       0.25000000       0.25000000       0.55329505 </v>
   <v>       0.41666667       0.91666667       0.46754708 </v>
   <v>       0.00000000       0.75000000       0.55329505 </v>
   <v>       0.91666667       0.91666667       0.46754708 </v>
   <v>       0.66666667       0.16666667       0.46754708 </v>
   <v>       0.00000000       0.50000000       0.55329505 </v>
   <v>       0.91666667       0.66666667       0.46754708 </v>
   <v>       0.08333333       0.58333333       0.38179910 </v>
   <v>       0.91666667       0.41666667       0.46754708 </v>
   <v>       0.08333333       0.33333333       0.38179910 </v>
   <v>       0.66666667       0.66666667       0.46754708 </v>
   <v>       0.83333333       0.83333333       0.38179910 </v>
   <v>       0.66666667       0.91666667       0.46754708 </v>
   <v>       0.33333333       0.83333333       0.38179910 </v>
   <v>       0.16666667       0.16666667       0.46754708 </v>
   <v>       0.33333333       0.33333333       0.38179910 </v>
  </varray>
  <varray name="selective"  type="logical" >
   <v type="logical" >  T  T  T </v>
   <v type="logical" >  T  T  T </v>
   <v type="logical" >  T  T  T </v>
   <v type="logical" >  T  T  T </v>
   <v type="logical" >  T  T  T </v>
   <v type="logical" >  T  T  T </v>
   <v type="logical" >  F  F  F </v>
   <v type="logical" >  T  T  T </v>
   <v type="logical" >  T  T  T </v>
   <v type="logical" >  T  T  T </v>
   <v type="logical" >  F  F  F </v>
   <v type="logical" >  T  T  T </v>
   <v type="logical" >  T  T  T </v>
   <v type="logical" >  F  F  F </v>
   <v type="logical" >  T  T  T </v>
   <v type="logical" >  T  T  T </v>
   <v type="logical" >  F  F  F </v>
   <v type="logical" >  F  F  F </v>
   <v type="logical" >  T  T  T </v>
   <v type="logical" >  T  T  T </v>
   <v type="logical" >  T  T  T </v>
   <v type="logical" >  T  T  T </v>
   <v type="logical" >  T  T  T </v>
   <v type="logical" >  F  F  F </v>
   <v type="logical" >  T  T  T </v>
   <v type="logical" >  T  T  T </v>
   <v type="logical" >  T  T  T </v>
   <v type="logical" >  T  T  T </v>
   <v type="logical" >  T  T  T </v>
   <v type="logical" >  T  T  T </v>
   <v type="logical" >  T  T  T </v>
   <v type="logical" >  T  T  T </v>
   <v type="logical" >  T  T  T </v>
   <v type="logical" >  F  F  F </v>
   <v type="logical" >  F  F  F </v>
   <v type="logical" >  F  F  F </v>
   <v type="logical" >  F  F  F </v>
   <v type="logical" >  T  T  T </v>
   <v type="logical" >  F  F  F </v>
   <v type="logical" >  T  T  T </v>
   <v type="logical" >  T  T  T </v>
   <v type="logical" >  T  T  T </v>
   <v type="logical" >  T  T  T </v>
   <v type="logical" >  T  T  T </v>
   <v type="logical" >  T  T  T </v>
   <v type="logical" >  T  T  T </v>
   <v type="logical" >  T  T  T </v>
   <v type="logical" >  F  F  F </v>
   <v type="logical" >  T  T  T </v>
   <v type="logical" >  F  F  F </v>
   <v type="logical" >  T  T  T </v>
   <v type="logical" >  F  F  F </v>
   <v type="logical" >  T  T  T </v>
   <v type="logical" >  F  F  F </v>
   <v type="logical" >  T  T  T </v>
   <v type="logical" >  F  F  F </v>
  </varray>
  <nose>
   <v>      -3.00000000       0.00000000       0.00010000       0.00010000 </v>
  </nose>
 </structure>
 <calculation>
  <scstep>
   <time name="dav">    8.55    8.58</time>
   <time name="total">    8.61    8.64</time>
   <dipole>
    <v name="dipole">      0.00000000       0.00000000       0.00013383 </v>
    <i name="Tr[quadrupol]"> -10978.37043769 </i>
    <i name="Echarged">      0.00000000 </i>
    <i name="Edipol_quadrupol">      0.00000000 </i>
    <i name="Eion">      0.00000000 </i>
   </dipole>
   <energy>
    <i name="alphaZ">    862.57883006 </i>
    <i name="ewald"> 255358.43803511 </i>
    <i name="hartreedc">-300933.93972264 </i>
    <i name="XCdc">   -109.76828572 </i>
    <i name="pawpsdc">  43112.45544455 </i>
    <i name="pawaedc"> -41079.41300390 </i>
    <i name="eentropy">     -0.14238202 </i>
    <i name="bandstr">   1325.26894000 </i>
    <i name="atom">  45117.89144060 </i>
    <i name="e_fr_energy">   3653.36929604 </i>
    <i name="e_wo_entrp">   3653.51167806 </i>
    <i name="e_0_energy">   3653.44048705 </i>
   </energy>
  </scstep>
  <scstep>
   <time name="dav">   10.14   10.17</time>
   <time name="total">   10.14   10.17</time>
   <dipole>
    <v name="dipole">      0.00000000       0.00000000       0.00013383 </v>
    <i name="Tr[quadrupol]"> -10978.37043769 </i>
    <i name="Echarged">      0.00000000 </i>
    <i name="Edipol_quadrupol">      0.00000000 </i>
    <i name="Eion">      0.00000000 </i>
   </dipole>
   <energy>
    <i name="e_fr_energy">     50.25716847 </i>
    <i name="e_wo_entrp">     50.42474899 </i>
    <i name="e_0_energy">     50.34095873 </i>
   </energy>
  </scstep>
  <scstep>
   <time name="dav">    9.78    9.84</time>
   <time name="total">    9.78    9.84</time>
   <dipole>
    <v name="dipole">      0.00000000       0.00000000       0.00013383 </v>
    <i name="Tr[quadrupol]"> -10978.37043769 </i>
    <i name="Echarged">      0.00000000 </i>
    <i name="Edipol_quadrupol">      0.00000000 </i>
    <i name="Eion">      0.00000000 </i>
   </dipole>
   <energy>
    <i name="e_fr_energy">   -251.21738927 </i>
    <i name="e_wo_entrp">   -250.82146903 </i>
    <i name="e_0_energy">   -251.01942915 </i>
   </energy>
  </scstep>
  <scstep>
   <time name="dav">    9.50    9.60</time>
   <time name="total">    9.50    9.60</time>
   <dipole>
    <v name="dipole">      0.00000000       0.00000000       0.00013383 </v>
    <i name="Tr[quadrupol]"> -10978.37043769 </i>
    <i name="Echarged">      0.00000000 </i>
    <i name="Edipol_quadrupol">      0.00000000 </i>
    <i name="Eion">      0.00000000 </i>
   </dipole>
   <energy>
    <i name="e_fr_energy">   -262.11986585 </i>
    <i name="e_wo_entrp">   -261.71204089 </i>
    <i name="e_0_energy">   -261.91595337 </i>
   </energy>
  </scstep>
  <scstep>
   <time name="dav">   10.04   10.07</time>
   <time name="total">   10.30   10.33</time>
   <dipole>
    <v name="dipole">      0.00000000       0.00000000       0.00013383 </v>
    <i name="Tr[quadrupol]"> -10978.37043769 </i>
    <i name="Echarged">      0.00000000 </i>
    <i name="Edipol_quadrupol">      0.00000000 </i>
    <i name="Eion">      0.00000000 </i>
   </dipole>
   <energy>
    <i name="e_fr_energy">   -262.45659509 </i>
    <i name="e_wo_entrp">   -262.04635993 </i>
    <i name="e_0_energy">   -262.25147751 </i>
   </energy>
  </scstep>
  <scstep>
   <time name="diag">    1.58    1.59</time>
   <time name="diis">    4.09    4.10</time>
   <time name="orth">    0.43    0.43</time>
   <time name="total">    6.41    6.43</time>
   <dipole>
    <v name="dipole">      0.00000000       0.00000000       1.96484758 </v>
    <i name="Tr[quadrupol]"> -10970.58531032 </i>
    <i name="Echarged">      0.00000000 </i>
    <i name="Edipol_quadrupol">      0.00000000 </i>
    <i name="Eion">      0.00000000 </i>
   </dipole>
   <energy>
    <i name="e_fr_energy">   -307.81142254 </i>
    <i name="e_wo_entrp">   -307.70165788 </i>
    <i name="e_0_energy">   -307.75654021 </i>
   </energy>
  </scstep>
  <scstep>
   <time name="diag">    1.56    1.57</time>
   <time name="diis">    4.16    4.17</time>
   <time name="orth">    0.43    0.43</time>
   <time name="total">    6.46    6.48</time>
   <dipole>
    <v name="dipole">      0.00000000       0.00000000      -2.12130767 </v>
    <i name="Tr[quadrupol]"> -10974.17506701 </i>
    <i name="Echarged">      0.00000000 </i>
    <i name="Edipol_quadrupol">      0.00000000 </i>
    <i name="Eion">      0.00000000 </i>
   </dipole>
   <energy>
    <i name="e_fr_energy">   -296.25938225 </i>
    <i name="e_wo_entrp">   -295.95137767 </i>
    <i name="e_0_energy">   -296.10537996 </i>
   </energy>
  </scstep>
  <scstep>
   <time name="diag">    1.56    1.57</time>
   <time name="diis">    4.08    4.09</time>
   <time name="orth">    0.43    0.43</time>
   <time name="total">    6.39    6.41</time>
   <dipole>
    <v name="dipole">      0.00000000       0.00000000       0.18342535 </v>
    <i name="Tr[quadrupol]"> -10977.48449037 </i>
    <i name="Echarged">      0.00000000 </i>
    <i name="Edipol_quadrupol">      0.00000000 </i>
    <i name="Eion">      0.00000000 </i>
   </dipole>
   <energy>
    <i name="e_fr_energy">   -235.32805272 </i>
    <i name="e_wo_entrp">   -235.03517856 </i>
    <i name="e_0_energy">   -235.18161564 </i>
   </energy>
  </scstep>
  <scstep>
   <time name="diag">    1.56    1.58</time>
   <time name="diis">    3.96    4.04</time>
   <time name="orth">    0.43    0.43</time>
   <time name="total">    6.27    6.37</time>
   <dipole>
    <v name="dipole">      0.00000000       0.00000000       0.27940969 </v>
    <i name="Tr[quadrupol]"> -10970.14530328 </i>
    <i name="Echarged">      0.00000000 </i>
    <i name="Edipol_quadrupol">      0.00000000 </i>
    <i name="Eion">      0.00000000 </i>
   </dipole>
   <energy>
    <i name="e_fr_energy">   -256.61636668 </i>
    <i name="e_wo_entrp">   -256.36037322 </i>
    <i name="e_0_energy">   -256.48836995 </i>
   </energy>
  </scstep>
  <scstep>
   <time name="diag">    1.57    1.57</time>
   <time name="diis">    4.02    4.04</time>
   <time name="orth">    0.44    0.44</time>
   <time name="total">    6.32    6.36</time>
   <dipole>
    <v name="dipole">      0.00000000       0.00000000       1.73747013 </v>
    <i name="Tr[quadrupol]"> -10970.77584305 </i>
    <i name="Echarged">      0.00000000 </i>
    <i name="Edipol_quadrupol">      0.00000000 </i>
    <i name="Eion">      0.00000000 </i>
   </dipole>
   <energy>
    <i name="e_fr_energy">   -282.12560516 </i>
    <i name="e_wo_entrp">   -281.99928530 </i>
    <i name="e_0_energy">   -282.06244523 </i>
   </energy>
  </scstep>
  <scstep>
   <time name="diag">    1.55    1.57</time>
   <time name="diis">    4.07    4.08</time>
   <time name="orth">    0.42    0.42</time>
   <time name="total">    6.34    6.38</time>
   <dipole>
    <v name="dipole">      0.00000000       0.00000000       1.63025951 </v>
    <i name="Tr[quadrupol]"> -10972.11898533 </i>
    <i name="Echarged">      0.00000000 </i>
    <i name="Edipol_quadrupol">      0.00000000 </i>
    <i name="Eion">      0.00000000 </i>
   </dipole>
   <energy>
    <i name="e_fr_energy">   -256.29886140 </i>
    <i name="e_wo_entrp">   -256.14650625 </i>
    <i name="e_0_energy">   -256.22268382 </i>
   </energy>
  </scstep>
  <scstep>
   <time name="diag">    1.55    1.56</time>
   <time name="diis">    4.06    4.07</time>
   <time name="orth">    0.42    0.42</time>
   <time name="total">    6.34    6.36</time>
   <dipole>
    <v name="dipole">      0.00000000       0.00000000       1.32655612 </v>
    <i name="Tr[quadrupol]"> -10973.82805720 </i>
    <i name="Echarged">      0.00000000 </i>
    <i name="Edipol_quadrupol">      0.00000000 </i>
    <i name="Eion">      0.00000000 </i>
   </dipole>
   <energy>
    <i name="e_fr_energy">   -233.83186130 </i>
    <i name="e_wo_entrp">   -233.64543766 </i>
    <i name="e_0_energy">   -233.73864948 </i>
   </energy>
  </scstep>
  <scstep>
   <time name="diag">    1.56    1.56</time>
   <time name="diis">    4.11    4.12</time>
   <time name="orth">    0.42    0.42</time>
   <time name="total">    6.40    6.42</time>
   <dipole>
    <v name="dipole">      0.00000000       0.00000000       1.05317128 </v>
    <i name="Tr[quadrupol]"> -10975.39040916 </i>
    <i name="Echarged">      0.00000000 </i>
    <i name="Edipol_quadrupol">      0.00000000 </i>
    <i name="Eion">      0.00000000 </i>
   </dipole>
   <energy>
    <i name="e_fr_energy">   -224.51476411 </i>
    <i name="e_wo_entrp">   -224.27858409 </i>
    <i name="e_0_energy">   -224.39667410 </i>
   </energy>
  </scstep>
  <scstep>
   <time name="diag">    1.56    1.57</time>
   <time name="diis">    4.11    4.12</time>
   <time name="orth">    0.42    0.42</time>
   <time name="total">    6.40    6.41</time>
   <dipole>
    <v name="dipole">      0.00000000       0.00000000       1.03808855 </v>
    <i name="Tr[quadrupol]"> -10975.57356622 </i>
    <i name="Echarged">      0.00000000 </i>
    <i name="Edipol_quadrupol">      0.00000000 </i>
    <i name="Eion">      0.00000000 </i>
   </dipole>
   <energy>
    <i name="e_fr_energy">   -220.45033330 </i>
    <i name="e_wo_entrp">   -220.11744153 </i>
    <i name="e_0_energy">   -220.28388742 </i>
   </energy>
  </scstep>
  <scstep>
   <time name="diag">    1.56    1.56</time>
   <time name="diis">    3.99    4.09</time>
   <time name="orth">    0.42    0.42</time>
   <time name="total">    6.28    6.38</time>
   <dipole>
    <v name="dipole">      0.00000000       0.00000000       1.07238755 </v>
    <i name="Tr[quadrupol]"> -10975.43644514 </i>
    <i name="Echarged">      0.00000000 </i>
    <i name="Edipol_quadrupol">      0.00000000 </i>
    <i name="Eion">      0.00000000 </i>
   </dipole>
   <energy>
    <i name="e_fr_energy">   -220.12355797 </i>
    <i name="e_wo_entrp">   -219.78212718 </i>
    <i name="e_0_energy">   -219.95284257 </i>
   </energy>
  </scstep>
  <scstep>
   <time name="diag">    1.55    1.56</time>
   <time name="diis">    4.07    4.08</time>
   <time name="orth">    0.42    0.42</time>
   <time name="total">    6.36    6.38</time>
   <dipole>
    <v name="dipole">      0.00000000       0.00000000       1.10440613 </v>
    <i name="Tr[quadrupol]"> -10975.38623801 </i>
    <i name="Echarged">      0.00000000 </i>
    <i name="Edipol_quadrupol">      0.00000000 </i>
    <i name="Eion">      0.00000000 </i>
   </dipole>
   <energy>
    <i name="e_fr_energy">   -220.14831165 </i>
    <i name="e_wo_entrp">   -219.83393376 </i>
    <i name="e_0_energy">   -219.99112270 </i>
   </energy>
  </scstep>
  <scstep>
   <time name="diag">    1.56    1.57</time>
   <time name="diis">    4.13    4.14</time>
   <time name="orth">    0.42    0.42</time>
   <time name="total">    6.43    6.45</time>
   <dipole>
    <v name="dipole">      0.00000000       0.00000000       1.13922858 </v>
    <i name="Tr[quadrupol]"> -10975.43825937 </i>
    <i name="Echarged">      0.00000000 </i>
    <i name="Edipol_quadrupol">      0.00000000 </i>
    <i name="Eion">      0.00000000 </i>
   </dipole>
   <energy>
    <i name="e_fr_energy">   -220.14765598 </i>
    <i name="e_wo_entrp">   -219.81793504 </i>
    <i name="e_0_energy">   -219.98279551 </i>
   </energy>
  </scstep>
  <scstep>
   <time name="diag">    1.56    1.56</time>
   <time name="diis">    4.09    4.10</time>
   <time name="orth">    0.42    0.42</time>
   <time name="total">    6.38    6.40</time>
   <dipole>
    <v name="dipole">      0.00000000       0.00000000       1.15841753 </v>
    <i name="Tr[quadrupol]"> -10975.54510894 </i>
    <i name="Echarged">      0.00000000 </i>
    <i name="Edipol_quadrupol">      0.00000000 </i>
    <i name="Eion">      0.00000000 </i>
   </dipole>
   <energy>
    <i name="e_fr_energy">   -220.11600726 </i>
    <i name="e_wo_entrp">   -219.79525395 </i>
    <i name="e_0_energy">   -219.95563061 </i>
   </energy>
  </scstep>
  <scstep>
   <time name="diag">    1.55    1.56</time>
   <time name="diis">    4.09    4.10</time>
   <time name="orth">    0.42    0.42</time>
   <time name="total">    6.37    6.39</time>
   <dipole>
    <v name="dipole">      0.00000000       0.00000000       1.17582216 </v>
    <i name="Tr[quadrupol]"> -10975.71463338 </i>
    <i name="Echarged">      0.00000000 </i>
    <i name="Edipol_quadrupol">      0.00000000 </i>
    <i name="Eion">      0.00000000 </i>
   </dipole>
   <energy>
    <i name="e_fr_energy">   -219.84729875 </i>
    <i name="e_wo_entrp">   -219.48534256 </i>
    <i name="e_0_energy">   -219.66632065 </i>
   </energy>
  </scstep>
  <scstep>
   <time name="diag">    1.55    1.57</time>
   <time name="diis">    4.01    4.02</time>
   <time name="orth">    0.42    0.42</time>
   <time name="total">    6.30    6.33</time>
   <dipole>
    <v name="dipole">      0.00000000       0.00000000       1.17159360 </v>
    <i name="Tr[quadrupol]"> -10975.84126506 </i>
    <i name="Echarged">      0.00000000 </i>
    <i name="Edipol_quadrupol">      0.00000000 </i>
    <i name="Eion">      0.00000000 </i>
   </dipole>
   <energy>
    <i name="e_fr_energy">   -219.78013040 </i>
    <i name="e_wo_entrp">   -219.41251957 </i>
    <i name="e_0_energy">   -219.59632499 </i>
   </energy>
  </scstep>
  <scstep>
   <time name="diag">    1.56    1.56</time>
   <time name="diis">    4.03    4.11</time>
   <time name="orth">    0.42    0.43</time>
   <time name="total">    6.32    6.42</time>
   <dipole>
    <v name="dipole">      0.00000000       0.00000000       1.17340995 </v>
    <i name="Tr[quadrupol]"> -10975.88042777 </i>
    <i name="Echarged">      0.00000000 </i>
    <i name="Edipol_quadrupol">      0.00000000 </i>
    <i name="Eion">      0.00000000 </i>
   </dipole>
   <energy>
    <i name="e_fr_energy">   -219.68298617 </i>
    <i name="e_wo_entrp">   -219.30402418 </i>
    <i name="e_0_energy">   -219.49350517 </i>
   </energy>
  </scstep>
  <scstep>
   <time name="diag">    1.56    1.56</time>
   <time name="diis">    4.12    4.13</time>
   <time name="orth">    0.42    0.42</time>
   <time name="total">    6.41    6.43</time>
   <dipole>
    <v name="dipole">      0.00000000       0.00000000       1.17610757 </v>
    <i name="Tr[quadrupol]"> -10975.89790263 </i>
    <i name="Echarged">      0.00000000 </i>
    <i name="Edipol_quadrupol">      0.00000000 </i>
    <i name="Eion">      0.00000000 </i>
   </dipole>
   <energy>
    <i name="e_fr_energy">   -219.67158274 </i>
    <i name="e_wo_entrp">   -219.28988423 </i>
    <i name="e_0_energy">   -219.48073348 </i>
   </energy>
  </scstep>
  <scstep>
   <time name="diag">    1.56    1.56</time>
   <time name="diis">    4.10    4.11</time>
   <time name="orth">    0.42    0.42</time>
   <time name="total">    6.39    6.41</time>
   <dipole>
    <v name="dipole">      0.00000000       0.00000000       1.18230420 </v>
    <i name="Tr[quadrupol]"> -10975.92868363 </i>
    <i name="Echarged">      0.00000000 </i>
    <i name="Edipol_quadrupol">      0.00000000 </i>
    <i name="Eion">      0.00000000 </i>
   </dipole>
   <energy>
    <i name="e_fr_energy">   -219.66735725 </i>
    <i name="e_wo_entrp">   -219.28883444 </i>
    <i name="e_0_energy">   -219.47809584 </i>
   </energy>
  </scstep>
  <scstep>
   <time name="diag">    1.55    1.56</time>
   <time name="diis">    4.11    4.12</time>
   <time name="orth">    0.42    0.42</time>
   <time name="total">    6.40    6.42</time>
   <dipole>
    <v name="dipole">      0.00000000       0.00000000       1.19720673 </v>
    <i name="Tr[quadrupol]"> -10976.02432820 </i>
    <i name="Echarged">      0.00000000 </i>
    <i name="Edipol_quadrupol">      0.00000000 </i>
    <i name="Eion">      0.00000000 </i>
   </dipole>
   <energy>
    <i name="e_fr_energy">   -219.66627717 </i>
    <i name="e_wo_entrp">   -219.28446412 </i>
    <i name="e_0_energy">   -219.47537064 </i>
   </energy>
  </scstep>
  <scstep>
   <time name="diag">    1.56    1.57</time>
   <time name="diis">    4.11    4.13</time>
   <time name="orth">    0.42    0.42</time>
   <time name="total">    6.41    6.43</time>
   <dipole>
    <v name="dipole">      0.00000000       0.00000000       1.20717663 </v>
    <i name="Tr[quadrupol]"> -10976.11323400 </i>
    <i name="Echarged">      0.00000000 </i>
    <i name="Edipol_quadrupol">      0.00000000 </i>
    <i name="Eion">      0.00000000 </i>
   </dipole>
   <energy>
    <i name="e_fr_energy">   -219.66197026 </i>
    <i name="e_wo_entrp">   -219.27992881 </i>
    <i name="e_0_energy">   -219.47094954 </i>
   </energy>
  </scstep>
  <scstep>
   <time name="diag">    1.56    1.56</time>
   <time name="diis">    4.12    4.13</time>
   <time name="orth">    0.42    0.42</time>
   <time name="total">    6.42    6.43</time>
   <dipole>
    <v name="dipole">      0.00000000       0.00000000       1.20962085 </v>
    <i name="Tr[quadrupol]"> -10976.15288178 </i>
    <i name="Echarged">      0.00000000 </i>
    <i name="Edipol_quadrupol">      0.00000000 </i>
    <i name="Eion">      0.00000000 </i>
   </dipole>
   <energy>
    <i name="e_fr_energy">   -219.65915519 </i>
    <i name="e_wo_entrp">   -219.27613622 </i>
    <i name="e_0_energy">   -219.46764570 </i>
   </energy>
  </scstep>
  <scstep>
   <time name="diag">    1.55    1.56</time>
   <time name="diis">    4.07    4.09</time>
   <time name="orth">    0.42    0.42</time>
   <time name="total">    6.35    6.39</time>
   <dipole>
    <v name="dipole">      0.00000000       0.00000000       1.21606079 </v>
    <i name="Tr[quadrupol]"> -10976.18943478 </i>
    <i name="Echarged">      0.00000000 </i>
    <i name="Edipol_quadrupol">      0.00000000 </i>
    <i name="Eion">      0.00000000 </i>
   </dipole>
   <energy>
    <i name="e_fr_energy">   -219.65922103 </i>
    <i name="e_wo_entrp">   -219.27657529 </i>
    <i name="e_0_energy">   -219.46789816 </i>
   </energy>
  </scstep>
  <scstep>
   <time name="diag">    1.53    1.59</time>
   <time name="diis">    4.11    4.12</time>
   <time name="orth">    0.42    0.42</time>
   <time name="total">    6.37    6.45</time>
   <dipole>
    <v name="dipole">      0.00000000       0.00000000       1.22185337 </v>
    <i name="Tr[quadrupol]"> -10976.22536164 </i>
    <i name="Echarged">      0.00000000 </i>
    <i name="Edipol_quadrupol">      0.00000000 </i>
    <i name="Eion">      0.00000000 </i>
   </dipole>
   <energy>
    <i name="e_fr_energy">   -219.65910036 </i>
    <i name="e_wo_entrp">   -219.27684561 </i>
    <i name="e_0_energy">   -219.46797298 </i>
   </energy>
  </scstep>
  <scstep>
   <time name="diag">    1.56    1.56</time>
   <time name="diis">    4.10    4.11</time>
   <time name="orth">    0.42    0.42</time>
   <time name="total">    6.39    6.41</time>
   <dipole>
    <v name="dipole">      0.00000000       0.00000000       1.22846607 </v>
    <i name="Tr[quadrupol]"> -10976.25953756 </i>
    <i name="Echarged">      0.00000000 </i>
    <i name="Edipol_quadrupol">      0.00000000 </i>
    <i name="Eion">      0.00000000 </i>
   </dipole>
   <energy>
    <i name="e_fr_energy">   -219.65949055 </i>
    <i name="e_wo_entrp">   -219.27646192 </i>
    <i name="e_0_energy">   -219.46797623 </i>
   </energy>
  </scstep>
  <scstep>
   <time name="diag">    1.56    1.56</time>
   <time name="diis">    4.13    4.14</time>
   <time name="orth">    0.42    0.42</time>
   <time name="total">    6.43    6.45</time>
   <dipole>
    <v name="dipole">      0.00000000       0.00000000       1.23498305 </v>
    <i name="Tr[quadrupol]"> -10976.28807214 </i>
    <i name="Echarged">      0.00000000 </i>
    <i name="Edipol_quadrupol">      0.00000000 </i>
    <i name="Eion">      0.00000000 </i>
   </dipole>
   <energy>
    <i name="e_fr_energy">   -219.65982020 </i>
    <i name="e_wo_entrp">   -219.27649399 </i>
    <i name="e_0_energy">   -219.46815710 </i>
   </energy>
  </scstep>
  <scstep>
   <time name="diag">    1.55    1.56</time>
   <time name="diis">    4.11    4.12</time>
   <time name="orth">    0.42    0.42</time>
   <time name="total">    6.39    6.41</time>
   <dipole>
    <v name="dipole">      0.00000000       0.00000000       1.24285146 </v>
    <i name="Tr[quadrupol]"> -10976.31743135 </i>
    <i name="Echarged">      0.00000000 </i>
    <i name="Edipol_quadrupol">      0.00000000 </i>
    <i name="Eion">      0.00000000 </i>
   </dipole>
   <energy>
    <i name="e_fr_energy">   -219.66027652 </i>
    <i name="e_wo_entrp">   -219.27700295 </i>
    <i name="e_0_energy">   -219.46863974 </i>
   </energy>
  </scstep>
  <scstep>
   <time name="diag">    1.55    1.55</time>
   <time name="diis">    4.25    4.26</time>
   <time name="orth">    0.42    0.42</time>
   <time name="total">    6.53    6.55</time>
   <dipole>
    <v name="dipole">      0.00000000       0.00000000       1.24932657 </v>
    <i name="Tr[quadrupol]"> -10976.33835060 </i>
    <i name="Echarged">      0.00000000 </i>
    <i name="Edipol_quadrupol">      0.00000000 </i>
    <i name="Eion">      0.00000000 </i>
   </dipole>
   <energy>
    <i name="e_fr_energy">   -219.66055740 </i>
    <i name="e_wo_entrp">   -219.27736705 </i>
    <i name="e_0_energy">   -219.46896222 </i>
   </energy>
  </scstep>
  <scstep>
   <time name="diag">    1.56    1.56</time>
   <time name="diis">    4.25    4.26</time>
   <time name="orth">    0.42    0.42</time>
   <time name="total">    6.55    6.57</time>
   <dipole>
    <v name="dipole">      0.00000000       0.00000000       1.25929477 </v>
    <i name="Tr[quadrupol]"> -10976.37217059 </i>
    <i name="Echarged">      0.00000000 </i>
    <i name="Edipol_quadrupol">      0.00000000 </i>
    <i name="Eion">      0.00000000 </i>
   </dipole>
   <energy>
    <i name="e_fr_energy">   -219.66099432 </i>
    <i name="e_wo_entrp">   -219.27775390 </i>
    <i name="e_0_energy">   -219.46937411 </i>
   </energy>
  </scstep>
  <scstep>
   <time name="diag">    1.55    1.59</time>
   <time name="diis">    4.13    4.18</time>
   <time name="orth">    0.42    0.42</time>
   <time name="total">    6.41    6.51</time>
   <dipole>
    <v name="dipole">      0.00000000       0.00000000       1.26704642 </v>
    <i name="Tr[quadrupol]"> -10976.39711360 </i>
    <i name="Echarged">      0.00000000 </i>
    <i name="Edipol_quadrupol">      0.00000000 </i>
    <i name="Eion">      0.00000000 </i>
   </dipole>
   <energy>
    <i name="e_fr_energy">   -219.66130868 </i>
    <i name="e_wo_entrp">   -219.27818513 </i>
    <i name="e_0_energy">   -219.46974690 </i>
   </energy>
  </scstep>
  <scstep>
   <time name="diag">    1.56    1.56</time>
   <time name="diis">    4.05    4.06</time>
   <time name="orth">    0.42    0.42</time>
   <time name="total">    6.34    6.36</time>
   <dipole>
    <v name="dipole">      0.00000000       0.00000000       1.27425664 </v>
    <i name="Tr[quadrupol]"> -10976.42109845 </i>
    <i name="Echarged">      0.00000000 </i>
    <i name="Edipol_quadrupol">      0.00000000 </i>
    <i name="Eion">      0.00000000 </i>
   </dipole>
   <energy>
    <i name="e_fr_energy">   -219.66158735 </i>
    <i name="e_wo_entrp">   -219.27825975 </i>
    <i name="e_0_energy">   -219.46992355 </i>
   </energy>
  </scstep>
  <scstep>
   <time name="diag">    1.55    1.56</time>
   <time name="diis">    4.16    4.17</time>
   <time name="orth">    0.42    0.42</time>
   <time name="total">    6.45    6.46</time>
   <dipole>
    <v name="dipole">      0.00000000       0.00000000       1.28396036 </v>
    <i name="Tr[quadrupol]"> -10976.45031575 </i>
    <i name="Echarged">      0.00000000 </i>
    <i name="Edipol_quadrupol">      0.00000000 </i>
    <i name="Eion">      0.00000000 </i>
   </dipole>
   <energy>
    <i name="e_fr_energy">   -219.66193693 </i>
    <i name="e_wo_entrp">   -219.27860860 </i>
    <i name="e_0_energy">   -219.47027276 </i>
   </energy>
  </scstep>
  <scstep>
   <time name="diag">    1.56    1.56</time>
   <time name="diis">    4.09    4.10</time>
   <time name="orth">    0.42    0.42</time>
   <time name="total">    6.39    6.41</time>
   <dipole>
    <v name="dipole">      0.00000000       0.00000000       1.29579013 </v>
    <i name="Tr[quadrupol]"> -10976.48387423 </i>
    <i name="Echarged">      0.00000000 </i>
    <i name="Edipol_quadrupol">      0.00000000 </i>
    <i name="Eion">      0.00000000 </i>
   </dipole>
   <energy>
    <i name="e_fr_energy">   -219.66225755 </i>
    <i name="e_wo_entrp">   -219.27905468 </i>
    <i name="e_0_energy">   -219.47065611 </i>
   </energy>
  </scstep>
  <scstep>
   <time name="diag">    1.56    1.56</time>
   <time name="diis">    3.45    3.46</time>
   <time name="orth">    0.43    0.44</time>
   <time name="total">    5.75    5.78</time>
   <dipole>
    <v name="dipole">      0.00000000       0.00000000       1.30078707 </v>
    <i name="Tr[quadrupol]"> -10976.49693301 </i>
    <i name="Echarged">      0.00000000 </i>
    <i name="Edipol_quadrupol">      0.00000000 </i>
    <i name="Eion">      0.00000000 </i>
   </dipole>
   <energy>
    <i name="e_fr_energy">   -219.66233890 </i>
    <i name="e_wo_entrp">   -219.27911130 </i>
    <i name="e_0_energy">   -219.47072510 </i>
   </energy>
  </scstep>
  <scstep>
   <time name="diag">    1.57    1.58</time>
   <time name="diis">    3.03    3.04</time>
   <time name="orth">    0.42    0.43</time>
   <time name="total">    5.33    5.35</time>
   <dipole>
    <v name="dipole">      0.00000000       0.00000000       1.30528346 </v>
    <i name="Tr[quadrupol]"> -10976.50755182 </i>
    <i name="Echarged">      0.00000000 </i>
    <i name="Edipol_quadrupol">      0.00000000 </i>
    <i name="Eion">      0.00000000 </i>
   </dipole>
   <energy>
    <i name="e_fr_energy">   -219.66240344 </i>
    <i name="e_wo_entrp">   -219.27915518 </i>
    <i name="e_0_energy">   -219.47077931 </i>
   </energy>
  </scstep>
  <scstep>
   <time name="diag">    1.56    1.56</time>
   <time name="diis">    2.63    2.65</time>
   <time name="orth">    0.42    0.43</time>
   <time name="total">    4.93    4.96</time>
   <dipole>
    <v name="dipole">      0.00000000       0.00000000       1.30823526 </v>
    <i name="Tr[quadrupol]"> -10976.51354861 </i>
    <i name="Echarged">      0.00000000 </i>
    <i name="Edipol_quadrupol">      0.00000000 </i>
    <i name="Eion">      0.00000000 </i>
   </dipole>
   <energy>
    <i name="e_fr_energy">   -219.66244694 </i>
    <i name="e_wo_entrp">   -219.27918899 </i>
    <i name="e_0_energy">   -219.47081797 </i>
   </energy>
  </scstep>
  <scstep>
   <time name="diag">    1.55    1.60</time>
   <time name="diis">    2.46    2.50</time>
   <time name="orth">    0.42    0.42</time>
   <time name="total">    4.75    4.85</time>
   <dipole>
    <v name="dipole">      0.00000000       0.00000000       1.31164386 </v>
    <i name="Tr[quadrupol]"> -10976.51961858 </i>
    <i name="Echarged">      0.00000000 </i>
    <i name="Edipol_quadrupol">      0.00000000 </i>
    <i name="Eion">      0.00000000 </i>
   </dipole>
   <energy>
    <i name="e_fr_energy">   -219.66250079 </i>
    <i name="e_wo_entrp">   -219.27927284 </i>
    <i name="e_0_energy">   -219.47088682 </i>
   </energy>
  </scstep>
  <scstep>
   <time name="diag">    1.56    1.56</time>
   <time name="diis">    2.52    2.52</time>
   <time name="orth">    0.42    0.42</time>
   <time name="total">    4.82    4.83</time>
   <dipole>
    <v name="dipole">      0.00000000       0.00000000       1.31491101 </v>
    <i name="Tr[quadrupol]"> -10976.52466293 </i>
    <i name="Echarged">      0.00000000 </i>
    <i name="Edipol_quadrupol">      0.00000000 </i>
    <i name="Eion">      0.00000000 </i>
   </dipole>
   <energy>
    <i name="e_fr_energy">   -219.66255419 </i>
    <i name="e_wo_entrp">   -219.27930605 </i>
    <i name="e_0_energy">   -219.47093012 </i>
   </energy>
  </scstep>
  <scstep>
   <time name="diag">    1.57    1.57</time>
   <time name="diis">    2.57    2.57</time>
   <time name="orth">    0.42    0.42</time>
   <time name="total">    4.87    4.88</time>
   <dipole>
    <v name="dipole">      0.00000000       0.00000000       1.31825536 </v>
    <i name="Tr[quadrupol]"> -10976.52935080 </i>
    <i name="Echarged">      0.00000000 </i>
    <i name="Edipol_quadrupol">      0.00000000 </i>
    <i name="Eion">      0.00000000 </i>
   </dipole>
   <energy>
    <i name="e_fr_energy">   -219.66260142 </i>
    <i name="e_wo_entrp">   -219.27935914 </i>
    <i name="e_0_energy">   -219.47098028 </i>
   </energy>
  </scstep>
  <scstep>
   <time name="diag">    1.55    1.56</time>
   <time name="diis">    2.49    2.49</time>
   <time name="orth">    0.42    0.42</time>
   <time name="total">    4.80    4.81</time>
   <dipole>
    <v name="dipole">      0.00000000       0.00000000       1.32047576 </v>
    <i name="Tr[quadrupol]"> -10976.53214672 </i>
    <i name="Echarged">      0.00000000 </i>
    <i name="Edipol_quadrupol">      0.00000000 </i>
    <i name="Eion">      0.00000000 </i>
   </dipole>
   <energy>
    <i name="e_fr_energy">   -219.66262673 </i>
    <i name="e_wo_entrp">   -219.27937653 </i>
    <i name="e_0_energy">   -219.47100163 </i>
   </energy>
  </scstep>
  <scstep>
   <time name="diag">    1.56    1.57</time>
   <time name="diis">    2.51    2.52</time>
   <time name="orth">    0.42    0.42</time>
   <time name="total">    4.82    4.83</time>
   <dipole>
    <v name="dipole">      0.00000000       0.00000000       1.32297200 </v>
    <i name="Tr[quadrupol]"> -10976.53498893 </i>
    <i name="Echarged">      0.00000000 </i>
    <i name="Edipol_quadrupol">      0.00000000 </i>
    <i name="Eion">      0.00000000 </i>
   </dipole>
   <energy>
    <i name="e_fr_energy">   -219.66264772 </i>
    <i name="e_wo_entrp">   -219.27939744 </i>
    <i name="e_0_energy">   -219.47102258 </i>
   </energy>
  </scstep>
  <scstep>
   <time name="diag">    1.56    1.57</time>
   <time name="diis">    2.40    2.41</time>
   <time name="orth">    0.42    0.42</time>
   <time name="total">    4.70    4.72</time>
   <dipole>
    <v name="dipole">      0.00000000       0.00000000       1.32400697 </v>
    <i name="Tr[quadrupol]"> -10976.53578376 </i>
    <i name="Echarged">      0.00000000 </i>
    <i name="Edipol_quadrupol">      0.00000000 </i>
    <i name="Eion">      0.00000000 </i>
   </dipole>
   <energy>
    <i name="e_fr_energy">   -219.66265538 </i>
    <i name="e_wo_entrp">   -219.27940236 </i>
    <i name="e_0_energy">   -219.47102887 </i>
   </energy>
  </scstep>
  <scstep>
   <time name="diag">    1.56    1.56</time>
   <time name="diis">    1.96    1.97</time>
   <time name="orth">    0.42    0.42</time>
   <time name="total">    4.26    4.27</time>
   <dipole>
    <v name="dipole">      0.00000000       0.00000000       1.32440855 </v>
    <i name="Tr[quadrupol]"> -10976.53597257 </i>
    <i name="Echarged">      0.00000000 </i>
    <i name="Edipol_quadrupol">      0.00000000 </i>
    <i name="Eion">      0.00000000 </i>
   </dipole>
   <energy>
    <i name="e_fr_energy">   -219.66265841 </i>
    <i name="e_wo_entrp">   -219.27940595 </i>
    <i name="e_0_energy">   -219.47103218 </i>
   </energy>
  </scstep>
  <scstep>
   <time name="diag">    1.55    1.56</time>
   <time name="diis">    2.02    2.03</time>
   <time name="orth">    0.43    0.43</time>
   <time name="total">    4.34    4.35</time>
   <dipole>
    <v name="dipole">      0.00000000       0.00000000       1.32473276 </v>
    <i name="Tr[quadrupol]"> -10976.53602541 </i>
    <i name="Echarged">      0.00000000 </i>
    <i name="Edipol_quadrupol">      0.00000000 </i>
    <i name="Eion">      0.00000000 </i>
   </dipole>
   <energy>
    <i name="e_fr_energy">   -219.66266097 </i>
    <i name="e_wo_entrp">   -219.27940710 </i>
    <i name="e_0_energy">   -219.47103403 </i>
   </energy>
  </scstep>
  <scstep>
   <time name="diag">    1.56    1.56</time>
   <time name="diis">    1.90    1.90</time>
   <time name="orth">    0.42    0.45</time>
   <time name="total">    4.19    4.26</time>
   <dipole>
    <v name="dipole">      0.00000000       0.00000000       1.32483466 </v>
    <i name="Tr[quadrupol]"> -10976.53594273 </i>
    <i name="Echarged">      0.00000000 </i>
    <i name="Edipol_quadrupol">      0.00000000 </i>
    <i name="Eion">      0.00000000 </i>
   </dipole>
   <energy>
    <i name="e_fr_energy">   -219.66266206 </i>
    <i name="e_wo_entrp">   -219.27940944 </i>
    <i name="e_0_energy">   -219.47103575 </i>
   </energy>
  </scstep>
  <scstep>
   <time name="diag">    1.54    1.57</time>
   <time name="diis">    1.80    1.81</time>
   <time name="orth">    0.42    0.42</time>
   <time name="total">    3.82    3.85</time>
   <dipole>
    <v name="dipole">      0.00000000       0.00000000       1.32489800 </v>
    <i name="Tr[quadrupol]"> -10976.53581268 </i>
    <i name="Echarged">      0.00000000 </i>
    <i name="Edipol_quadrupol">      0.00000000 </i>
    <i name="Eion">      0.00000000 </i>
   </dipole>
   <energy>
    <i name="alphaZ">    885.77121873 </i>
    <i name="ewald"> 255358.43803511 </i>
    <i name="hartreedc">-300370.20618077 </i>
    <i name="XCdc">   -124.10624967 </i>
    <i name="pawpsdc">  52862.51352208 </i>
    <i name="pawaedc"> -50960.88888038 </i>
    <i name="eentropy">     -0.38325351 </i>
    <i name="bandstr">  -2988.69231505 </i>
    <i name="atom">  45117.89144060 </i>
    <i name="e_fr_energy">   -219.66266286 </i>
    <i name="e_wo_entrp">   -219.27940935 </i>
    <i name="e_0_energy">   -219.47103610 </i>
   </energy>
  </scstep>
  <structure>
   <crystal>
    <varray name="basis" >
     <v>      11.00258152       0.00000000       0.00000000 </v>
     <v>       5.50129076       9.52851510       0.00000000 </v>
     <v>       0.00000000       0.00000000      26.19178509 </v>
    </varray>
    <i name="volume">   2745.90128299 </i>
    <varray name="rec_basis" >
     <v>       0.09088776      -0.05247407       0.00000000 </v>
     <v>       0.00000000       0.10494815       0.00000000 </v>
     <v>       0.00000000       0.00000000       0.03817991 </v>
    </varray>
   </crystal>
   <varray name="positions" >
    <v>       0.25000000       0.50000000       0.55329505 </v>
    <v>       0.41666667       0.16666667       0.46754708 </v>
    <v>       0.50000000       0.00000000       0.55329505 </v>
    <v>       0.91666667       0.16666667       0.46754708 </v>
    <v>       0.00000000       0.00000000       0.55329505 </v>
    <v>       0.75000000       0.50000000       0.55329505 </v>
    <v>       0.83333333       0.58333333       0.38179910 </v>
    <v>       0.75000000       0.25000000       0.55329505 </v>
    <v>       0.00000000       0.25000000       0.55329505 </v>
    <v>       0.66666667       0.41666667       0.46754708 </v>
    <v>       0.83333333       0.33333333       0.38179910 </v>
    <v>       0.75000000       0.00000000       0.55329505 </v>
    <v>       0.25000000       0.75000000       0.55329505 </v>
    <v>       0.08333333       0.83333333       0.38179910 </v>
    <v>       0.16666667       0.66666667       0.46754708 </v>
    <v>       0.50000000       0.75000000       0.55329505 </v>
    <v>       0.58333333       0.83333333       0.38179910 </v>
    <v>       0.33333333       0.08333333       0.38179910 </v>
    <v>       0.50000000       0.50000000       0.55329505 </v>
    <v>       0.25000000       0.00000000       0.55329505 </v>
    <v>       0.50000000       0.25000000       0.55329505 </v>
    <v>       0.41666667       0.41666667       0.46754708 </v>
    <v>       0.16666667       0.41666667       0.46754708 </v>
    <v>       0.83333333       0.08333333       0.38179910 </v>
    <v>       0.08333333       0.33333333       0.61820090 </v>
    <v>       0.08333333       0.83333333       0.61820090 </v>
    <v>       0.33333333       0.08333333       0.61820090 </v>
    <v>       0.33333333       0.33333333       0.61820090 </v>
    <v>       0.83333333       0.83333333       0.61820090 </v>
    <v>       0.58333333       0.83333333       0.61820090 </v>
    <v>       0.83333333       0.08333333       0.61820090 </v>
    <v>       0.33333333       0.83333333       0.61820090 </v>
    <v>       0.41666667       0.66666667       0.46754708 </v>
    <v>       0.58333333       0.58333333       0.38179910 </v>
    <v>       0.08333333       0.08333333       0.38179910 </v>
    <v>       0.58333333       0.33333333       0.38179910 </v>
    <v>       0.58333333       0.08333333       0.38179910 </v>
    <v>       0.75000000       0.75000000       0.55329505 </v>
    <v>       0.33333333       0.58333333       0.38179910 </v>
    <v>       0.16666667       0.91666667       0.46754708 </v>
    <v>       0.25000000       0.25000000       0.55329505 </v>
    <v>       0.41666667       0.91666667       0.46754708 </v>
    <v>       0.00000000       0.75000000       0.55329505 </v>
    <v>       0.91666667       0.91666667       0.46754708 </v>
    <v>       0.66666667       0.16666667       0.46754708 </v>
    <v>       0.00000000       0.50000000       0.55329505 </v>
    <v>       0.91666667       0.66666667       0.46754708 </v>
    <v>       0.08333333       0.58333333       0.38179910 </v>
    <v>       0.91666667       0.41666667       0.46754708 </v>
    <v>       0.08333333       0.33333333       0.38179910 </v>
    <v>       0.66666667       0.66666667       0.46754708 </v>
    <v>       0.83333333       0.83333333       0.38179910 </v>
    <v>       0.66666667       0.91666667       0.46754708 </v>
    <v>       0.33333333       0.83333333       0.38179910 </v>
    <v>       0.16666667       0.16666667       0.46754708 </v>
    <v>       0.33333333       0.33333333       0.38179910 </v>
   </varray>
  </structure>
  <varray name="forces" >
   <v>      -0.35661375       0.16000378       2.28812459 </v>
   <v>      -0.08676068      -0.39103737      -0.11954665 </v>
   <v>       0.21327445       0.07889804       2.06704943 </v>
   <v>       0.47477029      -0.40967354       0.01058153 </v>
   <v>       0.15089911       0.00227078       2.01702191 </v>
   <v>       0.46894249       0.20419672       1.19643055 </v>
   <v>       0.23165152       0.06310953      -1.06330010 </v>
   <v>      -0.10928599       0.17641737       2.16148093 </v>
   <v>       0.26480661       0.46693515       1.80840606 </v>
   <v>      -0.07376086       0.27043153      -0.37219928 </v>
   <v>       0.14473300       0.05952495      -1.47744971 </v>
   <v>      -0.23387545      -0.18039914       1.91462830 </v>
   <v>      -0.25071532      -0.30097014       2.20843595 </v>
   <v>       0.18496300      -0.11440022      -1.18324735 </v>
   <v>      -0.20339805       0.35118944       0.15660148 </v>
   <v>       0.32566676      -0.59413777       1.86585209 </v>
   <v>       0.06813394      -0.00684893      -1.01375360 </v>
   <v>      -0.25873238       0.13462436      -1.31509227 </v>
   <v>       0.06919227       0.05416527       1.48232008 </v>
   <v>      -0.16690737       0.48120282       1.79040857 </v>
   <v>       0.19119247       0.02903573       2.06169793 </v>
   <v>       0.27943641       0.02131927      -0.97015537 </v>
   <v>      -0.76606069      -0.11359587      -0.32511939 </v>
   <v>      -0.39909491      -0.05225110      -1.22185374 </v>
   <v>      -0.19607267       0.45407109      -2.76735575 </v>
   <v>      -0.14417500      -0.58308879      -2.16453721 </v>
   <v>      -0.01189777       0.11537030      -2.01912629 </v>
   <v>       0.25725690       0.10340609      -2.30032391 </v>
   <v>      -0.21091042      -0.74304196      -2.73974924 </v>
   <v>       0.43532377      -0.36978759      -2.11378850 </v>
   <v>      -0.06769643       0.59016470      -1.85876779 </v>
   <v>      -0.08332564      -0.13368545      -1.55363641 </v>
   <v>       0.25879437       0.39059145      -0.13292538 </v>
   <v>      -0.37765704       0.10729597      -0.60126265 </v>
   <v>       0.32928869      -0.04254972      -0.69224533 </v>
   <v>      -0.22893688      -0.04247423      -0.77574882 </v>
   <v>       0.12630016       0.09102005      -0.66358424 </v>
   <v>       0.31170720      -0.19805977       2.22120367 </v>
   <v>       0.19455628       0.03318458      -0.73081883 </v>
   <v>       0.36679263       0.18961925      -0.03197824 </v>
   <v>      -0.36148207       0.15210262       3.43923265 </v>
   <v>      -0.19541496      -0.18104354      -0.44962049 </v>
   <v>      -0.30446246       0.04517609       2.62887032 </v>
   <v>      -0.33733087      -0.26527931      -0.28114637 </v>
   <v>      -0.28093841      -0.33062491      -0.02411268 </v>
   <v>      -0.23470724      -0.11140431       1.52687486 </v>
   <v>      -0.13596146       0.25104775       0.81153604 </v>
   <v>      -0.00844429      -0.16605205      -0.75048522 </v>
   <v>       0.41270724       0.20144207      -0.09997547 </v>
   <v>       0.09667058      -0.06097861      -0.64937830 </v>
   <v>       0.04315073       0.38016403       0.38603033 </v>
   <v>      -0.09091982       0.00979232      -0.45571553 </v>
   <v>       0.29001865      -0.07881746       0.15646780 </v>
   <v>      -0.10885557      -0.11441630      -0.45724041 </v>
   <v>       0.05364539      -0.14471114       0.09769344 </v>
   <v>       0.04051956       0.06155614      -0.92170799 </v>
  </varray>
  <energy>
   <i name="e_fr_energy">   -219.66266286 </i>
   <i name="e_wo_entrp">   -219.47103610 </i>
   <i name="e_0_energy">     -0.38325351 </i>
  </energy>
  <time name="totalsc">  317.03  318.73</time>
 </calculation>
 <calculation>
  <scstep>
   <time name="dav">    8.65    8.71</time>
   <time name="total">    8.96    9.02</time>
   <dipole>
    <v name="dipole">      0.00000000       0.00000000       1.32510965 </v>
    <i name="Tr[quadrupol]"> -10968.40910765 </i>
    <i name="Echarged">      0.00000000 </i>
    <i name="Edipol_quadrupol">      0.00000000 </i>
    <i name="Eion">      0.00000000 </i>
   </dipole>
   <energy>
    <i name="alphaZ">    885.09359640 </i>
    <i name="ewald"> 254315.11445556 </i>
    <i name="hartreedc">-299319.17342643 </i>
    <i name="XCdc">   -124.02247557 </i>
    <i name="pawpsdc">  52862.50981484 </i>
    <i name="pawaedc"> -50960.88508735 </i>
    <i name="eentropy">     -0.33299082 </i>
    <i name="bandstr">  -2997.72222679 </i>
    <i name="atom">  45117.89144060 </i>
    <i name="e_fr_energy">   -221.52689956 </i>
    <i name="e_wo_entrp">   -221.19390874 </i>
    <i name="e_0_energy">   -221.36040415 </i>
   </energy>
  </scstep>
  <scstep>
   <time name="diag">    1.55    1.56</time>
   <time name="diis">    4.11    4.12</time>
   <time name="orth">    0.42    0.42</time>
   <time name="total">    6.39    6.41</time>
   <dipole>
    <v name="dipole">      0.00000000       0.00000000       0.72154794 </v>
    <i name="Tr[quadrupol]"> -10968.13447194 </i>
    <i name="Echarged">      0.00000000 </i>
    <i name="Edipol_quadrupol">      0.00000000 </i>
    <i name="Eion">      0.00000000 </i>
   </dipole>
   <energy>
    <i name="e_fr_energy">   -229.68121164 </i>
    <i name="e_wo_entrp">   -229.31144044 </i>
    <i name="e_0_energy">   -229.49632604 </i>
   </energy>
  </scstep>
  <scstep>
   <time name="diag">    1.56    1.56</time>
   <time name="diis">    4.14    4.15</time>
   <time name="orth">    0.42    0.42</time>
   <time name="total">    6.43    6.45</time>
   <dipole>
    <v name="dipole">      0.00000000       0.00000000       1.20379036 </v>
    <i name="Tr[quadrupol]"> -10968.47031001 </i>
    <i name="Echarged">      0.00000000 </i>
    <i name="Edipol_quadrupol">      0.00000000 </i>
    <i name="Eion">      0.00000000 </i>
   </dipole>
   <energy>
    <i name="e_fr_energy">   -223.57666162 </i>
    <i name="e_wo_entrp">   -223.20645435 </i>
    <i name="e_0_energy">   -223.39155798 </i>
   </energy>
  </scstep>
  <scstep>
   <time name="diag">    1.56    1.56</time>
   <time name="diis">    4.12    4.13</time>
   <time name="orth">    0.42    0.42</time>
   <time name="total">    6.40    6.42</time>
   <dipole>
    <v name="dipole">      0.00000000       0.00000000       1.02093303 </v>
    <i name="Tr[quadrupol]"> -10968.39593258 </i>
    <i name="Echarged">      0.00000000 </i>
    <i name="Edipol_quadrupol">      0.00000000 </i>
    <i name="Eion">      0.00000000 </i>
   </dipole>
   <energy>
    <i name="e_fr_energy">   -224.16308060 </i>
    <i name="e_wo_entrp">   -223.79643682 </i>
    <i name="e_0_energy">   -223.97975871 </i>
   </energy>
  </scstep>
  <scstep>
   <time name="diag">    1.55    1.55</time>
   <time name="diis">    3.96    4.05</time>
   <time name="orth">    0.42    0.42</time>
   <time name="total">    6.24    6.34</time>
   <dipole>
    <v name="dipole">      0.00000000       0.00000000       0.99628939 </v>
    <i name="Tr[quadrupol]"> -10968.65631053 </i>
    <i name="Echarged">      0.00000000 </i>
    <i name="Edipol_quadrupol">      0.00000000 </i>
    <i name="Eion">      0.00000000 </i>
   </dipole>
   <energy>
    <i name="e_fr_energy">   -223.87868815 </i>
    <i name="e_wo_entrp">   -223.48900310 </i>
    <i name="e_0_energy">   -223.68384563 </i>
   </energy>
  </scstep>
  <scstep>
   <time name="diag">    1.56    1.56</time>
   <time name="diis">    4.03    4.04</time>
   <time name="orth">    0.42    0.42</time>
   <time name="total">    6.32    6.34</time>
   <dipole>
    <v name="dipole">      0.00000000       0.00000000       1.06779634 </v>
    <i name="Tr[quadrupol]"> -10968.82183625 </i>
    <i name="Echarged">      0.00000000 </i>
    <i name="Edipol_quadrupol">      0.00000000 </i>
    <i name="Eion">      0.00000000 </i>
   </dipole>
   <energy>
    <i name="e_fr_energy">   -223.38322972 </i>
    <i name="e_wo_entrp">   -223.01052063 </i>
    <i name="e_0_energy">   -223.19687518 </i>
   </energy>
  </scstep>
  <scstep>
   <time name="diag">    1.55    1.56</time>
   <time name="diis">    4.08    4.09</time>
   <time name="orth">    0.42    0.42</time>
   <time name="total">    6.36    6.38</time>
   <dipole>
    <v name="dipole">      0.00000000       0.00000000       1.10298131 </v>
    <i name="Tr[quadrupol]"> -10968.90114629 </i>
    <i name="Echarged">      0.00000000 </i>
    <i name="Edipol_quadrupol">      0.00000000 </i>
    <i name="Eion">      0.00000000 </i>
   </dipole>
   <energy>
    <i name="e_fr_energy">   -223.24429702 </i>
    <i name="e_wo_entrp">   -222.87434042 </i>
    <i name="e_0_energy">   -223.05931872 </i>
   </energy>
  </scstep>
  <scstep>
   <time name="diag">    1.56    1.56</time>
   <time name="diis">    4.05    4.06</time>
   <time name="orth">    0.42    0.42</time>
   <time name="total">    6.33    6.35</time>
   <dipole>
    <v name="dipole">      0.00000000       0.00000000       1.11419211 </v>
    <i name="Tr[quadrupol]"> -10968.94973018 </i>
    <i name="Echarged">      0.00000000 </i>
    <i name="Edipol_quadrupol">      0.00000000 </i>
    <i name="Eion">      0.00000000 </i>
   </dipole>
   <energy>
    <i name="e_fr_energy">   -223.13001093 </i>
    <i name="e_wo_entrp">   -222.77235834 </i>
    <i name="e_0_energy">   -222.95118463 </i>
   </energy>
  </scstep>
  <scstep>
   <time name="diag">    1.55    1.55</time>
   <time name="diis">    4.06    4.07</time>
   <time name="orth">    0.42    0.42</time>
   <time name="total">    6.34    6.36</time>
   <dipole>
    <v name="dipole">      0.00000000       0.00000000       1.11755420 </v>
    <i name="Tr[quadrupol]"> -10969.11136358 </i>
    <i name="Echarged">      0.00000000 </i>
    <i name="Edipol_quadrupol">      0.00000000 </i>
    <i name="Eion">      0.00000000 </i>
   </dipole>
   <energy>
    <i name="e_fr_energy">   -223.07257763 </i>
    <i name="e_wo_entrp">   -222.70371088 </i>
    <i name="e_0_energy">   -222.88814425 </i>
   </energy>
  </scstep>
  <scstep>
   <time name="diag">    1.54    1.57</time>
   <time name="diis">    4.04    4.06</time>
   <time name="orth">    0.42    0.42</time>
   <time name="total">    6.31    6.36</time>
   <dipole>
    <v name="dipole">      0.00000000       0.00000000       1.12582797 </v>
    <i name="Tr[quadrupol]"> -10969.13845944 </i>
    <i name="Echarged">      0.00000000 </i>
    <i name="Edipol_quadrupol">      0.00000000 </i>
    <i name="Eion">      0.00000000 </i>
   </dipole>
   <energy>
    <i name="e_fr_energy">   -223.06949654 </i>
    <i name="e_wo_entrp">   -222.70379811 </i>
    <i name="e_0_energy">   -222.88664733 </i>
   </energy>
  </scstep>
  <scstep>
   <time name="diag">    1.55    1.56</time>
   <time name="diis">    4.10    4.11</time>
   <time name="orth">    0.42    0.43</time>
   <time name="total">    6.39    6.43</time>
   <dipole>
    <v name="dipole">      0.00000000       0.00000000       1.12741398 </v>
    <i name="Tr[quadrupol]"> -10969.14636936 </i>
    <i name="Echarged">      0.00000000 </i>
    <i name="Edipol_quadrupol">      0.00000000 </i>
    <i name="Eion">      0.00000000 </i>
   </dipole>
   <energy>
    <i name="e_fr_energy">   -223.06514867 </i>
    <i name="e_wo_entrp">   -222.70047308 </i>
    <i name="e_0_energy">   -222.88281088 </i>
   </energy>
  </scstep>
  <scstep>
   <time name="diag">    1.54    1.59</time>
   <time name="diis">    4.07    4.08</time>
   <time name="orth">    0.42    0.42</time>
   <time name="total">    6.33    6.40</time>
   <dipole>
    <v name="dipole">      0.00000000       0.00000000       1.12413505 </v>
    <i name="Tr[quadrupol]"> -10969.16711687 </i>
    <i name="Echarged">      0.00000000 </i>
    <i name="Edipol_quadrupol">      0.00000000 </i>
    <i name="Eion">      0.00000000 </i>
   </dipole>
   <energy>
    <i name="e_fr_energy">   -223.06491569 </i>
    <i name="e_wo_entrp">   -222.69976458 </i>
    <i name="e_0_energy">   -222.88234014 </i>
   </energy>
  </scstep>
  <scstep>
   <time name="diag">    1.55    1.56</time>
   <time name="diis">    4.10    4.11</time>
   <time name="orth">    0.42    0.42</time>
   <time name="total">    6.38    6.40</time>
   <dipole>
    <v name="dipole">      0.00000000       0.00000000       1.12688912 </v>
    <i name="Tr[quadrupol]"> -10969.16668498 </i>
    <i name="Echarged">      0.00000000 </i>
    <i name="Edipol_quadrupol">      0.00000000 </i>
    <i name="Eion">      0.00000000 </i>
   </dipole>
   <energy>
    <i name="e_fr_energy">   -223.06277916 </i>
    <i name="e_wo_entrp">   -222.69968778 </i>
    <i name="e_0_energy">   -222.88123347 </i>
   </energy>
  </scstep>
  <scstep>
   <time name="diag">    1.56    1.56</time>
   <time name="diis">    4.08    4.09</time>
   <time name="orth">    0.42    0.43</time>
   <time name="total">    6.37    6.39</time>
   <dipole>
    <v name="dipole">      0.00000000       0.00000000       1.12411853 </v>
    <i name="Tr[quadrupol]"> -10969.18135878 </i>
    <i name="Echarged">      0.00000000 </i>
    <i name="Edipol_quadrupol">      0.00000000 </i>
    <i name="Eion">      0.00000000 </i>
   </dipole>
   <energy>
    <i name="e_fr_energy">   -223.06094698 </i>
    <i name="e_wo_entrp">   -222.69683533 </i>
    <i name="e_0_energy">   -222.87889116 </i>
   </energy>
  </scstep>
  <scstep>
   <time name="diag">    1.55    1.56</time>
   <time name="diis">    4.10    4.11</time>
   <time name="orth">    0.42    0.42</time>
   <time name="total">    6.39    6.41</time>
   <dipole>
    <v name="dipole">      0.00000000       0.00000000       1.12463891 </v>
    <i name="Tr[quadrupol]"> -10969.19446902 </i>
    <i name="Echarged">      0.00000000 </i>
    <i name="Edipol_quadrupol">      0.00000000 </i>
    <i name="Eion">      0.00000000 </i>
   </dipole>
   <energy>
    <i name="e_fr_energy">   -223.06071811 </i>
    <i name="e_wo_entrp">   -222.69663425 </i>
    <i name="e_0_energy">   -222.87867618 </i>
   </energy>
  </scstep>
  <scstep>
   <time name="diag">    1.56    1.56</time>
   <time name="diis">    4.15    4.16</time>
   <time name="orth">    0.42    0.42</time>
   <time name="total">    6.43    6.45</time>
   <dipole>
    <v name="dipole">      0.00000000       0.00000000       1.12392916 </v>
    <i name="Tr[quadrupol]"> -10969.20194757 </i>
    <i name="Echarged">      0.00000000 </i>
    <i name="Edipol_quadrupol">      0.00000000 </i>
    <i name="Eion">      0.00000000 </i>
   </dipole>
   <energy>
    <i name="e_fr_energy">   -223.06068975 </i>
    <i name="e_wo_entrp">   -222.69675798 </i>
    <i name="e_0_energy">   -222.87872387 </i>
   </energy>
  </scstep>
  <scstep>
   <time name="diag">    1.55    1.56</time>
   <time name="diis">    4.13    4.14</time>
   <time name="orth">    0.42    0.42</time>
   <time name="total">    6.41    6.43</time>
   <dipole>
    <v name="dipole">      0.00000000       0.00000000       1.12268613 </v>
    <i name="Tr[quadrupol]"> -10969.21714426 </i>
    <i name="Echarged">      0.00000000 </i>
    <i name="Edipol_quadrupol">      0.00000000 </i>
    <i name="Eion">      0.00000000 </i>
   </dipole>
   <energy>
    <i name="e_fr_energy">   -223.06079078 </i>
    <i name="e_wo_entrp">   -222.69667744 </i>
    <i name="e_0_energy">   -222.87873411 </i>
   </energy>
  </scstep>
  <scstep>
   <time name="diag">    1.55    1.58</time>
   <time name="diis">    4.00    4.06</time>
   <time name="orth">    0.42    0.42</time>
   <time name="total">    6.27    6.37</time>
   <dipole>
    <v name="dipole">      0.00000000       0.00000000       1.12153660 </v>
    <i name="Tr[quadrupol]"> -10969.22594680 </i>
    <i name="Echarged">      0.00000000 </i>
    <i name="Edipol_quadrupol">      0.00000000 </i>
    <i name="Eion">      0.00000000 </i>
   </dipole>
   <energy>
    <i name="e_fr_energy">   -223.06084835 </i>
    <i name="e_wo_entrp">   -222.69707626 </i>
    <i name="e_0_energy">   -222.87896230 </i>
   </energy>
  </scstep>
  <scstep>
   <time name="diag">    1.55    1.56</time>
   <time name="diis">    4.07    4.12</time>
   <time name="orth">    0.42    0.42</time>
   <time name="total">    6.36    6.42</time>
   <dipole>
    <v name="dipole">      0.00000000       0.00000000       1.12077554 </v>
    <i name="Tr[quadrupol]"> -10969.23601784 </i>
    <i name="Echarged">      0.00000000 </i>
    <i name="Edipol_quadrupol">      0.00000000 </i>
    <i name="Eion">      0.00000000 </i>
   </dipole>
   <energy>
    <i name="e_fr_energy">   -223.06091171 </i>
    <i name="e_wo_entrp">   -222.69705443 </i>
    <i name="e_0_energy">   -222.87898307 </i>
   </energy>
  </scstep>
  <scstep>
   <time name="diag">    1.56    1.56</time>
   <time name="diis">    3.80    3.81</time>
   <time name="orth">    0.42    0.42</time>
   <time name="total">    6.08    6.10</time>
   <dipole>
    <v name="dipole">      0.00000000       0.00000000       1.12047632 </v>
    <i name="Tr[quadrupol]"> -10969.23914138 </i>
    <i name="Echarged">      0.00000000 </i>
    <i name="Edipol_quadrupol">      0.00000000 </i>
    <i name="Eion">      0.00000000 </i>
   </dipole>
[...]
       <r>   -19.1114     3.6573    15.9754 </r>
       <r>   -19.0183     0.2609    15.9996 </r>
       <r>   -18.9252     0.0039    16.0000 </r>
       <r>   -18.8322     0.0000    16.0000 </r>
       <r>   -18.7391     0.0000    16.0000 </r>
       <r>   -18.6460     0.0000    16.0000 </r>
       <r>   -18.5529     0.0000    16.0000 </r>
       <r>   -18.4599     0.0000    16.0000 </r>
       <r>   -18.3668     0.0000    16.0000 </r>
       <r>   -18.2737     0.0000    16.0000 </r>
       <r>   -18.1806     0.0000    16.0000 </r>
       <r>   -18.0875     0.0000    16.0000 </r>
       <r>   -17.9945     0.0000    16.0000 </r>
       <r>   -17.9014     0.0000    16.0000 </r>
       <r>   -17.8083     0.0000    16.0000 </r>
       <r>   -17.7152     0.0000    16.0000 </r>
       <r>   -17.6222     0.0000    16.0000 </r>
       <r>   -17.5291     0.0000    16.0000 </r>
       <r>   -17.4360     0.0000    16.0000 </r>
       <r>   -17.3429     0.0000    16.0000 </r>
       <r>   -17.2498     0.0000    16.0000 </r>
       <r>   -17.1568     0.0000    16.0000 </r>
       <r>   -17.0637     0.0000    16.0000 </r>
       <r>   -16.9706     0.0000    16.0000 </r>
       <r>   -16.8775     0.0000    16.0000 </r>
       <r>   -16.7845     0.0000    16.0000 </r>
       <r>   -16.6914     0.0000    16.0000 </r>
       <r>   -16.5983     0.0000    16.0000 </r>
       <r>   -16.5052     0.0000    16.0000 </r>
       <r>   -16.4121     0.0000    16.0000 </r>
       <r>   -16.3191     0.0000    16.0000 </r>
       <r>   -16.2260     0.0000    16.0000 </r>
       <r>   -16.1329     0.0000    16.0000 </r>
       <r>   -16.0398     0.0000    16.0000 </r>
       <r>   -15.9468     0.0000    16.0000 </r>
       <r>   -15.8537     0.0000    16.0000 </r>
       <r>   -15.7606     0.0000    16.0000 </r>
       <r>   -15.6675     0.0000    16.0000 </r>
       <r>   -15.5745     0.0000    16.0000 </r>
       <r>   -15.4814     0.0000    16.0000 </r>
       <r>   -15.3883     0.0000    16.0000 </r>
       <r>   -15.2952     0.0000    16.0000 </r>
       <r>   -15.2021     0.0000    16.0000 </r>
       <r>   -15.1091     0.0000    16.0000 </r>
       <r>   -15.0160     0.0000    16.0000 </r>
       <r>   -14.9229     0.0000    16.0000 </r>
       <r>   -14.8298     0.0000    16.0000 </r>
       <r>   -14.7368     0.0000    16.0000 </r>
       <r>   -14.6437     0.0000    16.0000 </r>
       <r>   -14.5506     0.0000    16.0000 </r>
       <r>   -14.4575     0.0000    16.0000 </r>
       <r>   -14.3644     0.0000    16.0000 </r>
       <r>   -14.2714     0.0000    16.0000 </r>
       <r>   -14.1783     0.0000    16.0000 </r>
       <r>   -14.0852     0.0000    16.0000 </r>
       <r>   -13.9921     0.0000    16.0000 </r>
       <r>   -13.8991     0.0000    16.0000 </r>
       <r>   -13.8060     0.0000    16.0000 </r>
       <r>   -13.7129     0.0000    16.0000 </r>
       <r>   -13.6198     0.0000    16.0000 </r>
       <r>   -13.5267     0.0000    16.0000 </r>
       <r>   -13.4337     0.0000    16.0000 </r>
       <r>   -13.3406     0.0000    16.0000 </r>
       <r>   -13.2475     0.0000    16.0000 </r>
       <r>   -13.1544     0.0000    16.0000 </r>
       <r>   -13.0614     0.0000    16.0000 </r>
       <r>   -12.9683     0.0000    16.0000 </r>
       <r>   -12.8752     0.0000    16.0000 </r>
       <r>   -12.7821     0.0000    16.0000 </r>
       <r>   -12.6890     0.0000    16.0000 </r>
       <r>   -12.5960     0.0000    16.0000 </r>
       <r>   -12.5029     0.0000    16.0000 </r>
       <r>   -12.4098     0.0000    16.0000 </r>
       <r>   -12.3167     0.0000    16.0000 </r>
       <r>   -12.2237     0.0000    16.0000 </r>
       <r>   -12.1306     0.0000    16.0000 </r>
       <r>   -12.0375     0.0000    16.0000 </r>
       <r>   -11.9444     0.0000    16.0000 </r>
       <r>   -11.8513     0.0000    16.0000 </r>
       <r>   -11.7583     0.0000    16.0000 </r>
       <r>   -11.6652     0.0000    16.0000 </r>
       <r>   -11.5721     0.0000    16.0000 </r>
       <r>   -11.4790     0.0000    16.0000 </r>
       <r>   -11.3860     0.0000    16.0000 </r>
       <r>   -11.2929     0.0000    16.0000 </r>
       <r>   -11.1998     0.0000    16.0000 </r>
       <r>   -11.1067     0.0000    16.0000 </r>
       <r>   -11.0136     0.0000    16.0000 </r>
       <r>   -10.9206     0.0000    16.0000 </r>
       <r>   -10.8275     0.0000    16.0000 </r>
       <r>   -10.7344     0.0000    16.0000 </r>
       <r>   -10.6413     0.0000    16.0000 </r>
       <r>   -10.5483     0.0000    16.0000 </r>
       <r>   -10.4552     0.0000    16.0000 </r>
       <r>   -10.3621     0.0000    16.0000 </r>
       <r>   -10.2690     0.0000    16.0000 </r>
       <r>   -10.1760     0.0000    16.0000 </r>
       <r>   -10.0829     0.0000    16.0000 </r>
       <r>    -9.9898     0.0000    16.0000 </r>
       <r>    -9.8967     0.0000    16.0000 </r>
       <r>    -9.8036     0.0000    16.0000 </r>
       <r>    -9.7106     0.0000    16.0000 </r>
       <r>    -9.6175     0.0001    16.0000 </r>
       <r>    -9.5244     0.0119    16.0011 </r>
       <r>    -9.4313     0.4237    16.0406 </r>
       <r>    -9.3383     3.2134    16.3397 </r>
       <r>    -9.2452     6.3861    16.9341 </r>
       <r>    -9.1521     6.5311    17.5420 </r>
       <r>    -9.0590     4.1163    17.9251 </r>
       <r>    -8.9659     0.9640    18.0148 </r>
       <r>    -8.8729     2.5143    18.2488 </r>
       <r>    -8.7798     8.6300    19.0521 </r>
       <r>    -8.6867    11.3194    20.1057 </r>
       <r>    -8.5936    13.3044    21.3440 </r>
       <r>    -8.5006    15.3536    22.7731 </r>
       <r>    -8.4075    12.2434    23.9127 </r>
       <r>    -8.3144    12.1805    25.0464 </r>
       <r>    -8.2213    21.0538    27.0061 </r>
       <r>    -8.1282    27.5087    29.5665 </r>
       <r>    -8.0352    25.1722    31.9095 </r>
       <r>    -7.9421    21.9188    33.9496 </r>
       <r>    -7.8490    23.4491    36.1322 </r>
       <r>    -7.7559    27.3189    38.6750 </r>
       <r>    -7.6629    26.7947    41.1690 </r>
       <r>    -7.5698    29.0884    43.8764 </r>
       <r>    -7.4767    41.7603    47.7634 </r>
       <r>    -7.3836    54.3808    52.8250 </r>
       <r>    -7.2905    54.1640    57.8665 </r>
       <r>    -7.1975    51.5517    62.6648 </r>
       <r>    -7.1044    56.6317    67.9359 </r>
       <r>    -7.0113    64.9923    73.9853 </r>
       <r>    -6.9182    73.0435    80.7840 </r>
       <r>    -6.8252    77.0954    87.9598 </r>
       <r>    -6.7321    80.1574    95.4207 </r>
       <r>    -6.6390    81.1647   102.9753 </r>
       <r>    -6.5459    82.4388   110.6485 </r>
       <r>    -6.4528    84.2571   118.4909 </r>
       <r>    -6.3598    80.3641   125.9710 </r>
       <r>    -6.2667    74.2123   132.8785 </r>
       <r>    -6.1736    76.1231   139.9639 </r>
       <r>    -6.0805    78.5321   147.2735 </r>
       <r>    -5.9875    79.0590   154.6321 </r>
       <r>    -5.8944    83.0942   162.3663 </r>
       <r>    -5.8013    87.7237   170.5314 </r>
       <r>    -5.7082    84.6082   178.4065 </r>
       <r>    -5.6152    80.6332   185.9117 </r>
       <r>    -5.5221    81.5311   193.5004 </r>
       <r>    -5.4290    82.8388   201.2108 </r>
       <r>    -5.3359    85.7363   209.1910 </r>
       <r>    -5.2428    86.7099   217.2617 </r>
       <r>    -5.1498    87.5280   225.4086 </r>
       <r>    -5.0567    88.1554   233.6139 </r>
       <r>    -4.9636    87.4187   241.7506 </r>
       <r>    -4.8705    87.6324   249.9072 </r>
       <r>    -4.7775    87.2520   258.0284 </r>
       <r>    -4.6844    86.6907   266.0974 </r>
       <r>    -4.5913    85.4353   274.0495 </r>
       <r>    -4.4982    88.7559   282.3107 </r>
       <r>    -4.4051    90.9849   290.7793 </r>
       <r>    -4.3121    89.6641   299.1251 </r>
       <r>    -4.2190    88.4907   307.3616 </r>
       <r>    -4.1259    89.8890   315.7282 </r>
       <r>    -4.0328    90.9985   324.1981 </r>
       <r>    -3.9398    93.1825   332.8713 </r>
       <r>    -3.8467    93.9788   341.6186 </r>
       <r>    -3.7536    90.2622   350.0200 </r>
       <r>    -3.6605    91.1279   358.5020 </r>
       <r>    -3.5674    95.2078   367.3637 </r>
       <r>    -3.4744    96.0044   376.2996 </r>
       <r>    -3.3813    92.4493   384.9045 </r>
       <r>    -3.2882    88.6366   393.1546 </r>
       <r>    -3.1951    90.5867   401.5862 </r>
       <r>    -3.1021    92.6774   410.2124 </r>
       <r>    -3.0090    92.7625   418.8465 </r>
       <r>    -2.9159    94.5829   427.6500 </r>
       <r>    -2.8228    94.7826   436.4722 </r>
       <r>    -2.7297    91.0064   444.9428 </r>
       <r>    -2.6367    87.1989   453.0591 </r>
       <r>    -2.5436    87.4948   461.2029 </r>
       <r>    -2.4505    90.7163   469.6466 </r>
       <r>    -2.3574    95.9831   478.5804 </r>
       <r>    -2.2644   100.4841   487.9332 </r>
       <r>    -2.1713    98.9772   497.1458 </r>
       <r>    -2.0782    98.0342   506.2706 </r>
       <r>    -1.9851    95.4351   515.1535 </r>
       <r>    -1.8920    89.3609   523.4709 </r>
       <r>    -1.7990    82.7998   531.1778 </r>
       <r>    -1.7059    77.6924   538.4092 </r>
       <r>    -1.6128    74.7069   545.3627 </r>
       <r>    -1.5197    61.2832   551.0668 </r>
       <r>    -1.4267    48.7431   555.6037 </r>
       <r>    -1.3336    38.1174   559.1516 </r>
       <r>    -1.2405    20.4314   561.0533 </r>
       <r>    -1.1474    17.1478   562.6493 </r>
       <r>    -1.0543    22.9977   564.7899 </r>
       <r>    -0.9613    22.5726   566.8909 </r>
       <r>    -0.8682    18.4859   568.6115 </r>
       <r>    -0.7751    20.7872   570.5464 </r>
       <r>    -0.6820    24.2220   572.8009 </r>
       <r>    -0.5890    24.9765   575.1256 </r>
       <r>    -0.4959    26.5379   577.5957 </r>
       <r>    -0.4028    26.1687   580.0314 </r>
       <r>    -0.3097    21.0057   581.9866 </r>
       <r>    -0.2167    15.8416   583.4611 </r>
       <r>    -0.1236    11.3751   584.5198 </r>
       <r>    -0.0305     9.3473   585.3899 </r>
       <r>     0.0626    10.9410   586.4082 </r>
       <r>     0.1557    12.4904   587.5708 </r>
       <r>     0.2487    13.7245   588.8483 </r>
       <r>     0.3418    17.4576   590.4732 </r>
       <r>     0.4349    16.6172   592.0198 </r>
       <r>     0.5280    15.9028   593.5000 </r>
       <r>     0.6210    15.7379   594.9649 </r>
       <r>     0.7141    17.9456   596.6352 </r>
       <r>     0.8072    19.6042   598.4599 </r>
       <r>     0.9003    16.3046   599.9775 </r>
       <r>     0.9934    12.2225   601.1152 </r>
       <r>     1.0864     8.4879   601.9052 </r>
       <r>     1.1795     7.6605   602.6182 </r>
       <r>     1.2726    11.4831   603.6870 </r>
       <r>     1.3657    12.0102   604.8049 </r>
       <r>     1.4587    12.2184   605.9422 </r>
       <r>     1.5518    15.1447   607.3518 </r>
       <r>     1.6449    18.1075   609.0372 </r>
       <r>     1.7380    17.2862   610.6462 </r>
       <r>     1.8311    15.4126   612.0807 </r>
       <r>     1.9241    17.6809   613.7264 </r>
       <r>     2.0172    17.6404   615.3684 </r>
       <r>     2.1103    16.6692   616.9199 </r>
       <r>     2.2034    19.6283   618.7468 </r>
       <r>     2.2964    14.8294   620.1271 </r>
       <r>     2.3895    11.5940   621.2063 </r>
       <r>     2.4826    12.6086   622.3798 </r>
       <r>     2.5757    12.4683   623.5404 </r>
       <r>     2.6688    11.7064   624.6300 </r>
       <r>     2.7618    11.9291   625.7403 </r>
       <r>     2.8549    13.3260   626.9806 </r>
       <r>     2.9480    12.7770   628.1699 </r>
       <r>     3.0411    10.4041   629.1383 </r>
       <r>     3.1341    13.9584   630.4375 </r>
       <r>     3.2272    19.1234   632.2175 </r>
       <r>     3.3203    19.8332   634.0635 </r>
       <r>     3.4134    16.9081   635.6372 </r>
       <r>     3.5065    16.7603   637.1972 </r>
       <r>     3.5995    17.5099   638.8270 </r>
       <r>     3.6926    14.2314   640.1516 </r>
       <r>     3.7857    14.8336   641.5323 </r>
       <r>     3.8788    16.5580   643.0735 </r>
       <r>     3.9718    14.9137   644.4616 </r>
       <r>     4.0649    18.2918   646.1642 </r>
       <r>     4.1580    20.7958   648.0998 </r>
       <r>     4.2511    15.9197   649.5816 </r>
       <r>     4.3442    12.1490   650.7124 </r>
       <r>     4.4372    18.0500   652.3924 </r>
       <r>     4.5303    21.7886   654.4205 </r>
       <r>     4.6234    24.4647   656.6976 </r>
       <r>     4.7165    28.6109   659.3606 </r>
       <r>     4.8095    27.6059   661.9301 </r>
       <r>     4.9026    25.2055   664.2762 </r>
       <r>     4.9957    23.3991   666.4541 </r>
       <r>     5.0888    25.6138   668.8382 </r>
       <r>     5.1818    22.5396   670.9361 </r>
       <r>     5.2749     9.7051   671.8394 </r>
       <r>     5.3680     1.6359   671.9917 </r>
       <r>     5.4611     0.0881   671.9999 </r>
       <r>     5.5542     0.0012   672.0000 </r>
       <r>     5.6472     0.0000   672.0000 </r>
       <r>     5.7403     0.0000   672.0000 </r>
       <r>     5.8334     0.0000   672.0000 </r>
       <r>     5.9265     0.0000   672.0000 </r>
       <r>     6.0195     0.0000   672.0000 </r>
       <r>     6.1126     0.0000   672.0000 </r>
       <r>     6.2057     0.0000   672.0000 </r>
       <r>     6.2988     0.0000   672.0000 </r>
       <r>     6.3919     0.0000   672.0000 </r>
       <r>     6.4849     0.0000   672.0000 </r>
      </set>
     </set>
    </array>
   </total>
  </dos>
 </calculation>
 <structure name="finalpos" >
  <crystal>
   <varray name="basis" >
    <v>      11.00258152       0.00000000       0.00000000 </v>
    <v>       5.50129076       9.52851510       0.00000000 </v>
    <v>       0.00000000       0.00000000      26.19178509 </v>
   </varray>
   <i name="volume">   2745.90128299 </i>
   <varray name="rec_basis" >
    <v>       0.09088776      -0.05247407       0.00000000 </v>
    <v>       0.00000000       0.10494815       0.00000000 </v>
    <v>       0.00000000       0.00000000       0.03817991 </v>
   </varray>
  </crystal>
  <varray name="positions" >
   <v>       0.25514853       0.48131542       0.56470459 </v>
   <v>       0.41719971       0.16391658       0.47457444 </v>
   <v>       0.49661330       0.00737856       0.56294176 </v>
   <v>       0.91760033       0.16213561       0.47461545 </v>
   <v>      -0.00210297       0.00434747       0.56591159 </v>
   <v>       0.75685740       0.48596722       0.56313841 </v>
   <v>       0.83333333       0.58333333       0.38179910 </v>
   <v>       0.75407007       0.27193315       0.60896582 </v>
   <v>       0.00156859       0.24866264       0.56362721 </v>
   <v>       0.66674904       0.41697830       0.47138508 </v>
   <v>       0.83333333       0.33333333       0.38179910 </v>
   <v>       0.74871117       0.00054757       0.56431271 </v>
   <v>       0.25982207       0.72622743       0.57133254 </v>
   <v>       0.08333333       0.83333333       0.38179910 </v>
   <v>       0.16651740       0.66552762       0.47592307 </v>
   <v>       0.50948849       0.73369393       0.56724076 </v>
   <v>       0.58333333       0.83333333       0.38179910 </v>
   <v>       0.33333333       0.08333333       0.38179910 </v>
   <v>       0.51346785       0.48258141       0.56565608 </v>
   <v>       0.24251080       0.00917072       0.56261586 </v>
   <v>       0.51266038       0.24202561       0.56923818 </v>
   <v>       0.41886564       0.41472075       0.47034807 </v>
   <v>       0.16376500       0.41376271       0.47145299 </v>
   <v>       0.83333333       0.08333333       0.38179910 </v>
   <v>       0.03794406       0.45997139       0.63615826 </v>
   <v>       0.09170795       0.80306369       0.61844773 </v>
   <v>       0.32830516       0.08746488       0.61910065 </v>
   <v>       0.34395470       0.33592092       0.62662664 </v>
   <v>       0.84559621       0.80559227       0.61214645 </v>
   <v>       0.59609558       0.82096014       0.61410330 </v>
   <v>       0.82159617       0.06945263       0.62678435 </v>
   <v>       0.33830799       0.82495992       0.61607918 </v>
   <v>       0.41649730       0.66820161       0.47593206 </v>
   <v>       0.58333333       0.58333333       0.38179910 </v>
   <v>       0.08333333       0.08333333       0.38179910 </v>
   <v>       0.58333333       0.33333333       0.38179910 </v>
   <v>       0.58333333       0.08333333       0.38179910 </v>
   <v>       0.76009050       0.72954551       0.56729505 </v>
   <v>       0.33333333       0.58333333       0.38179910 </v>
   <v>       0.16960662       0.91542485       0.47561398 </v>
   <v>       0.19670926       0.28114983       0.62715680 </v>
   <v>       0.41754895       0.91330961       0.47170564 </v>
   <v>       0.00946942       0.73157735       0.56818928 </v>
   <v>       0.91735802       0.91207418       0.47274175 </v>
   <v>       0.66734301       0.16398448       0.47597451 </v>
   <v>       0.00412931       0.48959960       0.56351141 </v>
   <v>       0.91512352       0.66636636       0.47622609 </v>
   <v>       0.08333333       0.58333333       0.38179910 </v>
   <v>       0.91728324       0.41682601       0.47264594 </v>
   <v>       0.08333333       0.33333333       0.38179910 </v>
   <v>       0.66563583       0.66923733       0.47569029 </v>
   <v>       0.83333333       0.83333333       0.38179910 </v>
   <v>       0.66994938       0.91371214       0.47647711 </v>
   <v>       0.33333333       0.83333333       0.38179910 </v>
   <v>       0.16721934       0.16438069       0.47302005 </v>
   <v>       0.33333333       0.33333333       0.38179910 </v>
  </varray>
  <varray name="selective"  type="logical" >
   <v type="logical" >  T  T  T </v>
   <v type="logical" >  T  T  T </v>
   <v type="logical" >  T  T  T </v>
   <v type="logical" >  T  T  T </v>
   <v type="logical" >  T  T  T </v>
   <v type="logical" >  T  T  T </v>
   <v type="logical" >  F  F  F </v>
   <v type="logical" >  T  T  T </v>
   <v type="logical" >  T  T  T </v>
   <v type="logical" >  T  T  T </v>
   <v type="logical" >  F  F  F </v>
   <v type="logical" >  T  T  T </v>
   <v type="logical" >  T  T  T </v>
   <v type="logical" >  F  F  F </v>
   <v type="logical" >  T  T  T </v>
   <v type="logical" >  T  T  T </v>
   <v type="logical" >  F  F  F </v>
   <v type="logical" >  F  F  F </v>
   <v type="logical" >  T  T  T </v>
   <v type="logical" >  T  T  T </v>
   <v type="logical" >  T  T  T </v>
   <v type="logical" >  T  T  T </v>
   <v type="logical" >  T  T  T </v>
   <v type="logical" >  F  F  F </v>
   <v type="logical" >  T  T  T </v>
   <v type="logical" >  T  T  T </v>
   <v type="logical" >  T  T  T </v>
   <v type="logical" >  T  T  T </v>
   <v type="logical" >  T  T  T </v>
   <v type="logical" >  T  T  T </v>
   <v type="logical" >  T  T  T </v>
   <v type="logical" >  T  T  T </v>
   <v type="logical" >  T  T  T </v>
   <v type="logical" >  F  F  F </v>
   <v type="logical" >  F  F  F </v>
   <v type="logical" >  F  F  F </v>
   <v type="logical" >  F  F  F </v>
   <v type="logical" >  T  T  T </v>
   <v type="logical" >  F  F  F </v>
   <v type="logical" >  T  T  T </v>
   <v type="logical" >  T  T  T </v>
   <v type="logical" >  T  T  T </v>
   <v type="logical" >  T  T  T </v>
   <v type="logical" >  T  T  T </v>
   <v type="logical" >  T  T  T </v>
   <v type="logical" >  T  T  T </v>
   <v type="logical" >  T  T  T </v>
   <v type="logical" >  F  F  F </v>
   <v type="logical" >  T  T  T </v>
   <v type="logical" >  F  F  F </v>
   <v type="logical" >  T  T  T </v>
   <v type="logical" >  F  F  F </v>
   <v type="logical" >  T  T  T </v>
   <v type="logical" >  F  F  F </v>
   <v type="logical" >  T  T  T </v>
   <v type="logical" >  F  F  F </v>
  </varray>
  <nose>
   <v>      -3.00000000       0.00000000       0.00010000       0.00010000 </v>
  </nose>
 </structure>
</modeling>
