<?xml version="1.0" encoding="ISO-8859-1"?>
<modeling>
 <generator>
  <i name="program" type="string">vasp </i>
  <i name="version" type="string">5.4.1  </i>
  <i name="subversion" type="string">24Jun15 (build Mar 14 2019 10:18:33) complex                          parallel </i>
  <i name="platform" type="string">INTEL-19.0.2+OPENMPI-3.1.3 </i>
  <i name="date" type="string">2022 07 15 </i>
  <i name="time" type="string">18:18:51 </i>
 </generator>
 <incar>
  <i type="int" name="ISTART">     0</i>
  <i type="string" name="PREC">normal</i>
  <i type="string" name="ALGO"> Fast</i>
  <i type="int" name="NELM">   500</i>
  <i type="int" name="IBRION">     2</i>
  <i type="int" name="NFREE">     2</i>
  <i name="EDIFF">      0.00000100</i>
  <i name="EDIFFG">     -0.02000000</i>
  <i type="int" name="NSW">   500</i>
  <i type="int" name="ISIF">     0</i>
  <i type="int" name="ISYM">     2</i>
  <i name="ENCUT">    400.00000000</i>
  <i name="POTIM">      0.35000000</i>
  <i type="string" name="LREAL"> Auto</i>
  <i type="logical" name="LPLANE"> T  </i>
  <i type="int" name="ISMEAR">     0</i>
  <i name="SIGMA">      0.10000000</i>
  <i type="int" name="NWRITE">     1</i>
  <i type="logical" name="LWAVE"> F  </i>
  <i type="logical" name="LCHARG"> F  </i>
  <i type="logical" name="LVTOT"> F  </i>
  <i type="logical" name="LORBIT"> F  </i>
  <i type="logical" name="LAECHG"> F  </i>
  <v type="int" name="KPOINT_BSE">    -1     0     0     0</v>
  <i type="int" name="NELM">   500</i>
  <i type="string" name="GGA"> PE          ! optPBE-vdW XC-functional</i>
  <i type="int" name="VOSKOWN">     1</i>
  <i type="logical" name="LDIPOL"> T  </i>
  <i type="logical" name="LMONO"> F  </i>
  <i type="int" name="IDIPOL">     3</i>
  <v name="DIPOL">      0.00000000      0.00000000      0.50000000</v>
 </incar>
 <kpoints>
  <generation param="Monkhorst-Pack">
   <v type="int" name="divisions">       2        2        1 </v>
   <v name="usershift">      0.00000000       0.00000000       0.00000000 </v>
   <v name="genvec1">      0.50000000      -0.00000000       0.00000000 </v>
   <v name="genvec2">      0.00000000       0.50000000       0.00000000 </v>
   <v name="genvec3">      0.00000000       0.00000000       1.00000000 </v>
   <v name="shift">      0.50000000       0.50000000       0.00000000 </v>
  </generation>
  <varray name="kpointlist" >
   <v>       0.25000000       0.25000000       0.00000000 </v>
   <v>       0.00000000       0.25000000       0.00000000 </v>
   <v>      -0.25000000       0.00000000       0.00000000 </v>
   <v>      -0.25000000       0.25000000       0.00000000 </v>
   <v>       0.50000000      -0.25000000       0.00000000 </v>
   <v>      -0.25000000       0.50000000       0.00000000 </v>
  </varray>
  <varray name="weights" >
   <v>       0.16666667 </v>
   <v>       0.16666667 </v>
   <v>       0.16666667 </v>
   <v>       0.16666667 </v>
   <v>       0.16666667 </v>
   <v>       0.16666667 </v>
  </varray>
 </kpoints>
 <parameters>
  <separator name="general" >
   <i type="string" name="SYSTEM">unknown system</i>
   <i type="logical" name="LCOMPAT"> F  </i>
  </separator>
  <separator name="electronic" >
   <i type="string" name="PREC">normal</i>
   <i name="ENMAX">    400.00000000</i>
   <i name="ENAUG">    416.23000000</i>
   <i name="EDIFF">      0.00000100</i>
   <i type="int" name="IALGO">    68</i>
   <i type="int" name="IWAVPR">    11</i>
   <i type="int" name="NBANDS">   306</i>
   <i name="NELECT">    504.00000000</i>
   <i type="int" name="TURBO">     0</i>
   <i type="int" name="IRESTART">     0</i>
   <i type="int" name="NREBOOT">     0</i>
   <i type="int" name="NMIN">     0</i>
   <i name="EREF">      0.00000000</i>
   <separator name="electronic smearing" >
    <i type="int" name="ISMEAR">     0</i>
    <i name="SIGMA">      0.10000000</i>
    <i name="KSPACING">      0.50000000</i>
    <i type="logical" name="KGAMMA"> T  </i>
   </separator>
   <separator name="electronic projectors" >
    <i type="logical" name="LREAL"> T  </i>
    <v name="ROPT">     -0.00050000     -0.00050000</v>
    <i type="int" name="LMAXPAW">  -100</i>
    <i type="int" name="LMAXMIX">     2</i>
    <i type="logical" name="NLSPLINE"> F  </i>
   </separator>
   <separator name="electronic startup" >
    <i type="int" name="ISTART">     0</i>
    <i type="int" name="ICHARG">     2</i>
    <i type="int" name="INIWAV">     1</i>
   </separator>
   <separator name="electronic spin" >
    <i type="int" name="ISPIN">     1</i>
    <i type="logical" name="LNONCOLLINEAR"> F  </i>
    <v name="MAGMOM">      1.00000000      1.00000000      1.00000000      1.00000000      1.00000000      1.00000000      1.00000000      1.00000000      1.00000000      1.00000000      1.00000000      1.00000000      1.00000000      1.00000000      1.00000000      1.00000000      1.00000000      1.00000000      1.00000000      1.00000000
      1.00000000      1.00000000      1.00000000      1.00000000      1.00000000      1.00000000      1.00000000      1.00000000      1.00000000      1.00000000      1.00000000      1.00000000      1.00000000      1.00000000      1.00000000      1.00000000      1.00000000      1.00000000      1.00000000      1.00000000
      1.00000000      1.00000000      1.00000000      1.00000000      1.00000000      1.00000000      1.00000000      1.00000000</v>
    <i name="NUPDOWN">     -1.00000000</i>
    <i type="logical" name="LSORBIT"> F  </i>
    <v name="SAXIS">      0.00000000      0.00000000      1.00000000</v>
    <i type="logical" name="LSPIRAL"> F  </i>
    <v name="QSPIRAL">      0.00000000      0.00000000      0.00000000</v>
    <i type="logical" name="LZEROZ"> F  </i>
   </separator>
   <separator name="electronic exchange-correlation" >
    <i type="logical" name="LASPH"> F  </i>
    <i type="logical" name="LMETAGGA"> F  </i>
   </separator>
   <separator name="electronic convergence" >
    <i type="int" name="NELM">   500</i>
    <i type="int" name="NELMDL">    -5</i>
    <i type="int" name="NELMIN">     2</i>
    <i name="ENINI">    400.00000000</i>
    <separator name="electronic convergence detail" >
     <i type="logical" name="LDIAG"> T  </i>
     <i type="logical" name="LSUBROT"> F  </i>
     <i name="WEIMIN">      0.00100000</i>
     <i name="EBREAK">      0.00000000</i>
     <i name="DEPER">      0.30000000</i>
     <i type="int" name="NRMM">     4</i>
     <i name="TIME">      0.40000000</i>
    </separator>
   </separator>
   <separator name="electronic mixer" >
    <i name="AMIX">      0.40000000</i>
    <i name="BMIX">      1.00000000</i>
    <i name="AMIN">      0.10000000</i>
    <i name="AMIX_MAG">      1.60000000</i>
    <i name="BMIX_MAG">      1.00000000</i>
    <separator name="electronic mixer details" >
     <i type="int" name="IMIX">     4</i>
     <i type="logical" name="MIXFIRST"> F  </i>
     <i type="int" name="MAXMIX">   -45</i>
     <i name="WC">    100.00000000</i>
     <i type="int" name="INIMIX">     1</i>
     <i type="int" name="MIXPRE">     1</i>
     <i type="int" name="MREMOVE">     5</i>
    </separator>
   </separator>
   <separator name="electronic dipolcorrection" >
    <i type="logical" name="LDIPOL"> T  </i>
    <i type="logical" name="LMONO"> F  </i>
    <i type="int" name="IDIPOL">     3</i>
    <i name="EPSILON">      1.00000000</i>
    <v name="DIPOL">      0.00000000      0.00000000      0.50000000</v>
    <i name="EFIELD">      0.00000000</i>
   </separator>
  </separator>
  <separator name="grids" >
   <i type="int" name="NGX">    54</i>
   <i type="int" name="NGY">    54</i>
   <i type="int" name="NGZ">   120</i>
   <i type="int" name="NGXF">   108</i>
   <i type="int" name="NGYF">   108</i>
   <i type="int" name="NGZF">   240</i>
   <i type="logical" name="ADDGRID"> F  </i>
  </separator>
  <separator name="ionic" >
   <i type="int" name="NSW">   500</i>
   <i type="int" name="IBRION">     2</i>
   <i type="int" name="ISIF">     0</i>
   <i name="PSTRESS">      0.00000000</i>
   <i name="EDIFFG">     -0.02000000</i>
   <i type="int" name="NFREE">     2</i>
   <i name="POTIM">      0.35000000</i>
   <i name="SMASS">     -3.00000000</i>
   <i name="SCALEE">      1.00000000</i>
  </separator>
  <separator name="ionic md" >
   <i name="TEBEG">      0.00010000</i>
   <i name="TEEND">      0.00010000</i>
   <i type="int" name="NBLOCK">     1</i>
   <i type="int" name="KBLOCK">   500</i>
   <i type="int" name="NPACO">   256</i>
   <i name="APACO">     16.00000000</i>
  </separator>
  <separator name="symmetry" >
   <i type="int" name="ISYM">     2</i>
   <i name="SYMPREC">      0.00001000</i>
  </separator>
  <separator name="dos" >
   <i type="logical" name="LORBIT"> F  </i>
   <v name="RWIGS">     -1.00000000     -1.00000000</v>
   <i type="int" name="NEDOS">   301</i>
   <i name="EMIN">     10.00000000</i>
   <i name="EMAX">    -10.00000000</i>
   <i name="EFERMI">      0.00000000</i>
  </separator>
  <separator name="writing" >
   <i type="int" name="NWRITE">     1</i>
   <i type="logical" name="LWAVE"> F  </i>
   <i type="logical" name="LCHARG"> F  </i>
   <i type="logical" name="LPARD"> F  </i>
   <i type="logical" name="LVTOT"> F  </i>
   <i type="logical" name="LVHAR"> F  </i>
   <i type="logical" name="LELF"> F  </i>
   <i type="logical" name="LOPTICS"> F  </i>
   <v name="STM">      0.00000000      0.00000000      0.00000000      0.00000000      0.00000000      0.00000000      0.00000000</v>
  </separator>
  <separator name="performance" >
   <i type="int" name="NPAR">     6</i>
   <i type="int" name="NSIM">     4</i>
   <i type="int" name="NBLK">    -1</i>
   <i type="logical" name="LPLANE"> T  </i>
   <i type="logical" name="LSCALAPACK"> T  </i>
   <i type="logical" name="LSCAAWARE"> F  </i>
   <i type="logical" name="LSCALU"> F  </i>
   <i type="logical" name="LASYNC"> F  </i>
   <i type="logical" name="LORBITALREAL"> F  </i>
  </separator>
  <separator name="miscellaneous" >
   <i type="int" name="IDIOT">     3</i>
   <i type="logical" name="LMUSIC"> F  </i>
   <v name="POMASS">    196.96600000    106.42000000</v>
   <v name="DARWINR">      0.00000000      0.00000000</v>
   <v name="DARWINV">      1.00000000      1.00000000</v>
   <i type="logical" name="LCORR"> T  </i>
  </separator>
  <i type="logical" name="GGA_COMPAT"> T  </i>
  <i type="logical" name="LBERRY"> F  </i>
  <i type="int" name="ICORELEVEL">     0</i>
  <i type="logical" name="LDAU"> F  </i>
  <i type="int" name="I_CONSTRAINED_M">     0</i>
  <separator name="electronic exchange-correlation" >
   <i type="string" name="GGA">PE</i>
   <i type="int" name="VOSKOWN">     1</i>
   <i type="logical" name="LHFCALC"> F  </i>
   <i type="string" name="PRECFOCK"></i>
   <i type="logical" name="LSYMGRAD"> F  </i>
   <i type="logical" name="LHFONE"> F  </i>
   <i type="logical" name="LRHFCALC"> F  </i>
   <i type="logical" name="LTHOMAS"> F  </i>
   <i type="logical" name="LMODELHF"> F  </i>
   <i name="ENCUT4O">     -1.00000000</i>
   <i type="int" name="EXXOEP">     0</i>
   <i type="int" name="FOURORBIT">     0</i>
   <i name="AEXX">      0.00000000</i>
   <i name="HFALPHA">      0.00000000</i>
   <i name="MCALPHA">      0.00000000</i>
   <i name="ALDAX">      1.00000000</i>
   <i name="AGGAX">      1.00000000</i>
   <i name="ALDAC">      1.00000000</i>
   <i name="AGGAC">      1.00000000</i>
   <i type="int" name="NKREDX">     1</i>
   <i type="int" name="NKREDY">     1</i>
   <i type="int" name="NKREDZ">     1</i>
   <i type="logical" name="SHIFTRED"> F  </i>
   <i type="logical" name="ODDONLY"> F  </i>
   <i type="logical" name="EVENONLY"> F  </i>
   <i type="int" name="LMAXFOCK">     0</i>
   <i type="int" name="NMAXFOCKAE">     0</i>
   <i type="logical" name="LFOCKAEDFT"> F  </i>
   <i name="HFSCREEN">      0.00000000</i>
   <i name="HFSCREENC">      0.00000000</i>
   <i type="int" name="NBANDSGWLOW">     0</i>
  </separator>
  <separator name="vdW DFT" >
   <i type="logical" name="LUSE_VDW"> F  </i>
   <i name="Zab_VDW">     -0.84910000</i>
   <i name="PARAM1">      0.12340000</i>
   <i name="PARAM2">      1.00000000</i>
   <i name="PARAM3">      0.00000000</i>
  </separator>
  <separator name="model GW" >
   <i type="int" name="MODEL_GW">     0</i>
   <i name="MODEL_EPS0">     32.09595293</i>
   <i name="MODEL_ALPHA">      1.00000000</i>
  </separator>
  <separator name="linear response parameters" >
   <i type="logical" name="LEPSILON"> F  </i>
   <i type="logical" name="LRPA"> F  </i>
   <i type="logical" name="LNABLA"> F  </i>
   <i type="logical" name="LVEL"> F  </i>
   <i type="int" name="KINTER">     0</i>
   <i name="CSHIFT">      0.10000000</i>
   <i name="OMEGAMAX">     -1.00000000</i>
   <i name="DEG_THRESHOLD">      0.00200000</i>
  </separator>
  <separator name="orbital magnetization" >
   <i type="logical" name="NUCIND"> F  </i>
   <v name="MAGPOS">      0.00000000      0.00000000      0.00000000</v>
   <i type="logical" name="LNICSALL"> T  </i>
   <i type="logical" name="ORBITALMAG"> F  </i>
   <i type="logical" name="LMAGBLOCH"> F  </i>
   <i type="logical" name="LCHIMAG"> F  </i>
   <i type="logical" name="LGAUGE"> T  </i>
   <i type="int" name="MAGATOM">     0</i>
   <v name="MAGDIPOL">      0.00000000      0.00000000      0.00000000</v>
   <v name="AVECCONST">      0.00000000      0.00000000      0.00000000</v>
  </separator>
  <separator name="response functions" >
   <i type="logical" name="LADDER"> F  </i>
   <i type="logical" name="LFXC"> F  </i>
   <i type="logical" name="LHARTREE"> T  </i>
   <i type="int" name="IBSE">     0</i>
   <v type="int" name="KPOINT">    -1     0     0     0</v>
   <i type="logical" name="LTCTE"> F  </i>
   <i type="logical" name="LTETE"> F  </i>
   <i type="logical" name="LTRIPLET"> F  </i>
   <i type="logical" name="LFXCEPS"> F  </i>
   <i type="logical" name="LFXHEG"> F  </i>
   <i type="int" name="NATURALO">     0</i>
   <i type="logical" name="L2ORDER"> F  </i>
   <i type="logical" name="LUSEW"> F  </i>
   <i name="ENCUTGW">     -2.00000000</i>
   <i name="ENCUTGWSOFT">     -2.00000000</i>
   <i name="ENCUTLF">     -1.00000000</i>
   <i type="int" name="LMAXMP2">    -1</i>
   <i name="SCISSOR">      0.00000000</i>
   <i type="int" name="NOMEGA">     0</i>
   <i type="int" name="NOMEGAR">     0</i>
   <i type="int" name="NBANDSGW">    -1</i>
   <i type="int" name="NBANDSO">    -1</i>
   <i type="int" name="NBANDSV">    -1</i>
   <i type="int" name="NELM">   500</i>
   <i type="int" name="NELMHF">     1</i>
   <i type="int" name="DIM">     3</i>
   <i type="int" name="ANTIRES">     0</i>
   <i name="OMEGAMAX">    -30.00000000</i>
   <i name="OMEGAMIN">    -30.00000000</i>
   <i name="OMEGATL">   -200.00000000</i>
   <i type="int" name="OMEGAGRID">     0</i>
   <i name="CSHIFT">     -0.10000000</i>
   <i type="logical" name="SELFENERGY"> F  </i>
   <i type="logical" name="LSPECTRAL"> F  </i>
   <i type="logical" name="LSPECTRALGW"> F  </i>
   <i type="logical" name="LSINGLES"> F  </i>
   <i type="logical" name="LFERMIGW"> F  </i>
   <i type="logical" name="ODDONLYGW"> F  </i>
   <i type="logical" name="EVENONLYGW"> F  </i>
   <i type="int" name="NKREDLFX">     1</i>
   <i type="int" name="NKREDLFY">     1</i>
   <i type="int" name="NKREDLFZ">     1</i>
   <i type="int" name="MAXMEM">  1800</i>
   <i type="int" name="TELESCOPE">     0</i>
   <i type="int" name="TAUPAR">     1</i>
   <i type="int" name="OMEGAPAR">    -1</i>
   <i name="LAMBDA">      1.00000000</i>
  </separator>
  <separator name="External order field" >
   <i name="OFIELD_KAPPA">      0.00000000</i>
   <v name="OFIELD_K">      0.00000000      0.00000000      0.00000000</v>
   <i name="OFIELD_Q6_NEAR">      0.00000000</i>
   <i name="OFIELD_Q6_FAR">      0.00000000</i>
   <i name="OFIELD_A">      0.00000000</i>
  </separator>
 </parameters>
 <atominfo>
  <atoms>      48 </atoms>
  <types>       2 </types>
  <array name="atoms" >
   <dimension dim="1">ion</dimension>
   <field type="string">element</field>
   <field type="int">atomtype</field>
   <set>
    <rc><c>Au</c><c>   1</c></rc>
    <rc><c>Au</c><c>   1</c></rc>
    <rc><c>Au</c><c>   1</c></rc>
    <rc><c>Au</c><c>   1</c></rc>
    <rc><c>Au</c><c>   1</c></rc>
    <rc><c>Au</c><c>   1</c></rc>
    <rc><c>Au</c><c>   1</c></rc>
    <rc><c>Au</c><c>   1</c></rc>
    <rc><c>Au</c><c>   1</c></rc>
    <rc><c>Au</c><c>   1</c></rc>
    <rc><c>Au</c><c>   1</c></rc>
    <rc><c>Au</c><c>   1</c></rc>
    <rc><c>Au</c><c>   1</c></rc>
    <rc><c>Au</c><c>   1</c></rc>
    <rc><c>Au</c><c>   1</c></rc>
    <rc><c>Au</c><c>   1</c></rc>
    <rc><c>Au</c><c>   1</c></rc>
    <rc><c>Au</c><c>   1</c></rc>
    <rc><c>Au</c><c>   1</c></rc>
    <rc><c>Au</c><c>   1</c></rc>
    <rc><c>Au</c><c>   1</c></rc>
    <rc><c>Au</c><c>   1</c></rc>
    <rc><c>Au</c><c>   1</c></rc>
    <rc><c>Au</c><c>   1</c></rc>
    <rc><c>Pd</c><c>   2</c></rc>
    <rc><c>Pd</c><c>   2</c></rc>
    <rc><c>Pd</c><c>   2</c></rc>
    <rc><c>Pd</c><c>   2</c></rc>
    <rc><c>Pd</c><c>   2</c></rc>
    <rc><c>Pd</c><c>   2</c></rc>
    <rc><c>Pd</c><c>   2</c></rc>
    <rc><c>Pd</c><c>   2</c></rc>
    <rc><c>Pd</c><c>   2</c></rc>
    <rc><c>Pd</c><c>   2</c></rc>
    <rc><c>Pd</c><c>   2</c></rc>
    <rc><c>Pd</c><c>   2</c></rc>
    <rc><c>Pd</c><c>   2</c></rc>
    <rc><c>Pd</c><c>   2</c></rc>
    <rc><c>Pd</c><c>   2</c></rc>
    <rc><c>Pd</c><c>   2</c></rc>
    <rc><c>Pd</c><c>   2</c></rc>
    <rc><c>Pd</c><c>   2</c></rc>
    <rc><c>Pd</c><c>   2</c></rc>
    <rc><c>Pd</c><c>   2</c></rc>
    <rc><c>Pd</c><c>   2</c></rc>
    <rc><c>Pd</c><c>   2</c></rc>
    <rc><c>Pd</c><c>   2</c></rc>
    <rc><c>Pd</c><c>   2</c></rc>
   </set>
  </array>
  <array name="atomtypes" >
   <dimension dim="1">type</dimension>
   <field type="int">atomspertype</field>
   <field type="string">element</field>
   <field>mass</field>
   <field>valence</field>
   <field type="string">pseudopotential</field>
   <set>
    <rc><c>  24</c><c>Au</c><c>    196.96600000</c><c>     11.00000000</c><c>  PAW_PBE Au 04Oct2007                  </c></rc>
    <rc><c>  24</c><c>Pd</c><c>    106.42000000</c><c>     10.00000000</c><c>  PAW_PBE Pd 04Jan2005                  </c></rc>
   </set>
  </array>
 </atominfo>
 <structure name="initialpos" >
  <crystal>
   <varray name="basis" >
    <v>      11.00258152       0.00000000       0.00000000 </v>
    <v>       5.50129076       9.52851510       0.00000000 </v>
    <v>       0.00000000       0.00000000      24.49178509 </v>
   </varray>
   <i name="volume">   2567.67623402 </i>
   <varray name="rec_basis" >
    <v>       0.09088776      -0.05247407       0.00000000 </v>
    <v>       0.00000000       0.10494815       0.00000000 </v>
    <v>       0.00000000       0.00000000       0.04083002 </v>
   </varray>
  </crystal>
  <varray name="positions" >
   <v>       0.75000000       0.75000000       0.59169983 </v>
   <v>       0.41666667       0.91666667       0.50000000 </v>
   <v>       0.50000000       0.25000000       0.59169983 </v>
   <v>       0.41666667       0.41666667       0.50000000 </v>
   <v>       0.83333333       0.08333333       0.40830017 </v>
   <v>       0.41666667       0.16666667       0.50000000 </v>
   <v>       0.58333333       0.08333333       0.40830017 </v>
   <v>       0.66666667       0.91666667       0.50000000 </v>
   <v>       0.16666667       0.91666667       0.50000000 </v>
   <v>       0.33333333       0.83333333       0.40830017 </v>
   <v>       0.16666667       0.66666667       0.50000000 </v>
   <v>       0.25000000       0.25000000       0.59169983 </v>
   <v>       0.41666667       0.66666667       0.50000000 </v>
   <v>       0.33333333       0.33333333       0.40830017 </v>
   <v>       0.16666667       0.41666667       0.50000000 </v>
   <v>       0.83333333       0.33333333       0.40830017 </v>
   <v>       0.91666667       0.16666667       0.50000000 </v>
   <v>       0.00000000       0.00000000       0.59169983 </v>
   <v>       0.08333333       0.33333333       0.40830017 </v>
   <v>       0.91666667       0.41666667       0.50000000 </v>
   <v>       0.08333333       0.58333333       0.40830017 </v>
   <v>       0.25000000       0.00000000       0.59169983 </v>
   <v>       0.50000000       0.50000000       0.59169983 </v>
   <v>       0.08333333       0.83333333       0.40830017 </v>
   <v>       0.66666667       0.16666667       0.50000000 </v>
   <v>       0.83333333       0.83333333       0.40830017 </v>
   <v>       0.83333333       0.58333333       0.40830017 </v>
   <v>       0.50000000       0.75000000       0.59169983 </v>
   <v>       0.75000000       0.00000000       0.59169983 </v>
   <v>       0.75000000       0.25000000       0.59169983 </v>
   <v>       0.66666667       0.41666667       0.50000000 </v>
   <v>       0.66666667       0.66666667       0.50000000 </v>
   <v>       0.75000000       0.50000000       0.59169983 </v>
   <v>       0.08333333       0.08333333       0.40830017 </v>
   <v>       0.58333333       0.58333333       0.40830017 </v>
   <v>       0.58333333       0.33333333       0.40830017 </v>
   <v>       0.50000000       0.00000000       0.59169983 </v>
   <v>       0.25000000       0.50000000       0.59169983 </v>
   <v>       0.33333333       0.58333333       0.40830017 </v>
   <v>       0.16666667       0.16666667       0.50000000 </v>
   <v>       0.33333333       0.08333333       0.40830017 </v>
   <v>       0.00000000       0.75000000       0.59169983 </v>
   <v>       0.91666667       0.91666667       0.50000000 </v>
   <v>       0.00000000       0.50000000       0.59169983 </v>
   <v>       0.91666667       0.66666667       0.50000000 </v>
   <v>       0.00000000       0.25000000       0.59169983 </v>
   <v>       0.58333333       0.83333333       0.40830017 </v>
   <v>       0.25000000       0.75000000       0.59169983 </v>
  </varray>
 </structure>
 <calculation>
  <scstep>
   <time name="dav">    7.11    7.13</time>
   <time name="total">    7.16    7.18</time>
   <dipole>
    <v name="dipole">      0.00000000       0.00000000       0.00000148 </v>
    <i name="Tr[quadrupol]"> -10252.10194090 </i>
    <i name="Echarged">      0.00000000 </i>
    <i name="Edipol_quadrupol">      0.00000000 </i>
    <i name="Eion">      0.00000000 </i>
   </dipole>
   <energy>
    <i name="alphaZ">    805.86936475 </i>
    <i name="ewald"> 200633.59670551 </i>
    <i name="hartreedc">-243049.65585239 </i>
    <i name="XCdc">   -327.49688107 </i>
    <i name="pawpsdc">  40340.05962942 </i>
    <i name="pawaedc"> -38292.62782345 </i>
    <i name="eentropy">     -0.13511058 </i>
    <i name="bandstr">   1432.63028798 </i>
    <i name="atom">  41659.78587232 </i>
    <i name="e_fr_energy">   3202.02619250 </i>
    <i name="e_wo_entrp">   3202.16130308 </i>
    <i name="e_0_energy">   3202.09374779 </i>
   </energy>
  </scstep>
  <scstep>
   <time name="dav">    8.46    8.48</time>
   <time name="total">    8.46    8.49</time>
   <dipole>
    <v name="dipole">      0.00000000       0.00000000       0.00000148 </v>
    <i name="Tr[quadrupol]"> -10252.10194090 </i>
    <i name="Echarged">      0.00000000 </i>
    <i name="Edipol_quadrupol">      0.00000000 </i>
    <i name="Eion">      0.00000000 </i>
   </dipole>
   <energy>
    <i name="e_fr_energy">     15.67860155 </i>
    <i name="e_wo_entrp">     15.80682522 </i>
    <i name="e_0_energy">     15.74271338 </i>
   </energy>
  </scstep>
  <scstep>
   <time name="dav">    8.15    8.20</time>
   <time name="total">    8.15    8.20</time>
   <dipole>
    <v name="dipole">      0.00000000       0.00000000       0.00000148 </v>
    <i name="Tr[quadrupol]"> -10252.10194090 </i>
    <i name="Echarged">      0.00000000 </i>
    <i name="Edipol_quadrupol">      0.00000000 </i>
    <i name="Eion">      0.00000000 </i>
   </dipole>
   <energy>
    <i name="e_fr_energy">   -199.45478376 </i>
    <i name="e_wo_entrp">   -199.23393656 </i>
    <i name="e_0_energy">   -199.34436016 </i>
   </energy>
  </scstep>
  <scstep>
   <time name="dav">    8.26    8.36</time>
   <time name="total">    8.26    8.37</time>
   <dipole>
    <v name="dipole">      0.00000000       0.00000000       0.00000148 </v>
    <i name="Tr[quadrupol]"> -10252.10194090 </i>
    <i name="Echarged">      0.00000000 </i>
    <i name="Edipol_quadrupol">      0.00000000 </i>
    <i name="Eion">      0.00000000 </i>
   </dipole>
   <energy>
    <i name="e_fr_energy">   -205.25096557 </i>
    <i name="e_wo_entrp">   -205.02043852 </i>
    <i name="e_0_energy">   -205.13570204 </i>
   </energy>
  </scstep>
  <scstep>
   <time name="dav">    8.65    8.68</time>
   <time name="total">    8.87    8.90</time>
   <dipole>
    <v name="dipole">      0.00000000       0.00000000       0.00000148 </v>
    <i name="Tr[quadrupol]"> -10252.10194090 </i>
    <i name="Echarged">      0.00000000 </i>
    <i name="Edipol_quadrupol">      0.00000000 </i>
    <i name="Eion">      0.00000000 </i>
   </dipole>
   <energy>
    <i name="e_fr_energy">   -205.44539147 </i>
    <i name="e_wo_entrp">   -205.21443250 </i>
    <i name="e_0_energy">   -205.32991198 </i>
   </energy>
  </scstep>
  <scstep>
   <time name="diag">    1.28    1.28</time>
   <time name="diis">    3.40    3.41</time>
   <time name="orth">    0.35    0.36</time>
   <time name="total">    5.30    5.32</time>
   <dipole>
    <v name="dipole">      0.00000000       0.00000000       0.67628902 </v>
    <i name="Tr[quadrupol]"> -10252.09229973 </i>
    <i name="Echarged">      0.00000000 </i>
    <i name="Edipol_quadrupol">      0.00000000 </i>
    <i name="Eion">      0.00000000 </i>
   </dipole>
   <energy>
    <i name="e_fr_energy">   -199.70495234 </i>
    <i name="e_wo_entrp">   -199.48656706 </i>
    <i name="e_0_energy">   -199.59575970 </i>
   </energy>
  </scstep>
  <scstep>
   <time name="diag">    1.29    1.29</time>
   <time name="diis">    3.37    3.38</time>
   <time name="orth">    0.35    0.35</time>
   <time name="total">    5.27    5.29</time>
   <dipole>
    <v name="dipole">      0.00000000       0.00000000      -1.32414900 </v>
    <i name="Tr[quadrupol]"> -10252.17377077 </i>
    <i name="Echarged">      0.00000000 </i>
    <i name="Edipol_quadrupol">      0.00000000 </i>
    <i name="Eion">      0.00000000 </i>
   </dipole>
   <energy>
    <i name="e_fr_energy">   -212.37718151 </i>
    <i name="e_wo_entrp">   -212.17232587 </i>
    <i name="e_0_energy">   -212.27475369 </i>
   </energy>
  </scstep>
  <scstep>
   <time name="diag">    1.28    1.28</time>
   <time name="diis">    3.40    3.41</time>
   <time name="orth">    0.35    0.35</time>
   <time name="total">    5.30    5.32</time>
   <dipole>
    <v name="dipole">      0.00000000       0.00000000       1.89850462 </v>
    <i name="Tr[quadrupol]"> -10253.52328317 </i>
    <i name="Echarged">      0.00000000 </i>
    <i name="Edipol_quadrupol">      0.00000000 </i>
    <i name="Eion">      0.00000000 </i>
   </dipole>
   <energy>
    <i name="e_fr_energy">   -225.40785864 </i>
    <i name="e_wo_entrp">   -225.15573355 </i>
    <i name="e_0_energy">   -225.28179609 </i>
   </energy>
  </scstep>
  <scstep>
   <time name="diag">    1.28    1.28</time>
   <time name="diis">    3.39    3.40</time>
   <time name="orth">    0.35    0.35</time>
   <time name="total">    5.29    5.31</time>
   <dipole>
    <v name="dipole">      0.00000000       0.00000000      -0.35316931 </v>
    <i name="Tr[quadrupol]"> -10254.42046276 </i>
    <i name="Echarged">      0.00000000 </i>
    <i name="Edipol_quadrupol">      0.00000000 </i>
    <i name="Eion">      0.00000000 </i>
   </dipole>
   <energy>
    <i name="e_fr_energy">   -212.64367729 </i>
    <i name="e_wo_entrp">   -212.40690775 </i>
    <i name="e_0_energy">   -212.52529252 </i>
   </energy>
  </scstep>
  <scstep>
   <time name="diag">    1.27    1.28</time>
   <time name="diis">    3.42    3.43</time>
   <time name="orth">    0.35    0.35</time>
   <time name="total">    5.31    5.34</time>
   <dipole>
    <v name="dipole">      0.00000000       0.00000000       0.36094707 </v>
    <i name="Tr[quadrupol]"> -10253.10081335 </i>
    <i name="Echarged">      0.00000000 </i>
    <i name="Edipol_quadrupol">      0.00000000 </i>
    <i name="Eion">      0.00000000 </i>
   </dipole>
   <energy>
    <i name="e_fr_energy">   -197.82572393 </i>
    <i name="e_wo_entrp">   -197.67162202 </i>
    <i name="e_0_energy">   -197.74867297 </i>
   </energy>
  </scstep>
  <scstep>
   <time name="diag">    1.27    1.27</time>
   <time name="diis">    3.33    3.44</time>
   <time name="orth">    0.35    0.35</time>
   <time name="total">    5.22    5.33</time>
   <dipole>
    <v name="dipole">      0.00000000       0.00000000       0.00744672 </v>
    <i name="Tr[quadrupol]"> -10254.31216374 </i>
    <i name="Echarged">      0.00000000 </i>
    <i name="Edipol_quadrupol">      0.00000000 </i>
    <i name="Eion">      0.00000000 </i>
   </dipole>
   <energy>
    <i name="e_fr_energy">   -192.25021884 </i>
    <i name="e_wo_entrp">   -192.05152974 </i>
    <i name="e_0_energy">   -192.15087429 </i>
   </energy>
  </scstep>
  <scstep>
   <time name="diag">    1.28    1.29</time>
   <time name="diis">    3.38    3.39</time>
   <time name="orth">    0.35    0.35</time>
   <time name="total">    5.28    5.30</time>
   <dipole>
    <v name="dipole">      0.00000000       0.00000000       0.14895567 </v>
    <i name="Tr[quadrupol]"> -10254.33503200 </i>
    <i name="Echarged">      0.00000000 </i>
    <i name="Edipol_quadrupol">      0.00000000 </i>
    <i name="Eion">      0.00000000 </i>
   </dipole>
   <energy>
    <i name="e_fr_energy">   -189.29241091 </i>
    <i name="e_wo_entrp">   -189.05321369 </i>
    <i name="e_0_energy">   -189.17281230 </i>
   </energy>
  </scstep>
  <scstep>
   <time name="diag">    1.28    1.29</time>
   <time name="diis">    3.36    3.38</time>
   <time name="orth">    0.35    0.35</time>
   <time name="total">    5.26    5.30</time>
   <dipole>
    <v name="dipole">      0.00000000       0.00000000       0.09234716 </v>
    <i name="Tr[quadrupol]"> -10254.40138624 </i>
    <i name="Echarged">      0.00000000 </i>
    <i name="Edipol_quadrupol">      0.00000000 </i>
    <i name="Eion">      0.00000000 </i>
   </dipole>
   <energy>
    <i name="e_fr_energy">   -188.31239205 </i>
    <i name="e_wo_entrp">   -188.08815794 </i>
    <i name="e_0_energy">   -188.20027499 </i>
   </energy>
  </scstep>
  <scstep>
   <time name="diag">    1.27    1.27</time>
   <time name="diis">    3.39    3.40</time>
   <time name="orth">    0.35    0.35</time>
   <time name="total">    5.28    5.29</time>
   <dipole>
    <v name="dipole">      0.00000000       0.00000000       0.08325601 </v>
    <i name="Tr[quadrupol]"> -10254.85771168 </i>
    <i name="Echarged">      0.00000000 </i>
    <i name="Edipol_quadrupol">      0.00000000 </i>
    <i name="Eion">      0.00000000 </i>
   </dipole>
   <energy>
    <i name="e_fr_energy">   -188.50688758 </i>
    <i name="e_wo_entrp">   -188.25438039 </i>
    <i name="e_0_energy">   -188.38063399 </i>
   </energy>
  </scstep>
  <scstep>
   <time name="diag">    1.27    1.27</time>
   <time name="diis">    3.39    3.40</time>
   <time name="orth">    0.35    0.35</time>
   <time name="total">    5.27    5.29</time>
   <dipole>
    <v name="dipole">      0.00000000       0.00000000       0.05336080 </v>
    <i name="Tr[quadrupol]"> -10255.04847662 </i>
    <i name="Echarged">      0.00000000 </i>
    <i name="Edipol_quadrupol">      0.00000000 </i>
    <i name="Eion">      0.00000000 </i>
   </dipole>
   <energy>
    <i name="e_fr_energy">   -188.53442312 </i>
    <i name="e_wo_entrp">   -188.29589877 </i>
    <i name="e_0_energy">   -188.41516095 </i>
   </energy>
  </scstep>
  <scstep>
   <time name="diag">    1.28    1.28</time>
   <time name="diis">    3.42    3.42</time>
   <time name="orth">    0.35    0.35</time>
   <time name="total">    5.31    5.32</time>
   <dipole>
    <v name="dipole">      0.00000000       0.00000000       0.02179978 </v>
    <i name="Tr[quadrupol]"> -10255.34848757 </i>
    <i name="Echarged">      0.00000000 </i>
    <i name="Edipol_quadrupol">      0.00000000 </i>
    <i name="Eion">      0.00000000 </i>
   </dipole>
   <energy>
    <i name="e_fr_energy">   -188.34659580 </i>
    <i name="e_wo_entrp">   -188.08889694 </i>
    <i name="e_0_energy">   -188.21774637 </i>
   </energy>
  </scstep>
  <scstep>
   <time name="diag">    1.28    1.28</time>
   <time name="diis">    3.41    3.41</time>
   <time name="orth">    0.35    0.35</time>
   <time name="total">    5.30    5.31</time>
   <dipole>
    <v name="dipole">      0.00000000       0.00000000       0.02700118 </v>
    <i name="Tr[quadrupol]"> -10255.64377034 </i>
    <i name="Echarged">      0.00000000 </i>
    <i name="Edipol_quadrupol">      0.00000000 </i>
    <i name="Eion">      0.00000000 </i>
   </dipole>
   <energy>
    <i name="e_fr_energy">   -188.15215193 </i>
    <i name="e_wo_entrp">   -187.89265919 </i>
    <i name="e_0_energy">   -188.02240556 </i>
   </energy>
  </scstep>
  <scstep>
   <time name="diag">    1.27    1.28</time>
   <time name="diis">    3.40    3.41</time>
   <time name="orth">    0.35    0.35</time>
   <time name="total">    5.29    5.31</time>
   <dipole>
    <v name="dipole">      0.00000000       0.00000000       0.03812410 </v>
    <i name="Tr[quadrupol]"> -10255.94431587 </i>
    <i name="Echarged">      0.00000000 </i>
    <i name="Edipol_quadrupol">      0.00000000 </i>
    <i name="Eion">      0.00000000 </i>
   </dipole>
   <energy>
    <i name="e_fr_energy">   -188.09233440 </i>
    <i name="e_wo_entrp">   -187.83732884 </i>
    <i name="e_0_energy">   -187.96483162 </i>
   </energy>
  </scstep>
  <scstep>
   <time name="diag">    1.26    1.33</time>
   <time name="diis">    3.40    3.41</time>
   <time name="orth">    0.35    0.35</time>
   <time name="total">    5.27    5.35</time>
   <dipole>
    <v name="dipole">      0.00000000       0.00000000       0.03660854 </v>
    <i name="Tr[quadrupol]"> -10256.09056960 </i>
    <i name="Echarged">      0.00000000 </i>
    <i name="Edipol_quadrupol">      0.00000000 </i>
    <i name="Eion">      0.00000000 </i>
   </dipole>
   <energy>
    <i name="e_fr_energy">   -188.06273492 </i>
    <i name="e_wo_entrp">   -187.80473104 </i>
    <i name="e_0_energy">   -187.93373298 </i>
   </energy>
  </scstep>
  <scstep>
   <time name="diag">    1.28    1.28</time>
   <time name="diis">    3.38    3.39</time>
   <time name="orth">    0.35    0.35</time>
   <time name="total">    5.28    5.29</time>
   <dipole>
    <v name="dipole">      0.00000000       0.00000000       0.03100371 </v>
    <i name="Tr[quadrupol]"> -10256.17070228 </i>
    <i name="Echarged">      0.00000000 </i>
    <i name="Edipol_quadrupol">      0.00000000 </i>
    <i name="Eion">      0.00000000 </i>
   </dipole>
   <energy>
    <i name="e_fr_energy">   -188.05277845 </i>
    <i name="e_wo_entrp">   -187.79389241 </i>
    <i name="e_0_energy">   -187.92333543 </i>
   </energy>
  </scstep>
  <scstep>
   <time name="diag">    1.28    1.28</time>
   <time name="diis">    3.40    3.41</time>
   <time name="orth">    0.35    0.35</time>
   <time name="total">    5.30    5.32</time>
   <dipole>
    <v name="dipole">      0.00000000       0.00000000       0.02283994 </v>
    <i name="Tr[quadrupol]"> -10256.24934474 </i>
    <i name="Echarged">      0.00000000 </i>
    <i name="Edipol_quadrupol">      0.00000000 </i>
    <i name="Eion">      0.00000000 </i>
   </dipole>
   <energy>
    <i name="e_fr_energy">   -188.04909460 </i>
    <i name="e_wo_entrp">   -187.78891025 </i>
    <i name="e_0_energy">   -187.91900242 </i>
   </energy>
  </scstep>
  <scstep>
   <time name="diag">    1.27    1.28</time>
   <time name="diis">    3.38    3.39</time>
   <time name="orth">    0.35    0.35</time>
   <time name="total">    5.28    5.29</time>
   <dipole>
    <v name="dipole">      0.00000000       0.00000000       0.02379182 </v>
    <i name="Tr[quadrupol]"> -10256.39084979 </i>
    <i name="Echarged">      0.00000000 </i>
    <i name="Edipol_quadrupol">      0.00000000 </i>
    <i name="Eion">      0.00000000 </i>
   </dipole>
   <energy>
    <i name="e_fr_energy">   -188.04595461 </i>
    <i name="e_wo_entrp">   -187.78616065 </i>
    <i name="e_0_energy">   -187.91605763 </i>
   </energy>
  </scstep>
  <scstep>
   <time name="diag">    1.27    1.27</time>
   <time name="diis">    3.39    3.40</time>
   <time name="orth">    0.35    0.35</time>
   <time name="total">    5.28    5.30</time>
   <dipole>
    <v name="dipole">      0.00000000       0.00000000       0.02474152 </v>
    <i name="Tr[quadrupol]"> -10256.55942313 </i>
    <i name="Echarged">      0.00000000 </i>
    <i name="Edipol_quadrupol">      0.00000000 </i>
    <i name="Eion">      0.00000000 </i>
   </dipole>
   <energy>
    <i name="e_fr_energy">   -188.04417062 </i>
    <i name="e_wo_entrp">   -187.78487740 </i>
    <i name="e_0_energy">   -187.91452401 </i>
   </energy>
  </scstep>
  <scstep>
   <time name="diag">    1.29    1.29</time>
   <time name="diis">    3.36    3.38</time>
   <time name="orth">    0.35    0.35</time>
   <time name="total">    5.27    5.29</time>
   <dipole>
    <v name="dipole">      0.00000000       0.00000000       0.02389125 </v>
    <i name="Tr[quadrupol]"> -10256.72697218 </i>
    <i name="Echarged">      0.00000000 </i>
    <i name="Edipol_quadrupol">      0.00000000 </i>
    <i name="Eion">      0.00000000 </i>
   </dipole>
   <energy>
    <i name="e_fr_energy">   -188.04366960 </i>
    <i name="e_wo_entrp">   -187.78424851 </i>
    <i name="e_0_energy">   -187.91395906 </i>
   </energy>
  </scstep>
  <scstep>
   <time name="diag">    1.28    1.29</time>
   <time name="diis">    3.41    3.42</time>
   <time name="orth">    0.34    0.34</time>
   <time name="total">    5.31    5.32</time>
   <dipole>
    <v name="dipole">      0.00000000       0.00000000       0.02112550 </v>
    <i name="Tr[quadrupol]"> -10256.81004422 </i>
    <i name="Echarged">      0.00000000 </i>
    <i name="Edipol_quadrupol">      0.00000000 </i>
    <i name="Eion">      0.00000000 </i>
   </dipole>
   <energy>
    <i name="e_fr_energy">   -188.04371190 </i>
    <i name="e_wo_entrp">   -187.78362529 </i>
    <i name="e_0_energy">   -187.91366859 </i>
   </energy>
  </scstep>
  <scstep>
   <time name="diag">    1.27    1.27</time>
   <time name="diis">    3.38    3.39</time>
   <time name="orth">    0.34    0.34</time>
   <time name="total">    5.27    5.28</time>
   <dipole>
    <v name="dipole">      0.00000000       0.00000000       0.01782887 </v>
    <i name="Tr[quadrupol]"> -10256.92055616 </i>
    <i name="Echarged">      0.00000000 </i>
    <i name="Edipol_quadrupol">      0.00000000 </i>
    <i name="Eion">      0.00000000 </i>
   </dipole>
   <energy>
    <i name="e_fr_energy">   -188.04411717 </i>
    <i name="e_wo_entrp">   -187.78403023 </i>
    <i name="e_0_energy">   -187.91407370 </i>
   </energy>
  </scstep>
  <scstep>
   <time name="diag">    1.27    1.28</time>
   <time name="diis">    3.31    3.41</time>
   <time name="orth">    0.34    0.35</time>
   <time name="total">    5.20    5.30</time>
   <dipole>
    <v name="dipole">      0.00000000       0.00000000       0.01605984 </v>
    <i name="Tr[quadrupol]"> -10256.99134956 </i>
    <i name="Echarged">      0.00000000 </i>
    <i name="Edipol_quadrupol">      0.00000000 </i>
    <i name="Eion">      0.00000000 </i>
   </dipole>
   <energy>
    <i name="e_fr_energy">   -188.04446092 </i>
    <i name="e_wo_entrp">   -187.78438170 </i>
    <i name="e_0_energy">   -187.91442131 </i>
   </energy>
  </scstep>
  <scstep>
   <time name="diag">    1.28    1.29</time>
   <time name="diis">    3.55    3.55</time>
   <time name="orth">    0.34    0.34</time>
   <time name="total">    5.44    5.46</time>
   <dipole>
    <v name="dipole">      0.00000000       0.00000000       0.01482324 </v>
    <i name="Tr[quadrupol]"> -10257.06762570 </i>
    <i name="Echarged">      0.00000000 </i>
    <i name="Edipol_quadrupol">      0.00000000 </i>
    <i name="Eion">      0.00000000 </i>
   </dipole>
   <energy>
    <i name="e_fr_energy">   -188.04497588 </i>
    <i name="e_wo_entrp">   -187.78498313 </i>
    <i name="e_0_energy">   -187.91497950 </i>
   </energy>
  </scstep>
  <scstep>
   <time name="diag">    1.28    1.28</time>
   <time name="diis">    3.40    3.41</time>
   <time name="orth">    0.34    0.34</time>
   <time name="total">    5.29    5.31</time>
   <dipole>
    <v name="dipole">      0.00000000       0.00000000       0.01341348 </v>
    <i name="Tr[quadrupol]"> -10257.12007912 </i>
    <i name="Echarged">      0.00000000 </i>
    <i name="Edipol_quadrupol">      0.00000000 </i>
    <i name="Eion">      0.00000000 </i>
   </dipole>
   <energy>
    <i name="e_fr_energy">   -188.04543242 </i>
    <i name="e_wo_entrp">   -187.78537888 </i>
    <i name="e_0_energy">   -187.91540565 </i>
   </energy>
  </scstep>
  <scstep>
   <time name="diag">    1.27    1.28</time>
   <time name="diis">    3.52    3.53</time>
   <time name="orth">    0.34    0.34</time>
   <time name="total">    5.41    5.43</time>
   <dipole>
    <v name="dipole">      0.00000000       0.00000000       0.01095351 </v>
    <i name="Tr[quadrupol]"> -10257.20608620 </i>
    <i name="Echarged">      0.00000000 </i>
    <i name="Edipol_quadrupol">      0.00000000 </i>
    <i name="Eion">      0.00000000 </i>
   </dipole>
   <energy>
    <i name="e_fr_energy">   -188.04623018 </i>
    <i name="e_wo_entrp">   -187.78619310 </i>
    <i name="e_0_energy">   -187.91621164 </i>
   </energy>
  </scstep>
  <scstep>
   <time name="diag">    1.27    1.27</time>
   <time name="diis">    3.36    3.36</time>
   <time name="orth">    0.35    0.35</time>
   <time name="total">    5.24    5.26</time>
   <dipole>
    <v name="dipole">      0.00000000       0.00000000       0.00891671 </v>
    <i name="Tr[quadrupol]"> -10257.27045690 </i>
    <i name="Echarged">      0.00000000 </i>
    <i name="Edipol_quadrupol">      0.00000000 </i>
    <i name="Eion">      0.00000000 </i>
   </dipole>
   <energy>
    <i name="e_fr_energy">   -188.04675259 </i>
    <i name="e_wo_entrp">   -187.78662721 </i>
    <i name="e_0_energy">   -187.91668990 </i>
   </energy>
  </scstep>
  <scstep>
   <time name="diag">    1.28    1.29</time>
   <time name="diis">    2.94    2.95</time>
   <time name="orth">    0.35    0.35</time>
   <time name="total">    4.84    4.86</time>
   <dipole>
    <v name="dipole">      0.00000000       0.00000000       0.00757690 </v>
    <i name="Tr[quadrupol]"> -10257.31422106 </i>
    <i name="Echarged">      0.00000000 </i>
    <i name="Edipol_quadrupol">      0.00000000 </i>
    <i name="Eion">      0.00000000 </i>
   </dipole>
   <energy>
    <i name="e_fr_energy">   -188.04705814 </i>
    <i name="e_wo_entrp">   -187.78693404 </i>
    <i name="e_0_energy">   -187.91699609 </i>
   </energy>
  </scstep>
  <scstep>
   <time name="diag">    1.28    1.28</time>
   <time name="diis">    2.55    2.56</time>
   <time name="orth">    0.34    0.34</time>
   <time name="total">    4.45    4.46</time>
   <dipole>
    <v name="dipole">      0.00000000       0.00000000       0.00707418 </v>
    <i name="Tr[quadrupol]"> -10257.32937079 </i>
    <i name="Echarged">      0.00000000 </i>
    <i name="Edipol_quadrupol">      0.00000000 </i>
    <i name="Eion">      0.00000000 </i>
   </dipole>
   <energy>
    <i name="e_fr_energy">   -188.04716190 </i>
    <i name="e_wo_entrp">   -187.78705771 </i>
    <i name="e_0_energy">   -187.91710980 </i>
   </energy>
  </scstep>
  <scstep>
   <time name="diag">    1.27    1.27</time>
   <time name="diis">    2.32    2.33</time>
   <time name="orth">    0.34    0.34</time>
   <time name="total">    4.21    4.22</time>
   <dipole>
    <v name="dipole">      0.00000000       0.00000000       0.00655769 </v>
    <i name="Tr[quadrupol]"> -10257.34391670 </i>
    <i name="Echarged">      0.00000000 </i>
    <i name="Edipol_quadrupol">      0.00000000 </i>
    <i name="Eion">      0.00000000 </i>
   </dipole>
   <energy>
    <i name="e_fr_energy">   -188.04726018 </i>
    <i name="e_wo_entrp">   -187.78719787 </i>
    <i name="e_0_energy">   -187.91722903 </i>
   </energy>
  </scstep>
  <scstep>
   <time name="diag">    1.27    1.29</time>
   <time name="diis">    2.09    2.16</time>
   <time name="orth">    0.34    0.34</time>
   <time name="total">    3.98    4.08</time>
   <dipole>
    <v name="dipole">      0.00000000       0.00000000       0.00592986 </v>
    <i name="Tr[quadrupol]"> -10257.35500585 </i>
    <i name="Echarged">      0.00000000 </i>
    <i name="Edipol_quadrupol">      0.00000000 </i>
    <i name="Eion">      0.00000000 </i>
   </dipole>
   <energy>
    <i name="e_fr_energy">   -188.04733047 </i>
    <i name="e_wo_entrp">   -187.78724675 </i>
    <i name="e_0_energy">   -187.91728861 </i>
   </energy>
  </scstep>
  <scstep>
   <time name="diag">    1.28    1.28</time>
   <time name="diis">    2.09    2.11</time>
   <time name="orth">    0.34    0.34</time>
   <time name="total">    4.00    4.02</time>
   <dipole>
    <v name="dipole">      0.00000000       0.00000000       0.00562801 </v>
    <i name="Tr[quadrupol]"> -10257.36053190 </i>
    <i name="Echarged">      0.00000000 </i>
    <i name="Edipol_quadrupol">      0.00000000 </i>
    <i name="Eion">      0.00000000 </i>
   </dipole>
   <energy>
    <i name="e_fr_energy">   -188.04736066 </i>
    <i name="e_wo_entrp">   -187.78727552 </i>
    <i name="e_0_energy">   -187.91731809 </i>
   </energy>
  </scstep>
  <scstep>
   <time name="diag">    1.28    1.28</time>
   <time name="diis">    2.10    2.10</time>
   <time name="orth">    0.34    0.34</time>
   <time name="total">    4.00    4.01</time>
   <dipole>
    <v name="dipole">      0.00000000       0.00000000       0.00516007 </v>
    <i name="Tr[quadrupol]"> -10257.36875929 </i>
    <i name="Echarged">      0.00000000 </i>
    <i name="Edipol_quadrupol">      0.00000000 </i>
    <i name="Eion">      0.00000000 </i>
   </dipole>
   <energy>
    <i name="e_fr_energy">   -188.04739628 </i>
    <i name="e_wo_entrp">   -187.78731903 </i>
    <i name="e_0_energy">   -187.91735766 </i>
   </energy>
  </scstep>
  <scstep>
   <time name="diag">    1.27    1.28</time>
   <time name="diis">    1.83    1.83</time>
   <time name="orth">    0.34    0.34</time>
   <time name="total">    3.72    3.73</time>
   <dipole>
    <v name="dipole">      0.00000000       0.00000000       0.00495364 </v>
    <i name="Tr[quadrupol]"> -10257.37215151 </i>
    <i name="Echarged">      0.00000000 </i>
    <i name="Edipol_quadrupol">      0.00000000 </i>
    <i name="Eion">      0.00000000 </i>
   </dipole>
   <energy>
    <i name="e_fr_energy">   -188.04740556 </i>
    <i name="e_wo_entrp">   -187.78733053 </i>
    <i name="e_0_energy">   -187.91736804 </i>
   </energy>
  </scstep>
  <scstep>
   <time name="diag">    1.27    1.27</time>
   <time name="diis">    2.02    2.03</time>
   <time name="orth">    0.34    0.34</time>
   <time name="total">    3.90    3.92</time>
   <dipole>
    <v name="dipole">      0.00000000       0.00000000       0.00463859 </v>
    <i name="Tr[quadrupol]"> -10257.37745638 </i>
    <i name="Echarged">      0.00000000 </i>
    <i name="Edipol_quadrupol">      0.00000000 </i>
    <i name="Eion">      0.00000000 </i>
   </dipole>
   <energy>
    <i name="e_fr_energy">   -188.04741288 </i>
    <i name="e_wo_entrp">   -187.78733607 </i>
    <i name="e_0_energy">   -187.91737447 </i>
   </energy>
  </scstep>
  <scstep>
   <time name="diag">    1.28    1.29</time>
   <time name="diis">    1.57    1.57</time>
   <time name="orth">    0.36    0.36</time>
   <time name="total">    3.48    3.49</time>
   <dipole>
    <v name="dipole">      0.00000000       0.00000000       0.00450627 </v>
    <i name="Tr[quadrupol]"> -10257.37992361 </i>
    <i name="Echarged">      0.00000000 </i>
    <i name="Edipol_quadrupol">      0.00000000 </i>
    <i name="Eion">      0.00000000 </i>
   </dipole>
   <energy>
    <i name="e_fr_energy">   -188.04741418 </i>
    <i name="e_wo_entrp">   -187.78733939 </i>
    <i name="e_0_energy">   -187.91737679 </i>
   </energy>
  </scstep>
  <scstep>
   <time name="diag">    1.27    1.28</time>
   <time name="diis">    1.42    1.43</time>
   <time name="orth">    0.34    0.34</time>
   <time name="total">    3.09    3.10</time>
   <dipole>
    <v name="dipole">      0.00000000       0.00000000       0.00440823 </v>
    <i name="Tr[quadrupol]"> -10257.38186297 </i>
    <i name="Echarged">      0.00000000 </i>
    <i name="Edipol_quadrupol">      0.00000000 </i>
    <i name="Eion">      0.00000000 </i>
   </dipole>
   <energy>
    <i name="alphaZ">    805.87075906 </i>
    <i name="ewald"> 200633.59670551 </i>
    <i name="hartreedc">-242818.69786837 </i>
    <i name="XCdc">   -343.06303031 </i>
    <i name="pawpsdc">  49458.71310745 </i>
    <i name="pawaedc"> -47536.35484046 </i>
    <i name="eentropy">     -0.26007519 </i>
    <i name="bandstr">  -2047.63804514 </i>
    <i name="atom">  41659.78587232 </i>
    <i name="e_fr_energy">   -188.04741513 </i>
    <i name="e_wo_entrp">   -187.78733994 </i>
    <i name="e_0_energy">   -187.91737753 </i>
   </energy>
  </scstep>
  <structure>
   <crystal>
    <varray name="basis" >
     <v>      11.00258152       0.00000000       0.00000000 </v>
     <v>       5.50129076       9.52851510       0.00000000 </v>
     <v>       0.00000000       0.00000000      24.49178509 </v>
    </varray>
    <i name="volume">   2567.67623402 </i>
    <varray name="rec_basis" >
     <v>       0.09088776      -0.05247407       0.00000000 </v>
     <v>       0.00000000       0.10494815       0.00000000 </v>
     <v>       0.00000000       0.00000000       0.04083002 </v>
    </varray>
   </crystal>
   <varray name="positions" >
    <v>       0.75000000       0.75000000       0.59169983 </v>
    <v>       0.41666667       0.91666667       0.50000000 </v>
    <v>       0.50000000       0.25000000       0.59169983 </v>
    <v>       0.41666667       0.41666667       0.50000000 </v>
    <v>       0.83333333       0.08333333       0.40830017 </v>
    <v>       0.41666667       0.16666667       0.50000000 </v>
    <v>       0.58333333       0.08333333       0.40830017 </v>
    <v>       0.66666667       0.91666667       0.50000000 </v>
    <v>       0.16666667       0.91666667       0.50000000 </v>
    <v>       0.33333333       0.83333333       0.40830017 </v>
    <v>       0.16666667       0.66666667       0.50000000 </v>
    <v>       0.25000000       0.25000000       0.59169983 </v>
    <v>       0.41666667       0.66666667       0.50000000 </v>
    <v>       0.33333333       0.33333333       0.40830017 </v>
    <v>       0.16666667       0.41666667       0.50000000 </v>
    <v>       0.83333333       0.33333333       0.40830017 </v>
    <v>       0.91666667       0.16666667       0.50000000 </v>
    <v>       0.00000000       0.00000000       0.59169983 </v>
    <v>       0.08333333       0.33333333       0.40830017 </v>
    <v>       0.91666667       0.41666667       0.50000000 </v>
    <v>       0.08333333       0.58333333       0.40830017 </v>
    <v>       0.25000000       0.00000000       0.59169983 </v>
    <v>       0.50000000       0.50000000       0.59169983 </v>
    <v>       0.08333333       0.83333333       0.40830017 </v>
    <v>       0.66666667       0.16666667       0.50000000 </v>
    <v>       0.83333333       0.83333333       0.40830017 </v>
    <v>       0.83333333       0.58333333       0.40830017 </v>
    <v>       0.50000000       0.75000000       0.59169983 </v>
    <v>       0.75000000       0.00000000       0.59169983 </v>
    <v>       0.75000000       0.25000000       0.59169983 </v>
    <v>       0.66666667       0.41666667       0.50000000 </v>
    <v>       0.66666667       0.66666667       0.50000000 </v>
    <v>       0.75000000       0.50000000       0.59169983 </v>
    <v>       0.08333333       0.08333333       0.40830017 </v>
    <v>       0.58333333       0.58333333       0.40830017 </v>
    <v>       0.58333333       0.33333333       0.40830017 </v>
    <v>       0.50000000       0.00000000       0.59169983 </v>
    <v>       0.25000000       0.50000000       0.59169983 </v>
    <v>       0.33333333       0.58333333       0.40830017 </v>
    <v>       0.16666667       0.16666667       0.50000000 </v>
    <v>       0.33333333       0.08333333       0.40830017 </v>
    <v>       0.00000000       0.75000000       0.59169983 </v>
    <v>       0.91666667       0.91666667       0.50000000 </v>
    <v>       0.00000000       0.50000000       0.59169983 </v>
    <v>       0.91666667       0.66666667       0.50000000 </v>
    <v>       0.00000000       0.25000000       0.59169983 </v>
    <v>       0.58333333       0.83333333       0.40830017 </v>
    <v>       0.25000000       0.75000000       0.59169983 </v>
   </varray>
  </structure>
  <varray name="forces" >
   <v>       0.01072775      -0.11784327       1.29625313 </v>
   <v>       0.34664421      -0.03188261      -0.03848283 </v>
   <v>       0.28347796      -0.28842905       1.60837576 </v>
   <v>       0.50051716      -0.00100307      -0.26262879 </v>
   <v>      -0.12907811      -0.05898986      -1.35753721 </v>
   <v>      -0.15436457      -0.37546692       0.00132312 </v>
   <v>       0.03856177      -0.15032001      -1.57439039 </v>
   <v>       0.44358040      -0.28689227       0.00978924 </v>
   <v>      -0.14764689       0.26144411       0.03470660 </v>
   <v>       0.25906290       0.00651900      -1.78792051 </v>
   <v>      -0.32205951       0.15473401       0.57237290 </v>
   <v>      -0.25834144       0.12608461       1.62183859 </v>
   <v>       0.48820648      -0.30340858       0.00741193 </v>
   <v>       0.23582755      -0.03136877      -1.84464657 </v>
   <v>      -0.35627950       0.25622108       0.58055166 </v>
   <v>      -0.24897340       0.30290629      -1.53055978 </v>
   <v>      -0.14395163       0.13763893       0.31890709 </v>
   <v>      -0.39821255      -0.05961467       1.52859824 </v>
   <v>      -0.11879708      -0.35815428      -1.62107902 </v>
   <v>      -0.19350605       0.44315499       0.53205684 </v>
   <v>      -0.25704347       0.30542809      -1.63428898 </v>
   <v>       0.13291822      -0.05565544       1.63668799 </v>
   <v>       0.28432606       0.12563978       1.57566421 </v>
   <v>      -0.16658175       0.07145529      -1.63556497 </v>
   <v>       0.32958982       0.07817341       0.18053157 </v>
   <v>      -0.17122380      -0.20237312      -0.70375787 </v>
   <v>      -0.22388019       0.41048484      -0.64609560 </v>
   <v>       0.09253998      -0.09382940       0.87198177 </v>
   <v>       0.09182205       0.07400245       0.70036123 </v>
   <v>       0.04753530       0.02809720       0.69428327 </v>
   <v>       0.01582462       0.01103789       0.00141687 </v>
   <v>       0.02866025      -0.27443154      -0.21177936 </v>
   <v>       0.02866141      -0.08487124       0.61314037 </v>
   <v>       0.20985247       0.00655975      -0.96942990 </v>
   <v>       0.07050799      -0.04989233      -0.69431314 </v>
   <v>       0.08443454       0.20717092      -0.75117383 </v>
   <v>       0.07783674      -0.12505417       1.04392829 </v>
   <v>      -0.20099429       0.28604630       1.03262841 </v>
   <v>       0.27092650      -0.12459040      -1.07552881 </v>
   <v>      -0.11668650      -0.04306009      -0.09292859 </v>
   <v>      -0.15800823      -0.05694799      -0.93897081 </v>
   <v>       0.01842588      -0.15166628       0.71839090 </v>
   <v>      -0.42230732      -0.12849645       0.21103044 </v>
   <v>      -0.01997229       0.10285012       0.80465506 </v>
   <v>      -0.13544694       0.18873379       0.06295358 </v>
   <v>      -0.06775465       0.28542658       0.86023994 </v>
   <v>       0.11392194      -0.30883916      -0.78638331 </v>
   <v>      -0.09327978      -0.10672848       1.03738127 </v>
  </varray>
  <energy>
   <i name="e_fr_energy">   -188.04741513 </i>
   <i name="e_wo_entrp">   -187.91737753 </i>
   <i name="e_0_energy">     -0.26007519 </i>
  </energy>
  <time name="totalsc">  220.59  221.79</time>
 </calculation>
 <calculation>
  <scstep>
   <time name="dav">    7.12    7.14</time>
   <time name="total">    7.39    7.41</time>
   <dipole>
    <v name="dipole">      0.00000000       0.00000000       0.00426346 </v>
    <i name="Tr[quadrupol]"> -10255.93837980 </i>
    <i name="Echarged">      0.00000000 </i>
    <i name="Edipol_quadrupol">      0.00000000 </i>
    <i name="Eion">      0.00000000 </i>
   </dipole>
   <energy>
    <i name="alphaZ">    805.87073319 </i>
    <i name="ewald"> 197834.78851480 </i>
    <i name="hartreedc">-240037.05137210 </i>
    <i name="XCdc">   -345.38159292 </i>
    <i name="pawpsdc">  49458.70482345 </i>
    <i name="pawaedc"> -47536.34657961 </i>
    <i name="eentropy">     -0.25041630 </i>
    <i name="bandstr">  -2029.32542687 </i>
    <i name="atom">  41659.78587232 </i>
    <i name="e_fr_energy">   -189.20544403 </i>
    <i name="e_wo_entrp">   -188.95502774 </i>
    <i name="e_0_energy">   -189.08023588 </i>
   </energy>
  </scstep>
  <scstep>
   <time name="diag">    1.27    1.27</time>
   <time name="diis">    3.42    3.43</time>
   <time name="orth">    0.34    0.36</time>
   <time name="total">    5.30    5.35</time>
   <dipole>
    <v name="dipole">      0.00000000       0.00000000      -0.00298774 </v>
    <i name="Tr[quadrupol]"> -10255.68243762 </i>
    <i name="Echarged">      0.00000000 </i>
    <i name="Edipol_quadrupol">      0.00000000 </i>
    <i name="Eion">      0.00000000 </i>
   </dipole>
   <energy>
    <i name="e_fr_energy">   -189.60652469 </i>
    <i name="e_wo_entrp">   -189.35556744 </i>
    <i name="e_0_energy">   -189.48104606 </i>
   </energy>
  </scstep>
  <scstep>
   <time name="diag">    1.27    1.30</time>
   <time name="diis">    3.50    3.52</time>
   <time name="orth">    0.34    0.34</time>
   <time name="total">    5.38    5.44</time>
   <dipole>
    <v name="dipole">      0.00000000       0.00000000       0.03569899 </v>
    <i name="Tr[quadrupol]"> -10256.10966074 </i>
    <i name="Echarged">      0.00000000 </i>
    <i name="Edipol_quadrupol">      0.00000000 </i>
    <i name="Eion">      0.00000000 </i>
   </dipole>
   <energy>
    <i name="e_fr_energy">   -189.66953014 </i>
    <i name="e_wo_entrp">   -189.41559368 </i>
    <i name="e_0_energy">   -189.54256191 </i>
   </energy>
  </scstep>
  <scstep>
   <time name="diag">    1.28    1.28</time>
   <time name="diis">    3.47    3.48</time>
   <time name="orth">    0.34    0.34</time>
   <time name="total">    5.36    5.38</time>
   <dipole>
    <v name="dipole">      0.00000000       0.00000000      -0.03525967 </v>
    <i name="Tr[quadrupol]"> -10256.04613342 </i>
    <i name="Echarged">      0.00000000 </i>
    <i name="Edipol_quadrupol">      0.00000000 </i>
    <i name="Eion">      0.00000000 </i>
   </dipole>
   <energy>
    <i name="e_fr_energy">   -189.62249545 </i>
    <i name="e_wo_entrp">   -189.36508706 </i>
    <i name="e_0_energy">   -189.49379125 </i>
   </energy>
  </scstep>
  <scstep>
   <time name="diag">    1.28    1.29</time>
   <time name="diis">    3.38    3.39</time>
   <time name="orth">    0.34    0.34</time>
   <time name="total">    5.28    5.29</time>
   <dipole>
    <v name="dipole">      0.00000000       0.00000000       0.07077668 </v>
    <i name="Tr[quadrupol]"> -10255.99421350 </i>
    <i name="Echarged">      0.00000000 </i>
    <i name="Edipol_quadrupol">      0.00000000 </i>
    <i name="Eion">      0.00000000 </i>
   </dipole>
   <energy>
    <i name="e_fr_energy">   -189.67569496 </i>
    <i name="e_wo_entrp">   -189.45312725 </i>
    <i name="e_0_energy">   -189.56441111 </i>
   </energy>
  </scstep>
  <scstep>
   <time name="diag">    1.27    1.28</time>
   <time name="diis">    3.39    3.40</time>
   <time name="orth">    0.34    0.34</time>
   <time name="total">    5.27    5.29</time>
   <dipole>
    <v name="dipole">      0.00000000       0.00000000      -0.01856254 </v>
    <i name="Tr[quadrupol]"> -10256.01080753 </i>
    <i name="Echarged">      0.00000000 </i>
    <i name="Edipol_quadrupol">      0.00000000 </i>
    <i name="Eion">      0.00000000 </i>
   </dipole>
   <energy>
    <i name="e_fr_energy">   -189.59115432 </i>
    <i name="e_wo_entrp">   -189.33481072 </i>
    <i name="e_0_energy">   -189.46298252 </i>
   </energy>
  </scstep>
  <scstep>
   <time name="diag">    1.28    1.29</time>
   <time name="diis">    3.41    3.44</time>
   <time name="orth">    0.35    0.35</time>
   <time name="total">    5.32    5.37</time>
   <dipole>
    <v name="dipole">      0.00000000       0.00000000       0.00724040 </v>
    <i name="Tr[quadrupol]"> -10255.99814716 </i>
    <i name="Echarged">      0.00000000 </i>
    <i name="Edipol_quadrupol">      0.00000000 </i>
    <i name="Eion">      0.00000000 </i>
   </dipole>
   <energy>
    <i name="e_fr_energy">   -189.58185611 </i>
    <i name="e_wo_entrp">   -189.32974461 </i>
    <i name="e_0_energy">   -189.45580036 </i>
   </energy>
  </scstep>
  <scstep>
   <time name="diag">    1.28    1.29</time>
   <time name="diis">    3.38    3.39</time>
   <time name="orth">    0.34    0.34</time>
   <time name="total">    5.28    5.29</time>
   <dipole>
    <v name="dipole">      0.00000000       0.00000000       0.00045755 </v>
    <i name="Tr[quadrupol]"> -10255.96121999 </i>
    <i name="Echarged">      0.00000000 </i>
    <i name="Edipol_quadrupol">      0.00000000 </i>
    <i name="Eion">      0.00000000 </i>
   </dipole>
   <energy>
    <i name="e_fr_energy">   -189.57980288 </i>
    <i name="e_wo_entrp">   -189.32840727 </i>
    <i name="e_0_energy">   -189.45410507 </i>
   </energy>
  </scstep>
  <scstep>
   <time name="diag">    1.28    1.28</time>
   <time name="diis">    3.42    3.42</time>
   <time name="orth">    0.34    0.34</time>
   <time name="total">    5.31    5.32</time>
   <dipole>
    <v name="dipole">      0.00000000       0.00000000       0.00291588 </v>
    <i name="Tr[quadrupol]"> -10255.95959862 </i>
    <i name="Echarged">      0.00000000 </i>
    <i name="Edipol_quadrupol">      0.00000000 </i>
    <i name="Eion">      0.00000000 </i>
   </dipole>
   <energy>
    <i name="e_fr_energy">   -189.57824004 </i>
    <i name="e_wo_entrp">   -189.32465406 </i>
    <i name="e_0_energy">   -189.45144705 </i>
   </energy>
  </scstep>
  <scstep>
   <time name="diag">    1.27    1.28</time>
   <time name="diis">    3.35    3.44</time>
   <time name="orth">    0.34    0.34</time>
   <time name="total">    5.23    5.34</time>
   <dipole>
    <v name="dipole">      0.00000000       0.00000000       0.00048008 </v>
    <i name="Tr[quadrupol]"> -10255.95379059 </i>
    <i name="Echarged">      0.00000000 </i>
    <i name="Edipol_quadrupol">      0.00000000 </i>
    <i name="Eion">      0.00000000 </i>
   </dipole>
   <energy>
    <i name="e_fr_energy">   -189.57816425 </i>
    <i name="e_wo_entrp">   -189.32478649 </i>
    <i name="e_0_energy">   -189.45147537 </i>
   </energy>
  </scstep>
  <scstep>
   <time name="diag">    1.28    1.28</time>
   <time name="diis">    3.47    3.48</time>
   <time name="orth">    0.34    0.34</time>
   <time name="total">    5.36    5.38</time>
   <dipole>
    <v name="dipole">      0.00000000       0.00000000       0.00075902 </v>
    <i name="Tr[quadrupol]"> -10255.95638816 </i>
    <i name="Echarged">      0.00000000 </i>
    <i name="Edipol_quadrupol">      0.00000000 </i>
    <i name="Eion">      0.00000000 </i>
   </dipole>
   <energy>
    <i name="e_fr_energy">   -189.57810216 </i>
    <i name="e_wo_entrp">   -189.32427748 </i>
    <i name="e_0_energy">   -189.45118982 </i>
   </energy>
  </scstep>
  <scstep>
   <time name="diag">    1.28    1.29</time>
   <time name="diis">    3.39    3.40</time>
   <time name="orth">    0.34    0.34</time>
   <time name="total">    5.28    5.30</time>
   <dipole>
    <v name="dipole">      0.00000000       0.00000000       0.00097122 </v>
    <i name="Tr[quadrupol]"> -10255.95908194 </i>
    <i name="Echarged">      0.00000000 </i>
    <i name="Edipol_quadrupol">      0.00000000 </i>
    <i name="Eion">      0.00000000 </i>
   </dipole>
   <energy>
    <i name="e_fr_energy">   -189.57810290 </i>
    <i name="e_wo_entrp">   -189.32448171 </i>
    <i name="e_0_energy">   -189.45129230 </i>
   </energy>
  </scstep>
  <scstep>
   <time name="diag">    1.28    1.28</time>
   <time name="diis">    3.48    3.49</time>
   <time name="orth">    0.34    0.34</time>
   <time name="total">    5.37    5.39</time>
   <dipole>
    <v name="dipole">      0.00000000       0.00000000       0.00113144 </v>
    <i name="Tr[quadrupol]"> -10255.96355016 </i>
    <i name="Echarged">      0.00000000 </i>
    <i name="Edipol_quadrupol">      0.00000000 </i>
    <i name="Eion">      0.00000000 </i>
   </dipole>
   <energy>
    <i name="e_fr_energy">   -189.57808401 </i>
    <i name="e_wo_entrp">   -189.32450594 </i>
    <i name="e_0_energy">   -189.45129498 </i>
   </energy>
  </scstep>
  <scstep>
   <time name="diag">    1.27    1.27</time>
   <time name="diis">    3.42    3.43</time>
   <time name="orth">    0.34    0.34</time>
   <time name="total">    5.31    5.33</time>
   <dipole>
    <v name="dipole">      0.00000000       0.00000000       0.00118233 </v>
    <i name="Tr[quadrupol]"> -10255.96726690 </i>
    <i name="Echarged">      0.00000000 </i>
    <i name="Edipol_quadrupol">      0.00000000 </i>
    <i name="Eion">      0.00000000 </i>
   </dipole>
   <energy>
    <i name="e_fr_energy">   -189.57807985 </i>
    <i name="e_wo_entrp">   -189.32452759 </i>
    <i name="e_0_energy">   -189.45130372 </i>
   </energy>
  </scstep>
  <scstep>
   <time name="diag">    1.29    1.30</time>
   <time name="diis">    2.79    2.80</time>
   <time name="orth">    0.34    0.34</time>
   <time name="total">    4.69    4.71</time>
   <dipole>
    <v name="dipole">      0.00000000       0.00000000       0.00115761 </v>
    <i name="Tr[quadrupol]"> -10255.96976425 </i>
    <i name="Echarged">      0.00000000 </i>
    <i name="Edipol_quadrupol">      0.00000000 </i>
    <i name="Eion">      0.00000000 </i>
   </dipole>
   <energy>
    <i name="e_fr_energy">   -189.57807861 </i>
    <i name="e_wo_entrp">   -189.32459925 </i>
    <i name="e_0_energy">   -189.45133893 </i>
   </energy>
  </scstep>
  <scstep>
   <time name="diag">    1.28    1.28</time>
   <time name="diis">    2.05    2.06</time>
   <time name="orth">    0.34    0.34</time>
   <time name="total">    3.72    3.73</time>
   <dipole>
    <v name="dipole">      0.00000000       0.00000000       0.00112246 </v>
    <i name="Tr[quadrupol]"> -10255.97223366 </i>
    <i name="Echarged">      0.00000000 </i>
    <i name="Edipol_quadrupol">      0.00000000 </i>
    <i name="Eion">      0.00000000 </i>
   </dipole>
   <energy>
    <i name="alphaZ">    805.86972481 </i>
    <i name="ewald"> 197834.78851480 </i>
    <i name="hartreedc">-240038.65829310 </i>
    <i name="XCdc">   -345.31760597 </i>
    <i name="pawpsdc">  48986.68294734 </i>
    <i name="pawaedc"> -47061.05815687 </i>
    <i name="eentropy">     -0.25349975 </i>
    <i name="bandstr">  -2031.41758277 </i>
    <i name="atom">  41659.78587232 </i>
    <i name="e_fr_energy">   -189.57807920 </i>
    <i name="e_wo_entrp">   -189.32457945 </i>
    <i name="e_0_energy">   -189.45132932 </i>
   </energy>
  </scstep>
  <structure>
   <crystal>
    <varray name="basis" >
     <v>      11.00258152       0.00000000       0.00000000 </v>
     <v>       5.50129076       9.52851510       0.00000000 </v>
     <v>       0.00000000       0.00000000      24.49178509 </v>
    </varray>
    <i name="volume">   2567.67623402 </i>
    <varray name="rec_basis" >
     <v>       0.09088776      -0.05247407       0.00000000 </v>
     <v>       0.00000000       0.10494815       0.00000000 </v>
     <v>       0.00000000       0.00000000       0.04083002 </v>
    </varray>
   </crystal>
   <varray name="positions" >
    <v>       0.75024175       0.74958235       0.59348714 </v>
    <v>       0.41778711       0.91655367       0.49994694 </v>
    <v>       0.50138118       0.24897778       0.59391750 </v>
    <v>       0.41820466       0.41666311       0.49963788 </v>
    <v>       0.83304169       0.08312427       0.40642836 </v>
    <v>       0.41685822       0.16533598       0.50000182 </v>
    <v>       0.58371806       0.08280059       0.40612936 </v>
    <v>       0.66853652       0.91564990       0.50001350 </v>
    <v>       0.16575021       0.91759325       0.50004785 </v>
    <v>       0.33411691       0.83335644       0.40583494 </v>
    <v>       0.16540398       0.66721506       0.50078920 </v>
    <v>       0.24898365       0.25044685       0.59393606 </v>
    <v>       0.41870276       0.66559136       0.50001022 </v>
    <v>       0.33411274       0.33322216       0.40575673 </v>
    <v>       0.16511912       0.41757474       0.50080048 </v>
    <v>       0.83203240       0.33440686       0.40618980 </v>
    <v>       0.91598094       0.16715447       0.50043972 </v>
    <v>      -0.00111658      -0.00021128       0.59380750 </v>
    <v>       0.08360338       0.33206400       0.40606499 </v>
    <v>       0.91528746       0.41823725       0.50073361 </v>
    <v>       0.08200317       0.58441580       0.40604677 </v>
    <v>       0.25050659      -0.00019725       0.59395654 </v>
    <v>       0.50065003       0.50044528       0.59387239 </v>
    <v>       0.08269543       0.83358658       0.40604501 </v>
    <v>       0.66753974       0.16694372       0.50024892 </v>
    <v>       0.83316642       0.83261611       0.40732981 </v>
    <v>       0.83191879       0.58478813       0.40740932 </v>
    <v>       0.50045030       0.74966746       0.59290214 </v>
    <v>       0.75015069       0.00026227       0.59266551 </v>
    <v>       0.75009611       0.25009958       0.59265713 </v>
    <v>       0.66669568       0.41670579       0.50000195 </v>
    <v>       0.66724094       0.66569406       0.49970799 </v>
    <v>       0.75023836       0.49969921       0.59254524 </v>
    <v>       0.08396580       0.08335658       0.40696350 </v>
    <v>       0.58363815       0.58315651       0.40734283 </v>
    <v>       0.58322537       0.33406756       0.40726443 </v>
    <v>       0.50046050      -0.00044320       0.59313922 </v>
    <v>       0.24887621       0.50101377       0.59312364 </v>
    <v>       0.33438566       0.58289177       0.40681720 </v>
    <v>       0.16638483       0.16651406       0.49987187 </v>
    <v>       0.33294928       0.08313150       0.40700549 </v>
    <v>       0.00032531       0.74946248       0.59269037 </v>
    <v>       0.91559819       0.91621126       0.50029097 </v>
    <v>      -0.00024356       0.50036451       0.59280931 </v>
    <v>       0.91591650       0.66733556       0.50008680 </v>
    <v>      -0.00071374       0.25101158       0.59288595 </v>
    <v>       0.58423027       0.83223878       0.40721589 </v>
    <v>       0.24990283       0.74962175       0.59313020 </v>
   </varray>
  </structure>
  <varray name="forces" >
   <v>      -0.01167521      -0.07285037       0.99994942 </v>
   <v>       0.09968547      -0.09649631      -0.01627137 </v>
   <v>       0.09799974      -0.10430381       1.11630548 </v>
   <v>       0.11453461      -0.09560810      -0.05019826 </v>
   <v>      -0.03699840      -0.01763813      -0.96229019 </v>
   <v>      -0.00599609      -0.03334070       0.00525678 </v>
   <v>      -0.00418600      -0.10515951      -1.11705502 </v>
   <v>       0.22591890      -0.11870263       0.00862724 </v>
   <v>      -0.04866022       0.06780572      -0.00387831 </v>
   <v>       0.12176221      -0.02131404      -1.22628203 </v>
   <v>      -0.09779637       0.10123885       0.12715830 </v>
   <v>      -0.09495805       0.06182120       1.18695887 </v>
   <v>       0.19093115      -0.02300293      -0.01236690 </v>
   <v>       0.06139531       0.02613382      -1.19754092 </v>
   <v>      -0.09764694       0.04809504       0.10487366 </v>
   <v>      -0.07822589       0.15891609      -1.05644214 </v>
   <v>      -0.07584099       0.07728465       0.06953343 </v>
   <v>      -0.18908656      -0.04593033       1.14114929 </v>
   <v>      -0.07112822      -0.10088475      -1.07824689 </v>
   <v>      -0.09864515       0.17166580       0.09656144 </v>
   <v>      -0.12193927       0.07646693      -1.11245258 </v>
   <v>       0.04027501      -0.06097253       1.16411998 </v>
   <v>       0.11147410       0.05270405       1.17706568 </v>
   <v>      -0.04361177       0.01461999      -1.11760452 </v>
   <v>       0.10600714       0.03115134       0.02951218 </v>
   <v>      -0.11267532      -0.09579277      -0.59086075 </v>
   <v>      -0.12884404       0.18194927      -0.51169385 </v>
   <v>       0.06661096      -0.03922163       0.65997921 </v>
   <v>       0.02787785       0.01402865       0.59658551 </v>
   <v>       0.04987119       0.04482324       0.60871497 </v>
   <v>       0.04967780      -0.04216326       0.00467945 </v>
   <v>       0.05261972      -0.11003010      -0.07941199 </v>
   <v>       0.00476140      -0.04013388       0.56543808 </v>
   <v>       0.04400074      -0.00862714      -0.70566851 </v>
   <v>       0.02209267      -0.00798966      -0.61257127 </v>
   <v>       0.05891896       0.08935288      -0.61720647 </v>
   <v>       0.06375703      -0.07203714       0.77698902 </v>
   <v>      -0.03413819       0.09145603       0.79165216 </v>
   <v>       0.11027037       0.00898961      -0.73910898 </v>
   <v>      -0.07213147       0.03257019       0.00792902 </v>
   <v>      -0.04336379      -0.05546361      -0.72087120 </v>
   <v>      -0.03204128      -0.08800717       0.66016995 </v>
   <v>      -0.12575228      -0.02211247       0.04425394 </v>
   <v>      -0.02971739       0.10342553       0.73990449 </v>
   <v>      -0.08040208       0.08525670       0.02345462 </v>
   <v>      -0.05508034       0.14110039       0.69219554 </v>
   <v>       0.07729845      -0.17071317      -0.61954857 </v>
   <v>      -0.00719948      -0.03235987       0.74855303 </v>
  </varray>
  <energy>
   <i name="e_fr_energy">   -189.57807920 </i>
   <i name="e_wo_entrp">   -189.45132932 </i>
   <i name="e_0_energy">     -0.25349975 </i>
  </energy>
  <time name="totalsc">   87.34   87.81</time>
 </calculation>
 <calculation>
  <scstep>
   <time name="dav">    7.08    7.18</time>
   <time name="total">    7.35    7.44</time>
   <dipole>
    <v name="dipole">      0.00000000       0.00000000       0.00115739 </v>
    <i name="Tr[quadrupol]"> -10252.61179370 </i>
    <i name="Echarged">      0.00000000 </i>
    <i name="Edipol_quadrupol">      0.00000000 </i>
    <i name="Eion">      0.00000000 </i>
   </dipole>
   <energy>
    <i name="alphaZ">    805.86975224 </i>
    <i name="ewald"> 189563.22033330 </i>
    <i name="hartreedc">-231811.75519792 </i>
    <i name="XCdc">   -351.12861404 </i>
    <i name="pawpsdc">  48986.60060180 </i>
    <i name="pawaedc"> -47060.97517029 </i>
    <i name="eentropy">     -0.21547404 </i>
    <i name="bandstr">  -1979.52839690 </i>
    <i name="atom">  41659.78587232 </i>
    <i name="e_fr_energy">   -188.12629352 </i>
    <i name="e_wo_entrp">   -187.91081948 </i>
    <i name="e_0_energy">   -188.01855650 </i>
   </energy>
  </scstep>
  <scstep>
   <time name="diag">    1.28    1.28</time>
   <time name="diis">    3.40    3.44</time>
   <time name="orth">    0.34    0.34</time>
   <time name="total">    5.29    5.34</time>
   <dipole>
    <v name="dipole">      0.00000000       0.00000000       0.01070980 </v>
    <i name="Tr[quadrupol]"> -10251.83352600 </i>
    <i name="Echarged">      0.00000000 </i>
    <i name="Edipol_quadrupol">      0.00000000 </i>
    <i name="Eion">      0.00000000 </i>
   </dipole>
   <energy>
    <i name="e_fr_energy">   -191.65943834 </i>
    <i name="e_wo_entrp">   -191.43664330 </i>
    <i name="e_0_energy">   -191.54804082 </i>
   </energy>
  </scstep>
  <scstep>
   <time name="diag">    1.27    1.28</time>
   <time name="diis">    3.48    3.49</time>
   <time name="orth">    0.34    0.34</time>
   <time name="total">    5.36    5.38</time>
   <dipole>
    <v name="dipole">      0.00000000       0.00000000      -0.16059011 </v>
    <i name="Tr[quadrupol]"> -10252.72767895 </i>
    <i name="Echarged">      0.00000000 </i>
    <i name="Edipol_quadrupol">      0.00000000 </i>
    <i name="Eion">      0.00000000 </i>
   </dipole>
   <energy>
    <i name="e_fr_energy">   -192.05819919 </i>
    <i name="e_wo_entrp">   -191.84371916 </i>
    <i name="e_0_energy">   -191.95095918 </i>
   </energy>
  </scstep>
  <scstep>
   <time name="diag">    1.28    1.29</time>
   <time name="diis">    3.41    3.41</time>
   <time name="orth">    0.34    0.34</time>
   <time name="total">    5.29    5.31</time>
   <dipole>
    <v name="dipole">      0.00000000       0.00000000       0.13135910 </v>
    <i name="Tr[quadrupol]"> -10252.73395368 </i>
    <i name="Echarged">      0.00000000 </i>
    <i name="Edipol_quadrupol">      0.00000000 </i>
    <i name="Eion">      0.00000000 </i>
   </dipole>
   <energy>
    <i name="e_fr_energy">   -191.70892714 </i>
    <i name="e_wo_entrp">   -191.52430383 </i>
    <i name="e_0_energy">   -191.61661548 </i>
   </energy>
  </scstep>
  <scstep>
   <time name="diag">    1.28    1.28</time>
   <time name="diis">    3.41    3.42</time>
   <time name="orth">    0.34    0.34</time>
   <time name="total">    5.30    5.32</time>
   <dipole>
    <v name="dipole">      0.00000000       0.00000000      -0.10946940 </v>
    <i name="Tr[quadrupol]"> -10252.78783124 </i>
    <i name="Echarged">      0.00000000 </i>
    <i name="Edipol_quadrupol">      0.00000000 </i>
    <i name="Eion">      0.00000000 </i>
   </dipole>
   <energy>
    <i name="e_fr_energy">   -191.79633973 </i>
    <i name="e_wo_entrp">   -191.57018594 </i>
    <i name="e_0_energy">   -191.68326284 </i>
   </energy>
  </scstep>
  <scstep>
   <time name="diag">    1.28    1.28</time>
   <time name="diis">    3.38    3.39</time>
   <time name="orth">    0.34    0.34</time>
   <time name="total">    5.27    5.29</time>
   <dipole>
    <v name="dipole">      0.00000000       0.00000000      -0.01418795 </v>
    <i name="Tr[quadrupol]"> -10252.77463803 </i>
    <i name="Echarged">      0.00000000 </i>
    <i name="Edipol_quadrupol">      0.00000000 </i>
    <i name="Eion">      0.00000000 </i>
   </dipole>
   <energy>
    <i name="e_fr_energy">   -191.53553521 </i>
    <i name="e_wo_entrp">   -191.31948695 </i>
    <i name="e_0_energy">   -191.42751108 </i>
   </energy>
  </scstep>
  <scstep>
   <time name="diag">    1.27    1.27</time>
   <time name="diis">    3.42    3.43</time>
   <time name="orth">    0.34    0.34</time>
   <time name="total">    5.30    5.32</time>
   <dipole>
    <v name="dipole">      0.00000000       0.00000000       0.00876551 </v>
    <i name="Tr[quadrupol]"> -10252.75200218 </i>
    <i name="Echarged">      0.00000000 </i>
    <i name="Edipol_quadrupol">      0.00000000 </i>
    <i name="Eion">      0.00000000 </i>
   </dipole>
   <energy>
    <i name="e_fr_energy">   -191.42084191 </i>
    <i name="e_wo_entrp">   -191.19641548 </i>
    <i name="e_0_energy">   -191.30862870 </i>
   </energy>
  </scstep>
  <scstep>
   <time name="diag">    1.28    1.29</time>
   <time name="diis">    3.41    3.42</time>
   <time name="orth">    0.34    0.35</time>
   <time name="total">    5.31    5.35</time>
   <dipole>
    <v name="dipole">      0.00000000       0.00000000      -0.00421413 </v>
    <i name="Tr[quadrupol]"> -10252.61473778 </i>
    <i name="Echarged">      0.00000000 </i>
    <i name="Edipol_quadrupol">      0.00000000 </i>
    <i name="Eion">      0.00000000 </i>
[...]
       <r>    2.2753    0.0000 </r>
       <r>    2.3896    0.0000 </r>
       <r>    2.4201    0.0000 </r>
       <r>    2.5368    0.0000 </r>
       <r>    2.6610    0.0000 </r>
       <r>    2.9463    0.0000 </r>
       <r>    3.1643    0.0000 </r>
       <r>    3.2098    0.0000 </r>
       <r>    3.5188    0.0000 </r>
       <r>    3.5838    0.0000 </r>
       <r>    3.6628    0.0000 </r>
       <r>    3.9391    0.0000 </r>
       <r>    4.0114    0.0000 </r>
       <r>    4.2003    0.0000 </r>
       <r>    4.4297    0.0000 </r>
       <r>    4.5199    0.0000 </r>
       <r>    4.5622    0.0000 </r>
       <r>    4.6393    0.0000 </r>
       <r>    4.6540    0.0000 </r>
       <r>    4.7860    0.0000 </r>
       <r>    4.8625    0.0000 </r>
       <r>    4.9386    0.0000 </r>
       <r>    4.9700    0.0000 </r>
       <r>    5.0531    0.0000 </r>
       <r>    5.0886    0.0000 </r>
       <r>    5.1189    0.0000 </r>
       <r>    5.2284    0.0000 </r>
       <r>    5.2903    0.0000 </r>
      </set>
     </set>
    </set>
   </array>
  </eigenvalues>
  <separator name="orbital magnetization" >
   <v name="MAGDIPOLOUT">      0.00000000      0.00000000      0.00000000</v>
  </separator>
  <dos>
   <i name="efermi">     -1.12029768 </i>
   <total>
    <array>
     <dimension dim="1">gridpoints</dimension>
     <dimension dim="2">spin</dimension>
     <field>energy</field>
     <field>total</field>
     <field>integrated</field>
     <set>
      <set comment="spin 1">
       <r>    -9.8860     0.0000     0.0000 </r>
       <r>    -9.8316     0.0000     0.0000 </r>
       <r>    -9.7773     0.0000     0.0000 </r>
       <r>    -9.7229     0.0000     0.0000 </r>
       <r>    -9.6685     0.0000     0.0000 </r>
       <r>    -9.6142     0.0000     0.0000 </r>
       <r>    -9.5598     0.0000     0.0000 </r>
       <r>    -9.5055     0.0000     0.0000 </r>
       <r>    -9.4511     0.0000     0.0000 </r>
       <r>    -9.3967     0.0000     0.0000 </r>
       <r>    -9.3424     0.0000     0.0000 </r>
       <r>    -9.2880     0.0000     0.0000 </r>
       <r>    -9.2337     0.0000     0.0000 </r>
       <r>    -9.1793     0.0001     0.0000 </r>
       <r>    -9.1249     0.0033     0.0002 </r>
       <r>    -9.0706     0.0432     0.0025 </r>
       <r>    -9.0162     0.3290     0.0204 </r>
       <r>    -8.9619     1.4449     0.0990 </r>
       <r>    -8.9075     3.6770     0.2988 </r>
       <r>    -8.8531     5.4987     0.5978 </r>
       <r>    -8.7988     5.2263     0.8819 </r>
       <r>    -8.7444     4.3396     1.1178 </r>
       <r>    -8.6901     4.6120     1.3685 </r>
       <r>    -8.6357     4.8283     1.6309 </r>
       <r>    -8.5813     3.7654     1.8356 </r>
       <r>    -8.5270     2.1107     1.9504 </r>
       <r>    -8.4726     1.0393     2.0068 </r>
       <r>    -8.4183     1.0784     2.0655 </r>
       <r>    -8.3639     1.7016     2.1580 </r>
       <r>    -8.3095     1.8801     2.2602 </r>
       <r>    -8.2552     1.7240     2.3539 </r>
       <r>    -8.2008     2.4429     2.4867 </r>
       <r>    -8.1465     4.0567     2.7072 </r>
       <r>    -8.0921     5.5630     3.0096 </r>
       <r>    -8.0377     7.1128     3.3963 </r>
       <r>    -7.9834     8.4087     3.8533 </r>
       <r>    -7.9290     7.9669     4.2864 </r>
       <r>    -7.8747     6.1489     4.6207 </r>
       <r>    -7.8203     4.5557     4.8683 </r>
       <r>    -7.7659     4.2430     5.0990 </r>
       <r>    -7.7116     5.2760     5.3858 </r>
       <r>    -7.6572     5.7756     5.6997 </r>
       <r>    -7.6029     4.6972     5.9551 </r>
       <r>    -7.5485     4.2263     6.1848 </r>
       <r>    -7.4941     5.8331     6.5019 </r>
       <r>    -7.4398     8.2533     6.9505 </r>
       <r>    -7.3854    10.5695     7.5251 </r>
       <r>    -7.3311    13.2882     8.2474 </r>
       <r>    -7.2767    16.5102     9.1449 </r>
       <r>    -7.2223    19.8602    10.2245 </r>
       <r>    -7.1680    21.8996    11.4150 </r>
       <r>    -7.1136    22.1143    12.6171 </r>
       <r>    -7.0593    24.0613    13.9251 </r>
       <r>    -7.0049    28.3449    15.4659 </r>
       <r>    -6.9505    30.8999    17.1456 </r>
       <r>    -6.8962    31.9008    18.8797 </r>
       <r>    -6.8418    34.3218    20.7454 </r>
       <r>    -6.7875    36.8238    22.7472 </r>
       <r>    -6.7331    36.9485    24.7557 </r>
       <r>    -6.6787    36.4649    26.7379 </r>
       <r>    -6.6244    37.5912    28.7813 </r>
       <r>    -6.5700    40.1696    30.9649 </r>
       <r>    -6.5157    44.0188    33.3578 </r>
       <r>    -6.4613    50.0565    36.0789 </r>
       <r>    -6.4070    57.7107    39.2160 </r>
       <r>    -6.3526    63.2230    42.6528 </r>
       <r>    -6.2982    66.5984    46.2730 </r>
       <r>    -6.2439    73.5613    50.2718 </r>
       <r>    -6.1895    83.9584    54.8358 </r>
       <r>    -6.1352    90.7289    59.7678 </r>
       <r>    -6.0808    89.8857    64.6539 </r>
       <r>    -6.0264    83.6398    69.2005 </r>
       <r>    -5.9721    77.4410    73.4102 </r>
       <r>    -5.9177    74.7215    77.4721 </r>
       <r>    -5.8634    74.9469    81.5461 </r>
       <r>    -5.8090    76.1302    85.6846 </r>
       <r>    -5.7546    76.0171    89.8168 </r>
       <r>    -5.7003    73.3727    93.8053 </r>
       <r>    -5.6459    69.8399    97.6018 </r>
       <r>    -5.5916    67.6781   101.2808 </r>
       <r>    -5.5372    66.8236   104.9133 </r>
       <r>    -5.4828    65.9169   108.4965 </r>
       <r>    -5.4285    64.8382   112.0211 </r>
       <r>    -5.3741    65.8809   115.6024 </r>
       <r>    -5.3198    69.8011   119.3967 </r>
       <r>    -5.2654    74.0867   123.4240 </r>
       <r>    -5.2110    78.7973   127.7074 </r>
       <r>    -5.1567    85.4165   132.3507 </r>
       <r>    -5.1023    91.4742   137.3232 </r>
       <r>    -5.0480    94.2005   142.4439 </r>
       <r>    -4.9936    93.6467   147.5345 </r>
       <r>    -4.9392    90.8232   152.4716 </r>
       <r>    -4.8849    87.3334   157.2190 </r>
       <r>    -4.8305    84.3203   161.8026 </r>
       <r>    -4.7762    82.3383   166.2785 </r>
       <r>    -4.7218    82.0139   170.7368 </r>
       <r>    -4.6674    82.3179   175.2116 </r>
       <r>    -4.6131    81.4141   179.6372 </r>
       <r>    -4.5587    80.2325   183.9986 </r>
       <r>    -4.5044    81.2924   188.4176 </r>
       <r>    -4.4500    83.7616   192.9709 </r>
       <r>    -4.3956    84.5118   197.5649 </r>
       <r>    -4.3413    83.6049   202.1097 </r>
       <r>    -4.2869    84.2324   206.6885 </r>
       <r>    -4.2326    86.7123   211.4022 </r>
       <r>    -4.1782    88.1704   216.1951 </r>
       <r>    -4.1238    88.4479   221.0031 </r>
       <r>    -4.0695    88.2271   225.7991 </r>
       <r>    -4.0151    86.7693   230.5158 </r>
       <r>    -3.9608    85.5632   235.1670 </r>
       <r>    -3.9064    86.2268   239.8543 </r>
       <r>    -3.8520    87.4344   244.6072 </r>
       <r>    -3.7977    88.4775   249.4168 </r>
       <r>    -3.7433    90.5688   254.3401 </r>
       <r>    -3.6890    94.1474   259.4579 </r>
       <r>    -3.6346    98.5471   264.8149 </r>
       <r>    -3.5802   102.1382   270.3671 </r>
       <r>    -3.5259   103.6031   275.9989 </r>
       <r>    -3.4715   103.4012   281.6198 </r>
       <r>    -3.4172   102.0714   287.1684 </r>
       <r>    -3.3628   100.0978   292.6096 </r>
       <r>    -3.3084    98.3105   297.9538 </r>
       <r>    -3.2541    96.5156   303.2003 </r>
       <r>    -3.1997    94.2519   308.3238 </r>
       <r>    -3.1454    91.9568   313.3226 </r>
       <r>    -3.0910    89.9202   318.2106 </r>
       <r>    -3.0367    88.6645   323.0304 </r>
       <r>    -2.9823    89.3424   327.8870 </r>
       <r>    -2.9279    92.1869   332.8982 </r>
       <r>    -2.8736    96.0373   338.1188 </r>
       <r>    -2.8192    99.7895   343.5433 </r>
       <r>    -2.7649   103.3911   349.1636 </r>
       <r>    -2.7105   106.3168   354.9430 </r>
       <r>    -2.6561   107.0396   360.7616 </r>
       <r>    -2.6018   104.7557   366.4561 </r>
       <r>    -2.5474   100.7307   371.9318 </r>
       <r>    -2.4931    97.5351   377.2338 </r>
       <r>    -2.4387    96.3064   382.4690 </r>
       <r>    -2.3843    95.1809   387.6430 </r>
       <r>    -2.3300    92.1411   392.6517 </r>
       <r>    -2.2756    88.5873   397.4673 </r>
       <r>    -2.2213    87.2823   402.2119 </r>
       <r>    -2.1669    88.5057   407.0231 </r>
       <r>    -2.1125    91.1672   411.9789 </r>
       <r>    -2.0582    95.5866   417.1750 </r>
       <r>    -2.0038   101.2046   422.6764 </r>
       <r>    -1.9495   105.3545   428.4034 </r>
       <r>    -1.8951   106.5984   434.1981 </r>
       <r>    -1.8407   105.4930   439.9327 </r>
       <r>    -1.7864   102.7594   445.5186 </r>
       <r>    -1.7320    99.9534   450.9521 </r>
       <r>    -1.6777    99.2046   456.3448 </r>
       <r>    -1.6233    99.2206   461.7384 </r>
       <r>    -1.5689    97.6766   467.0481 </r>
       <r>    -1.5146    94.9161   472.2077 </r>
       <r>    -1.4602    92.7311   477.2485 </r>
       <r>    -1.4059    92.6417   482.2845 </r>
       <r>    -1.3515    93.2203   487.3519 </r>
       <r>    -1.2971    90.3566   492.2637 </r>
       <r>    -1.2428    81.7374   496.7069 </r>
       <r>    -1.1884    68.5257   500.4319 </r>
       <r>    -1.1341    54.0401   503.3695 </r>
       <r>    -1.0797    41.6127   505.6316 </r>
       <r>    -1.0253    31.3237   507.3343 </r>
       <r>    -0.9710    21.9501   508.5275 </r>
       <r>    -0.9166    14.7309   509.3283 </r>
       <r>    -0.8623    11.0784   509.9305 </r>
       <r>    -0.8079     9.6152   510.4532 </r>
       <r>    -0.7535     8.3299   510.9060 </r>
       <r>    -0.6992     8.0724   511.3448 </r>
       <r>    -0.6448    10.5350   511.9175 </r>
       <r>    -0.5905    15.2154   512.7446 </r>
       <r>    -0.5361    20.5131   513.8597 </r>
       <r>    -0.4817    24.2664   515.1788 </r>
       <r>    -0.4274    24.1721   516.4928 </r>
       <r>    -0.3730    21.2007   517.6452 </r>
       <r>    -0.3187    19.9826   518.7315 </r>
       <r>    -0.2643    21.6005   519.9057 </r>
       <r>    -0.2099    21.0239   521.0485 </r>
       <r>    -0.1556    16.1503   521.9265 </r>
       <r>    -0.1012    11.2016   522.5354 </r>
       <r>    -0.0469     9.2830   523.0400 </r>
       <r>     0.0075     9.2337   523.5419 </r>
       <r>     0.0619     9.8461   524.0772 </r>
       <r>     0.1162    11.6750   524.7118 </r>
       <r>     0.1706    13.8952   525.4672 </r>
       <r>     0.2249    14.4616   526.2533 </r>
       <r>     0.2793    14.1056   527.0201 </r>
       <r>     0.3336    15.1285   527.8424 </r>
       <r>     0.3880    17.8057   528.8104 </r>
       <r>     0.4424    21.0222   529.9531 </r>
       <r>     0.4967    24.1266   531.2646 </r>
       <r>     0.5511    26.7058   532.7163 </r>
       <r>     0.6054    27.6544   534.2196 </r>
       <r>     0.6598    25.8693   535.6259 </r>
       <r>     0.7142    22.4649   536.8471 </r>
       <r>     0.7685    19.2006   537.8908 </r>
       <r>     0.8229    16.1405   538.7682 </r>
       <r>     0.8772    14.0234   539.5305 </r>
       <r>     0.9316    13.7760   540.2794 </r>
       <r>     0.9860    13.8203   541.0306 </r>
       <r>     1.0403    12.1026   541.6885 </r>
       <r>     1.0947     9.0376   542.1798 </r>
       <r>     1.1490     6.6521   542.5414 </r>
       <r>     1.2034     5.6571   542.8489 </r>
       <r>     1.2578     5.6709   543.1572 </r>
       <r>     1.3121     6.3574   543.5028 </r>
       <r>     1.3665     6.9767   543.8820 </r>
       <r>     1.4208     7.2697   544.2772 </r>
       <r>     1.4752     8.9487   544.7637 </r>
       <r>     1.5296    13.1098   545.4763 </r>
       <r>     1.5839    17.0535   546.4033 </r>
       <r>     1.6383    17.6126   547.3607 </r>
       <r>     1.6926    15.9846   548.2297 </r>
       <r>     1.7470    15.7784   549.0874 </r>
       <r>     1.8014    17.4943   550.0384 </r>
       <r>     1.8557    17.4215   550.9854 </r>
       <r>     1.9101    13.8553   551.7386 </r>
       <r>     1.9644    10.9197   552.3321 </r>
       <r>     2.0188    11.8904   552.9785 </r>
       <r>     2.0732    15.0659   553.7975 </r>
       <r>     2.1275    17.8680   554.7688 </r>
       <r>     2.1819    19.0935   555.8067 </r>
       <r>     2.2362    19.1800   556.8493 </r>
       <r>     2.2906    19.9181   557.9321 </r>
       <r>     2.3450    21.8684   559.1208 </r>
       <r>     2.3993    23.0010   560.3711 </r>
       <r>     2.4537    21.5060   561.5402 </r>
       <r>     2.5080    19.8160   562.6174 </r>
       <r>     2.5624    21.2963   563.7751 </r>
       <r>     2.6168    24.3621   565.0994 </r>
       <r>     2.6711    24.4786   566.4300 </r>
       <r>     2.7255    20.0577   567.5203 </r>
       <r>     2.7798    13.9544   568.2789 </r>
       <r>     2.8342     8.9375   568.7647 </r>
       <r>     2.8886     6.2516   569.1046 </r>
       <r>     2.9429     5.9600   569.4286 </r>
       <r>     2.9973     5.6529   569.7358 </r>
       <r>     3.0516     4.2257   569.9656 </r>
       <r>     3.1060     4.4308   570.2064 </r>
       <r>     3.1604     8.1319   570.6485 </r>
       <r>     3.2147    12.6576   571.3365 </r>
       <r>     3.2691    13.6819   572.0803 </r>
       <r>     3.3234    10.9881   572.6776 </r>
       <r>     3.3778     8.7213   573.1517 </r>
       <r>     3.4322     9.4691   573.6664 </r>
       <r>     3.4865    11.6364   574.2990 </r>
       <r>     3.5409    13.6346   575.0401 </r>
       <r>     3.5952    16.6565   575.9456 </r>
       <r>     3.6496    20.5009   577.0600 </r>
       <r>     3.7040    22.1912   578.2663 </r>
       <r>     3.7583    20.3019   579.3699 </r>
       <r>     3.8127    15.7808   580.2277 </r>
       <r>     3.8670    10.8852   580.8195 </r>
       <r>     3.9214     9.1349   581.3160 </r>
       <r>     3.9757    11.9035   581.9631 </r>
       <r>     4.0301    15.2109   582.7900 </r>
       <r>     4.0845    14.7026   583.5892 </r>
       <r>     4.1388    12.4249   584.2646 </r>
       <r>     4.1932    11.8659   584.9096 </r>
       <r>     4.2475    10.7600   585.4945 </r>
       <r>     4.3019     7.5262   585.9037 </r>
       <r>     4.3563     6.4488   586.2542 </r>
       <r>     4.4106    10.3258   586.8155 </r>
       <r>     4.4650    15.9750   587.6839 </r>
       <r>     4.5193    19.8354   588.7622 </r>
       <r>     4.5737    22.7760   590.0003 </r>
       <r>     4.6281    25.9628   591.4116 </r>
       <r>     4.6824    26.3859   592.8459 </r>
       <r>     4.7368    23.0861   594.1009 </r>
       <r>     4.7911    21.2010   595.2533 </r>
       <r>     4.8455    23.0346   596.5055 </r>
       <r>     4.8999    26.1198   597.9254 </r>
       <r>     4.9542    28.8666   599.4945 </r>
       <r>     5.0086    31.1848   601.1897 </r>
       <r>     5.0629    33.4130   603.0061 </r>
       <r>     5.1173    33.7219   604.8392 </r>
       <r>     5.1717    30.8419   606.5157 </r>
       <r>     5.2260    28.4251   608.0609 </r>
       <r>     5.2804    26.7349   609.5142 </r>
       <r>     5.3347    21.4070   610.6779 </r>
       <r>     5.3891    13.3707   611.4047 </r>
       <r>     5.4435     6.8298   611.7760 </r>
       <r>     5.4978     2.9257   611.9350 </r>
       <r>     5.5522     0.9555   611.9870 </r>
       <r>     5.6065     0.2092   611.9983 </r>
       <r>     5.6609     0.0282   611.9999 </r>
       <r>     5.7153     0.0022   612.0000 </r>
       <r>     5.7696     0.0001   612.0000 </r>
       <r>     5.8240     0.0000   612.0000 </r>
       <r>     5.8783     0.0000   612.0000 </r>
       <r>     5.9327     0.0000   612.0000 </r>
       <r>     5.9871     0.0000   612.0000 </r>
       <r>     6.0414     0.0000   612.0000 </r>
       <r>     6.0958     0.0000   612.0000 </r>
       <r>     6.1501     0.0000   612.0000 </r>
       <r>     6.2045     0.0000   612.0000 </r>
       <r>     6.2589     0.0000   612.0000 </r>
       <r>     6.3132     0.0000   612.0000 </r>
       <r>     6.3676     0.0000   612.0000 </r>
       <r>     6.4219     0.0000   612.0000 </r>
      </set>
     </set>
    </array>
   </total>
  </dos>
 </calculation>
 <structure name="finalpos" >
  <crystal>
   <varray name="basis" >
    <v>      11.00258152       0.00000000       0.00000000 </v>
    <v>       5.50129076       9.52851510       0.00000000 </v>
    <v>       0.00000000       0.00000000      24.49178509 </v>
   </varray>
   <i name="volume">   2567.67623402 </i>
   <varray name="rec_basis" >
    <v>       0.09088776      -0.05247407       0.00000000 </v>
    <v>       0.00000000       0.10494815       0.00000000 </v>
    <v>       0.00000000       0.00000000       0.04083002 </v>
   </varray>
  </crystal>
  <varray name="positions" >
   <v>       0.75094291       0.74889404       0.60341495 </v>
   <v>       0.41774799       0.91622877       0.50019796 </v>
   <v>       0.50292528       0.24805383       0.60434031 </v>
   <v>       0.41911268       0.41571271       0.50073061 </v>
   <v>       0.83206642       0.08354082       0.39770059 </v>
   <v>       0.41741006       0.16634976       0.50027585 </v>
   <v>       0.58292668       0.08158170       0.39524123 </v>
   <v>       0.67043364       0.91549564       0.50017229 </v>
   <v>       0.16593270       0.91825064       0.50027726 </v>
   <v>       0.33501581       0.83346948       0.39339326 </v>
   <v>       0.16420150       0.66815673       0.49959988 </v>
   <v>       0.24847028       0.25116293       0.60547158 </v>
   <v>       0.42007932       0.66524865       0.50034276 </v>
   <v>       0.33372449       0.33363812       0.39379205 </v>
   <v>       0.16522558       0.41714451       0.50067965 </v>
   <v>       0.82955852       0.33618228       0.39630919 </v>
   <v>       0.91508554       0.16742910       0.50056446 </v>
   <v>      -0.00228445      -0.00099011       0.60426577 </v>
   <v>       0.08273651       0.33120478       0.39649882 </v>
   <v>       0.91496153       0.41850529       0.50016579 </v>
   <v>       0.08021097       0.58437904       0.39505115 </v>
   <v>       0.25079362      -0.00106530       0.60543817 </v>
   <v>       0.50158332       0.50116943       0.60599366 </v>
   <v>       0.08270122       0.83336226       0.39509881 </v>
   <v>       0.66756007       0.16688617       0.49942583 </v>
   <v>       0.83256438       0.83210878       0.40287643 </v>
   <v>       0.82960410       0.58601280       0.40386094 </v>
   <v>       0.50122115       0.74950681       0.59807143 </v>
   <v>       0.75068731      -0.00030224       0.59646337 </v>
   <v>       0.75056440       0.25011466       0.59711020 </v>
   <v>       0.66697259       0.41678838       0.50051658 </v>
   <v>       0.66877080       0.66579809       0.50088745 </v>
   <v>       0.75143726       0.49869197       0.59722000 </v>
   <v>       0.08393559       0.08276316       0.40291484 </v>
   <v>       0.58214441       0.58408016       0.40335622 </v>
   <v>       0.58131214       0.33504611       0.40334358 </v>
   <v>       0.50099200      -0.00078294       0.59878092 </v>
   <v>       0.24962112       0.50110671       0.59843072 </v>
   <v>       0.33414042       0.58349590       0.40180321 </v>
   <v>       0.16648977       0.16724210       0.50200336 </v>
   <v>       0.33254636       0.08281458       0.40310642 </v>
   <v>       0.00162325       0.74780464       0.59700683 </v>
   <v>       0.91658204       0.91735852       0.49956293 </v>
   <v>       0.00007492       0.50019581       0.59820319 </v>
   <v>       0.91600236       0.66787748       0.50079731 </v>
   <v>      -0.00174174       0.25184707       0.59816768 </v>
   <v>       0.58498986       0.83099761       0.40314780 </v>
   <v>       0.25034333       0.74944254       0.59792670 </v>
  </varray>
 </structure>
</modeling>
