unknown system                          
           1
    11.002582    0.000000    0.000000
     5.501291    9.528515    0.000000
     0.000000    0.000000   24.491785
   Au   Pd
  24  24
Direct configuration=     1
   0.08333333  0.08333333  0.40830017
   0.41666667  0.16666667  0.50000000
   0.91666667  0.16666667  0.50000000
   0.00000000  0.00000000  0.59169983
   0.08333333  0.33333333  0.40830017
   0.91666667  0.41666667  0.50000000
   0.00000000  0.25000000  0.59169983
   0.08333333  0.58333333  0.40830017
   0.91666667  0.66666667  0.50000000
   0.00000000  0.50000000  0.59169983
   0.58333333  0.83333333  0.40830017
   0.91666667  0.91666667  0.50000000
   0.50000000  0.75000000  0.59169983
   0.75000000  0.50000000  0.59169983
   0.66666667  0.66666667  0.50000000
   0.25000000  0.00000000  0.59169983
   0.58333333  0.58333333  0.40830017
   0.75000000  0.25000000  0.59169983
   0.41666667  0.41666667  0.50000000
   0.33333333  0.58333333  0.40830017
   0.41666667  0.91666667  0.50000000
   0.25000000  0.50000000  0.59169983
   0.50000000  0.00000000  0.59169983
   0.00000000  0.75000000  0.59169983
   0.16666667  0.91666667  0.50000000
   0.33333333  0.83333333  0.40830017
   0.16666667  0.66666667  0.50000000
   0.25000000  0.25000000  0.59169983
   0.08333333  0.83333333  0.40830017
   0.33333333  0.33333333  0.40830017
   0.16666667  0.16666667  0.50000000
   0.33333333  0.08333333  0.40830017
   0.66666667  0.91666667  0.50000000
   0.16666667  0.41666667  0.50000000
   0.58333333  0.08333333  0.40830017
   0.83333333  0.08333333  0.40830017
   0.50000000  0.25000000  0.59169983
   0.25000000  0.75000000  0.59169983
   0.50000000  0.50000000  0.59169983
   0.83333333  0.83333333  0.40830017
   0.66666667  0.41666667  0.50000000
   0.83333333  0.33333333  0.40830017
   0.75000000  0.00000000  0.59169983
   0.66666667  0.16666667  0.50000000
   0.83333333  0.58333333  0.40830017
   0.41666667  0.66666667  0.50000000
   0.58333333  0.33333333  0.40830017
   0.75000000  0.75000000  0.59169983
Direct configuration=     2
   0.08333333  0.08333333  0.40830017
   0.41638663  0.16743385  0.49963663
   0.91581419  0.16688567  0.49914770
   0.00055430 -0.00108458  0.59391497
   0.08333333  0.33333333  0.40830017
   0.91680849  0.41620012  0.49924322
   0.00137646  0.24970363  0.59395490
   0.08333333  0.58333333  0.40830017
   0.91602542  0.66767289  0.49958871
   0.00071271  0.49964304  0.59392456
   0.58333333  0.83333333  0.40830017
   0.91587722  0.91696505  0.49925964
   0.49964373  0.74896503  0.59387738
   0.74888500  0.50045241  0.59397561
   0.66687154  0.66668224  0.49989846
   0.24949377  0.00015858  0.59364522
   0.58333333  0.58333333  0.40830017
   0.74790431  0.25023941  0.59363257
   0.41765619  0.41642817  0.50004447
   0.33333333  0.58333333  0.40830017
   0.41499067  0.91716390  0.49926958
   0.25101834  0.49961429  0.59350200
   0.50129828  0.00062063  0.59384323
  -0.00010509  0.75046274  0.59388603
   0.16784721  0.91496135  0.49968518
   0.33333333  0.83333333  0.40830017
   0.16743728  0.66746518  0.49994225
   0.25014369  0.25009753  0.59275012
   0.08333333  0.83333333  0.40830017
   0.33333333  0.33333333  0.40830017
   0.16756673  0.16673530  0.49985686
   0.33333333  0.08333333  0.40830017
   0.66732697  0.91762960  0.49989234
   0.16765064  0.41566681  0.49995477
   0.58333333  0.08333333  0.40830017
   0.83333333  0.08333333  0.40830017
   0.50056325  0.24975705  0.59277132
   0.25044901  0.74957438  0.59251731
   0.49974917  0.50011821  0.59262198
   0.83333333  0.83333333  0.40830017
   0.66559865  0.41626479  0.49969927
   0.83333333  0.33333333  0.40830017
   0.74924862  0.00026234  0.59275087
   0.66635456  0.16644088  0.49971319
   0.83333333  0.58333333  0.40830017
   0.41550050  0.66686657  0.50021307
   0.58333333  0.33333333  0.40830017
   0.74983010  0.75078876  0.59295485
Direct configuration=     3
   0.08333333  0.08333333  0.40830017
   0.41578801  0.16907382  0.49885989
   0.91399192  0.16735382  0.49732580
   0.00173917 -0.00340302  0.59865014
   0.08333333  0.33333333  0.40830017
   0.91711166  0.41520282  0.49762551
   0.00431883  0.24907010  0.59877541
   0.08333333  0.58333333  0.40830017
   0.91465468  0.66982381  0.49870953
   0.00223622  0.49887998  0.59868021
   0.58333333  0.83333333  0.40830017
   0.91418967  0.91760287  0.49767703
   0.49888217  0.74675265  0.59853219
   0.74650153  0.50141950  0.59884039
   0.66730948  0.66671552  0.49968140
   0.24841165  0.00049757  0.59780374
   0.58333333  0.58333333  0.40830017
   0.74342451  0.25075119  0.59776404
   0.41977141  0.41591836  0.50013954
   0.33333333  0.58333333  0.40830017
   0.41140801  0.91822680  0.49770821
   0.25319516  0.49878978  0.59735438
   0.50407353  0.00194730  0.59842503
  -0.00032974  0.75145191  0.59855931
   0.17037078  0.91131600  0.49901222
   0.33333333  0.83333333  0.40830017
   0.16908457  0.66917212  0.49981881
   0.25045086  0.25030601  0.59499526
   0.08333333  0.83333333  0.40830017
   0.33333333  0.33333333  0.40830017
   0.16949074  0.16688202  0.49955088
   0.33333333  0.08333333  0.40830017
   0.66873844  0.91968799  0.49966221
   0.16975402  0.41352949  0.49985808
   0.58333333  0.08333333  0.40830017
   0.83333333  0.08333333  0.40830017
   0.50176728  0.24923772  0.59506178
   0.25140882  0.74866457  0.59426479
   0.49921300  0.50037090  0.59459321
   0.83333333  0.83333333  0.40830017
   0.66331562  0.41540573  0.49905641
   0.83333333  0.33333333  0.40830017
   0.74764244  0.00082313  0.59499760
   0.66568740  0.16595822  0.49910010
   0.83333333  0.58333333  0.40830017
   0.41300766  0.66729388  0.50066852
   0.58333333  0.33333333  0.40830017
   0.74946692  0.75247484  0.59563761
Direct configuration=     4
   0.08333333  0.08333333  0.40830017
   0.41682265  0.16793031  0.50011282
   0.91412705  0.16691916  0.49938361
   0.00075812 -0.00278031  0.60120853
   0.08333333  0.33333333  0.40830017
   0.91677977  0.41508782  0.49967725
   0.00313764  0.24938095  0.60138792
   0.08333333  0.58333333  0.40830017
   0.91608397  0.66901462  0.50054836
   0.00184214  0.49952519  0.60131300
   0.58333333  0.83333333  0.40830017
   0.91543199  0.91784567  0.49911352
   0.49825553  0.74781570  0.60128057
   0.74728859  0.50060226  0.60162581
   0.66621505  0.66701617  0.50171486
   0.24993554 -0.00031599  0.60031715
   0.58333333  0.58333333  0.40830017
   0.74399789  0.25023135  0.60022691
   0.41921071  0.41610217  0.50144718
   0.33333333  0.58333333  0.40830017
   0.41174278  0.91820874  0.49959174
   0.25397318  0.49845318  0.59978465
   0.50367310  0.00195280  0.60100694
  -0.00054574  0.75133524  0.60129969
   0.16903600  0.91187926  0.50017777
   0.33333333  0.83333333  0.40830017
   0.16833683  0.66906678  0.50122993
   0.25192757  0.24975589  0.59645433
   0.08333333  0.83333333  0.40830017
   0.33333333  0.33333333  0.40830017
   0.16891480  0.16666362  0.50098322
   0.33333333  0.08333333  0.40830017
   0.66672670  0.92124838  0.50074669
   0.16946407  0.41487862  0.50133600
   0.58333333  0.08333333  0.40830017
   0.83333333  0.08333333  0.40830017
   0.50115798  0.24939105  0.59654929
   0.25145660  0.74829648  0.59566183
   0.49881813  0.50024407  0.59605262
   0.83333333  0.83333333  0.40830017
   0.66351790  0.41524510  0.50022758
   0.83333333  0.33333333  0.40830017
   0.74856007  0.00069888  0.59644846
   0.66561998  0.16602486  0.49987632
   0.83333333  0.58333333  0.40830017
   0.41385856  0.66736985  0.50189949
   0.58333333  0.33333333  0.40830017
   0.74951113  0.75232487  0.59716037
Direct configuration=     5
   0.08333333  0.08333333  0.40830017
   0.41992657  0.16449977  0.50387163
   0.91453243  0.16561521  0.50555705
  -0.00218504 -0.00091220  0.60888371
   0.08333333  0.33333333  0.40830017
   0.91578412  0.41474283  0.50583248
  -0.00040593  0.25031349  0.60922546
   0.08333333  0.58333333  0.40830017
   0.92037182  0.66658705  0.50606485
   0.00065987  0.50146083  0.60921138
   0.58333333  0.83333333  0.40830017
   0.91915893  0.91857405  0.50342297
   0.49637561  0.75100486  0.60952572
   0.74964978  0.49815054  0.60998209
   0.66293174  0.66791812  0.50781522
   0.25450721 -0.00275665  0.60785737
   0.58333333  0.58333333  0.40830017
   0.74571804  0.24867183  0.60761551
   0.41752860  0.41665359  0.50537010
   0.33333333  0.58333333  0.40830017
   0.41274707  0.91815457  0.50524231
   0.25630724  0.49744337  0.60707547
   0.50247184  0.00196932  0.60875268
  -0.00119375  0.75098521  0.60952081
   0.16503165  0.91356901  0.50367444
   0.33333333  0.83333333  0.40830017
   0.16609363  0.66875075  0.50546329
   0.25635770  0.24810553  0.60083152
   0.08333333  0.83333333  0.40830017
   0.33333333  0.33333333  0.40830017
   0.16718698  0.16600843  0.50528024
   0.33333333  0.08333333  0.40830017
   0.66069147  0.92592955  0.50400015
   0.16859423  0.41892601  0.50576977
   0.58333333  0.08333333  0.40830017
   0.83333333  0.08333333  0.40830017
   0.49933006  0.24985105  0.60101181
   0.25159995  0.74719219  0.59985296
   0.49763352  0.49986359  0.60043084
   0.83333333  0.83333333  0.40830017
   0.66412476  0.41476320  0.50374110
   0.83333333  0.33333333  0.40830017
   0.75131294  0.00032613  0.60080105
   0.66541772  0.16622478  0.50220498
   0.83333333  0.58333333  0.40830017
   0.41641127  0.66759775  0.50559240
   0.58333333  0.33333333  0.40830017
   0.74964377  0.75187494  0.60172865
Direct configuration=     6
   0.08333333  0.08333333  0.40830017
   0.41485422  0.16800401  0.50493726
   0.91474472  0.16754446  0.50723022
   0.00099549 -0.00160467  0.61044708
   0.08333333  0.33333333  0.40830017
   0.91568037  0.41592850  0.50745337
   0.00252540  0.24865315  0.61064287
   0.08333333  0.58333333  0.40830017
   0.91614335  0.66874785  0.50738848
   0.00213840  0.49955276  0.61068225
   0.58333333  0.83333333  0.40830017
   0.91601835  0.91663233  0.50500413
   0.49974707  0.74800936  0.61126047
   0.74769429  0.49992952  0.61154300
   0.66562876  0.66719212  0.50921287
   0.24999479  0.00025139  0.60921041
   0.58333333  0.58333333  0.40830017
   0.74488036  0.24995499  0.60895132
   0.41646185  0.41749560  0.50605316
   0.33333333  0.58333333  0.40830017
   0.41180260  0.91788681  0.50678686
   0.25306507  0.49851922  0.60866662
   0.50441249  0.00073546  0.61034494
  -0.00012362  0.75046637  0.61111607
   0.16748177  0.91464709  0.50545951
   0.33333333  0.83333333  0.40830017
   0.16764048  0.66787028  0.50697704
   0.25261035  0.24911333  0.60176384
   0.08333333  0.83333333  0.40830017
   0.33333333  0.33333333  0.40830017
   0.16627928  0.16676882  0.50704376
   0.33333333  0.08333333  0.40830017
   0.66585140  0.91994813  0.50551946
   0.16837234  0.41686595  0.50734002
   0.58333333  0.08333333  0.40830017
   0.83333333  0.08333333  0.40830017
   0.50166862  0.24860787  0.60203298
   0.24957300  0.74923251  0.60096676
   0.50070970  0.49973462  0.60171936
   0.83333333  0.83333333  0.40830017
   0.66542905  0.41486418  0.50545818
   0.83333333  0.33333333  0.40830017
   0.75027086 -0.00024700  0.60151295
   0.66694541  0.16699023  0.50375285
   0.83333333  0.58333333  0.40830017
   0.41531977  0.66814366  0.50652829
   0.58333333  0.33333333  0.40830017
   0.74890958  0.75168675  0.60276058
Direct configuration=     7
   0.08333333  0.08333333  0.40830017
   0.41520195  0.16776378  0.50486420
   0.91473016  0.16741220  0.50711551
   0.00077744 -0.00155720  0.61033991
   0.08333333  0.33333333  0.40830017
   0.91568749  0.41584722  0.50734225
   0.00232444  0.24876697  0.61054570
   0.08333333  0.58333333  0.40830017
   0.91643323  0.66859972  0.50729774
   0.00203704  0.49968357  0.61058142
   0.58333333  0.83333333  0.40830017
   0.91623365  0.91676545  0.50489573
   0.49951594  0.74821472  0.61114154
   0.74782835  0.49980756  0.61143599
   0.66544387  0.66724189  0.50911706
   0.25030414  0.00004517  0.60911765
   0.58333333  0.58333333  0.40830017
   0.74493779  0.24986703  0.60885974
   0.41653499  0.41743788  0.50600633
   0.33333333  0.58333333  0.40830017
   0.41186735  0.91790517  0.50668097
   0.25328734  0.49844547  0.60855754
   0.50427945  0.00082005  0.61023578
  -0.00019698  0.75050194  0.61100670
   0.16731381  0.91457318  0.50533714
   0.33333333  0.83333333  0.40830017
   0.16753443  0.66793064  0.50687327
   0.25286726  0.24904424  0.60169993
   0.08333333  0.83333333  0.40830017
   0.33333333  0.33333333  0.40830017
   0.16634151  0.16671669  0.50692286
   0.33333333  0.08333333  0.40830017
   0.66549766  0.92035818  0.50541530
   0.16838755  0.41700718  0.50723237
   0.58333333  0.08333333  0.40830017
   0.83333333  0.08333333  0.40830017
   0.50150830  0.24869309  0.60196298
   0.24971196  0.74909263  0.60089040
   0.50049881  0.49974346  0.60163102
   0.83333333  0.83333333  0.40830017
   0.66533964  0.41485726  0.50534047
   0.83333333  0.33333333  0.40830017
   0.75034230 -0.00020771  0.60146415
   0.66684068  0.16693775  0.50364673
   0.83333333  0.58333333  0.40830017
   0.41539460  0.66810623  0.50646413
   0.58333333  0.33333333  0.40830017
   0.74895992  0.75169965  0.60268983
Direct configuration=     8
   0.08333333  0.08333333  0.40830017
   0.41544927  0.16712970  0.50511866
   0.91552884  0.16679372  0.50745298
   0.00092565 -0.00179681  0.61060167
   0.08333333  0.33333333  0.40830017
   0.91627784  0.41669149  0.50766617
   0.00214404  0.24946975  0.61097448
   0.08333333  0.58333333  0.40830017
   0.91630935  0.66791664  0.50740751
   0.00167922  0.49895734  0.61088779
   0.58333333  0.83333333  0.40830017
   0.91629775  0.91662255  0.50535032
   0.49909642  0.74844876  0.61157015
   0.74879380  0.49965974  0.61193192
   0.66547872  0.66673788  0.50903985
   0.25056285 -0.00021808  0.60946135
   0.58333333  0.58333333  0.40830017
   0.74595576  0.24973862  0.60918184
   0.41684079  0.41772282  0.50627718
   0.33333333  0.58333333  0.40830017
   0.41282475  0.91789875  0.50718675
   0.25318269  0.49853219  0.60888187
   0.50367053  0.00067753  0.61041128
  -0.00034589  0.75074234  0.61137305
   0.16688982  0.91533877  0.50603139
   0.33333333  0.83333333  0.40830017
   0.16733148  0.66794826  0.50735130
   0.25171630  0.24915769  0.60234948
   0.08333333  0.83333333  0.40830017
   0.33333333  0.33333333  0.40830017
   0.16551314  0.16732138  0.50735487
   0.33333333  0.08333333  0.40830017
   0.66531449  0.91951710  0.50590440
   0.16644693  0.41718754  0.50768632
   0.58333333  0.08333333  0.40830017
   0.83333333  0.08333333  0.40830017
   0.50160431  0.24869185  0.60216487
   0.25007470  0.74965503  0.60154708
   0.50022007  0.50009296  0.60211618
   0.83333333  0.83333333  0.40830017
   0.66533117  0.41583641  0.50607238
   0.83333333  0.33333333  0.40830017
   0.75063862 -0.00053563  0.60181278
   0.66660687  0.16712141  0.50442122
   0.83333333  0.58333333  0.40830017
   0.41543994  0.66794489  0.50676884
   0.58333333  0.33333333  0.40830017
   0.74972692  0.75094746  0.60360987
Direct configuration=     9
   0.08333333  0.08333333  0.40830017
   0.41553764  0.16690312  0.50520959
   0.91581423  0.16657272  0.50757357
   0.00097861 -0.00188243  0.61069521
   0.08333333  0.33333333  0.40830017
   0.91648879  0.41699319  0.50778192
   0.00207957  0.24972088  0.61112770
   0.08333333  0.58333333  0.40830017
   0.91626508  0.66767254  0.50744673
   0.00155136  0.49869783  0.61099727
   0.58333333  0.83333333  0.40830017
   0.91632065  0.91657149  0.50551276
   0.49894650  0.74853239  0.61172330
   0.74913879  0.49960692  0.61210913
   0.66549118  0.66655778  0.50901227
   0.25065529 -0.00031214  0.60958417
   0.58333333  0.58333333  0.40830017
   0.74631951  0.24969274  0.60929693
   0.41695007  0.41782464  0.50637396
   0.33333333  0.58333333  0.40830017
   0.41316686  0.91789645  0.50736749
   0.25314530  0.49856318  0.60899776
   0.50345294  0.00062661  0.61047400
  -0.00039910  0.75082824  0.61150396
   0.16673831  0.91561234  0.50627947
   0.33333333  0.83333333  0.40830017
   0.16725896  0.66795456  0.50752212
   0.25130502  0.24919822  0.60258159
   0.08333333  0.83333333  0.40830017
   0.33333333  0.33333333  0.40830017
   0.16521713  0.16753745  0.50750924
   0.33333333  0.08333333  0.40830017
   0.66524903  0.91921655  0.50607918
   0.16575348  0.41725199  0.50784854
   0.58333333  0.08333333  0.40830017
   0.83333333  0.08333333  0.40830017
   0.50163861  0.24869140  0.60223701
   0.25020432  0.74985599  0.60178173
   0.50012047  0.50021785  0.60228955
   0.83333333  0.83333333  0.40830017
   0.66532815  0.41618630  0.50633392
   0.83333333  0.33333333  0.40830017
   0.75074450 -0.00065280  0.60193736
   0.66652332  0.16718704  0.50469797
   0.83333333  0.58333333  0.40830017
   0.41545614  0.66788723  0.50687773
   0.58333333  0.33333333  0.40830017
   0.75000099  0.75067867  0.60393863
Direct configuration=    10
   0.08333333  0.08333333  0.40830017
   0.41580458  0.16701226  0.50532934
   0.91544735  0.16688898  0.50754972
   0.00065236 -0.00167724  0.61086328
   0.08333333  0.33333333  0.40830017
   0.91605697  0.41660463  0.50771762
   0.00165882  0.24944677  0.61155325
   0.08333333  0.58333333  0.40830017
   0.91645243  0.66803451  0.50743768
   0.00143703  0.49934219  0.61133517
   0.58333333  0.83333333  0.40830017
   0.91653563  0.91653100  0.50559039
   0.49899041  0.74859923  0.61198756
   0.74910558  0.49978027  0.61252419
   0.66492518  0.66653991  0.50894364
   0.25102486 -0.00049529  0.60988075
   0.58333333  0.58333333  0.40830017
   0.74698428  0.24947564  0.60950603
   0.41658703  0.41757960  0.50651629
   0.33333333  0.58333333  0.40830017
   0.41328682  0.91783741  0.50752833
   0.25341395  0.49847261  0.60906626
   0.50308989  0.00078501  0.61046760
  -0.00030922  0.75042848  0.61172108
   0.16675048  0.91552656  0.50665157
   0.33333333  0.83333333  0.40830017
   0.16686237  0.66806608  0.50780703
   0.25176477  0.24898983  0.60315660
   0.08333333  0.83333333  0.40830017
   0.33333333  0.33333333  0.40830017
   0.16539081  0.16733605  0.50764102
   0.33333333  0.08333333  0.40830017
   0.66485847  0.91940640  0.50638234
   0.16607305  0.41721610  0.50807871
   0.58333333  0.08333333  0.40830017
   0.83333333  0.08333333  0.40830017
   0.50121354  0.24890144  0.60237391
   0.25071463  0.74956949  0.60237604
   0.49981407  0.50027583  0.60274983
   0.83333333  0.83333333  0.40830017
   0.66593756  0.41615976  0.50679929
   0.83333333  0.33333333  0.40830017
   0.75076821 -0.00072181  0.60234898
   0.66634277  0.16712683  0.50522133
   0.83333333  0.58333333  0.40830017
   0.41513478  0.66834491  0.50707083
   0.58333333  0.33333333  0.40830017
   0.75041151  0.75027830  0.60472551
Direct configuration=    11
   0.08333333  0.08333333  0.40830017
   0.41588532  0.16704528  0.50536557
   0.91533637  0.16698465  0.50754251
   0.00055367 -0.00161518  0.61091412
   0.08333333  0.33333333  0.40830017
   0.91592635  0.41648709  0.50769817
   0.00153155  0.24936385  0.61168198
   0.08333333  0.58333333  0.40830017
   0.91650910  0.66814400  0.50743494
   0.00140245  0.49953710  0.61143738
   0.58333333  0.83333333  0.40830017
   0.91660066  0.91651875  0.50561387
   0.49900369  0.74861945  0.61206750
   0.74909553  0.49983270  0.61264974
   0.66475397  0.66653450  0.50892288
   0.25113665 -0.00055069  0.60997046
   0.58333333  0.58333333  0.40830017
   0.74718536  0.24940996  0.60956928
   0.41647722  0.41750548  0.50655934
   0.33333333  0.58333333  0.40830017
   0.41332311  0.91781956  0.50757699
   0.25349521  0.49844522  0.60908698
   0.50298007  0.00083293  0.61046567
  -0.00028204  0.75030756  0.61178676
   0.16675416  0.91550062  0.50676413
   0.33333333  0.83333333  0.40830017
   0.16674241  0.66809982  0.50789321
   0.25190384  0.24892679  0.60333053
   0.08333333  0.83333333  0.40830017
   0.33333333  0.33333333  0.40830017
   0.16544334  0.16727512  0.50768088
   0.33333333  0.08333333  0.40830017
   0.66474033  0.91946383  0.50647404
   0.16616972  0.41720524  0.50814833
   0.58333333  0.08333333  0.40830017
   0.83333333  0.08333333  0.40830017
   0.50108496  0.24896497  0.60241532
   0.25086900  0.74948282  0.60255581
   0.49972139  0.50029337  0.60288906
   0.83333333  0.83333333  0.40830017
   0.66612189  0.41615173  0.50694005
   0.83333333  0.33333333  0.40830017
   0.75077539 -0.00074269  0.60247348
   0.66628815  0.16710862  0.50537964
   0.83333333  0.58333333  0.40830017
   0.41503757  0.66848335  0.50712924
   0.58333333  0.33333333  0.40830017
   0.75053569  0.75015719  0.60496353
Direct configuration=    12
   0.08333333  0.08333333  0.40830017
   0.41567257  0.16728088  0.50539088
   0.91491254  0.16698453  0.50736295
   0.00071136 -0.00204679  0.61104757
   0.08333333  0.33333333  0.40830017
   0.91584818  0.41634972  0.50762174
   0.00173481  0.24922662  0.61205274
   0.08333333  0.58333333  0.40830017
   0.91597501  0.66840491  0.50750488
   0.00175982  0.49947678  0.61168190
   0.58333333  0.83333333  0.40830017
   0.91634972  0.91700427  0.50556535
   0.49955728  0.74837035  0.61228194
   0.74865891  0.50008063  0.61302672
   0.66491271  0.66683235  0.50907407
   0.25092503 -0.00040354  0.61024915
   0.58333333  0.58333333  0.40830017
   0.74664681  0.24953428  0.60976417
   0.41650749  0.41774133  0.50659199
   0.33333333  0.58333333  0.40830017
   0.41280213  0.91806260  0.50753099
   0.25360797  0.49837372  0.60913004
   0.50336492  0.00078299  0.61043459
   0.00001712  0.75024570  0.61197211
   0.16686505  0.91529464  0.50695330
   0.33333333  0.83333333  0.40830017
   0.16686733  0.66822644  0.50809296
   0.25203775  0.24899427  0.60377969
   0.08333333  0.83333333  0.40830017
   0.33333333  0.33333333  0.40830017
   0.16590951  0.16702771  0.50778179
   0.33333333  0.08333333  0.40830017
   0.66487683  0.91957411  0.50672691
   0.16664555  0.41698286  0.50831410
   0.58333333  0.08333333  0.40830017
   0.83333333  0.08333333  0.40830017
   0.50116131  0.24901882  0.60266246
   0.25088606  0.74917127  0.60306893
   0.49999531  0.49997762  0.60323521
   0.83333333  0.83333333  0.40830017
   0.66565467  0.41589499  0.50719821
   0.83333333  0.33333333  0.40830017
   0.75062365 -0.00083545  0.60289489
   0.66642931  0.16695832  0.50567116
   0.83333333  0.58333333  0.40830017
   0.41456071  0.66851389  0.50731649
   0.58333333  0.33333333  0.40830017
   0.75027678  0.75028986  0.60539789
Direct configuration=    13
   0.08333333  0.08333333  0.40830017
   0.41564112  0.16731571  0.50539462
   0.91484989  0.16698452  0.50733640
   0.00073467 -0.00211060  0.61106730
   0.08333333  0.33333333  0.40830017
   0.91583662  0.41632941  0.50761044
   0.00176485  0.24920633  0.61210755
   0.08333333  0.58333333  0.40830017
   0.91589606  0.66844348  0.50751522
   0.00181265  0.49946786  0.61171804
   0.58333333  0.83333333  0.40830017
   0.91631263  0.91707604  0.50555817
   0.49963911  0.74833353  0.61231364
   0.74859437  0.50011728  0.61308245
   0.66493618  0.66687638  0.50909642
   0.25089374 -0.00038178  0.61029035
   0.58333333  0.58333333  0.40830017
   0.74656720  0.24955266  0.60979298
   0.41651196  0.41777619  0.50659681
   0.33333333  0.58333333  0.40830017
   0.41272511  0.91809853  0.50752419
   0.25362463  0.49836315  0.60913641
   0.50342181  0.00077561  0.61043000
   0.00006135  0.75023655  0.61199951
   0.16688144  0.91526419  0.50698126
   0.33333333  0.83333333  0.40830017
   0.16688579  0.66824516  0.50812248
   0.25205755  0.24900424  0.60384609
   0.08333333  0.83333333  0.40830017
   0.33333333  0.33333333  0.40830017
   0.16597842  0.16699113  0.50779671
   0.33333333  0.08333333  0.40830017
   0.66489701  0.91959041  0.50676429
   0.16671589  0.41694999  0.50833861
   0.58333333  0.08333333  0.40830017
   0.83333333  0.08333333  0.40830017
   0.50117260  0.24902678  0.60269899
   0.25088858  0.74912522  0.60314478
   0.50003580  0.49993094  0.60328638
   0.83333333  0.83333333  0.40830017
   0.66558561  0.41585703  0.50723638
   0.83333333  0.33333333  0.40830017
   0.75060122 -0.00084917  0.60295719
   0.66645018  0.16693610  0.50571425
   0.83333333  0.58333333  0.40830017
   0.41449022  0.66851841  0.50734417
   0.58333333  0.33333333  0.40830017
   0.75023851  0.75030947  0.60546210
Direct configuration=    14
   0.08333333  0.08333333  0.40830017
   0.41564842  0.16734276  0.50542259
   0.91506004  0.16698039  0.50729325
   0.00074207 -0.00214235  0.61110272
   0.08333333  0.33333333  0.40830017
   0.91608138  0.41629842  0.50769306
   0.00167531  0.24948035  0.61222670
   0.08333333  0.58333333  0.40830017
   0.91589832  0.66828366  0.50766768
   0.00181772  0.49911962  0.61178968
   0.58333333  0.83333333  0.40830017
   0.91616536  0.91703528  0.50554053
   0.49947178  0.74847350  0.61239550
   0.74897684  0.49976274  0.61325031
   0.66491332  0.66700914  0.50932091
   0.25097424 -0.00051130  0.61043573
   0.58333333  0.58333333  0.40830017
   0.74647852  0.24944034  0.60993706
   0.41673868  0.41788957  0.50659910
   0.33333333  0.58333333  0.40830017
   0.41264425  0.91800428  0.50744528
   0.25373117  0.49825800  0.60919221
   0.50351782  0.00074177  0.61041650
  -0.00000727  0.75031851  0.61205346
   0.16673507  0.91528640  0.50703058
   0.33333333  0.83333333  0.40830017
   0.16671701  0.66842655  0.50818353
   0.25203212  0.24903040  0.60399113
   0.08333333  0.83333333  0.40830017
   0.33333333  0.33333333  0.40830017
   0.16567549  0.16722163  0.50791027
   0.33333333  0.08333333  0.40830017
   0.66490316  0.91978974  0.50684477
   0.16648416  0.41706606  0.50841621
   0.58333333  0.08333333  0.40830017
   0.83333333  0.08333333  0.40830017
   0.50124911  0.24896252  0.60286496
   0.25104225  0.74899125  0.60340936
   0.50013507  0.49988070  0.60341096
   0.83333333  0.83333333  0.40830017
   0.66494342  0.41607180  0.50723486
   0.83333333  0.33333333  0.40830017
   0.75078483 -0.00100296  0.60321521
   0.66623400  0.16695275  0.50573362
   0.83333333  0.58333333  0.40830017
   0.41464780  0.66835606  0.50750206
   0.58333333  0.33333333  0.40830017
   0.75028707  0.75037211  0.60552682
Direct configuration=    15
   0.08333333  0.08333333  0.40830017
   0.41564878  0.16734409  0.50542397
   0.91507036  0.16698019  0.50729113
   0.00074243 -0.00214391  0.61110446
   0.08333333  0.33333333  0.40830017
   0.91609341  0.41629690  0.50769712
   0.00167091  0.24949381  0.61223256
   0.08333333  0.58333333  0.40830017
   0.91589843  0.66827581  0.50767517
   0.00181797  0.49910252  0.61179320
   0.58333333  0.83333333  0.40830017
   0.91615812  0.91703328  0.50553967
   0.49946356  0.74848037  0.61239952
   0.74899562  0.49974533  0.61325856
   0.66491219  0.66701566  0.50933194
   0.25097819 -0.00051766  0.61044287
   0.58333333  0.58333333  0.40830017
   0.74647416  0.24943482  0.60994414
   0.41674982  0.41789513  0.50659921
   0.33333333  0.58333333  0.40830017
   0.41264027  0.91799965  0.50744141
   0.25373640  0.49825284  0.60919495
   0.50352253  0.00074011  0.61041584
  -0.00001064  0.75032254  0.61205611
   0.16672788  0.91528749  0.50703300
   0.33333333  0.83333333  0.40830017
   0.16670872  0.66843546  0.50818653
   0.25203087  0.24903169  0.60399826
   0.08333333  0.83333333  0.40830017
   0.33333333  0.33333333  0.40830017
   0.16566061  0.16723295  0.50791585
   0.33333333  0.08333333  0.40830017
   0.66490346  0.91979953  0.50684872
   0.16647278  0.41707176  0.50842003
   0.58333333  0.08333333  0.40830017
   0.83333333  0.08333333  0.40830017
   0.50125287  0.24895936  0.60287311
   0.25104979  0.74898467  0.60342236
   0.50013995  0.49987824  0.60341708
   0.83333333  0.83333333  0.40830017
   0.66491188  0.41608234  0.50723478
   0.83333333  0.33333333  0.40830017
   0.75079385 -0.00101051  0.60322788
   0.66622339  0.16695357  0.50573457
   0.83333333  0.58333333  0.40830017
   0.41465554  0.66834808  0.50750981
   0.58333333  0.33333333  0.40830017
   0.75028946  0.75037519  0.60553000
Direct configuration=    16
   0.08333333  0.08333333  0.40830017
   0.41547364  0.16744401  0.50547930
   0.91499321  0.16713608  0.50733290
   0.00076219 -0.00194677  0.61109905
   0.08333333  0.33333333  0.40830017
   0.91583865  0.41642031  0.50777133
   0.00166862  0.24933298  0.61229493
   0.08333333  0.58333333  0.40830017
   0.91597940  0.66820996  0.50780735
   0.00181913  0.49905015  0.61184938
   0.58333333  0.83333333  0.40830017
   0.91601566  0.91699380  0.50556565
   0.49942284  0.74848382  0.61245698
   0.74911602  0.49957691  0.61334854
   0.66492857  0.66690790  0.50952438
   0.25098321 -0.00052626  0.61052777
   0.58333333  0.58333333  0.40830017
   0.74665408  0.24925028  0.61003264
   0.41652963  0.41789854  0.50663309
   0.33333333  0.58333333  0.40830017
   0.41259814  0.91799540  0.50737286
   0.25373118  0.49820649  0.60923503
   0.50342835  0.00075210  0.61040954
   0.00000259  0.75016706  0.61208051
   0.16663402  0.91528686  0.50706536
   0.33333333  0.83333333  0.40830017
   0.16659666  0.66850328  0.50823022
   0.25209272  0.24888922  0.60402478
   0.08333333  0.83333333  0.40830017
   0.33333333  0.33333333  0.40830017
   0.16554523  0.16732345  0.50804893
   0.33333333  0.08333333  0.40830017
   0.66483424  0.91989697  0.50687379
   0.16642495  0.41719869  0.50846601
   0.58333333  0.08333333  0.40830017
   0.83333333  0.08333333  0.40830017
   0.50127315  0.24887599  0.60298593
   0.25112366  0.74894537  0.60356997
   0.50026114  0.49988507  0.60351733
   0.83333333  0.83333333  0.40830017
   0.66502885  0.41616104  0.50717769
   0.83333333  0.33333333  0.40830017
   0.75097621 -0.00107920  0.60340057
   0.66616078  0.16700261  0.50571693
   0.83333333  0.58333333  0.40830017
   0.41474054  0.66840300  0.50764290
   0.58333333  0.33333333  0.40830017
   0.75043828  0.75027696  0.60552986
Direct configuration=    17
   0.08333333  0.08333333  0.40830017
   0.41544085  0.16746271  0.50548965
   0.91497876  0.16716526  0.50734073
   0.00076589 -0.00190986  0.61109804