<?xml version="1.0" encoding="ISO-8859-1"?>
<modeling>
 <generator>
  <i name="program" type="string">vasp </i>
  <i name="version" type="string">5.4.1  </i>
  <i name="subversion" type="string">24Jun15 (build Mar 14 2019 10:18:33) complex                          parallel </i>
  <i name="platform" type="string">INTEL-19.0.2+OPENMPI-3.1.3 </i>
  <i name="date" type="string">2022 07 15 </i>
  <i name="time" type="string">14:49:35 </i>
 </generator>
 <incar>
  <i type="int" name="ISTART">     0</i>
  <i type="string" name="PREC">normal</i>
  <i type="string" name="ALGO"> Fast</i>
  <i type="int" name="NELM">   500</i>
  <i type="int" name="IBRION">     2</i>
  <i type="int" name="NFREE">     2</i>
  <i name="EDIFF">      0.00000100</i>
  <i name="EDIFFG">     -0.02000000</i>
  <i type="int" name="NSW">   500</i>
  <i type="int" name="ISIF">     0</i>
  <i type="int" name="ISYM">     2</i>
  <i name="ENCUT">    400.00000000</i>
  <i name="POTIM">      0.35000000</i>
  <i type="string" name="LREAL"> Auto</i>
  <i type="logical" name="LPLANE"> T  </i>
  <i type="int" name="ISMEAR">     0</i>
  <i name="SIGMA">      0.10000000</i>
  <i type="int" name="NWRITE">     1</i>
  <i type="logical" name="LWAVE"> F  </i>
  <i type="logical" name="LCHARG"> F  </i>
  <i type="logical" name="LVTOT"> F  </i>
  <i type="logical" name="LORBIT"> F  </i>
  <i type="logical" name="LAECHG"> F  </i>
  <v type="int" name="KPOINT_BSE">    -1     0     0     0</v>
  <i type="int" name="NELM">   500</i>
  <i type="string" name="GGA"> PE          ! optPBE-vdW XC-functional</i>
  <i type="int" name="VOSKOWN">     1</i>
  <i type="logical" name="LDIPOL"> T  </i>
  <i type="logical" name="LMONO"> F  </i>
  <i type="int" name="IDIPOL">     3</i>
  <v name="DIPOL">      0.00000000      0.00000000      0.50000000</v>
 </incar>
 <kpoints>
  <generation param="Monkhorst-Pack">
   <v type="int" name="divisions">       2        2        1 </v>
   <v name="usershift">      0.00000000       0.00000000       0.00000000 </v>
   <v name="genvec1">      0.50000000      -0.00000000       0.00000000 </v>
   <v name="genvec2">      0.00000000       0.50000000       0.00000000 </v>
   <v name="genvec3">      0.00000000       0.00000000       1.00000000 </v>
   <v name="shift">      0.50000000       0.50000000       0.00000000 </v>
  </generation>
  <varray name="kpointlist" >
   <v>       0.25000000       0.25000000       0.00000000 </v>
   <v>       0.00000000       0.25000000       0.00000000 </v>
   <v>      -0.25000000       0.00000000       0.00000000 </v>
   <v>      -0.25000000       0.25000000       0.00000000 </v>
   <v>       0.50000000      -0.25000000       0.00000000 </v>
   <v>      -0.25000000       0.50000000       0.00000000 </v>
  </varray>
  <varray name="weights" >
   <v>       0.16666667 </v>
   <v>       0.16666667 </v>
   <v>       0.16666667 </v>
   <v>       0.16666667 </v>
   <v>       0.16666667 </v>
   <v>       0.16666667 </v>
  </varray>
 </kpoints>
 <parameters>
  <separator name="general" >
   <i type="string" name="SYSTEM">unknown system</i>
   <i type="logical" name="LCOMPAT"> F  </i>
  </separator>
  <separator name="electronic" >
   <i type="string" name="PREC">normal</i>
   <i name="ENMAX">    400.00000000</i>
   <i name="ENAUG">    416.23000000</i>
   <i name="EDIFF">      0.00000100</i>
   <i type="int" name="IALGO">    68</i>
   <i type="int" name="IWAVPR">    11</i>
   <i type="int" name="NBANDS">   306</i>
   <i name="NELECT">    504.00000000</i>
   <i type="int" name="TURBO">     0</i>
   <i type="int" name="IRESTART">     0</i>
   <i type="int" name="NREBOOT">     0</i>
   <i type="int" name="NMIN">     0</i>
   <i name="EREF">      0.00000000</i>
   <separator name="electronic smearing" >
    <i type="int" name="ISMEAR">     0</i>
    <i name="SIGMA">      0.10000000</i>
    <i name="KSPACING">      0.50000000</i>
    <i type="logical" name="KGAMMA"> T  </i>
   </separator>
   <separator name="electronic projectors" >
    <i type="logical" name="LREAL"> T  </i>
    <v name="ROPT">     -0.00050000     -0.00050000</v>
    <i type="int" name="LMAXPAW">  -100</i>
    <i type="int" name="LMAXMIX">     2</i>
    <i type="logical" name="NLSPLINE"> F  </i>
   </separator>
   <separator name="electronic startup" >
    <i type="int" name="ISTART">     0</i>
    <i type="int" name="ICHARG">     2</i>
    <i type="int" name="INIWAV">     1</i>
   </separator>
   <separator name="electronic spin" >
    <i type="int" name="ISPIN">     1</i>
    <i type="logical" name="LNONCOLLINEAR"> F  </i>
    <v name="MAGMOM">      1.00000000      1.00000000      1.00000000      1.00000000      1.00000000      1.00000000      1.00000000      1.00000000      1.00000000      1.00000000      1.00000000      1.00000000      1.00000000      1.00000000      1.00000000      1.00000000      1.00000000      1.00000000      1.00000000      1.00000000
      1.00000000      1.00000000      1.00000000      1.00000000      1.00000000      1.00000000      1.00000000      1.00000000      1.00000000      1.00000000      1.00000000      1.00000000      1.00000000      1.00000000      1.00000000      1.00000000      1.00000000      1.00000000      1.00000000      1.00000000
      1.00000000      1.00000000      1.00000000      1.00000000      1.00000000      1.00000000      1.00000000      1.00000000</v>
    <i name="NUPDOWN">     -1.00000000</i>
    <i type="logical" name="LSORBIT"> F  </i>
    <v name="SAXIS">      0.00000000      0.00000000      1.00000000</v>
    <i type="logical" name="LSPIRAL"> F  </i>
    <v name="QSPIRAL">      0.00000000      0.00000000      0.00000000</v>
    <i type="logical" name="LZEROZ"> F  </i>
   </separator>
   <separator name="electronic exchange-correlation" >
    <i type="logical" name="LASPH"> F  </i>
    <i type="logical" name="LMETAGGA"> F  </i>
   </separator>
   <separator name="electronic convergence" >
    <i type="int" name="NELM">   500</i>
    <i type="int" name="NELMDL">    -5</i>
    <i type="int" name="NELMIN">     2</i>
    <i name="ENINI">    400.00000000</i>
    <separator name="electronic convergence detail" >
     <i type="logical" name="LDIAG"> T  </i>
     <i type="logical" name="LSUBROT"> F  </i>
     <i name="WEIMIN">      0.00100000</i>
     <i name="EBREAK">      0.00000000</i>
     <i name="DEPER">      0.30000000</i>
     <i type="int" name="NRMM">     4</i>
     <i name="TIME">      0.40000000</i>
    </separator>
   </separator>
   <separator name="electronic mixer" >
    <i name="AMIX">      0.40000000</i>
    <i name="BMIX">      1.00000000</i>
    <i name="AMIN">      0.10000000</i>
    <i name="AMIX_MAG">      1.60000000</i>
    <i name="BMIX_MAG">      1.00000000</i>
    <separator name="electronic mixer details" >
     <i type="int" name="IMIX">     4</i>
     <i type="logical" name="MIXFIRST"> F  </i>
     <i type="int" name="MAXMIX">   -45</i>
     <i name="WC">    100.00000000</i>
     <i type="int" name="INIMIX">     1</i>
     <i type="int" name="MIXPRE">     1</i>
     <i type="int" name="MREMOVE">     5</i>
    </separator>
   </separator>
   <separator name="electronic dipolcorrection" >
    <i type="logical" name="LDIPOL"> T  </i>
    <i type="logical" name="LMONO"> F  </i>
    <i type="int" name="IDIPOL">     3</i>
    <i name="EPSILON">      1.00000000</i>
    <v name="DIPOL">      0.00000000      0.00000000      0.50000000</v>
    <i name="EFIELD">      0.00000000</i>
   </separator>
  </separator>
  <separator name="grids" >
   <i type="int" name="NGX">    54</i>
   <i type="int" name="NGY">    54</i>
   <i type="int" name="NGZ">   120</i>
   <i type="int" name="NGXF">   108</i>
   <i type="int" name="NGYF">   108</i>
   <i type="int" name="NGZF">   240</i>
   <i type="logical" name="ADDGRID"> F  </i>
  </separator>
  <separator name="ionic" >
   <i type="int" name="NSW">   500</i>
   <i type="int" name="IBRION">     2</i>
   <i type="int" name="ISIF">     0</i>
   <i name="PSTRESS">      0.00000000</i>
   <i name="EDIFFG">     -0.02000000</i>
   <i type="int" name="NFREE">     2</i>
   <i name="POTIM">      0.35000000</i>
   <i name="SMASS">     -3.00000000</i>
   <i name="SCALEE">      1.00000000</i>
  </separator>
  <separator name="ionic md" >
   <i name="TEBEG">      0.00010000</i>
   <i name="TEEND">      0.00010000</i>
   <i type="int" name="NBLOCK">     1</i>
   <i type="int" name="KBLOCK">   500</i>
   <i type="int" name="NPACO">   256</i>
   <i name="APACO">     16.00000000</i>
  </separator>
  <separator name="symmetry" >
   <i type="int" name="ISYM">     2</i>
   <i name="SYMPREC">      0.00001000</i>
  </separator>
  <separator name="dos" >
   <i type="logical" name="LORBIT"> F  </i>
   <v name="RWIGS">     -1.00000000     -1.00000000</v>
   <i type="int" name="NEDOS">   301</i>
   <i name="EMIN">     10.00000000</i>
   <i name="EMAX">    -10.00000000</i>
   <i name="EFERMI">      0.00000000</i>
  </separator>
  <separator name="writing" >
   <i type="int" name="NWRITE">     1</i>
   <i type="logical" name="LWAVE"> F  </i>
   <i type="logical" name="LCHARG"> F  </i>
   <i type="logical" name="LPARD"> F  </i>
   <i type="logical" name="LVTOT"> F  </i>
   <i type="logical" name="LVHAR"> F  </i>
   <i type="logical" name="LELF"> F  </i>
   <i type="logical" name="LOPTICS"> F  </i>
   <v name="STM">      0.00000000      0.00000000      0.00000000      0.00000000      0.00000000      0.00000000      0.00000000</v>
  </separator>
  <separator name="performance" >
   <i type="int" name="NPAR">     6</i>
   <i type="int" name="NSIM">     4</i>
   <i type="int" name="NBLK">    -1</i>
   <i type="logical" name="LPLANE"> T  </i>
   <i type="logical" name="LSCALAPACK"> T  </i>
   <i type="logical" name="LSCAAWARE"> F  </i>
   <i type="logical" name="LSCALU"> F  </i>
   <i type="logical" name="LASYNC"> F  </i>
   <i type="logical" name="LORBITALREAL"> F  </i>
  </separator>
  <separator name="miscellaneous" >
   <i type="int" name="IDIOT">     3</i>
   <i type="logical" name="LMUSIC"> F  </i>
   <v name="POMASS">    196.96600000    106.42000000</v>
   <v name="DARWINR">      0.00000000      0.00000000</v>
   <v name="DARWINV">      1.00000000      1.00000000</v>
   <i type="logical" name="LCORR"> T  </i>
  </separator>
  <i type="logical" name="GGA_COMPAT"> T  </i>
  <i type="logical" name="LBERRY"> F  </i>
  <i type="int" name="ICORELEVEL">     0</i>
  <i type="logical" name="LDAU"> F  </i>
  <i type="int" name="I_CONSTRAINED_M">     0</i>
  <separator name="electronic exchange-correlation" >
   <i type="string" name="GGA">PE</i>
   <i type="int" name="VOSKOWN">     1</i>
   <i type="logical" name="LHFCALC"> F  </i>
   <i type="string" name="PRECFOCK"></i>
   <i type="logical" name="LSYMGRAD"> F  </i>
   <i type="logical" name="LHFONE"> F  </i>
   <i type="logical" name="LRHFCALC"> F  </i>
   <i type="logical" name="LTHOMAS"> F  </i>
   <i type="logical" name="LMODELHF"> F  </i>
   <i name="ENCUT4O">     -1.00000000</i>
   <i type="int" name="EXXOEP">     0</i>
   <i type="int" name="FOURORBIT">     0</i>
   <i name="AEXX">      0.00000000</i>
   <i name="HFALPHA">      0.00000000</i>
   <i name="MCALPHA">      0.00000000</i>
   <i name="ALDAX">      1.00000000</i>
   <i name="AGGAX">      1.00000000</i>
   <i name="ALDAC">      1.00000000</i>
   <i name="AGGAC">      1.00000000</i>
   <i type="int" name="NKREDX">     1</i>
   <i type="int" name="NKREDY">     1</i>
   <i type="int" name="NKREDZ">     1</i>
   <i type="logical" name="SHIFTRED"> F  </i>
   <i type="logical" name="ODDONLY"> F  </i>
   <i type="logical" name="EVENONLY"> F  </i>
   <i type="int" name="LMAXFOCK">     0</i>
   <i type="int" name="NMAXFOCKAE">     0</i>
   <i type="logical" name="LFOCKAEDFT"> F  </i>
   <i name="HFSCREEN">      0.00000000</i>
   <i name="HFSCREENC">      0.00000000</i>
   <i type="int" name="NBANDSGWLOW">     0</i>
  </separator>
  <separator name="vdW DFT" >
   <i type="logical" name="LUSE_VDW"> F  </i>
   <i name="Zab_VDW">     -0.84910000</i>
   <i name="PARAM1">      0.12340000</i>
   <i name="PARAM2">      1.00000000</i>
   <i name="PARAM3">      0.00000000</i>
  </separator>
  <separator name="model GW" >
   <i type="int" name="MODEL_GW">     0</i>
   <i name="MODEL_EPS0">     32.09595293</i>
   <i name="MODEL_ALPHA">      1.00000000</i>
  </separator>
  <separator name="linear response parameters" >
   <i type="logical" name="LEPSILON"> F  </i>
   <i type="logical" name="LRPA"> F  </i>
   <i type="logical" name="LNABLA"> F  </i>
   <i type="logical" name="LVEL"> F  </i>
   <i type="int" name="KINTER">     0</i>
   <i name="CSHIFT">      0.10000000</i>
   <i name="OMEGAMAX">     -1.00000000</i>
   <i name="DEG_THRESHOLD">      0.00200000</i>
  </separator>
  <separator name="orbital magnetization" >
   <i type="logical" name="NUCIND"> F  </i>
   <v name="MAGPOS">      0.00000000      0.00000000      0.00000000</v>
   <i type="logical" name="LNICSALL"> T  </i>
   <i type="logical" name="ORBITALMAG"> F  </i>
   <i type="logical" name="LMAGBLOCH"> F  </i>
   <i type="logical" name="LCHIMAG"> F  </i>
   <i type="logical" name="LGAUGE"> T  </i>
   <i type="int" name="MAGATOM">     0</i>
   <v name="MAGDIPOL">      0.00000000      0.00000000      0.00000000</v>
   <v name="AVECCONST">      0.00000000      0.00000000      0.00000000</v>
  </separator>
  <separator name="response functions" >
   <i type="logical" name="LADDER"> F  </i>
   <i type="logical" name="LFXC"> F  </i>
   <i type="logical" name="LHARTREE"> T  </i>
   <i type="int" name="IBSE">     0</i>
   <v type="int" name="KPOINT">    -1     0     0     0</v>
   <i type="logical" name="LTCTE"> F  </i>
   <i type="logical" name="LTETE"> F  </i>
   <i type="logical" name="LTRIPLET"> F  </i>
   <i type="logical" name="LFXCEPS"> F  </i>
   <i type="logical" name="LFXHEG"> F  </i>
   <i type="int" name="NATURALO">     0</i>
   <i type="logical" name="L2ORDER"> F  </i>
   <i type="logical" name="LUSEW"> F  </i>
   <i name="ENCUTGW">     -2.00000000</i>
   <i name="ENCUTGWSOFT">     -2.00000000</i>
   <i name="ENCUTLF">     -1.00000000</i>
   <i type="int" name="LMAXMP2">    -1</i>
   <i name="SCISSOR">      0.00000000</i>
   <i type="int" name="NOMEGA">     0</i>
   <i type="int" name="NOMEGAR">     0</i>
   <i type="int" name="NBANDSGW">    -1</i>
   <i type="int" name="NBANDSO">    -1</i>
   <i type="int" name="NBANDSV">    -1</i>
   <i type="int" name="NELM">   500</i>
   <i type="int" name="NELMHF">     1</i>
   <i type="int" name="DIM">     3</i>
   <i type="int" name="ANTIRES">     0</i>
   <i name="OMEGAMAX">    -30.00000000</i>
   <i name="OMEGAMIN">    -30.00000000</i>
   <i name="OMEGATL">   -200.00000000</i>
   <i type="int" name="OMEGAGRID">     0</i>
   <i name="CSHIFT">     -0.10000000</i>
   <i type="logical" name="SELFENERGY"> F  </i>
   <i type="logical" name="LSPECTRAL"> F  </i>
   <i type="logical" name="LSPECTRALGW"> F  </i>
   <i type="logical" name="LSINGLES"> F  </i>
   <i type="logical" name="LFERMIGW"> F  </i>
   <i type="logical" name="ODDONLYGW"> F  </i>
   <i type="logical" name="EVENONLYGW"> F  </i>
   <i type="int" name="NKREDLFX">     1</i>
   <i type="int" name="NKREDLFY">     1</i>
   <i type="int" name="NKREDLFZ">     1</i>
   <i type="int" name="MAXMEM">  1800</i>
   <i type="int" name="TELESCOPE">     0</i>
   <i type="int" name="TAUPAR">     1</i>
   <i type="int" name="OMEGAPAR">    -1</i>
   <i name="LAMBDA">      1.00000000</i>
  </separator>
  <separator name="External order field" >
   <i name="OFIELD_KAPPA">      0.00000000</i>
   <v name="OFIELD_K">      0.00000000      0.00000000      0.00000000</v>
   <i name="OFIELD_Q6_NEAR">      0.00000000</i>
   <i name="OFIELD_Q6_FAR">      0.00000000</i>
   <i name="OFIELD_A">      0.00000000</i>
  </separator>
 </parameters>
 <atominfo>
  <atoms>      48 </atoms>
  <types>       2 </types>
  <array name="atoms" >
   <dimension dim="1">ion</dimension>
   <field type="string">element</field>
   <field type="int">atomtype</field>
   <set>
    <rc><c>Au</c><c>   1</c></rc>
    <rc><c>Au</c><c>   1</c></rc>
    <rc><c>Au</c><c>   1</c></rc>
    <rc><c>Au</c><c>   1</c></rc>
    <rc><c>Au</c><c>   1</c></rc>
    <rc><c>Au</c><c>   1</c></rc>
    <rc><c>Au</c><c>   1</c></rc>
    <rc><c>Au</c><c>   1</c></rc>
    <rc><c>Au</c><c>   1</c></rc>
    <rc><c>Au</c><c>   1</c></rc>
    <rc><c>Au</c><c>   1</c></rc>
    <rc><c>Au</c><c>   1</c></rc>
    <rc><c>Au</c><c>   1</c></rc>
    <rc><c>Au</c><c>   1</c></rc>
    <rc><c>Au</c><c>   1</c></rc>
    <rc><c>Au</c><c>   1</c></rc>
    <rc><c>Au</c><c>   1</c></rc>
    <rc><c>Au</c><c>   1</c></rc>
    <rc><c>Au</c><c>   1</c></rc>
    <rc><c>Au</c><c>   1</c></rc>
    <rc><c>Au</c><c>   1</c></rc>
    <rc><c>Au</c><c>   1</c></rc>
    <rc><c>Au</c><c>   1</c></rc>
    <rc><c>Au</c><c>   1</c></rc>
    <rc><c>Pd</c><c>   2</c></rc>
    <rc><c>Pd</c><c>   2</c></rc>
    <rc><c>Pd</c><c>   2</c></rc>
    <rc><c>Pd</c><c>   2</c></rc>
    <rc><c>Pd</c><c>   2</c></rc>
    <rc><c>Pd</c><c>   2</c></rc>
    <rc><c>Pd</c><c>   2</c></rc>
    <rc><c>Pd</c><c>   2</c></rc>
    <rc><c>Pd</c><c>   2</c></rc>
    <rc><c>Pd</c><c>   2</c></rc>
    <rc><c>Pd</c><c>   2</c></rc>
    <rc><c>Pd</c><c>   2</c></rc>
    <rc><c>Pd</c><c>   2</c></rc>
    <rc><c>Pd</c><c>   2</c></rc>
    <rc><c>Pd</c><c>   2</c></rc>
    <rc><c>Pd</c><c>   2</c></rc>
    <rc><c>Pd</c><c>   2</c></rc>
    <rc><c>Pd</c><c>   2</c></rc>
    <rc><c>Pd</c><c>   2</c></rc>
    <rc><c>Pd</c><c>   2</c></rc>
    <rc><c>Pd</c><c>   2</c></rc>
    <rc><c>Pd</c><c>   2</c></rc>
    <rc><c>Pd</c><c>   2</c></rc>
    <rc><c>Pd</c><c>   2</c></rc>
   </set>
  </array>
  <array name="atomtypes" >
   <dimension dim="1">type</dimension>
   <field type="int">atomspertype</field>
   <field type="string">element</field>
   <field>mass</field>
   <field>valence</field>
   <field type="string">pseudopotential</field>
   <set>
    <rc><c>  24</c><c>Au</c><c>    196.96600000</c><c>     11.00000000</c><c>  PAW_PBE Au 04Oct2007                  </c></rc>
    <rc><c>  24</c><c>Pd</c><c>    106.42000000</c><c>     10.00000000</c><c>  PAW_PBE Pd 04Jan2005                  </c></rc>
   </set>
  </array>
 </atominfo>
 <structure name="initialpos" >
  <crystal>
   <varray name="basis" >
    <v>      11.00258152       0.00000000       0.00000000 </v>
    <v>       5.50129076       9.52851510       0.00000000 </v>
    <v>       0.00000000       0.00000000      24.49178509 </v>
   </varray>
   <i name="volume">   2567.67623402 </i>
   <varray name="rec_basis" >
    <v>       0.09088776      -0.05247407       0.00000000 </v>
    <v>       0.00000000       0.10494815       0.00000000 </v>
    <v>       0.00000000       0.00000000       0.04083002 </v>
   </varray>
  </crystal>
  <varray name="positions" >
   <v>       0.75000000       0.75000000       0.59169983 </v>
   <v>       0.58333333       0.33333333       0.40830017 </v>
   <v>       0.41666667       0.16666667       0.50000000 </v>
   <v>       0.58333333       0.08333333       0.40830017 </v>
   <v>       0.66666667       0.91666667       0.50000000 </v>
   <v>       0.58333333       0.83333333       0.40830017 </v>
   <v>       0.33333333       0.83333333       0.40830017 </v>
   <v>       0.25000000       0.50000000       0.59169983 </v>
   <v>       0.16666667       0.66666667       0.50000000 </v>
   <v>       0.41666667       0.91666667       0.50000000 </v>
   <v>       0.50000000       0.75000000       0.59169983 </v>
   <v>       0.16666667       0.41666667       0.50000000 </v>
   <v>       0.41666667       0.41666667       0.50000000 </v>
   <v>       0.66666667       0.16666667       0.50000000 </v>
   <v>       0.83333333       0.33333333       0.40830017 </v>
   <v>       0.75000000       0.25000000       0.59169983 </v>
   <v>       0.00000000       0.50000000       0.59169983 </v>
   <v>       0.91666667       0.66666667       0.50000000 </v>
   <v>       0.75000000       0.50000000       0.59169983 </v>
   <v>       0.91666667       0.41666667       0.50000000 </v>
   <v>       0.83333333       0.83333333       0.40830017 </v>
   <v>       0.00000000       0.00000000       0.59169983 </v>
   <v>       0.91666667       0.16666667       0.50000000 </v>
   <v>       0.75000000       0.00000000       0.59169983 </v>
   <v>       0.83333333       0.08333333       0.40830017 </v>
   <v>       0.66666667       0.41666667       0.50000000 </v>
   <v>       0.83333333       0.58333333       0.40830017 </v>
   <v>       0.66666667       0.66666667       0.50000000 </v>
   <v>       0.50000000       0.50000000       0.59169983 </v>
   <v>       0.41666667       0.66666667       0.50000000 </v>
   <v>       0.08333333       0.08333333       0.40830017 </v>
   <v>       0.50000000       0.25000000       0.59169983 </v>
   <v>       0.08333333       0.33333333       0.40830017 </v>
   <v>       0.00000000       0.25000000       0.59169983 </v>
   <v>       0.08333333       0.58333333       0.40830017 </v>
   <v>       0.08333333       0.83333333       0.40830017 </v>
   <v>       0.91666667       0.91666667       0.50000000 </v>
   <v>       0.00000000       0.75000000       0.59169983 </v>
   <v>       0.58333333       0.58333333       0.40830017 </v>
   <v>       0.33333333       0.08333333       0.40830017 </v>
   <v>       0.25000000       0.00000000       0.59169983 </v>
   <v>       0.33333333       0.33333333       0.40830017 </v>
   <v>       0.25000000       0.25000000       0.59169983 </v>
   <v>       0.33333333       0.58333333       0.40830017 </v>
   <v>       0.16666667       0.91666667       0.50000000 </v>
   <v>       0.50000000       0.00000000       0.59169983 </v>
   <v>       0.16666667       0.16666667       0.50000000 </v>
   <v>       0.25000000       0.75000000       0.59169983 </v>
  </varray>
 </structure>
 <calculation>
  <scstep>
   <time name="dav">    6.85    6.87</time>
   <time name="total">    6.91    6.93</time>
   <dipole>
    <v name="dipole">      0.00000000       0.00000000      -0.00000148 </v>
    <i name="Tr[quadrupol]"> -10284.04748534 </i>
    <i name="Echarged">      0.00000000 </i>
    <i name="Edipol_quadrupol">      0.00000000 </i>
    <i name="Eion">      0.00000000 </i>
   </dipole>
   <energy>
    <i name="alphaZ">    805.86936475 </i>
    <i name="ewald"> 200638.00655142 </i>
    <i name="hartreedc">-243054.37008820 </i>
    <i name="XCdc">   -327.49455827 </i>
    <i name="pawpsdc">  40340.05962942 </i>
    <i name="pawaedc"> -38292.62782345 </i>
    <i name="eentropy">     -0.14009353 </i>
    <i name="bandstr">   1432.49394983 </i>
    <i name="atom">  41659.78587232 </i>
    <i name="e_fr_energy">   3201.58280429 </i>
    <i name="e_wo_entrp">   3201.72289782 </i>
    <i name="e_0_energy">   3201.65285106 </i>
   </energy>
  </scstep>
  <scstep>
   <time name="dav">    7.94    7.96</time>
   <time name="total">    7.94    7.97</time>
   <dipole>
    <v name="dipole">      0.00000000       0.00000000      -0.00000148 </v>
    <i name="Tr[quadrupol]"> -10284.04748534 </i>
    <i name="Echarged">      0.00000000 </i>
    <i name="Edipol_quadrupol">      0.00000000 </i>
    <i name="Eion">      0.00000000 </i>
   </dipole>
   <energy>
    <i name="e_fr_energy">     17.15235433 </i>
    <i name="e_wo_entrp">     17.27921553 </i>
    <i name="e_0_energy">     17.21578493 </i>
   </energy>
  </scstep>
  <scstep>
   <time name="dav">    7.94    7.97</time>
   <time name="total">    7.94    7.97</time>
   <dipole>
    <v name="dipole">      0.00000000       0.00000000      -0.00000148 </v>
    <i name="Tr[quadrupol]"> -10284.04748534 </i>
    <i name="Echarged">      0.00000000 </i>
    <i name="Edipol_quadrupol">      0.00000000 </i>
    <i name="Eion">      0.00000000 </i>
   </dipole>
   <energy>
    <i name="e_fr_energy">   -199.56735486 </i>
    <i name="e_wo_entrp">   -199.34575302 </i>
    <i name="e_0_energy">   -199.45655394 </i>
   </energy>
  </scstep>
  <scstep>
   <time name="dav">    8.17    8.26</time>
   <time name="total">    8.17    8.27</time>
   <dipole>
    <v name="dipole">      0.00000000       0.00000000      -0.00000148 </v>
    <i name="Tr[quadrupol]"> -10284.04748534 </i>
    <i name="Echarged">      0.00000000 </i>
    <i name="Edipol_quadrupol">      0.00000000 </i>
    <i name="Eion">      0.00000000 </i>
   </dipole>
   <energy>
    <i name="e_fr_energy">   -205.46006769 </i>
    <i name="e_wo_entrp">   -205.23111952 </i>
    <i name="e_0_energy">   -205.34559361 </i>
   </energy>
  </scstep>
  <scstep>
   <time name="dav">    8.36    8.39</time>
   <time name="total">    8.60    8.63</time>
   <dipole>
    <v name="dipole">      0.00000000       0.00000000      -0.00000148 </v>
    <i name="Tr[quadrupol]"> -10284.04748534 </i>
    <i name="Echarged">      0.00000000 </i>
    <i name="Edipol_quadrupol">      0.00000000 </i>
    <i name="Eion">      0.00000000 </i>
   </dipole>
   <energy>
    <i name="e_fr_energy">   -205.64543033 </i>
    <i name="e_wo_entrp">   -205.41659642 </i>
    <i name="e_0_energy">   -205.53101338 </i>
   </energy>
  </scstep>
  <scstep>
   <time name="diag">    1.23    1.24</time>
   <time name="diis">    3.38    3.39</time>
   <time name="orth">    0.30    0.30</time>
   <time name="total">    5.21    5.23</time>
   <dipole>
    <v name="dipole">      0.00000000       0.00000000      -0.67448362 </v>
    <i name="Tr[quadrupol]"> -10284.03560340 </i>
    <i name="Echarged">      0.00000000 </i>
    <i name="Edipol_quadrupol">      0.00000000 </i>
    <i name="Eion">      0.00000000 </i>
   </dipole>
   <energy>
    <i name="e_fr_energy">   -200.43122166 </i>
    <i name="e_wo_entrp">   -200.21470091 </i>
    <i name="e_0_energy">   -200.32296129 </i>
   </energy>
  </scstep>
  <scstep>
   <time name="diag">    1.23    1.24</time>
   <time name="diis">    3.36    3.37</time>
   <time name="orth">    0.30    0.30</time>
   <time name="total">    5.18    5.20</time>
   <dipole>
    <v name="dipole">      0.00000000       0.00000000       1.32502771 </v>
    <i name="Tr[quadrupol]"> -10284.14597706 </i>
    <i name="Echarged">      0.00000000 </i>
    <i name="Edipol_quadrupol">      0.00000000 </i>
    <i name="Eion">      0.00000000 </i>
   </dipole>
   <energy>
    <i name="e_fr_energy">   -211.53543336 </i>
    <i name="e_wo_entrp">   -211.31913987 </i>
    <i name="e_0_energy">   -211.42728661 </i>
   </energy>
  </scstep>
  <scstep>
   <time name="diag">    1.24    1.25</time>
   <time name="diis">    3.35    3.37</time>
   <time name="orth">    0.30    0.30</time>
   <time name="total">    5.18    5.21</time>
   <dipole>
    <v name="dipole">      0.00000000       0.00000000      -2.02403651 </v>
    <i name="Tr[quadrupol]"> -10285.41532763 </i>
    <i name="Echarged">      0.00000000 </i>
    <i name="Edipol_quadrupol">      0.00000000 </i>
    <i name="Eion">      0.00000000 </i>
   </dipole>
   <energy>
    <i name="e_fr_energy">   -225.64588069 </i>
    <i name="e_wo_entrp">   -225.34228399 </i>
    <i name="e_0_energy">   -225.49408234 </i>
   </energy>
  </scstep>
  <scstep>
   <time name="diag">    1.22    1.24</time>
   <time name="diis">    3.41    3.42</time>
   <time name="orth">    0.30    0.30</time>
   <time name="total">    5.22    5.25</time>
   <dipole>
    <v name="dipole">      0.00000000       0.00000000       0.31557574 </v>
    <i name="Tr[quadrupol]"> -10286.34790467 </i>
    <i name="Echarged">      0.00000000 </i>
    <i name="Edipol_quadrupol">      0.00000000 </i>
    <i name="Eion">      0.00000000 </i>
   </dipole>
   <energy>
    <i name="e_fr_energy">   -214.44746900 </i>
    <i name="e_wo_entrp">   -214.26869660 </i>
    <i name="e_0_energy">   -214.35808280 </i>
   </energy>
  </scstep>
  <scstep>
   <time name="diag">    1.23    1.23</time>
   <time name="diis">    3.37    3.38</time>
   <time name="orth">    0.30    0.30</time>
   <time name="total">    5.18    5.20</time>
   <dipole>
    <v name="dipole">      0.00000000       0.00000000      -0.35819759 </v>
    <i name="Tr[quadrupol]"> -10285.02939704 </i>
    <i name="Echarged">      0.00000000 </i>
    <i name="Edipol_quadrupol">      0.00000000 </i>
    <i name="Eion">      0.00000000 </i>
   </dipole>
   <energy>
    <i name="e_fr_energy">   -199.50695012 </i>
    <i name="e_wo_entrp">   -199.32615559 </i>
    <i name="e_0_energy">   -199.41655285 </i>
   </energy>
  </scstep>
  <scstep>
   <time name="diag">    1.22    1.29</time>
   <time name="diis">    3.38    3.39</time>
   <time name="orth">    0.30    0.30</time>
   <time name="total">    5.18    5.27</time>
   <dipole>
    <v name="dipole">      0.00000000       0.00000000      -0.16092242 </v>
    <i name="Tr[quadrupol]"> -10285.77292079 </i>
    <i name="Echarged">      0.00000000 </i>
    <i name="Edipol_quadrupol">      0.00000000 </i>
    <i name="Eion">      0.00000000 </i>
   </dipole>
   <energy>
    <i name="e_fr_energy">   -191.59053020 </i>
    <i name="e_wo_entrp">   -191.36468289 </i>
    <i name="e_0_energy">   -191.47760654 </i>
   </energy>
  </scstep>
  <scstep>
   <time name="diag">    1.23    1.23</time>
   <time name="diis">    3.37    3.38</time>
   <time name="orth">    0.30    0.30</time>
   <time name="total">    5.19    5.21</time>
   <dipole>
    <v name="dipole">      0.00000000       0.00000000      -0.18257125 </v>
    <i name="Tr[quadrupol]"> -10286.07122332 </i>
    <i name="Echarged">      0.00000000 </i>
    <i name="Edipol_quadrupol">      0.00000000 </i>
    <i name="Eion">      0.00000000 </i>
   </dipole>
   <energy>
    <i name="e_fr_energy">   -188.70008934 </i>
    <i name="e_wo_entrp">   -188.52207120 </i>
    <i name="e_0_energy">   -188.61108027 </i>
   </energy>
  </scstep>
  <scstep>
   <time name="diag">    1.23    1.24</time>
   <time name="diis">    3.36    3.37</time>
   <time name="orth">    0.30    0.30</time>
   <time name="total">    5.17    5.19</time>
   <dipole>
    <v name="dipole">      0.00000000       0.00000000      -0.08574148 </v>
    <i name="Tr[quadrupol]"> -10286.48010428 </i>
    <i name="Echarged">      0.00000000 </i>
    <i name="Edipol_quadrupol">      0.00000000 </i>
    <i name="Eion">      0.00000000 </i>
   </dipole>
   <energy>
    <i name="e_fr_energy">   -188.28350805 </i>
    <i name="e_wo_entrp">   -188.03525366 </i>
    <i name="e_0_energy">   -188.15938086 </i>
   </energy>
  </scstep>
  <scstep>
   <time name="diag">    1.23    1.23</time>
   <time name="diis">    3.40    3.41</time>
   <time name="orth">    0.30    0.30</time>
   <time name="total">    5.21    5.23</time>
   <dipole>
    <v name="dipole">      0.00000000       0.00000000      -0.04023738 </v>
    <i name="Tr[quadrupol]"> -10286.70962227 </i>
    <i name="Echarged">      0.00000000 </i>
    <i name="Edipol_quadrupol">      0.00000000 </i>
    <i name="Eion">      0.00000000 </i>
   </dipole>
   <energy>
    <i name="e_fr_energy">   -188.37367196 </i>
    <i name="e_wo_entrp">   -188.14847102 </i>
    <i name="e_0_energy">   -188.26107149 </i>
   </energy>
  </scstep>
  <scstep>
   <time name="diag">    1.23    1.23</time>
   <time name="diis">    3.40    3.41</time>
   <time name="orth">    0.29    0.30</time>
   <time name="total">    5.22    5.23</time>
   <dipole>
    <v name="dipole">      0.00000000       0.00000000      -0.03176010 </v>
    <i name="Tr[quadrupol]"> -10286.94472421 </i>
    <i name="Echarged">      0.00000000 </i>
    <i name="Edipol_quadrupol">      0.00000000 </i>
    <i name="Eion">      0.00000000 </i>
   </dipole>
   <energy>
    <i name="e_fr_energy">   -188.21275008 </i>
    <i name="e_wo_entrp">   -187.97773608 </i>
    <i name="e_0_energy">   -188.09524308 </i>
   </energy>
  </scstep>
  <scstep>
   <time name="diag">    1.23    1.23</time>
   <time name="diis">    3.39    3.39</time>
   <time name="orth">    0.29    0.29</time>
   <time name="total">    5.20    5.21</time>
   <dipole>
    <v name="dipole">      0.00000000       0.00000000      -0.05535917 </v>
    <i name="Tr[quadrupol]"> -10287.35863119 </i>
    <i name="Echarged">      0.00000000 </i>
    <i name="Edipol_quadrupol">      0.00000000 </i>
    <i name="Eion">      0.00000000 </i>
   </dipole>
   <energy>
    <i name="e_fr_energy">   -188.05103829 </i>
    <i name="e_wo_entrp">   -187.82563794 </i>
    <i name="e_0_energy">   -187.93833812 </i>
   </energy>
  </scstep>
  <scstep>
   <time name="diag">    1.23    1.23</time>
   <time name="diis">    3.43    3.44</time>
   <time name="orth">    0.29    0.29</time>
   <time name="total">    5.24    5.26</time>
   <dipole>
    <v name="dipole">      0.00000000       0.00000000      -0.05152144 </v>
    <i name="Tr[quadrupol]"> -10287.59835213 </i>
    <i name="Echarged">      0.00000000 </i>
    <i name="Edipol_quadrupol">      0.00000000 </i>
    <i name="Eion">      0.00000000 </i>
   </dipole>
   <energy>
    <i name="e_fr_energy">   -187.92720812 </i>
    <i name="e_wo_entrp">   -187.68317269 </i>
    <i name="e_0_energy">   -187.80519041 </i>
   </energy>
  </scstep>
  <scstep>
   <time name="diag">    1.22    1.23</time>
   <time name="diis">    3.34    3.43</time>
   <time name="orth">    0.29    0.29</time>
   <time name="total">    5.14    5.24</time>
   <dipole>
    <v name="dipole">      0.00000000       0.00000000      -0.04432664 </v>
    <i name="Tr[quadrupol]"> -10287.86529587 </i>
    <i name="Echarged">      0.00000000 </i>
    <i name="Edipol_quadrupol">      0.00000000 </i>
    <i name="Eion">      0.00000000 </i>
   </dipole>
   <energy>
    <i name="e_fr_energy">   -187.89900845 </i>
    <i name="e_wo_entrp">   -187.65646422 </i>
    <i name="e_0_energy">   -187.77773634 </i>
   </energy>
  </scstep>
  <scstep>
   <time name="diag">    1.22    1.23</time>
   <time name="diis">    3.40    3.42</time>
   <time name="orth">    0.29    0.29</time>
   <time name="total">    5.21    5.23</time>
   <dipole>
    <v name="dipole">      0.00000000       0.00000000      -0.04153454 </v>
    <i name="Tr[quadrupol]"> -10287.96146782 </i>
    <i name="Echarged">      0.00000000 </i>
    <i name="Edipol_quadrupol">      0.00000000 </i>
    <i name="Eion">      0.00000000 </i>
   </dipole>
   <energy>
    <i name="e_fr_energy">   -187.84094912 </i>
    <i name="e_wo_entrp">   -187.59543809 </i>
    <i name="e_0_energy">   -187.71819361 </i>
   </energy>
  </scstep>
  <scstep>
   <time name="diag">    1.23    1.23</time>
   <time name="diis">    3.41    3.43</time>
   <time name="orth">    0.29    0.29</time>
   <time name="total">    5.22    5.24</time>
   <dipole>
    <v name="dipole">      0.00000000       0.00000000      -0.03643654 </v>
    <i name="Tr[quadrupol]"> -10288.04543357 </i>
    <i name="Echarged">      0.00000000 </i>
    <i name="Edipol_quadrupol">      0.00000000 </i>
    <i name="Eion">      0.00000000 </i>
   </dipole>
   <energy>
    <i name="e_fr_energy">   -187.83339876 </i>
    <i name="e_wo_entrp">   -187.58504420 </i>
    <i name="e_0_energy">   -187.70922148 </i>
   </energy>
  </scstep>
  <scstep>
   <time name="diag">    1.23    1.23</time>
   <time name="diis">    3.41    3.42</time>
   <time name="orth">    0.29    0.29</time>
   <time name="total">    5.22    5.24</time>
   <dipole>
    <v name="dipole">      0.00000000       0.00000000      -0.02995458 </v>
    <i name="Tr[quadrupol]"> -10288.20344192 </i>
    <i name="Echarged">      0.00000000 </i>
    <i name="Edipol_quadrupol">      0.00000000 </i>
    <i name="Eion">      0.00000000 </i>
   </dipole>
   <energy>
    <i name="e_fr_energy">   -187.82953505 </i>
    <i name="e_wo_entrp">   -187.57855978 </i>
    <i name="e_0_energy">   -187.70404741 </i>
   </energy>
  </scstep>
  <scstep>
   <time name="diag">    1.22    1.23</time>
   <time name="diis">    3.37    3.37</time>
   <time name="orth">    0.29    0.29</time>
   <time name="total">    5.17    5.19</time>
   <dipole>
    <v name="dipole">      0.00000000       0.00000000      -0.02586922 </v>
    <i name="Tr[quadrupol]"> -10288.36865378 </i>
    <i name="Echarged">      0.00000000 </i>
    <i name="Edipol_quadrupol">      0.00000000 </i>
    <i name="Eion">      0.00000000 </i>
   </dipole>
   <energy>
    <i name="e_fr_energy">   -187.82716110 </i>
    <i name="e_wo_entrp">   -187.57580813 </i>
    <i name="e_0_energy">   -187.70148462 </i>
   </energy>
  </scstep>
  <scstep>
   <time name="diag">    1.22    1.23</time>
   <time name="diis">    3.41    3.42</time>
   <time name="orth">    0.29    0.29</time>
   <time name="total">    5.22    5.24</time>
   <dipole>
    <v name="dipole">      0.00000000       0.00000000      -0.02558526 </v>
    <i name="Tr[quadrupol]"> -10288.54623614 </i>
    <i name="Echarged">      0.00000000 </i>
    <i name="Edipol_quadrupol">      0.00000000 </i>
    <i name="Eion">      0.00000000 </i>
   </dipole>
   <energy>
    <i name="e_fr_energy">   -187.82581910 </i>
    <i name="e_wo_entrp">   -187.57469232 </i>
    <i name="e_0_energy">   -187.70025571 </i>
   </energy>
  </scstep>
  <scstep>
   <time name="diag">    1.23    1.23</time>
   <time name="diis">    3.42    3.42</time>
   <time name="orth">    0.29    0.29</time>
   <time name="total">    5.22    5.24</time>
   <dipole>
    <v name="dipole">      0.00000000       0.00000000      -0.02438369 </v>
    <i name="Tr[quadrupol]"> -10288.69420422 </i>
    <i name="Echarged">      0.00000000 </i>
    <i name="Edipol_quadrupol">      0.00000000 </i>
    <i name="Eion">      0.00000000 </i>
   </dipole>
   <energy>
    <i name="e_fr_energy">   -187.82529119 </i>
    <i name="e_wo_entrp">   -187.57344294 </i>
    <i name="e_0_energy">   -187.69936707 </i>
   </energy>
  </scstep>
  <scstep>
   <time name="diag">    1.23    1.24</time>
   <time name="diis">    3.36    3.37</time>
   <time name="orth">    0.29    0.29</time>
   <time name="total">    5.18    5.20</time>
   <dipole>
    <v name="dipole">      0.00000000       0.00000000      -0.02183918 </v>
    <i name="Tr[quadrupol]"> -10288.76140137 </i>
    <i name="Echarged">      0.00000000 </i>
    <i name="Edipol_quadrupol">      0.00000000 </i>
    <i name="Eion">      0.00000000 </i>
   </dipole>
   <energy>
    <i name="e_fr_energy">   -187.82534254 </i>
    <i name="e_wo_entrp">   -187.57323579 </i>
    <i name="e_0_energy">   -187.69928917 </i>
   </energy>
  </scstep>
  <scstep>
   <time name="diag">    1.22    1.23</time>
   <time name="diis">    3.36    3.45</time>
   <time name="orth">    0.29    0.29</time>
   <time name="total">    5.17    5.26</time>
   <dipole>
    <v name="dipole">      0.00000000       0.00000000      -0.01916370 </v>
    <i name="Tr[quadrupol]"> -10288.84200142 </i>
    <i name="Echarged">      0.00000000 </i>
    <i name="Edipol_quadrupol">      0.00000000 </i>
    <i name="Eion">      0.00000000 </i>
   </dipole>
   <energy>
    <i name="e_fr_energy">   -187.82557635 </i>
    <i name="e_wo_entrp">   -187.57353828 </i>
    <i name="e_0_energy">   -187.69955731 </i>
   </energy>
  </scstep>
  <scstep>
   <time name="diag">    1.22    1.23</time>
   <time name="diis">    3.39    3.40</time>
   <time name="orth">    0.29    0.29</time>
   <time name="total">    5.19    5.21</time>
   <dipole>
    <v name="dipole">      0.00000000       0.00000000      -0.01757227 </v>
    <i name="Tr[quadrupol]"> -10288.94454549 </i>
    <i name="Echarged">      0.00000000 </i>
    <i name="Edipol_quadrupol">      0.00000000 </i>
    <i name="Eion">      0.00000000 </i>
   </dipole>
   <energy>
    <i name="e_fr_energy">   -187.82606101 </i>
    <i name="e_wo_entrp">   -187.57415014 </i>
    <i name="e_0_energy">   -187.70010557 </i>
   </energy>
  </scstep>
  <scstep>
   <time name="diag">    1.22    1.23</time>
   <time name="diis">    3.39    3.40</time>
   <time name="orth">    0.29    0.29</time>
   <time name="total">    5.20    5.21</time>
   <dipole>
    <v name="dipole">      0.00000000       0.00000000      -0.01631063 </v>
    <i name="Tr[quadrupol]"> -10289.00964169 </i>
    <i name="Echarged">      0.00000000 </i>
    <i name="Edipol_quadrupol">      0.00000000 </i>
    <i name="Eion">      0.00000000 </i>
   </dipole>
   <energy>
    <i name="e_fr_energy">   -187.82647164 </i>
    <i name="e_wo_entrp">   -187.57456540 </i>
    <i name="e_0_energy">   -187.70051852 </i>
   </energy>
  </scstep>
  <scstep>
   <time name="diag">    1.23    1.23</time>
   <time name="diis">    3.44    3.45</time>
   <time name="orth">    0.29    0.29</time>
   <time name="total">    5.25    5.27</time>
   <dipole>
    <v name="dipole">      0.00000000       0.00000000      -0.01492771 </v>
    <i name="Tr[quadrupol]"> -10289.08501634 </i>
    <i name="Echarged">      0.00000000 </i>
    <i name="Edipol_quadrupol">      0.00000000 </i>
    <i name="Eion">      0.00000000 </i>
   </dipole>
   <energy>
    <i name="e_fr_energy">   -187.82712505 </i>
    <i name="e_wo_entrp">   -187.57528038 </i>
    <i name="e_0_energy">   -187.70120271 </i>
   </energy>
  </scstep>
  <scstep>
   <time name="diag">    1.22    1.23</time>
   <time name="diis">    3.29    3.30</time>
   <time name="orth">    0.29    0.29</time>
   <time name="total">    5.10    5.11</time>
   <dipole>
    <v name="dipole">      0.00000000       0.00000000      -0.01358310 </v>
    <i name="Tr[quadrupol]"> -10289.13091591 </i>
    <i name="Echarged">      0.00000000 </i>
    <i name="Edipol_quadrupol">      0.00000000 </i>
    <i name="Eion">      0.00000000 </i>
   </dipole>
   <energy>
    <i name="e_fr_energy">   -187.82756203 </i>
    <i name="e_wo_entrp">   -187.57567080 </i>
    <i name="e_0_energy">   -187.70161641 </i>
   </energy>
  </scstep>
  <scstep>
   <time name="diag">    1.23    1.24</time>
   <time name="diis">    3.43    3.44</time>
   <time name="orth">    0.29    0.29</time>
   <time name="total">    5.24    5.26</time>
   <dipole>
    <v name="dipole">      0.00000000       0.00000000      -0.01077121 </v>
    <i name="Tr[quadrupol]"> -10289.23396881 </i>
    <i name="Echarged">      0.00000000 </i>
    <i name="Edipol_quadrupol">      0.00000000 </i>
    <i name="Eion">      0.00000000 </i>
   </dipole>
   <energy>
    <i name="e_fr_energy">   -187.82843023 </i>
    <i name="e_wo_entrp">   -187.57643592 </i>
    <i name="e_0_energy">   -187.70243307 </i>
   </energy>
  </scstep>
  <scstep>
   <time name="diag">    1.23    1.23</time>
   <time name="diis">    2.82    2.83</time>
   <time name="orth">    0.29    0.29</time>
   <time name="total">    4.63    4.65</time>
   <dipole>
    <v name="dipole">      0.00000000       0.00000000      -0.01002768 </v>
    <i name="Tr[quadrupol]"> -10289.26115053 </i>
    <i name="Echarged">      0.00000000 </i>
    <i name="Edipol_quadrupol">      0.00000000 </i>
    <i name="Eion">      0.00000000 </i>
   </dipole>
   <energy>
    <i name="e_fr_energy">   -187.82862387 </i>
    <i name="e_wo_entrp">   -187.57667373 </i>
    <i name="e_0_energy">   -187.70264880 </i>
   </energy>
  </scstep>
  <scstep>
   <time name="diag">    1.22    1.23</time>
   <time name="diis">    2.63    2.63</time>
   <time name="orth">    0.29    0.29</time>
   <time name="total">    4.43    4.45</time>
   <dipole>
    <v name="dipole">      0.00000000       0.00000000      -0.00926692 </v>
    <i name="Tr[quadrupol]"> -10289.28859505 </i>
    <i name="Echarged">      0.00000000 </i>
    <i name="Edipol_quadrupol">      0.00000000 </i>
    <i name="Eion">      0.00000000 </i>
   </dipole>
   <energy>
    <i name="e_fr_energy">   -187.82881053 </i>
    <i name="e_wo_entrp">   -187.57690335 </i>
    <i name="e_0_energy">   -187.70285694 </i>
   </energy>
  </scstep>
  <scstep>
   <time name="diag">    1.22    1.24</time>
   <time name="diis">    2.23    2.31</time>
   <time name="orth">    0.29    0.29</time>
   <time name="total">    4.03    4.13</time>
   <dipole>
    <v name="dipole">      0.00000000       0.00000000      -0.00880226 </v>
    <i name="Tr[quadrupol]"> -10289.30033512 </i>
    <i name="Echarged">      0.00000000 </i>
    <i name="Edipol_quadrupol">      0.00000000 </i>
    <i name="Eion">      0.00000000 </i>
   </dipole>
   <energy>
    <i name="e_fr_energy">   -187.82889959 </i>
    <i name="e_wo_entrp">   -187.57699065 </i>
    <i name="e_0_energy">   -187.70294512 </i>
   </energy>
  </scstep>
  <scstep>
   <time name="diag">    1.23    1.23</time>
   <time name="diis">    2.11    2.11</time>
   <time name="orth">    0.29    0.29</time>
   <time name="total">    3.92    3.93</time>
   <dipole>
    <v name="dipole">      0.00000000       0.00000000      -0.00836030 </v>
    <i name="Tr[quadrupol]"> -10289.30989346 </i>
    <i name="Echarged">      0.00000000 </i>
    <i name="Edipol_quadrupol">      0.00000000 </i>
    <i name="Eion">      0.00000000 </i>
   </dipole>
   <energy>
    <i name="e_fr_energy">   -187.82896361 </i>
    <i name="e_wo_entrp">   -187.57704039 </i>
    <i name="e_0_energy">   -187.70300200 </i>
   </energy>
  </scstep>
  <scstep>
   <time name="diag">    1.22    1.22</time>
   <time name="diis">    2.12    2.13</time>
   <time name="orth">    0.29    0.29</time>
   <time name="total">    3.92    3.94</time>
   <dipole>
    <v name="dipole">      0.00000000       0.00000000      -0.00776774 </v>
    <i name="Tr[quadrupol]"> -10289.32043512 </i>
    <i name="Echarged">      0.00000000 </i>
    <i name="Edipol_quadrupol">      0.00000000 </i>
    <i name="Eion">      0.00000000 </i>
   </dipole>
   <energy>
    <i name="e_fr_energy">   -187.82901988 </i>
    <i name="e_wo_entrp">   -187.57707733 </i>
    <i name="e_0_energy">   -187.70304860 </i>
   </energy>
  </scstep>
  <scstep>
   <time name="diag">    1.23    1.23</time>
   <time name="diis">    1.99    2.00</time>
   <time name="orth">    0.29    0.29</time>
   <time name="total">    3.80    3.81</time>
   <dipole>
    <v name="dipole">      0.00000000       0.00000000      -0.00760713 </v>
    <i name="Tr[quadrupol]"> -10289.32366224 </i>
    <i name="Echarged">      0.00000000 </i>
    <i name="Edipol_quadrupol">      0.00000000 </i>
    <i name="Eion">      0.00000000 </i>
   </dipole>
   <energy>
    <i name="e_fr_energy">   -187.82903233 </i>
    <i name="e_wo_entrp">   -187.57709981 </i>
    <i name="e_0_energy">   -187.70306607 </i>
   </energy>
  </scstep>
  <scstep>
   <time name="diag">    1.23    1.23</time>
   <time name="diis">    2.02    2.02</time>
   <time name="orth">    0.29    0.29</time>
   <time name="total">    3.83    3.84</time>
   <dipole>
    <v name="dipole">      0.00000000       0.00000000      -0.00732168 </v>
    <i name="Tr[quadrupol]"> -10289.32928988 </i>
    <i name="Echarged">      0.00000000 </i>
    <i name="Edipol_quadrupol">      0.00000000 </i>
    <i name="Eion">      0.00000000 </i>
   </dipole>
   <energy>
    <i name="e_fr_energy">   -187.82904611 </i>
    <i name="e_wo_entrp">   -187.57712249 </i>
    <i name="e_0_energy">   -187.70308430 </i>
   </energy>
  </scstep>
  <scstep>
   <time name="diag">    1.22    1.23</time>
   <time name="diis">    1.67    1.67</time>
   <time name="orth">    0.29    0.29</time>
   <time name="total">    3.47    3.48</time>
   <dipole>
    <v name="dipole">      0.00000000       0.00000000      -0.00717521 </v>
    <i name="Tr[quadrupol]"> -10289.33219396 </i>
    <i name="Echarged">      0.00000000 </i>
    <i name="Edipol_quadrupol">      0.00000000 </i>
    <i name="Eion">      0.00000000 </i>
   </dipole>
   <energy>
    <i name="e_fr_energy">   -187.82904962 </i>
    <i name="e_wo_entrp">   -187.57712680 </i>
    <i name="e_0_energy">   -187.70308821 </i>
   </energy>
  </scstep>
  <scstep>
   <time name="diag">    1.22    1.23</time>
   <time name="diis">    1.74    1.75</time>
   <time name="orth">    0.29    0.29</time>
   <time name="total">    3.55    3.56</time>
   <dipole>
    <v name="dipole">      0.00000000       0.00000000      -0.00697908 </v>
    <i name="Tr[quadrupol]"> -10289.33599295 </i>
    <i name="Echarged">      0.00000000 </i>
    <i name="Edipol_quadrupol">      0.00000000 </i>
    <i name="Eion">      0.00000000 </i>
   </dipole>
   <energy>
    <i name="e_fr_energy">   -187.82905206 </i>
    <i name="e_wo_entrp">   -187.57712788 </i>
    <i name="e_0_energy">   -187.70308997 </i>
   </energy>
  </scstep>
  <scstep>
   <time name="diag">    1.22    1.22</time>
   <time name="diis">    1.53    1.54</time>
   <time name="orth">    0.29    0.29</time>
   <time name="total">    3.34    3.35</time>
   <dipole>
    <v name="dipole">      0.00000000       0.00000000      -0.00688049 </v>
    <i name="Tr[quadrupol]"> -10289.33818472 </i>
    <i name="Echarged">      0.00000000 </i>
    <i name="Edipol_quadrupol">      0.00000000 </i>
    <i name="Eion">      0.00000000 </i>
   </dipole>
   <energy>
    <i name="e_fr_energy">   -187.82905307 </i>
    <i name="e_wo_entrp">   -187.57712974 </i>
    <i name="e_0_energy">   -187.70309140 </i>
   </energy>
  </scstep>
  <scstep>
   <time name="diag">    1.23    1.23</time>
   <time name="diis">    1.42    1.42</time>
   <time name="orth">    0.29    0.29</time>
   <time name="total">    2.98    2.99</time>
   <dipole>
    <v name="dipole">      0.00000000       0.00000000      -0.00679748 </v>
    <i name="Tr[quadrupol]"> -10289.34007950 </i>
    <i name="Echarged">      0.00000000 </i>
    <i name="Edipol_quadrupol">      0.00000000 </i>
    <i name="Eion">      0.00000000 </i>
   </dipole>
   <energy>
    <i name="alphaZ">    805.87151445 </i>
    <i name="ewald"> 200638.00655142 </i>
    <i name="hartreedc">-242823.37290555 </i>
    <i name="XCdc">   -343.05360695 </i>
    <i name="pawpsdc">  49469.72765003 </i>
    <i name="pawaedc"> -47547.33432372 </i>
    <i name="eentropy">     -0.25192307 </i>
    <i name="bandstr">  -2047.20788267 </i>
    <i name="atom">  41659.78587232 </i>
    <i name="e_fr_energy">   -187.82905375 </i>
    <i name="e_wo_entrp">   -187.57713067 </i>
    <i name="e_0_energy">   -187.70309221 </i>
   </energy>
  </scstep>
  <structure>
   <crystal>
    <varray name="basis" >
     <v>      11.00258152       0.00000000       0.00000000 </v>
     <v>       5.50129076       9.52851510       0.00000000 </v>
     <v>       0.00000000       0.00000000      24.49178509 </v>
    </varray>
    <i name="volume">   2567.67623402 </i>
    <varray name="rec_basis" >
     <v>       0.09088776      -0.05247407       0.00000000 </v>
     <v>       0.00000000       0.10494815       0.00000000 </v>
     <v>       0.00000000       0.00000000       0.04083002 </v>
    </varray>
   </crystal>
   <varray name="positions" >
    <v>       0.75000000       0.75000000       0.59169983 </v>
    <v>       0.58333333       0.33333333       0.40830017 </v>
    <v>       0.41666667       0.16666667       0.50000000 </v>
    <v>       0.58333333       0.08333333       0.40830017 </v>
    <v>       0.66666667       0.91666667       0.50000000 </v>
    <v>       0.58333333       0.83333333       0.40830017 </v>
    <v>       0.33333333       0.83333333       0.40830017 </v>
    <v>       0.25000000       0.50000000       0.59169983 </v>
    <v>       0.16666667       0.66666667       0.50000000 </v>
    <v>       0.41666667       0.91666667       0.50000000 </v>
    <v>       0.50000000       0.75000000       0.59169983 </v>
    <v>       0.16666667       0.41666667       0.50000000 </v>
    <v>       0.41666667       0.41666667       0.50000000 </v>
    <v>       0.66666667       0.16666667       0.50000000 </v>
    <v>       0.83333333       0.33333333       0.40830017 </v>
    <v>       0.75000000       0.25000000       0.59169983 </v>
    <v>       0.00000000       0.50000000       0.59169983 </v>
    <v>       0.91666667       0.66666667       0.50000000 </v>
    <v>       0.75000000       0.50000000       0.59169983 </v>
    <v>       0.91666667       0.41666667       0.50000000 </v>
    <v>       0.83333333       0.83333333       0.40830017 </v>
    <v>       0.00000000       0.00000000       0.59169983 </v>
    <v>       0.91666667       0.16666667       0.50000000 </v>
    <v>       0.75000000       0.00000000       0.59169983 </v>
    <v>       0.83333333       0.08333333       0.40830017 </v>
    <v>       0.66666667       0.41666667       0.50000000 </v>
    <v>       0.83333333       0.58333333       0.40830017 </v>
    <v>       0.66666667       0.66666667       0.50000000 </v>
    <v>       0.50000000       0.50000000       0.59169983 </v>
    <v>       0.41666667       0.66666667       0.50000000 </v>
    <v>       0.08333333       0.08333333       0.40830017 </v>
    <v>       0.50000000       0.25000000       0.59169983 </v>
    <v>       0.08333333       0.33333333       0.40830017 </v>
    <v>       0.00000000       0.25000000       0.59169983 </v>
    <v>       0.08333333       0.58333333       0.40830017 </v>
    <v>       0.08333333       0.83333333       0.40830017 </v>
    <v>       0.91666667       0.91666667       0.50000000 </v>
    <v>       0.00000000       0.75000000       0.59169983 </v>
    <v>       0.58333333       0.58333333       0.40830017 </v>
    <v>       0.33333333       0.08333333       0.40830017 </v>
    <v>       0.25000000       0.00000000       0.59169983 </v>
    <v>       0.33333333       0.33333333       0.40830017 </v>
    <v>       0.25000000       0.25000000       0.59169983 </v>
    <v>       0.33333333       0.58333333       0.40830017 </v>
    <v>       0.16666667       0.91666667       0.50000000 </v>
    <v>       0.50000000       0.00000000       0.59169983 </v>
    <v>       0.16666667       0.16666667       0.50000000 </v>
    <v>       0.25000000       0.75000000       0.59169983 </v>
   </varray>
  </structure>
  <varray name="forces" >
   <v>      -0.01668273       0.13097237       1.64142615 </v>
   <v>       0.00594085       0.33904773      -1.60424399 </v>
   <v>      -0.52909841       0.11762252       0.29021150 </v>
   <v>      -0.12706342       0.21830511      -1.90691667 </v>
   <v>      -0.04743793      -0.13764557       0.29485013 </v>
   <v>      -0.14236900      -0.40378475      -1.61554806 </v>
   <v>      -0.32373006      -0.06029108      -1.32020795 </v>
   <v>       0.25140525       0.00298857       1.80217668 </v>
   <v>       0.31841325       0.67021158      -0.27603105 </v>
   <v>      -0.50133826       0.16494310       0.27874638 </v>
   <v>      -0.40730471       0.04523161       1.28080558 </v>
   <v>      -0.12660879      -0.47577527      -0.58309765 </v>
   <v>       0.41562792       0.31681287       0.00360349 </v>
   <v>       0.27779907       0.03016541       0.04529664 </v>
   <v>       0.10576509       0.10119521      -1.53227137 </v>
   <v>      -0.12114695       0.35510841       1.62224452 </v>
   <v>       0.13469568      -0.25035188       1.86846259 </v>
   <v>       0.07330126       0.12551314      -0.36852893 </v>
   <v>      -0.28715773      -0.11692364       1.36909492 </v>
   <v>      -0.09227704      -0.12242400      -0.33807800 </v>
   <v>       0.47232276      -0.12814746      -1.59002644 </v>
   <v>       0.36325072      -0.35736319       1.35755801 </v>
   <v>       0.39237969      -0.38273891      -0.29401042 </v>
   <v>      -0.08834746      -0.06555340       1.65413476 </v>
   <v>       0.28090402      -0.24449887      -0.92656647 </v>
   <v>      -0.15464886       0.57747871      -0.02324891 </v>
   <v>       0.01009810      -0.11141734      -0.89611791 </v>
   <v>      -0.31809699      -0.29452359      -0.31790334 </v>
   <v>      -0.04941558       0.03953243       0.73802381 </v>
   <v>       0.07243011      -0.18738616       0.00526068 </v>
   <v>       0.09930245      -0.07456554      -0.62846135 </v>
   <v>      -0.12969061      -0.01259838       1.04125758 </v>
   <v>       0.15885910      -0.13336762      -0.80877158 </v>
   <v>       0.32732191      -0.21823781       0.87318379 </v>
   <v>       0.10301533      -0.09138712      -0.99568509 </v>
   <v>       0.04422661       0.08516360      -0.63465378 </v>
   <v>       0.35079702      -0.11157683      -0.18563363 </v>
   <v>       0.16360397       0.12939047       0.96780557 </v>
   <v>      -0.01256875       0.00569247      -0.59099522 </v>
   <v>      -0.29411328       0.38552109      -0.88509780 </v>
   <v>      -0.04883967       0.18124761       0.59705511 </v>
   <v>      -0.21171271       0.09780620      -1.03610506 </v>
   <v>      -0.12940273      -0.32719344       0.84248597 </v>
   <v>      -0.10736527       0.06705586      -0.82235300 </v>
   <v>      -0.01260454      -0.03010006      -0.00406236 </v>
   <v>      -0.12062418       0.27038453       0.99676496 </v>
   <v>      -0.08823732      -0.18787183      -0.01071719 </v>
   <v>       0.06642283       0.06833315       0.62488439 </v>
  </varray>
  <energy>
   <i name="e_fr_energy">   -187.82905375 </i>
   <i name="e_wo_entrp">   -187.70309221 </i>
   <i name="e_0_energy">     -0.25192307 </i>
  </energy>
  <time name="totalsc">  219.06  220.22</time>
 </calculation>
 <calculation>
  <scstep>
   <time name="dav">    7.03    7.13</time>
   <time name="total">    7.32    7.42</time>
   <dipole>
    <v name="dipole">      0.00000000       0.00000000      -0.00670735 </v>
    <i name="Tr[quadrupol]"> -10281.24496116 </i>
    <i name="Echarged">      0.00000000 </i>
    <i name="Edipol_quadrupol">      0.00000000 </i>
    <i name="Eion">      0.00000000 </i>
   </dipole>
   <energy>
    <i name="alphaZ">    805.87151916 </i>
    <i name="ewald"> 197846.68197796 </i>
    <i name="hartreedc">-240049.29840700 </i>
    <i name="XCdc">   -345.37513396 </i>
    <i name="pawpsdc">  49469.72546714 </i>
    <i name="pawaedc"> -47547.33214561 </i>
    <i name="eentropy">     -0.24723716 </i>
    <i name="bandstr">  -2028.80718076 </i>
    <i name="atom">  41659.78587232 </i>
    <i name="e_fr_energy">   -188.99526790 </i>
    <i name="e_wo_entrp">   -188.74803074 </i>
    <i name="e_0_energy">   -188.87164932 </i>
   </energy>
  </scstep>
  <scstep>
   <time name="diag">    1.22    1.22</time>
   <time name="diis">    3.40    3.42</time>
   <time name="orth">    0.29    0.29</time>
   <time name="total">    5.19    5.22</time>
   <dipole>
    <v name="dipole">      0.00000000       0.00000000      -0.00430202 </v>
    <i name="Tr[quadrupol]"> -10280.97647699 </i>
    <i name="Echarged">      0.00000000 </i>
    <i name="Edipol_quadrupol">      0.00000000 </i>
    <i name="Eion">      0.00000000 </i>
   </dipole>
   <energy>
    <i name="e_fr_energy">   -189.40660666 </i>
    <i name="e_wo_entrp">   -189.15955750 </i>
    <i name="e_0_energy">   -189.28308208 </i>
   </energy>
  </scstep>
  <scstep>
   <time name="diag">    1.23    1.24</time>
   <time name="diis">    3.46    3.47</time>
   <time name="orth">    0.29    0.29</time>
   <time name="total">    5.27    5.29</time>
   <dipole>
    <v name="dipole">      0.00000000       0.00000000      -0.01474564 </v>
    <i name="Tr[quadrupol]"> -10281.39137126 </i>
    <i name="Echarged">      0.00000000 </i>
    <i name="Edipol_quadrupol">      0.00000000 </i>
    <i name="Eion">      0.00000000 </i>
   </dipole>
   <energy>
    <i name="e_fr_energy">   -189.54063214 </i>
    <i name="e_wo_entrp">   -189.29517175 </i>
    <i name="e_0_energy">   -189.41790194 </i>
   </energy>
  </scstep>
  <scstep>
   <time name="diag">    1.22    1.23</time>
   <time name="diis">    3.46    3.46</time>
   <time name="orth">    0.29    0.29</time>
   <time name="total">    5.25    5.27</time>
   <dipole>
    <v name="dipole">      0.00000000       0.00000000      -0.00134617 </v>
    <i name="Tr[quadrupol]"> -10281.34376743 </i>
    <i name="Echarged">      0.00000000 </i>
    <i name="Edipol_quadrupol">      0.00000000 </i>
    <i name="Eion">      0.00000000 </i>
   </dipole>
   <energy>
    <i name="e_fr_energy">   -189.39547346 </i>
    <i name="e_wo_entrp">   -189.14459161 </i>
    <i name="e_0_energy">   -189.27003254 </i>
   </energy>
  </scstep>
  <scstep>
   <time name="diag">    1.23    1.23</time>
   <time name="diis">    3.36    3.37</time>
   <time name="orth">    0.29    0.29</time>
   <time name="total">    5.17    5.18</time>
   <dipole>
    <v name="dipole">      0.00000000       0.00000000      -0.02692223 </v>
    <i name="Tr[quadrupol]"> -10281.32843824 </i>
    <i name="Echarged">      0.00000000 </i>
    <i name="Edipol_quadrupol">      0.00000000 </i>
    <i name="Eion">      0.00000000 </i>
   </dipole>
   <energy>
    <i name="e_fr_energy">   -189.41750153 </i>
    <i name="e_wo_entrp">   -189.18013582 </i>
    <i name="e_0_energy">   -189.29881867 </i>
   </energy>
  </scstep>
  <scstep>
   <time name="diag">    1.22    1.23</time>
   <time name="diis">    3.41    3.42</time>
   <time name="orth">    0.29    0.29</time>
   <time name="total">    5.21    5.23</time>
   <dipole>
    <v name="dipole">      0.00000000       0.00000000       0.02621336 </v>
    <i name="Tr[quadrupol]"> -10281.31983148 </i>
    <i name="Echarged">      0.00000000 </i>
    <i name="Edipol_quadrupol">      0.00000000 </i>
    <i name="Eion">      0.00000000 </i>
   </dipole>
   <energy>
    <i name="e_fr_energy">   -189.39182741 </i>
    <i name="e_wo_entrp">   -189.13451081 </i>
    <i name="e_0_energy">   -189.26316911 </i>
   </energy>
  </scstep>
  <scstep>
   <time name="diag">    1.23    1.23</time>
   <time name="diis">    3.36    3.37</time>
   <time name="orth">    0.29    0.29</time>
   <time name="total">    5.17    5.18</time>
   <dipole>
    <v name="dipole">      0.00000000       0.00000000      -0.02259538 </v>
    <i name="Tr[quadrupol]"> -10281.29574631 </i>
    <i name="Echarged">      0.00000000 </i>
    <i name="Edipol_quadrupol">      0.00000000 </i>
    <i name="Eion">      0.00000000 </i>
   </dipole>
   <energy>
    <i name="e_fr_energy">   -189.38081658 </i>
    <i name="e_wo_entrp">   -189.13660227 </i>
    <i name="e_0_energy">   -189.25870942 </i>
   </energy>
  </scstep>
  <scstep>
   <time name="diag">    1.22    1.23</time>
   <time name="diis">    3.39    3.41</time>
   <time name="orth">    0.29    0.29</time>
   <time name="total">    5.19    5.22</time>
   <dipole>
    <v name="dipole">      0.00000000       0.00000000      -0.00242650 </v>
    <i name="Tr[quadrupol]"> -10281.26619399 </i>
    <i name="Echarged">      0.00000000 </i>
    <i name="Edipol_quadrupol">      0.00000000 </i>
    <i name="Eion">      0.00000000 </i>
   </dipole>
   <energy>
    <i name="e_fr_energy">   -189.37536720 </i>
    <i name="e_wo_entrp">   -189.12721132 </i>
    <i name="e_0_energy">   -189.25128926 </i>
   </energy>
  </scstep>
  <scstep>
   <time name="diag">    1.22    1.22</time>
   <time name="diis">    3.36    3.45</time>
   <time name="orth">    0.29    0.29</time>
   <time name="total">    5.15    5.25</time>
   <dipole>
    <v name="dipole">      0.00000000       0.00000000      -0.00707741 </v>
    <i name="Tr[quadrupol]"> -10281.26006269 </i>
    <i name="Echarged">      0.00000000 </i>
    <i name="Edipol_quadrupol">      0.00000000 </i>
    <i name="Eion">      0.00000000 </i>
   </dipole>
   <energy>
    <i name="e_fr_energy">   -189.37418022 </i>
    <i name="e_wo_entrp">   -189.12453908 </i>
    <i name="e_0_energy">   -189.24935965 </i>
   </energy>
  </scstep>
  <scstep>
   <time name="diag">    1.22    1.23</time>
   <time name="diis">    3.40    3.41</time>
   <time name="orth">    0.29    0.29</time>
   <time name="total">    5.20    5.22</time>
   <dipole>
    <v name="dipole">      0.00000000       0.00000000      -0.00547488 </v>
    <i name="Tr[quadrupol]"> -10281.25411211 </i>
    <i name="Echarged">      0.00000000 </i>
    <i name="Edipol_quadrupol">      0.00000000 </i>
    <i name="Eion">      0.00000000 </i>
   </dipole>
   <energy>
    <i name="e_fr_energy">   -189.37416751 </i>
    <i name="e_wo_entrp">   -189.12536635 </i>
    <i name="e_0_energy">   -189.24976693 </i>
   </energy>
  </scstep>
  <scstep>
   <time name="diag">    1.22    1.22</time>
   <time name="diis">    3.48    3.49</time>
   <time name="orth">    0.29    0.29</time>
   <time name="total">    5.28    5.29</time>
   <dipole>
    <v name="dipole">      0.00000000       0.00000000      -0.00535620 </v>
    <i name="Tr[quadrupol]"> -10281.25346408 </i>
    <i name="Echarged">      0.00000000 </i>
    <i name="Edipol_quadrupol">      0.00000000 </i>
    <i name="Eion">      0.00000000 </i>
   </dipole>
   <energy>
    <i name="e_fr_energy">   -189.37399520 </i>
    <i name="e_wo_entrp">   -189.12467324 </i>
    <i name="e_0_energy">   -189.24933422 </i>
   </energy>
  </scstep>
  <scstep>
   <time name="diag">    1.22    1.23</time>
   <time name="diis">    3.42    3.43</time>
   <time name="orth">    0.29    0.29</time>
   <time name="total">    5.21    5.23</time>
   <dipole>
    <v name="dipole">      0.00000000       0.00000000      -0.00549391 </v>
    <i name="Tr[quadrupol]"> -10281.25855740 </i>
    <i name="Echarged">      0.00000000 </i>
    <i name="Edipol_quadrupol">      0.00000000 </i>
    <i name="Eion">      0.00000000 </i>
   </dipole>
   <energy>
    <i name="e_fr_energy">   -189.37400245 </i>
    <i name="e_wo_entrp">   -189.12439407 </i>
    <i name="e_0_energy">   -189.24919826 </i>
   </energy>
  </scstep>
  <scstep>
   <time name="diag">    1.22    1.22</time>
   <time name="diis">    3.46    3.47</time>
   <time name="orth">    0.29    0.29</time>
   <time name="total">    5.25    5.27</time>
   <dipole>
    <v name="dipole">      0.00000000       0.00000000      -0.00549090 </v>
    <i name="Tr[quadrupol]"> -10281.26210304 </i>
    <i name="Echarged">      0.00000000 </i>
    <i name="Edipol_quadrupol">      0.00000000 </i>
    <i name="Eion">      0.00000000 </i>
   </dipole>
   <energy>
    <i name="e_fr_energy">   -189.37399127 </i>
    <i name="e_wo_entrp">   -189.12467061 </i>
    <i name="e_0_energy">   -189.24933094 </i>
   </energy>
  </scstep>
  <scstep>
   <time name="diag">    1.22    1.24</time>
   <time name="diis">    3.41    3.41</time>
   <time name="orth">    0.29    0.29</time>
   <time name="total">    5.20    5.23</time>
   <dipole>
    <v name="dipole">      0.00000000       0.00000000      -0.00542830 </v>
    <i name="Tr[quadrupol]"> -10281.26644607 </i>
    <i name="Echarged">      0.00000000 </i>
    <i name="Edipol_quadrupol">      0.00000000 </i>
    <i name="Eion">      0.00000000 </i>
   </dipole>
   <energy>
    <i name="e_fr_energy">   -189.37398382 </i>
    <i name="e_wo_entrp">   -189.12456186 </i>
    <i name="e_0_energy">   -189.24927284 </i>
   </energy>
  </scstep>
  <scstep>
   <time name="diag">    1.22    1.23</time>
   <time name="diis">    2.73    2.76</time>
   <time name="orth">    0.29    0.29</time>
   <time name="total">    4.28    4.33</time>
   <dipole>
    <v name="dipole">      0.00000000       0.00000000      -0.00535091 </v>
    <i name="Tr[quadrupol]"> -10281.26923681 </i>
    <i name="Echarged">      0.00000000 </i>
    <i name="Edipol_quadrupol">      0.00000000 </i>
    <i name="Eion">      0.00000000 </i>
   </dipole>
   <energy>
    <i name="alphaZ">    805.87108363 </i>
    <i name="ewald"> 197846.68197796 </i>
    <i name="hartreedc">-240050.43768806 </i>
    <i name="XCdc">   -345.31463898 </i>
    <i name="pawpsdc">  48995.28951495 </i>
    <i name="pawaedc"> -47069.68189900 </i>
    <i name="eentropy">     -0.24933943 </i>
    <i name="bandstr">  -2031.31886702 </i>
    <i name="atom">  41659.78587232 </i>
    <i name="e_fr_energy">   -189.37398362 </i>
    <i name="e_wo_entrp">   -189.12464419 </i>
    <i name="e_0_energy">   -189.24931390 </i>
   </energy>
  </scstep>
  <structure>
   <crystal>
    <varray name="basis" >
     <v>      11.00258152       0.00000000       0.00000000 </v>
     <v>       5.50129076       9.52851510       0.00000000 </v>
     <v>       0.00000000       0.00000000      24.49178509 </v>
    </varray>
    <i name="volume">   2567.67623402 </i>
    <varray name="rec_basis" >
     <v>       0.09088776      -0.05247407       0.00000000 </v>
     <v>       0.00000000       0.10494815       0.00000000 </v>
     <v>       0.00000000       0.00000000       0.04083002 </v>
    </varray>
   </crystal>
   <varray name="positions" >
    <v>       0.74971671       0.75046418       0.59396307 </v>
    <v>       0.58275076       0.33453495       0.40608820 </v>
    <v>       0.41483429       0.16708353       0.50040015 </v>
    <v>       0.58255650       0.08410702       0.40567087 </v>
    <v>       0.66676498       0.91617884       0.50040655 </v>
    <v>       0.58361189       0.83190229       0.40607261 </v>
    <v>       0.33244656       0.83311966       0.40647984 </v>
    <v>       0.25076633       0.50001059       0.59418471 </v>
    <v>       0.16645632       0.66904195       0.49961940 </v>
    <v>       0.41483564       0.91725124       0.50038434 </v>
    <v>       0.49866972       0.75016030       0.59346584 </v>
    <v>       0.16712116       0.41498048       0.49919601 </v>
    <v>       0.41738093       0.41778948       0.50000497 </v>
    <v>       0.66746585       0.16677358       0.50006246 </v>
    <v>       0.83347863       0.33369198       0.40618744 </v>
    <v>       0.74899890       0.25125853       0.59393662 </v>
    <v>       0.00085705       0.49911273       0.59427611 </v>
    <v>       0.91666923       0.66711150       0.49949186 </v>
    <v>       0.74932583       0.49958561       0.59358757 </v>
    <v>       0.91660038       0.41623279       0.49953385 </v>
    <v>       0.83501010       0.83287917       0.40610780 </v>
    <v>       0.00174818      -0.00126653       0.59357166 </v>
    <v>       0.91854921       0.16531021       0.49959461 </v>
    <v>       0.74984500      -0.00023233       0.59398059 </v>
    <v>       0.83462876       0.08246681       0.40702260 </v>
    <v>       0.66516869       0.41871330       0.49996794 </v>
    <v>       0.83356176       0.58293846       0.40706458 </v>
    <v>       0.66621225       0.66562285       0.49956167 </v>
    <v>       0.49977828       0.50014011       0.59271744 </v>
    <v>       0.41722103       0.66600255       0.50000725 </v>
    <v>       0.08377025       0.08306907       0.40743363 </v>
    <v>       0.49962427       0.24995535       0.59313554 </v>
    <v>       0.08405725       0.33286067       0.40718502 </v>
    <v>       0.00139136       0.24922655       0.59290380 </v>
    <v>       0.08381146       0.58300945       0.40692729 </v>
    <v>       0.08331816       0.83363516       0.40742509 </v>
    <v>       0.91794108       0.91627123       0.49974404 </v>
    <v>       0.00027286       0.75045857       0.59303426 </v>
    <v>       0.58328467       0.58335351       0.40748529 </v>
    <v>       0.33174746       0.08469965       0.40707978 </v>
    <v>       0.24952892       0.00064236       0.59252306 </v>
    <v>       0.33251021       0.33367997       0.40687156 </v>
    <v>       0.25018263       0.24884040       0.59286147 </v>
    <v>       0.33288497       0.58357098       0.40716629 </v>
    <v>       0.16668132       0.91655999       0.49999440 </v>
    <v>       0.49915064       0.00095827       0.59307419 </v>
    <v>       0.16672876       0.16600083       0.49998522 </v>
    <v>       0.25008278       0.75024218       0.59256144 </v>
   </varray>
  </structure>
  <varray name="forces" >
   <v>      -0.04875235      -0.02373138       1.14769563 </v>
   <v>      -0.00149801       0.15751844      -1.17680974 </v>
   <v>      -0.08917582       0.01197031       0.05622376 </v>
   <v>      -0.10164434       0.09086015      -1.25093775 </v>
   <v>      -0.06563869      -0.03722860       0.02139034 </v>
   <v>      -0.06721557      -0.13371724      -1.09452664 </v>
   <v>      -0.15364157      -0.02497029      -0.97010472 </v>
   <v>       0.09061684       0.00175397       1.16535878 </v>
   <v>       0.12430376       0.16917535      -0.04320534 </v>
   <v>      -0.22199626      -0.03796994       0.02303239 </v>
   <v>      -0.21116849       0.05323625       0.95694715 </v>
   <v>      -0.00444308      -0.04119001      -0.12923935 </v>
   <v>       0.10834290       0.14162472       0.01393472 </v>
   <v>       0.15141435      -0.00198226      -0.01364003 </v>
   <v>       0.03668606       0.01915512      -1.13455742 </v>
   <v>      -0.01655034       0.11204576       1.10508040 </v>
   <v>       0.10464789      -0.13040493       1.20313976 </v>
   <v>       0.02595126      -0.00662682      -0.06449057 </v>
   <v>      -0.07232752      -0.03782296       0.97897545 </v>
   <v>      -0.08327288      -0.03641936      -0.05584509 </v>
   <v>       0.19893677      -0.01920455      -1.16141543 </v>
   <v>       0.15827061      -0.12679195       1.00886063 </v>
   <v>       0.12210713      -0.11733050      -0.04254036 </v>
   <v>       0.01930350       0.02049011       1.18623235 </v>
   <v>       0.14249198      -0.09734097      -0.71630580 </v>
   <v>       0.00783990       0.18445060      -0.03452495 </v>
   <v>       0.05635904      -0.07718105      -0.72828901 </v>
   <v>      -0.14928546      -0.05886041      -0.06342764 </v>
   <v>      -0.08037249       0.03301000       0.62796619 </v>
   <v>       0.09079895       0.01026360      -0.02442227 </v>
   <v>       0.07924853      -0.03859914      -0.56868997 </v>
   <v>      -0.08978707      -0.01037546       0.73644326 </v>
   <v>       0.05842906      -0.09062010      -0.72281781 </v>
   <v>       0.14259904      -0.12431820       0.62383228 </v>
   <v>       0.09681280      -0.07678038      -0.76727886 </v>
   <v>       0.04777973       0.06466425      -0.59898820 </v>
   <v>       0.09193937       0.00856983      -0.01227852 </v>
   <v>       0.07785771       0.00911403       0.68253751 </v>
   <v>      -0.03819755       0.00494554      -0.53214826 </v>
   <v>      -0.15661693       0.18448244      -0.66840385 </v>
   <v>      -0.02341573       0.11782715       0.54429930 </v>
   <v>      -0.05533718       0.05836552      -0.77707089 </v>
   <v>      -0.07622484      -0.14423461       0.68613592 </v>
   <v>      -0.10373586       0.03156469      -0.67972686 </v>
   <v>       0.05543277      -0.02220462      -0.00522897 </v>
   <v>      -0.08255573       0.14420562       0.76671393 </v>
   <v>      -0.13262729      -0.11842580      -0.00951824 </v>
   <v>       0.03731108       0.00503807       0.51163279 </v>
  </varray>
  <energy>
   <i name="e_fr_energy">   -189.37398362 </i>
   <i name="e_wo_entrp">   -189.24931390 </i>
   <i name="e_0_energy">     -0.24933943 </i>
  </energy>
  <time name="totalsc">   81.81   82.30</time>
 </calculation>
 <calculation>
  <scstep>
   <time name="dav">    7.01    7.11</time>
   <time name="total">    7.30    7.40</time>
   <dipole>
    <v name="dipole">      0.00000000       0.00000000      -0.00536723 </v>
    <i name="Tr[quadrupol]"> -10258.10084860 </i>
    <i name="Echarged">      0.00000000 </i>
    <i name="Edipol_quadrupol">      0.00000000 </i>
    <i name="Eion">      0.00000000 </i>
   </dipole>
   <energy>
    <i name="alphaZ">    805.87116856 </i>
    <i name="ewald"> 189605.70807176 </i>
    <i name="hartreedc">-231853.99758269 </i>
    <i name="XCdc">   -351.09409191 </i>
    <i name="pawpsdc">  48995.20335519 </i>
    <i name="pawaedc"> -47069.59551186 </i>
    <i name="eentropy">     -0.22017310 </i>
    <i name="bandstr">  -1979.44499699 </i>
    <i name="atom">  41659.78587232 </i>
    <i name="e_fr_energy">   -187.78388872 </i>
    <i name="e_wo_entrp">   -187.56371561 </i>
    <i name="e_0_energy">   -187.67380217 </i>
   </energy>
  </scstep>
  <scstep>
   <time name="diag">    1.22    1.23</time>
   <time name="diis">    3.41    3.42</time>
   <time name="orth">    0.29    0.29</time>
   <time name="total">    5.20    5.22</time>
   <dipole>
    <v name="dipole">      0.00000000       0.00000000      -0.02081432 </v>
    <i name="Tr[quadrupol]"> -10257.26085739 </i>
    <i name="Echarged">      0.00000000 </i>
    <i name="Edipol_quadrupol">      0.00000000 </i>
    <i name="Eion">      0.00000000 </i>
   </dipole>
   <energy>
    <i name="e_fr_energy">   -191.43252432 </i>
    <i name="e_wo_entrp">   -191.20079687 </i>
    <i name="e_0_energy">   -191.31666059 </i>
   </energy>
  </scstep>
  <scstep>
   <time name="diag">    1.22    1.23</time>
   <time name="diis">    3.49    3.51</time>
   <time name="orth">    0.29    0.29</time>
   <time name="total">    5.29    5.32</time>
   <dipole>
    <v name="dipole">      0.00000000       0.00000000       0.13709691 </v>
    <i name="Tr[quadrupol]"> -10258.16687024 </i>
    <i name="Echarged">      0.00000000 </i>
    <i name="Edipol_quadrupol">      0.00000000 </i>
    <i name="Eion">      0.00000000 </i>
   </dipole>
   <energy>
    <i name="e_fr_energy">   -192.18401867 </i>
    <i name="e_wo_entrp">   -191.96820238 </i>
    <i name="e_0_energy">   -192.07611052 </i>
   </energy>
  </scstep>
  <scstep>
   <time name="diag">    1.22    1.24</time>
   <time name="diis">    3.43    3.44</time>
   <time name="orth">    0.29    0.29</time>
   <time name="total">    5.22    5.24</time>
   <dipole>
    <v name="dipole">      0.00000000       0.00000000      -0.10865665 </v>
    <i name="Tr[quadrupol]"> -10258.13080700 </i>
    <i name="Echarged">      0.00000000 </i>
    <i name="Edipol_quadrupol">      0.00000000 </i>
    <i name="Eion">      0.00000000 </i>
   </dipole>
   <energy>
    <i name="e_fr_energy">   -191.41713505 </i>
    <i name="e_wo_entrp">   -191.22835896 </i>
    <i name="e_0_energy">   -191.32274701 </i>
   </energy>
  </scstep>
  <scstep>
   <time name="diag">    1.22    1.22</time>
   <time name="diis">    3.44    3.46</time>
   <time name="orth">    0.29    0.29</time>
   <time name="total">    5.24    5.26</time>
   <dipole>
    <v name="dipole">      0.00000000       0.00000000       0.12691355 </v>
    <i name="Tr[quadrupol]"> -10258.25658425 </i>
    <i name="Echarged">      0.00000000 </i>
    <i name="Edipol_quadrupol">      0.00000000 </i>
    <i name="Eion">      0.00000000 </i>
   </dipole>
   <energy>
    <i name="e_fr_energy">   -191.48161834 </i>
    <i name="e_wo_entrp">   -191.24684332 </i>
    <i name="e_0_energy">   -191.36423083 </i>
   </energy>
  </scstep>
  <scstep>
   <time name="diag">    1.23    1.23</time>
   <time name="diis">    3.38    3.40</time>
   <time name="orth">    0.29    0.29</time>
   <time name="total">    5.18    5.21</time>
   <dipole>
    <v name="dipole">      0.00000000       0.00000000      -0.08759665 </v>
    <i name="Tr[quadrupol]"> -10258.39593339 </i>
    <i name="Echarged">      0.00000000 </i>
    <i name="Edipol_quadrupol">      0.00000000 </i>
    <i name="Eion">      0.00000000 </i>
   </dipole>
   <energy>
    <i name="e_fr_energy">   -191.44359302 </i>
    <i name="e_wo_entrp">   -191.21765725 </i>
    <i name="e_0_energy">   -191.33062513 </i>
   </energy>
  </scstep>
  <scstep>
   <time name="diag">    1.22    1.22</time>
   <time name="diis">    3.45    3.45</time>
   <time name="orth">    0.29    0.29</time>
   <time name="total">    5.24    5.26</time>
   <dipole>
    <v name="dipole">      0.00000000       0.00000000       0.00586524 </v>
    <i name="Tr[quadrupol]"> -10258.16676436 </i>
    <i name="Echarged">      0.00000000 </i>
    <i name="Edipol_quadrupol">      0.00000000 </i>
    <i name="Eion">      0.00000000 </i>
   </dipole>
   <energy>
    <i name="e_fr_energy">   -191.16149328 </i>
    <i name="e_wo_entrp">   -190.94821776 </i>
    <i name="e_0_energy">   -191.05485552 </i>
   </energy>
  </scstep>
  <scstep>
   <time name="diag">    1.23    1.23</time>
   <time name="diis">    3.47    3.47</time>
   <time name="orth">    0.28    0.30</time>
   <time name="total">    5.27    5.33</time>
   <dipole>
    <v name="dipole">      0.00000000       0.00000000      -0.01217853 </v>
    <i name="Tr[quadrupol]"> -10258.16959967 </i>
    <i name="Echarged">      0.00000000 </i>
    <i name="Edipol_quadrupol">      0.00000000 </i>
    <i name="Eion">      0.00000000 </i>
[...]
       <r>    2.2553    0.0000 </r>
       <r>    2.3436    0.0000 </r>
       <r>    2.3734    0.0000 </r>
       <r>    2.4964    0.0000 </r>
       <r>    2.6703    0.0000 </r>
       <r>    2.9689    0.0000 </r>
       <r>    3.2074    0.0000 </r>
       <r>    3.2391    0.0000 </r>
       <r>    3.5357    0.0000 </r>
       <r>    3.5661    0.0000 </r>
       <r>    3.7218    0.0000 </r>
       <r>    3.9422    0.0000 </r>
       <r>    4.0574    0.0000 </r>
       <r>    4.1872    0.0000 </r>
       <r>    4.4221    0.0000 </r>
       <r>    4.5426    0.0000 </r>
       <r>    4.5780    0.0000 </r>
       <r>    4.6259    0.0000 </r>
       <r>    4.6911    0.0000 </r>
       <r>    4.7611    0.0000 </r>
       <r>    4.8516    0.0000 </r>
       <r>    4.9079    0.0000 </r>
       <r>    5.0006    0.0000 </r>
       <r>    5.0519    0.0000 </r>
       <r>    5.0789    0.0000 </r>
       <r>    5.1282    0.0000 </r>
       <r>    5.2034    0.0000 </r>
       <r>    5.2459    0.0000 </r>
      </set>
     </set>
    </set>
   </array>
  </eigenvalues>
  <separator name="orbital magnetization" >
   <v name="MAGDIPOLOUT">      0.00000000      0.00000000      0.00000000</v>
  </separator>
  <dos>
   <i name="efermi">     -1.10038355 </i>
   <total>
    <array>
     <dimension dim="1">gridpoints</dimension>
     <dimension dim="2">spin</dimension>
     <field>energy</field>
     <field>total</field>
     <field>integrated</field>
     <set>
      <set comment="spin 1">
       <r>    -9.9042     0.0000     0.0000 </r>
       <r>    -9.8500     0.0000     0.0000 </r>
       <r>    -9.7959     0.0000     0.0000 </r>
       <r>    -9.7417     0.0000     0.0000 </r>
       <r>    -9.6876     0.0000     0.0000 </r>
       <r>    -9.6334     0.0000     0.0000 </r>
       <r>    -9.5793     0.0000     0.0000 </r>
       <r>    -9.5251     0.0000     0.0000 </r>
       <r>    -9.4710     0.0000     0.0000 </r>
       <r>    -9.4168     0.0000     0.0000 </r>
       <r>    -9.3627     0.0000     0.0000 </r>
       <r>    -9.3085     0.0000     0.0000 </r>
       <r>    -9.2544     0.0000     0.0000 </r>
       <r>    -9.2002     0.0001     0.0000 </r>
       <r>    -9.1461     0.0032     0.0002 </r>
       <r>    -9.0919     0.0429     0.0025 </r>
       <r>    -9.0378     0.3295     0.0203 </r>
       <r>    -8.9836     1.4538     0.0991 </r>
       <r>    -8.9295     3.7024     0.2996 </r>
       <r>    -8.8753     5.5079     0.5978 </r>
       <r>    -8.8212     5.1445     0.8764 </r>
       <r>    -8.7670     4.2008     1.1039 </r>
       <r>    -8.7129     4.6807     1.3573 </r>
       <r>    -8.6587     5.1815     1.6379 </r>
       <r>    -8.6046     3.9827     1.8536 </r>
       <r>    -8.5504     1.9891     1.9613 </r>
       <r>    -8.4963     0.7828     2.0037 </r>
       <r>    -8.4421     0.7918     2.0465 </r>
       <r>    -8.3880     1.6055     2.1335 </r>
       <r>    -8.3338     2.5457     2.2713 </r>
       <r>    -8.2797     3.4161     2.4563 </r>
       <r>    -8.2255     4.1267     2.6798 </r>
       <r>    -8.1714     3.9992     2.8963 </r>
       <r>    -8.1172     3.6653     3.0948 </r>
       <r>    -8.0631     4.4802     3.3374 </r>
       <r>    -8.0089     6.0126     3.6630 </r>
       <r>    -7.9548     7.2772     4.0570 </r>
       <r>    -7.9006     7.4131     4.4585 </r>
       <r>    -7.8465     5.9708     4.7818 </r>
       <r>    -7.7923     4.5382     5.0275 </r>
       <r>    -7.7382     4.9754     5.2969 </r>
       <r>    -7.6840     6.4497     5.6462 </r>
       <r>    -7.6299     6.9445     6.0222 </r>
       <r>    -7.5757     6.6905     6.3845 </r>
       <r>    -7.5216     7.1556     6.7720 </r>
       <r>    -7.4674     9.0140     7.2601 </r>
       <r>    -7.4133    11.8885     7.9039 </r>
       <r>    -7.3591    14.3257     8.6796 </r>
       <r>    -7.3050    15.8191     9.5362 </r>
       <r>    -7.2508    17.9373    10.5075 </r>
       <r>    -7.1967    21.1636    11.6535 </r>
       <r>    -7.1425    23.8879    12.9471 </r>
       <r>    -7.0884    26.1250    14.3617 </r>
       <r>    -7.0342    28.6799    15.9147 </r>
       <r>    -6.9801    30.2434    17.5524 </r>
       <r>    -6.9259    29.6661    19.1588 </r>
       <r>    -6.8718    28.5918    20.7071 </r>
       <r>    -6.8176    28.8329    22.2684 </r>
       <r>    -6.7635    29.8104    23.8826 </r>
       <r>    -6.7093    31.6439    25.5961 </r>
       <r>    -6.6552    35.5830    27.5230 </r>
       <r>    -6.6010    41.0039    29.7433 </r>
       <r>    -6.5469    46.5674    32.2649 </r>
       <r>    -6.4927    52.2121    35.0922 </r>
       <r>    -6.4386    58.5110    38.2606 </r>
       <r>    -6.3844    64.5923    41.7583 </r>
       <r>    -6.3303    68.5076    45.4680 </r>
       <r>    -6.2761    71.4009    49.3343 </r>
       <r>    -6.2220    76.2074    53.4610 </r>
       <r>    -6.1678    81.5541    57.8771 </r>
       <r>    -6.1137    83.0069    62.3719 </r>
       <r>    -6.0595    80.3837    66.7247 </r>
       <r>    -6.0054    77.8675    70.9412 </r>
       <r>    -5.9512    76.9589    75.1086 </r>
       <r>    -5.8971    76.0157    79.2248 </r>
       <r>    -5.8429    74.5864    83.2637 </r>
       <r>    -5.7888    73.2584    87.2306 </r>
       <r>    -5.7346    71.5722    91.1062 </r>
       <r>    -5.6805    68.7494    94.8290 </r>
       <r>    -5.6263    65.3632    98.3684 </r>
       <r>    -5.5722    63.6119   101.8130 </r>
       <r>    -5.5180    64.9669   105.3310 </r>
       <r>    -5.4639    68.1214   109.0198 </r>
       <r>    -5.4097    70.6425   112.8450 </r>
       <r>    -5.3556    72.6814   116.7807 </r>
       <r>    -5.3014    75.7637   120.8834 </r>
       <r>    -5.2473    78.2378   125.1199 </r>
       <r>    -5.1931    78.8731   129.3909 </r>
       <r>    -5.1390    80.5785   133.7542 </r>
       <r>    -5.0848    84.3881   138.3239 </r>
       <r>    -5.0307    87.6173   143.0683 </r>
       <r>    -4.9765    87.8400   147.8249 </r>
       <r>    -4.9224    84.8866   152.4215 </r>
       <r>    -4.8682    81.5152   156.8355 </r>
       <r>    -4.8141    80.7744   161.2095 </r>
       <r>    -4.7599    82.9994   165.7039 </r>
       <r>    -4.7058    86.2900   170.3765 </r>
       <r>    -4.6516    88.6371   175.1762 </r>
       <r>    -4.5975    89.2289   180.0079 </r>
       <r>    -4.5433    87.9148   184.7685 </r>
       <r>    -4.4892    86.0021   189.4255 </r>
       <r>    -4.4350    85.5741   194.0594 </r>
       <r>    -4.3809    85.8506   198.7082 </r>
       <r>    -4.3267    85.6500   203.3461 </r>
       <r>    -4.2726    86.2740   208.0179 </r>
       <r>    -4.2184    87.9004   212.7777 </r>
       <r>    -4.1643    88.4947   217.5696 </r>
       <r>    -4.1101    88.2480   222.3483 </r>
       <r>    -4.0560    88.8788   227.1611 </r>
       <r>    -4.0018    89.6066   232.0133 </r>
       <r>    -3.9477    89.4211   236.8554 </r>
       <r>    -3.8935    89.3861   241.6957 </r>
       <r>    -3.8394    90.4219   246.5920 </r>
       <r>    -3.7852    92.2175   251.5856 </r>
       <r>    -3.7311    93.9895   256.6751 </r>
       <r>    -3.6769    94.5747   261.7963 </r>
       <r>    -3.6228    93.5847   266.8640 </r>
       <r>    -3.5686    93.7515   271.9406 </r>
       <r>    -3.5145    96.8418   277.1846 </r>
       <r>    -3.4603    99.2495   282.5589 </r>
       <r>    -3.4062    99.0895   287.9246 </r>
       <r>    -3.3520    98.7620   293.2726 </r>
       <r>    -3.2979    98.4622   298.6043 </r>
       <r>    -3.2437    97.7113   303.8954 </r>
       <r>    -3.1896    97.8198   309.1923 </r>
       <r>    -3.1354    98.4193   314.5218 </r>
       <r>    -3.0813    98.3858   319.8493 </r>
       <r>    -3.0271    97.0211   325.1030 </r>
       <r>    -2.9730    93.7174   330.1778 </r>
       <r>    -2.9188    90.4164   335.0739 </r>
       <r>    -2.8647    90.6229   339.9811 </r>
       <r>    -2.8105    94.9755   345.1240 </r>
       <r>    -2.7564   100.2007   350.5499 </r>
       <r>    -2.7022   103.2694   356.1420 </r>
       <r>    -2.6481   104.3810   361.7942 </r>
       <r>    -2.5939   104.3078   367.4425 </r>
       <r>    -2.5398   102.1932   372.9762 </r>
       <r>    -2.4856    97.2897   378.2445 </r>
       <r>    -2.4315    91.0734   383.1761 </r>
       <r>    -2.3773    87.1400   387.8947 </r>
       <r>    -2.3232    87.1845   392.6158 </r>
       <r>    -2.2690    88.3786   397.4015 </r>
       <r>    -2.2149    88.5901   402.1986 </r>
       <r>    -2.1607    89.2818   407.0332 </r>
       <r>    -2.1066    91.3768   411.9813 </r>
       <r>    -2.0524    93.5047   417.0446 </r>
       <r>    -1.9983    94.5706   422.1656 </r>
       <r>    -1.9441    95.5413   427.3391 </r>
       <r>    -1.8900    97.6218   432.6253 </r>
       <r>    -1.8358   100.6258   438.0742 </r>
       <r>    -1.7817   103.8457   443.6975 </r>
       <r>    -1.7275   106.0798   449.4417 </r>
       <r>    -1.6734   105.4674   455.1527 </r>
       <r>    -1.6192   102.6207   460.7097 </r>
       <r>    -1.5651    99.9713   466.1231 </r>
       <r>    -1.5109    97.8249   471.4203 </r>
       <r>    -1.4568    95.3189   476.5818 </r>
       <r>    -1.4026    92.1476   481.5716 </r>
       <r>    -1.3485    88.6304   486.3710 </r>
       <r>    -1.2943    85.2514   490.9873 </r>
       <r>    -1.2402    80.3217   495.3368 </r>
       <r>    -1.1860    71.5405   499.2107 </r>
       <r>    -1.1319    59.5780   502.4368 </r>
       <r>    -1.0777    47.0615   504.9852 </r>
       <r>    -1.0236    35.2787   506.8956 </r>
       <r>    -0.9694    24.2961   508.2112 </r>
       <r>    -0.9153    15.2194   509.0353 </r>
       <r>    -0.8611     9.6963   509.5604 </r>
       <r>    -0.8070     8.2873   510.0091 </r>
       <r>    -0.7528    10.0624   510.5540 </r>
       <r>    -0.6987    12.4768   511.2296 </r>
       <r>    -0.6445    13.9536   511.9852 </r>
       <r>    -0.5904    16.5182   512.8797 </r>
       <r>    -0.5362    21.0001   514.0168 </r>
       <r>    -0.4821    23.7486   515.3028 </r>
       <r>    -0.4279    22.3921   516.5154 </r>
       <r>    -0.3738    19.3920   517.5654 </r>
       <r>    -0.3196    18.9697   518.5926 </r>
       <r>    -0.2655    21.3756   519.7501 </r>
       <r>    -0.2113    22.0215   520.9426 </r>
       <r>    -0.1572    18.1579   521.9258 </r>
       <r>    -0.1030    12.5042   522.6029 </r>
       <r>    -0.0489     8.9947   523.0900 </r>
       <r>     0.0053     8.3088   523.5399 </r>
       <r>     0.0594     9.4071   524.0493 </r>
       <r>     0.1136    11.7485   524.6855 </r>
       <r>     0.1677    13.9872   525.4429 </r>
       <r>     0.2219    15.2812   526.2704 </r>
       <r>     0.2760    16.7551   527.1777 </r>
       <r>     0.3302    18.1934   528.1628 </r>
       <r>     0.3843    18.3093   529.1543 </r>
       <r>     0.4385    18.4320   530.1524 </r>
       <r>     0.4926    20.4739   531.2610 </r>
       <r>     0.5468    23.3897   532.5276 </r>
       <r>     0.6009    24.9807   533.8803 </r>
       <r>     0.6551    24.2514   535.1935 </r>
       <r>     0.7092    22.0564   536.3879 </r>
       <r>     0.7634    20.0019   537.4710 </r>
       <r>     0.8175    17.9541   538.4432 </r>
       <r>     0.8717    15.0472   539.2580 </r>
       <r>     0.9258    12.3663   539.9276 </r>
       <r>     0.9800    11.1823   540.5332 </r>
       <r>     1.0341    11.1220   541.1354 </r>
       <r>     1.0883    11.6459   541.7660 </r>
       <r>     1.1424    11.8317   542.4067 </r>
       <r>     1.1966     9.9936   542.9479 </r>
       <r>     1.2507     6.7761   543.3148 </r>
       <r>     1.3049     4.7282   543.5708 </r>
       <r>     1.3590     4.3673   543.8073 </r>
       <r>     1.4132     5.1725   544.0874 </r>
       <r>     1.4673     8.0426   544.5229 </r>
       <r>     1.5215    13.1688   545.2360 </r>
       <r>     1.5756    17.5575   546.1868 </r>
       <r>     1.6298    18.3008   547.1777 </r>
       <r>     1.6839    16.7360   548.0840 </r>
       <r>     1.7381    16.0242   548.9517 </r>
       <r>     1.7922    16.5214   549.8463 </r>
       <r>     1.8464    16.1797   550.7225 </r>
       <r>     1.9005    14.6480   551.5157 </r>
       <r>     1.9547    13.3380   552.2379 </r>
       <r>     2.0088    12.4787   552.9136 </r>
       <r>     2.0630    12.0600   553.5667 </r>
       <r>     2.1171    13.6934   554.3082 </r>
       <r>     2.1713    17.9517   555.2803 </r>
       <r>     2.2254    21.8490   556.4634 </r>
       <r>     2.2796    23.1460   557.7167 </r>
       <r>     2.3337    22.9868   558.9615 </r>
       <r>     2.3879    22.1744   560.1622 </r>
       <r>     2.4420    20.5241   561.2736 </r>
       <r>     2.4962    19.2137   562.3140 </r>
       <r>     2.5503    19.6080   563.3758 </r>
       <r>     2.6045    21.2533   564.5267 </r>
       <r>     2.6586    22.2663   565.7324 </r>
       <r>     2.7128    21.1002   566.8750 </r>
       <r>     2.7669    17.5405   567.8248 </r>
       <r>     2.8211    12.5339   568.5035 </r>
       <r>     2.8752     8.0549   568.9397 </r>
       <r>     2.9294     6.2033   569.2756 </r>
       <r>     2.9835     6.0147   569.6013 </r>
       <r>     3.0377     4.8805   569.8656 </r>
       <r>     3.0918     3.7735   570.0699 </r>
       <r>     3.1460     5.5591   570.3709 </r>
       <r>     3.2001     9.7736   570.9002 </r>
       <r>     3.2543    12.7341   571.5897 </r>
       <r>     3.3084    12.4210   572.2623 </r>
       <r>     3.3626    10.8031   572.8473 </r>
       <r>     3.4167    10.5826   573.4203 </r>
       <r>     3.4709    12.1729   574.0795 </r>
       <r>     3.5250    14.9713   574.8902 </r>
       <r>     3.5792    18.1996   575.8757 </r>
       <r>     3.6333    20.1652   576.9677 </r>
       <r>     3.6875    20.0587   578.0538 </r>
       <r>     3.7416    17.9724   579.0270 </r>
       <r>     3.7958    14.5347   579.8141 </r>
       <r>     3.8499    12.0070   580.4643 </r>
       <r>     3.9041    11.7203   581.0989 </r>
       <r>     3.9582    12.8366   581.7940 </r>
       <r>     4.0124    14.1158   582.5584 </r>
       <r>     4.0665    13.9836   583.3156 </r>
       <r>     4.1207    12.2741   583.9803 </r>
       <r>     4.1748    11.3407   584.5944 </r>
       <r>     4.2290    11.1532   585.1983 </r>
       <r>     4.2831     9.4197   585.7084 </r>
       <r>     4.3373     7.8082   586.1312 </r>
       <r>     4.3914     9.7192   586.6575 </r>
       <r>     4.4456    13.3894   587.3825 </r>
       <r>     4.4997    15.8815   588.2425 </r>
       <r>     4.5539    19.3822   589.2920 </r>
       <r>     4.6080    24.8300   590.6366 </r>
       <r>     4.6622    27.9707   592.1512 </r>
       <r>     4.7163    26.7697   593.6008 </r>
       <r>     4.7705    24.4365   594.9240 </r>
       <r>     4.8246    24.0096   596.2241 </r>
       <r>     4.8788    25.1183   597.5843 </r>
       <r>     4.9329    26.8105   599.0361 </r>
       <r>     4.9871    29.9080   600.6556 </r>
       <r>     5.0412    33.8976   602.4912 </r>
       <r>     5.0954    35.6067   604.4193 </r>
       <r>     5.1495    33.7617   606.2475 </r>
       <r>     5.2037    31.4785   607.9520 </r>
       <r>     5.2578    29.2926   609.5382 </r>
       <r>     5.3120    23.4185   610.8063 </r>
       <r>     5.3661    14.0623   611.5678 </r>
       <r>     5.4203     5.9379   611.8893 </r>
       <r>     5.4744     1.6916   611.9809 </r>
       <r>     5.5286     0.3129   611.9979 </r>
       <r>     5.5827     0.0363   611.9999 </r>
       <r>     5.6369     0.0026   612.0000 </r>
       <r>     5.6910     0.0001   612.0000 </r>
       <r>     5.7452     0.0000   612.0000 </r>
       <r>     5.7993     0.0000   612.0000 </r>
       <r>     5.8535     0.0000   612.0000 </r>
       <r>     5.9076     0.0000   612.0000 </r>
       <r>     5.9618     0.0000   612.0000 </r>
       <r>     6.0159     0.0000   612.0000 </r>
       <r>     6.0701     0.0000   612.0000 </r>
       <r>     6.1242     0.0000   612.0000 </r>
       <r>     6.1784     0.0000   612.0000 </r>
       <r>     6.2325     0.0000   612.0000 </r>
       <r>     6.2867     0.0000   612.0000 </r>
       <r>     6.3408     0.0000   612.0000 </r>
      </set>
     </set>
    </array>
   </total>
  </dos>
 </calculation>
 <structure name="finalpos" >
  <crystal>
   <varray name="basis" >
    <v>      11.00258152       0.00000000       0.00000000 </v>
    <v>       5.50129076       9.52851510       0.00000000 </v>
    <v>       0.00000000       0.00000000      24.49178509 </v>
   </varray>
   <i name="volume">   2567.67623402 </i>
   <varray name="rec_basis" >
    <v>       0.09088776      -0.05247407       0.00000000 </v>
    <v>       0.00000000       0.10494815       0.00000000 </v>
    <v>       0.00000000       0.00000000       0.04083002 </v>
   </varray>
  </crystal>
  <varray name="positions" >
   <v>       0.74940814       0.74919179       0.60569643 </v>
   <v>       0.58127038       0.33731241       0.39404920 </v>
   <v>       0.41564165       0.16651088       0.49749542 </v>
   <v>       0.58068007       0.08630733       0.39070501 </v>
   <v>       0.66732379       0.91585768       0.49931285 </v>
   <v>       0.58383104       0.83206787       0.39559595 </v>
   <v>       0.33070814       0.83386241       0.39693312 </v>
   <v>       0.25262903       0.49792020       0.60632378 </v>
   <v>       0.16714241       0.66929880       0.50113598 </v>
   <v>       0.41463547       0.91597624       0.49781768 </v>
   <v>       0.49593624       0.75053711       0.60140730 </v>
   <v>       0.16692333       0.41595199       0.50098680 </v>
   <v>       0.41826879       0.41890958       0.49852199 </v>
   <v>       0.66839885       0.16676021       0.49864986 </v>
   <v>       0.83422382       0.33494497       0.39578520 </v>
   <v>       0.74886208       0.25019172       0.60337308 </v>
   <v>       0.00324745       0.49574822       0.60871609 </v>
   <v>       0.91566906       0.66788414       0.50161549 </v>
   <v>       0.74957965       0.49799663       0.60254411 </v>
   <v>       0.91573350       0.41671173       0.50055362 </v>
   <v>       0.83607518       0.83384089       0.39656353 </v>
   <v>       0.00404295      -0.00386207       0.60287081 </v>
   <v>       0.91915737       0.16477403       0.49966599 </v>
   <v>       0.74965219      -0.00116226       0.60441794 </v>
   <v>       0.83440054       0.08371248       0.40189287 </v>
   <v>       0.66665787       0.41869839       0.49898205 </v>
   <v>       0.83477902       0.58355935       0.40385734 </v>
   <v>       0.66535156       0.66677286       0.50134565 </v>
   <v>       0.49941228       0.49852597       0.59585699 </v>
   <v>       0.41821097       0.66742890       0.49929009 </v>
   <v>       0.08337685       0.08430658       0.40244832 </v>
   <v>       0.49946306       0.24818390       0.59600620 </v>
   <v>       0.08461185       0.33374338       0.40278415 </v>
   <v>       0.00284782       0.24713216       0.59747831 </v>
   <v>       0.08448191       0.58337935       0.40356755 </v>
   <v>       0.08212008       0.83554892       0.40432879 </v>
   <v>       0.91708878       0.91669839       0.50139094 </v>
   <v>       0.00085650       0.74797435       0.59990925 </v>
   <v>       0.58312904       0.58448252       0.40387281 </v>
   <v>       0.32952005       0.08715859       0.39975764 </v>
   <v>       0.24945550       0.00056939       0.59517480 </v>
   <v>       0.33121785       0.33558727       0.40049488 </v>
   <v>       0.25121650       0.24654126       0.59716131 </v>
   <v>       0.33030016       0.58540881       0.40197368 </v>
   <v>       0.16701678       0.91635670       0.49986825 </v>
   <v>       0.49844885       0.00075557       0.59600175 </v>
   <v>       0.16651587       0.16576419       0.49881525 </v>
   <v>       0.25047973       0.74817824       0.59700393 </v>
  </varray>
 </structure>
</modeling>
