unknown system                          
           1
    11.002582    0.000000    0.000000
     5.501291    9.528515    0.000000
     0.000000    0.000000   24.491785
   Au   Pd
  24  24
Direct configuration=     1
   0.75000000  0.75000000  0.59169983
   0.58333333  0.33333333  0.40830017
   0.41666667  0.16666667  0.50000000
   0.58333333  0.08333333  0.40830017
   0.66666667  0.91666667  0.50000000
   0.58333333  0.83333333  0.40830017
   0.33333333  0.83333333  0.40830017
   0.25000000  0.50000000  0.59169983
   0.16666667  0.66666667  0.50000000
   0.41666667  0.91666667  0.50000000
   0.50000000  0.75000000  0.59169983
   0.16666667  0.41666667  0.50000000
   0.41666667  0.41666667  0.50000000
   0.66666667  0.16666667  0.50000000
   0.83333333  0.33333333  0.40830017
   0.75000000  0.25000000  0.59169983
   0.00000000  0.50000000  0.59169983
   0.91666667  0.66666667  0.50000000
   0.75000000  0.50000000  0.59169983
   0.91666667  0.41666667  0.50000000
   0.83333333  0.83333333  0.40830017
   0.00000000  0.00000000  0.59169983
   0.91666667  0.16666667  0.50000000
   0.75000000  0.00000000  0.59169983
   0.83333333  0.08333333  0.40830017
   0.66666667  0.41666667  0.50000000
   0.83333333  0.58333333  0.40830017
   0.66666667  0.66666667  0.50000000
   0.50000000  0.50000000  0.59169983
   0.41666667  0.66666667  0.50000000
   0.08333333  0.08333333  0.40830017
   0.50000000  0.25000000  0.59169983
   0.08333333  0.33333333  0.40830017
   0.00000000  0.25000000  0.59169983
   0.08333333  0.58333333  0.40830017
   0.08333333  0.83333333  0.40830017
   0.91666667  0.91666667  0.50000000
   0.00000000  0.75000000  0.59169983
   0.58333333  0.58333333  0.40830017
   0.33333333  0.08333333  0.40830017
   0.25000000  0.00000000  0.59169983
   0.33333333  0.33333333  0.40830017
   0.25000000  0.25000000  0.59169983
   0.33333333  0.58333333  0.40830017
   0.16666667  0.91666667  0.50000000
   0.50000000  0.00000000  0.59169983
   0.16666667  0.16666667  0.50000000
   0.25000000  0.75000000  0.59169983
Direct configuration=     2
   0.74971671  0.75046418  0.59396307
   0.58275076  0.33453495  0.40608820
   0.41483429  0.16708353  0.50040015
   0.58255650  0.08410702  0.40567087
   0.66676498  0.91617884  0.50040655
   0.58361189  0.83190229  0.40607261
   0.33244656  0.83311966  0.40647984
   0.25076633  0.50001059  0.59418471
   0.16645632  0.66904195  0.49961940
   0.41483564  0.91725124  0.50038434
   0.49866972  0.75016030  0.59346584
   0.16712116  0.41498048  0.49919601
   0.41738093  0.41778948  0.50000497
   0.66746585  0.16677358  0.50006246
   0.83347863  0.33369198  0.40618744
   0.74899890  0.25125853  0.59393662
   0.00085705  0.49911273  0.59427611
   0.91666923  0.66711150  0.49949186
   0.74932583  0.49958561  0.59358757
   0.91660038  0.41623279  0.49953385
   0.83501010  0.83287917  0.40610780
   0.00174818 -0.00126653  0.59357166
   0.91854921  0.16531021  0.49959461
   0.74984500 -0.00023233  0.59398059
   0.83462876  0.08246681  0.40702260
   0.66516869  0.41871330  0.49996794
   0.83356176  0.58293846  0.40706458
   0.66621225  0.66562285  0.49956167
   0.49977828  0.50014011  0.59271744
   0.41722103  0.66600255  0.50000725
   0.08377025  0.08306907  0.40743363
   0.49962427  0.24995535  0.59313554
   0.08405725  0.33286067  0.40718502
   0.00139136  0.24922655  0.59290380
   0.08381146  0.58300945  0.40692729
   0.08331816  0.83363516  0.40742509
   0.91794108  0.91627123  0.49974404
   0.00027286  0.75045857  0.59303426
   0.58328467  0.58335351  0.40748529
   0.33174746  0.08469965  0.40707978
   0.24952892  0.00064236  0.59252306
   0.33251021  0.33367997  0.40687156
   0.25018263  0.24884040  0.59286147
   0.33288497  0.58357098  0.40716629
   0.16668132  0.91655999  0.49999440
   0.49915064  0.00095827  0.59307419
   0.16672876  0.16600083  0.49998522
   0.25008278  0.75024218  0.59256144
Direct configuration=     3
   0.74886683  0.75185671  0.60075278
   0.58100304  0.33813979  0.39945229
   0.40933716  0.16833412  0.50160060
   0.58022598  0.08642810  0.39778296
   0.66705992  0.91471536  0.50162619
   0.58444755  0.82760915  0.39938994
   0.32978623  0.83247863  0.40101883
   0.25306534  0.50004237  0.60163937
   0.16582528  0.67616781  0.49847761
   0.40934256  0.91900496  0.50153737
   0.49467888  0.75064122  0.59876385
   0.16848466  0.40992192  0.49678404
   0.41952374  0.42115791  0.50001987
   0.66986341  0.16709430  0.50024982
   0.83391453  0.33476791  0.39984924
   0.74599560  0.25503414  0.60064699
   0.00342820  0.49645093  0.60200495
   0.91667693  0.66844598  0.49796745
   0.74730332  0.49834245  0.59925079
   0.91640154  0.41493114  0.49813540
   0.84004040  0.83151667  0.39953070
   0.00699270 -0.00506610  0.59918716
   0.92419686  0.16124083  0.49837845
   0.74938001 -0.00092931  0.60082287
   0.83851506  0.07986724  0.40318988
   0.66067477  0.42485320  0.49987178
   0.83424705  0.58175384  0.40335781
   0.66484900  0.66249140  0.49824667
   0.49911311  0.50056043  0.59577025
   0.41888412  0.66401022  0.50002901
   0.08508101  0.08227627  0.40483402
   0.49849708  0.24982140  0.59744267
   0.08622899  0.33144267  0.40383956
   0.00556546  0.24690619  0.59651570
   0.08524583  0.58203780  0.40280867
   0.08327265  0.83454064  0.40479987
   0.92176430  0.91508492  0.49897618
   0.00109144  0.75183428  0.59703756
   0.58313868  0.58341403  0.40504066
   0.32698985  0.08879861  0.40341859
   0.24811568  0.00256943  0.59499277
   0.33004086  0.33471987  0.40258574
   0.25073052  0.24536160  0.59634639
   0.33153990  0.58428394  0.40376465
   0.16672527  0.91623996  0.49997759
   0.49660256  0.00383306  0.59719728
   0.16691504  0.16400333  0.49994089
   0.25033112  0.75096871  0.59514625
Direct configuration=     4
   0.74908151  0.75004411  0.60210600
   0.58137308  0.33705137  0.39792142
   0.41426057  0.16679027  0.50111840
   0.58050817  0.08555510  0.39651717
   0.66586921  0.91550810  0.50117063
   0.58385067  0.82978689  0.39822779
   0.33067331  0.83272016  0.39974089
   0.25215643  0.50002451  0.60282554
   0.16721564  0.67130474  0.49904578
   0.41251068  0.91618609  0.50085620
   0.49537893  0.75126737  0.60006571
   0.16689456  0.41473635  0.49765660
   0.41726173  0.41959492  0.50003905
   0.66971988  0.16678249  0.50013197
   0.83410064  0.33382327  0.39823998
   0.74784277  0.25241314  0.60187132
   0.00341408  0.49697262  0.60323245
   0.91736128  0.66703566  0.49849645
   0.74878686  0.49943416  0.60041125
   0.91563464  0.41534892  0.49876098
   0.83800841  0.83231690  0.39790091
   0.00469263 -0.00305927  0.60060640
   0.92109116  0.16352208  0.49898665
   0.74986129  0.00044922  0.60229270
   0.83718590  0.08118023  0.40223121
   0.66435971  0.42117644  0.49981341
   0.83519500  0.58172787  0.40225224
   0.66467736  0.66524880  0.49881844
   0.49813544  0.50074350  0.59684747
   0.41790810  0.66717696  0.49988766
   0.08507535  0.08264309  0.40359448
   0.49841440  0.24982598  0.59808538
   0.08506195  0.33166220  0.40231285
   0.00387504  0.24741606  0.59713146
   0.08571922  0.58172910  0.40182572
   0.08362148  0.83457265  0.40337577
   0.91850950  0.91681773  0.49948053
   0.00134343  0.75030656  0.59764423
   0.58262969  0.58332998  0.40392364
   0.32846585  0.08727899  0.40256675
   0.24860252  0.00218005  0.59616833
   0.33132612  0.33474353  0.40150385
   0.25029548  0.24690115  0.59750938
   0.33107453  0.58402276  0.40269415
   0.16800423  0.91626659  0.49999552
   0.49703978  0.00301240  0.59825929
   0.16531798  0.16449872  0.49992752
   0.25061380  0.74992951  0.59592849
Direct configuration=     5
   0.74917204  0.74927979  0.60267661
   0.58152912  0.33659241  0.39727590
   0.41633664  0.16613928  0.50091507
   0.58062715  0.08518697  0.39598342
   0.66536712  0.91584237  0.50097853
   0.58359898  0.83070518  0.39773775
   0.33104737  0.83282201  0.39920202
   0.25177318  0.50001698  0.60332571
   0.16780192  0.66925412  0.49928536
   0.41384659  0.91499745  0.50056897
   0.49567412  0.75153140  0.60061466
   0.16622407  0.41676646  0.49802453
   0.41630791  0.41893585  0.50004714
   0.66965935  0.16665101  0.50008228
   0.83417911  0.33342494  0.39756139
   0.74862166  0.25130794  0.60238758
   0.00340813  0.49719260  0.60375005
   0.91764986  0.66644096  0.49871951
   0.74941242  0.49989450  0.60090059
   0.91531126  0.41552509  0.49902477
   0.83715157  0.83265433  0.39721368
   0.00372275 -0.00221304  0.60120485
   0.91978158  0.16448402  0.49924312
   0.75006423  0.00103051  0.60291248
   0.83662543  0.08173389  0.40182696
   0.66591354  0.41962605  0.49978880
   0.83559473  0.58171692  0.40178605
   0.66460499  0.66641151  0.49905954
   0.49772319  0.50082070  0.59730171
   0.41749654  0.66851228  0.49982805
   0.08507296  0.08279776  0.40307180
   0.49837953  0.24982790  0.59835639
   0.08456985  0.33175476  0.40166908
   0.00316224  0.24763106  0.59739110
   0.08591883  0.58159893  0.40141124
   0.08376856  0.83458615  0.40277527
   0.91713705  0.91754841  0.49969320
   0.00144968  0.74966237  0.59790004
   0.58241506  0.58329454  0.40345263
   0.32908824  0.08663821  0.40220755
   0.24880780  0.00201587  0.59666403
   0.33186808  0.33475351  0.40104764
   0.25011204  0.24755033  0.59799979
   0.33087830  0.58391263  0.40224275
   0.16854354  0.91627782  0.50000308
   0.49722415  0.00266635  0.59870711
   0.16464454  0.16470761  0.49992189
   0.25073300  0.74949131  0.59625834
Direct configuration=     6
   0.74946925  0.74978091  0.60309955
   0.58172536  0.33590815  0.39678283
   0.41583775  0.16631932  0.50052234
   0.58106684  0.08482737  0.39546397
   0.66646539  0.91536926  0.50081897
   0.58365210  0.83134295  0.39731885
   0.33161209  0.83287840  0.39862661
   0.25143729  0.49970734  0.60386873
   0.16722946  0.66960341  0.49951185
   0.41462506  0.91588659  0.50020678
   0.49612694  0.75148614  0.60117647
   0.16639572  0.41568101  0.49851324
   0.41749904  0.41841517  0.50000618
   0.66879792  0.16705259  0.49993790
   0.83409816  0.33334237  0.39696313
   0.74869565  0.25168565  0.60280124
   0.00333018  0.49722934  0.60422395
   0.91615498  0.66749612  0.49898639
   0.74955809  0.49949031  0.60121304
   0.91533725  0.41638308  0.49921424
   0.83646984  0.83285985  0.39676690
   0.00344547 -0.00217020  0.60165182
   0.91872880  0.16475241  0.49944918
   0.75002878  0.00028728  0.60343392
   0.83577110  0.08231873  0.40161115
   0.66580653  0.41892127  0.49980338
   0.83565037  0.58186837  0.40158972
   0.66540992  0.66664235  0.49935914
   0.49852417  0.50028184  0.59738983
   0.41798700  0.66740943  0.49970475
   0.08455983  0.08304165  0.40268985
   0.49854758  0.24984327  0.59841843
   0.08452570  0.33202263  0.40138239
   0.00219591  0.24828882  0.59755129
   0.08553277  0.58198356  0.40104958
   0.08342422  0.83447658  0.40261881
   0.91699077  0.91686847  0.49990059
   0.00091721  0.74952583  0.59792226
   0.58261100  0.58325054  0.40324389
   0.32991842  0.08617845  0.40215272
   0.24903441  0.00181455  0.59696900
   0.33224843  0.33425781  0.40089039
   0.25013281  0.24813467  0.59803674
   0.33099644  0.58385937  0.40192684
   0.16741894  0.91611124  0.49999282
   0.49786978  0.00211654  0.59890646
   0.16589179  0.16563920  0.49986595
   0.25024752  0.74953003  0.59646596
Direct configuration=     7
   0.74956841  0.74994811  0.60324066
   0.58179084  0.33567985  0.39661832
   0.41567130  0.16637939  0.50039131
   0.58121354  0.08470739  0.39529065
   0.66683182  0.91521140  0.50076573
   0.58366982  0.83155574  0.39717909
   0.33180051  0.83289722  0.39843463
   0.25132522  0.49960403  0.60404990
   0.16703847  0.66971995  0.49958742
   0.41488479  0.91618325  0.50008594
   0.49627802  0.75147103  0.60136391
   0.16645299  0.41531885  0.49867630
   0.41789645  0.41824145  0.49999251
   0.66851052  0.16718657  0.49988973
   0.83407115  0.33331483  0.39676352
   0.74872034  0.25181167  0.60293926
   0.00330417  0.49724160  0.60438206
   0.91565622  0.66784817  0.49907543
   0.74960669  0.49935545  0.60131728
   0.91534591  0.41666934  0.49927746
   0.83624238  0.83292842  0.39661783
   0.00335295 -0.00215591  0.60180095
   0.91837754  0.16484196  0.49951793
   0.75001695  0.00003930  0.60360789
   0.83548606  0.08251385  0.40153915
   0.66577082  0.41868613  0.49980825
   0.83566894  0.58191890  0.40152422
   0.66567848  0.66671936  0.49945910
   0.49879141  0.50010205  0.59741922
   0.41815065  0.66704146  0.49966361
   0.08438862  0.08312302  0.40256242
   0.49860364  0.24984840  0.59843913
   0.08451097  0.33211200  0.40128674
   0.00187350  0.24850828  0.59760474
   0.08540396  0.58211189  0.40092891
   0.08330933  0.83444002  0.40256661
   0.91694196  0.91664161  0.49996978
   0.00073955  0.74948027  0.59792968
   0.58267637  0.58323586  0.40317425
   0.33019540  0.08602505  0.40213443
   0.24911002  0.00174738  0.59707075
   0.33237533  0.33409243  0.40083793
   0.25013974  0.24832963  0.59804907
   0.33103586  0.58384160  0.40182144
   0.16704372  0.91605566  0.49998939
   0.49808519  0.00193310  0.59897297
   0.16630793  0.16595002  0.49984729
   0.25008554  0.74954295  0.59653523
Direct configuration=     8
   0.74965629  0.75011246  0.60358332
   0.58173448  0.33565534  0.39628008
   0.41554931  0.16653136  0.50020675
   0.58142729  0.08473081  0.39486864
   0.66711609  0.91574376  0.50071587
   0.58394516  0.83124338  0.39690174
   0.33175336  0.83294881  0.39819917
   0.25155748  0.49953579  0.60437154
   0.16681821  0.66956916  0.49958438
   0.41448916  0.91632172  0.49999369
   0.49626481  0.75132872  0.60157229
   0.16657150  0.41530151  0.49881925
   0.41795018  0.41861955  0.49990308
   0.66818958  0.16678735  0.49983482
   0.83411350  0.33357020  0.39652876
   0.74846754  0.25181854  0.60321310
   0.00300487  0.49721956  0.60478897
   0.91575938  0.66783706  0.49910415
   0.74936773  0.49947604  0.60146428
   0.91532328  0.41671729  0.49924318
   0.83638920  0.83290531  0.39638280
   0.00346808 -0.00236019  0.60200886
   0.91892200  0.16468200  0.49953644
   0.74981090 -0.00006138  0.60391452
   0.83531383  0.08248185  0.40156821
   0.66563545  0.41910186  0.49974030
   0.83547811  0.58199922  0.40157604
   0.66554663  0.66628214  0.49962120
   0.49908049  0.49999373  0.59734233
   0.41857822  0.66669101  0.49960290
   0.08410490  0.08320373  0.40257362
   0.49891805  0.24962689  0.59834217
   0.08470190  0.33229466  0.40131840
   0.00193217  0.24857062  0.59756494
   0.08518288  0.58226448  0.40098639
   0.08296532  0.83450708  0.40269487
   0.91700062  0.91651689  0.50001764
   0.00055670  0.74952950  0.59794878
   0.58306855  0.58317533  0.40324647
   0.33022893  0.08609949  0.40207505
   0.24912012  0.00176999  0.59694838
   0.33220348  0.33399516  0.40092371
   0.25041894  0.24807944  0.59797046
   0.33114672  0.58382953  0.40177806
   0.16668188  0.91646972  0.49994010
   0.49821493  0.00194787  0.59885538
   0.16629714  0.16581441  0.49979178
   0.24997467  0.74952125  0.59655313
Direct configuration=     9
   0.74972587  0.75024259  0.60385464
   0.58168986  0.33563594  0.39601226
   0.41545272  0.16665168  0.50006062
   0.58159654  0.08474935  0.39453450
   0.66734118  0.91616528  0.50067639
   0.58416317  0.83099606  0.39668214
   0.33171603  0.83298966  0.39801274
   0.25174137  0.49948176  0.60462621
   0.16664382  0.66944976  0.49958197
   0.41417591  0.91643136  0.49992066
   0.49625434  0.75121603  0.60173728
   0.16666534  0.41528778  0.49893243
   0.41799272  0.41891893  0.49983228
   0.66793547  0.16647125  0.49979135
   0.83414704  0.33377241  0.39634287
   0.74826737  0.25182397  0.60342993
   0.00276788  0.49720211  0.60511116
   0.91584106  0.66782826  0.49912689
   0.74917852  0.49957151  0.60158067
   0.91530535  0.41675526  0.49921604
   0.83650545  0.83288702  0.39619670
   0.00355923 -0.00252193  0.60217349
   0.91935309  0.16455535  0.49955109
   0.74964776 -0.00014109  0.60415731
   0.83517746  0.08245651  0.40159122
   0.66552827  0.41943104  0.49968649
   0.83532701  0.58206281  0.40161708
   0.66544223  0.66593596  0.49974955
   0.49930938  0.49990795  0.59728144
   0.41891677  0.66641352  0.49955482
   0.08388025  0.08326762  0.40258249
   0.49916699  0.24945151  0.59826539
   0.08485308  0.33243930  0.40134347
   0.00197861  0.24861998  0.59753342
   0.08500783  0.58238530  0.40103191
   0.08269293  0.83456018  0.40279642
   0.91704706  0.91641814  0.50005553
   0.00041192  0.74956848  0.59796390
   0.58337906  0.58312741  0.40330366
   0.33025548  0.08615842  0.40202803
   0.24912812  0.00178790  0.59685148
   0.33206741  0.33391814  0.40099162
   0.25064000  0.24788133  0.59790822
   0.33123451  0.58381997  0.40174372
   0.16639538  0.91679757  0.49990108
   0.49831765  0.00195958  0.59876227
   0.16628860  0.16570703  0.49974784
   0.24988688  0.74950406  0.59656730
Direct configuration=    10
   0.74956696  0.75021814  0.60425667
   0.58165066  0.33583466  0.39559367
   0.41531264  0.16674839  0.49985459
   0.58157916  0.08474660  0.39391542
   0.66713084  0.91599375  0.50058894
   0.58434954  0.83083094  0.39641478
   0.33147975  0.83300346  0.39781994
   0.25197168  0.49939067  0.60499802
   0.16688570  0.66937041  0.49959221
   0.41423410  0.91600674  0.49981723
   0.49604431  0.75129884  0.60189501
   0.16667111  0.41551558  0.49914708
   0.41788417  0.41922605  0.49970227
   0.66824699  0.16666432  0.49973112
   0.83430702  0.33384760  0.39609866
   0.74835352  0.25146486  0.60369835
   0.00266244  0.49713132  0.60566608
   0.91575750  0.66762869  0.49916480
   0.74908150  0.49965261  0.60175224
   0.91542417  0.41658143  0.49916547
   0.83664381  0.83277983  0.39591061
   0.00352667 -0.00259587  0.60238355
   0.91910099  0.16473674  0.49957965
   0.74964652  0.00001325  0.60455199
   0.83508606  0.08255856  0.40172576
   0.66592732  0.41902825  0.49956890
   0.83524458  0.58218327  0.40175653
   0.66515857  0.66634402  0.50001050
   0.49925168  0.49989878  0.59716924
   0.41857304  0.66694048  0.49949430
   0.08368666  0.08337725  0.40262453
   0.49932122  0.24931247  0.59805791
   0.08492267  0.33259841  0.40148512
   0.00209023  0.24851573  0.59744433
   0.08492632  0.58240391  0.40121068
   0.08259490  0.83462067  0.40301610
   0.91720776  0.91667766  0.50014800
   0.00048177  0.74941417  0.59802828
   0.58365531  0.58306396  0.40339009
   0.33023181  0.08611603  0.40189777
   0.24915786  0.00174794  0.59661654
   0.33191610  0.33402065  0.40111325
   0.25085351  0.24768577  0.59777643
   0.33125419  0.58389458  0.40175568
   0.16663345  0.91657415  0.49983681
   0.49831233  0.00185383  0.59847186
   0.16605424  0.16572021  0.49964076
   0.24994663  0.74936024  0.59646229
Direct configuration=    11
   0.74939319  0.75019141  0.60469627
   0.58160780  0.33605196  0.39513596
   0.41515946  0.16685413  0.49962930
   0.58156015  0.08474359  0.39323846
   0.66690085  0.91580618  0.50049331
   0.58455333  0.83065038  0.39612242
   0.33122138  0.83301855  0.39760911
   0.25222351  0.49929106  0.60540460
   0.16715020  0.66928364  0.49960341
   0.41429774  0.91554243  0.49970413
   0.49581464  0.75138939  0.60206748
   0.16667743  0.41576468  0.49938179
   0.41776547  0.41956188  0.49956012
   0.66858764  0.16687543  0.49966527
   0.83448195  0.33392983  0.39583161
   0.74844772  0.25107218  0.60399185
   0.00254715  0.49705392  0.60627286
   0.91566613  0.66741047  0.49920626
   0.74897541  0.49974128  0.60193985
   0.91555409  0.41639134  0.49911018
   0.83679512  0.83266263  0.39559778
   0.00349108 -0.00267671  0.60261324
   0.91882532  0.16493509  0.49961088
   0.74964517  0.00018202  0.60498355
   0.83498613  0.08267016  0.40187287
   0.66636367  0.41858780  0.49944032
   0.83515444  0.58231498  0.40190901
   0.66484840  0.66679023  0.50029585
   0.49918859  0.49988874  0.59704655
   0.41819719  0.66751670  0.49942812
   0.08347497  0.08349712  0.40267049
   0.49948986  0.24916043  0.59783104
   0.08499876  0.33277240  0.40164002
   0.00221228  0.24840174  0.59734691
   0.08483720  0.58242426  0.40140616
   0.08248771  0.83468681  0.40325632
   0.91738348  0.91696145  0.50024912
   0.00055815  0.74924543  0.59809867
   0.58395738  0.58299457  0.40348459
   0.33020594  0.08606968  0.40175534
   0.24919039  0.00170426  0.59635964
   0.33175066  0.33413274  0.40124624
   0.25108697  0.24747193  0.59763232
   0.33127572  0.58397618  0.40176877
   0.16689377  0.91632983  0.49976652
   0.49830650  0.00173820  0.59815429
   0.16579796  0.16573462  0.49952367
   0.25001197  0.74920297  0.59634746
Direct configuration=    12
   0.74926087  0.75025998  0.60502779
   0.58159290  0.33619784  0.39475533
   0.41559838  0.16651825  0.49935757
   0.58134000  0.08480178  0.39260767
   0.66691232  0.91579375  0.50036561
   0.58428043  0.83096133  0.39592580
   0.33124321  0.83302665  0.39744850
   0.25213036  0.49908928  0.60572026
   0.16692189  0.66946400  0.49975719
   0.41443884  0.91578145  0.49944299
   0.49558237  0.75149197  0.60218226
   0.16645811  0.41604502  0.49977928
   0.41825375  0.41918400  0.49944701
   0.66837145  0.16703011  0.49957167
   0.83464568  0.33379696  0.39556030
   0.74873546  0.25120244  0.60418228
   0.00288240  0.49691217  0.60683924
   0.91539893  0.66783352  0.49941161
   0.74908835  0.49929402  0.60203821
   0.91540266  0.41657766  0.49920641
   0.83668402  0.83278034  0.39537233
   0.00365861 -0.00276269  0.60275035
   0.91869208  0.16495331  0.49972009
   0.74976260 -0.00017309  0.60526098
   0.83480241  0.08289416  0.40198716
   0.66644025  0.41859147  0.49936570
   0.83522646  0.58243547  0.40210559
   0.66501369  0.66683056  0.50062698
   0.49920511  0.49974826  0.59684658
   0.41814072  0.66754134  0.49936548
   0.08348321  0.08360044  0.40270548
   0.49936983  0.24917587  0.59749882
   0.08494017  0.33273955  0.40182201
   0.00211051  0.24834443  0.59725241
   0.08497137  0.58239996  0.40166415
   0.08253209  0.83474178  0.40343938
   0.91721689  0.91677680  0.50047648
   0.00058165  0.74893284  0.59814692
   0.58381215  0.58313698  0.40362555
   0.33026498  0.08579576  0.40158291
   0.24906508  0.00159910  0.59610575
   0.33200824  0.33423240  0.40127663
   0.25096257  0.24766838  0.59748168
   0.33122104  0.58407973  0.40176070
   0.16689240  0.91631233  0.49974956
   0.49841439  0.00157451  0.59779849
   0.16595179  0.16568221  0.49935419
   0.25003734  0.74910562  0.59623066
Direct configuration=    13
   0.74918780  0.75029784  0.60521085
   0.58158468  0.33627840  0.39454514
   0.41584075  0.16633278  0.49920752
   0.58121843  0.08483391  0.39225935
   0.66691866  0.91578688  0.50029510
   0.58412973  0.83113304  0.39581722
   0.33125526  0.83303112  0.39735981
   0.25207892  0.49897786  0.60589457
   0.16679581  0.66956360  0.49984212
   0.41451675  0.91591344  0.49929878
   0.49545410  0.75154861  0.60224565
   0.16633700  0.41619982  0.49999878
   0.41852337  0.41897534  0.49938456
   0.66825207  0.16711552  0.49951998
   0.83473609  0.33372360  0.39541049
   0.74889435  0.25127437  0.60428743
   0.00306752  0.49683389  0.60715200
   0.91525137  0.66806714  0.49952501
   0.74915072  0.49904704  0.60209252
   0.91531903  0.41668055  0.49925955
   0.83662267  0.83284534  0.39524784
   0.00375112 -0.00281016  0.60282607
   0.91861850  0.16496338  0.49978040
   0.74982745 -0.00036918  0.60541417
   0.83470097  0.08301785  0.40205028
   0.66648254  0.41859349  0.49932449
   0.83526622  0.58250200  0.40221415
   0.66510496  0.66685283  0.50080984
   0.49921423  0.49967068  0.59673616
   0.41810954  0.66755495  0.49933088
   0.08348776  0.08365749  0.40272480
   0.49930355  0.24918439  0.59731536
   0.08490782  0.33272141  0.40192250
   0.00205432  0.24831279  0.59720022
   0.08504546  0.58238654  0.40180661
   0.08255660  0.83477213  0.40354046
   0.91712490  0.91667484  0.50060203
   0.00059463  0.74876023  0.59817357
   0.58373196  0.58321561  0.40370338
   0.33029758  0.08564450  0.40148769
   0.24899588  0.00154104  0.59596555
   0.33215048  0.33428743  0.40129342
   0.25089387  0.24777686  0.59739850
   0.33119085  0.58413691  0.40175624
   0.16689165  0.91630267  0.49974019
   0.49847396  0.00148412  0.59760202
   0.16603673  0.16565327  0.49926060
   0.25005136  0.74905186  0.59616616
Direct configuration=    14
   0.74928082  0.74984188  0.60537213
   0.58167734  0.33628833  0.39433719
   0.41582118  0.16652074  0.49889397
   0.58109001  0.08507343  0.39186735
   0.66730493  0.91591875  0.50013565
   0.58403060  0.83123948  0.39576447
   0.33135081  0.83301413  0.39729367
   0.25216764  0.49892539  0.60604270
   0.16694888  0.66923967  0.50002916
   0.41459478  0.91597581  0.49901441
   0.49557731  0.75133974  0.60221730
   0.16648202  0.41607599  0.50029961
   0.41831094  0.41899307  0.49925839
   0.66838769  0.16662432  0.49943844
   0.83461335  0.33380690  0.39525244
   0.74883630  0.25105040  0.60430835
   0.00288455  0.49680089  0.60750880
   0.91511378  0.66828347  0.49977645
   0.74934897  0.49916824  0.60211896
   0.91526026  0.41694895  0.49944503
   0.83639621  0.83313562  0.39521774
   0.00375081 -0.00303373  0.60285007
   0.91877080  0.16470676  0.49985494
   0.74988990 -0.00037285  0.60543891
   0.83451349  0.08307590  0.40211395
   0.66636259  0.41895179  0.49925840
   0.83520515  0.58262383  0.40241805
   0.66525094  0.66667663  0.50104906
   0.49914528  0.49954014  0.59655708
   0.41836230  0.66731084  0.49930676
   0.08358978  0.08360346  0.40273504
   0.49945767  0.24906150  0.59708315
   0.08506905  0.33268929  0.40209948
   0.00220721  0.24832154  0.59716588
   0.08517497  0.58236094  0.40206906
   0.08245218  0.83488939  0.40362334
   0.91659485  0.91684325  0.50081507
   0.00052889  0.74864888  0.59831974
   0.58360623  0.58343251  0.40382523
   0.33020852  0.08578739  0.40128775
   0.24894518  0.00154762  0.59578386
   0.33223737  0.33429783  0.40128500
   0.25077084  0.24768628  0.59728175
   0.33106034  0.58425289  0.40178706
   0.16670503  0.91658704  0.49973994
   0.49841671  0.00150720  0.59736470
   0.16619522  0.16588138  0.49912863
   0.25005029  0.74885709  0.59616588
Direct configuration=    15
   0.74928535  0.74981969  0.60537998
   0.58168185  0.33628881  0.39432707
   0.41582022  0.16652989  0.49887871
   0.58108376  0.08508508  0.39184827
   0.66732373  0.91592517  0.50012789
   0.58402578  0.83124466  0.39576190
   0.33135546  0.83301331  0.39729045
   0.25217196  0.49892283  0.60604990
   0.16695633  0.66922391  0.50003826
   0.41459858  0.91597884  0.49900057
   0.49558330  0.75132958  0.60221592
   0.16648908  0.41606996  0.50031425
   0.41830060  0.41899393  0.49925225
   0.66839429  0.16660042  0.49943447
   0.83460738  0.33381096  0.39524475
   0.74883348  0.25103950  0.60430937
   0.00287565  0.49679928  0.60752616
   0.91510708  0.66829400  0.49978869
   0.74935862  0.49917414  0.60212025
   0.91525740  0.41696201  0.49945406
   0.83638519  0.83314974  0.39521628
   0.00375080 -0.00304461  0.60285124
   0.91877821  0.16469427  0.49985857
   0.74989293 -0.00037302  0.60544011
   0.83450437  0.08307872  0.40211705
   0.66635676  0.41896923  0.49925518
   0.83520218  0.58262976  0.40242797
   0.66525804  0.66666806  0.50106070
   0.49914193  0.49953378  0.59654836
   0.41837460  0.66729896  0.49930558
   0.08359475  0.08360083  0.40273554
   0.49946517  0.24905552  0.59707185
   0.08507689  0.33268773  0.40210809
   0.00221465  0.24832197  0.59716420
   0.08518127  0.58235970  0.40208183
   0.08244710  0.83489510  0.40362737
   0.91656906  0.91685145  0.50082544
   0.00052569  0.74864347  0.59832685
   0.58360011  0.58344307  0.40383116
   0.33020419  0.08579435  0.40127802
   0.24894271  0.00154794  0.59577502
   0.33224160  0.33429834  0.40128459
   0.25076485  0.24768188  0.59727607
   0.33105399  0.58425853  0.40178856
   0.16669595  0.91660087  0.49973993
   0.49841393  0.00150832  0.59735316
   0.16620293  0.16589248  0.49912221
   0.25005024  0.74884761  0.59616587
Direct configuration=    16
   0.74931815  0.74973268  0.60544980
   0.58170509  0.33639485  0.39425122
   0.41579079  0.16663619  0.49860710
   0.58101956  0.08534170  0.39157681
   0.66725147  0.91591563  0.49998592
   0.58413810  0.83124827  0.39579975
   0.33129773  0.83303376  0.39727023
   0.25227322  0.49881095  0.60612673
   0.16697346  0.66925125  0.50018728
   0.41474157  0.91581989  0.49878331
   0.49564060  0.75119616  0.60208954
   0.16646475  0.41607272  0.50051707
   0.41826087  0.41896524  0.49911088
   0.66838798  0.16673779  0.49935381
   0.83452149  0.33397741  0.39521930
   0.74870500  0.25096392  0.60420845
   0.00282375  0.49674591  0.60776196
   0.91530837  0.66812859  0.50001633
   0.74937823  0.49904581  0.60215176
   0.91539468  0.41686399  0.49961319
   0.83630552  0.83324378  0.39532406
   0.00377222 -0.00321716  0.60284254
   0.91880726  0.16482075  0.49987234
   0.74978367 -0.00046733  0.60535190
   0.83446725  0.08306780  0.40213859
   0.66639918  0.41879117  0.49922724
   0.83511921  0.58274588  0.40264754
   0.66520877  0.66683611  0.50117662
   0.49924075  0.49935734  0.59640722
   0.41839967  0.66732786  0.49932233
   0.08357709  0.08359108  0.40272164
   0.49955890  0.24887862  0.59690235
   0.08506407  0.33286404  0.40226512
   0.00233796  0.24822197  0.59717273
   0.08509632  0.58244292  0.40234508
   0.08227512  0.83498469  0.40372549
   0.91674050  0.91680517  0.50094835
   0.00046211  0.74862549  0.59854192
   0.58360632  0.58356804  0.40388385
   0.33011426  0.08608253  0.40102611
   0.24904057  0.00143989  0.59563153
   0.33210533  0.33439560  0.40121192
   0.25082595  0.24745348  0.59721435
   0.33095298  0.58437837  0.40183069
   0.16664006  0.91655711  0.49975107
   0.49842137  0.00145175  0.59716266
   0.16620080  0.16610160  0.49904051
   0.25008195  0.74876875  0.59623380
Direct configuration=    17
   0.74934318  0.74966626  0.60550309
   0.58172282  0.33647579  0.39419332
   0.41576833  0.16671734  0.49839979
   0.58097056  0.08553758  0.39136961