  48  48   0   0
  0.5349325E+02  0.1100258E-08  0.1100258E-08  0.2449179E-08  0.3500000E-15
  1.000000000000000E-004
  CAR 
 unknown system                          
      6.38623987     -9.71375849  301     -1.10893291      1.00000000
     -9.714  0.0000E+00  0.0000E+00
     -9.660  0.0000E+00  0.0000E+00
     -9.606  0.0000E+00  0.0000E+00
     -9.553  0.0000E+00  0.0000E+00
     -9.499  0.0000E+00  0.0000E+00
     -9.445  0.0000E+00  0.0000E+00
     -9.392  0.0000E+00  0.0000E+00
     -9.338  0.0000E+00  0.0000E+00
     -9.284  0.6206E-17  0.3331E-18
     -9.231  0.2509E-14  0.1350E-15
     -9.177  0.5621E-12  0.3030E-13
     -9.123  0.7181E-10  0.3884E-11
     -9.070  0.5241E-08  0.2851E-09
     -9.016  0.2189E-06  0.1203E-07
     -8.962  0.5245E-05  0.2935E-06
     -8.909  0.7226E-04  0.4171E-05
     -8.855  0.5737E-03  0.3496E-04
     -8.801  0.2631E-02  0.1762E-03
     -8.748  0.6991E-02  0.5514E-03
     -8.694  0.1085E-01  0.1133E-02
     -8.640  0.1033E-01  0.1688E-02
     -8.587  0.7993E-02  0.2117E-02
     -8.533  0.8755E-02  0.2586E-02
     -8.479  0.1066E-01  0.3159E-02
     -8.426  0.9045E-02  0.3644E-02
     -8.372  0.4809E-02  0.3902E-02
     -8.318  0.1853E-02  0.4002E-02
     -8.265  0.1577E-02  0.4086E-02
     -8.211  0.3154E-02  0.4256E-02
     -8.157  0.5206E-02  0.4535E-02
     -8.104  0.7250E-02  0.4924E-02
     -8.050  0.9506E-02  0.5434E-02
     -7.996  0.1213E-01  0.6085E-02
     -7.943  0.1635E-01  0.6963E-02
     -7.889  0.2033E-01  0.8054E-02
     -7.835  0.1952E-01  0.9102E-02
     -7.782  0.1562E-01  0.9940E-02
     -7.728  0.1398E-01  0.1069E-01
     -7.674  0.1431E-01  0.1146E-01
     -7.621  0.1428E-01  0.1222E-01
     -7.567  0.1547E-01  0.1305E-01
     -7.513  0.1846E-01  0.1405E-01
     -7.460  0.2047E-01  0.1514E-01
     -7.406  0.1918E-01  0.1617E-01
     -7.352  0.1598E-01  0.1703E-01
     -7.299  0.1450E-01  0.1781E-01
     -7.245  0.1720E-01  0.1873E-01
     -7.191  0.2340E-01  0.1999E-01
     -7.138  0.2917E-01  0.2155E-01
     -7.084  0.3334E-01  0.2334E-01
     -7.030  0.3888E-01  0.2543E-01
     -6.977  0.4556E-01  0.2787E-01
     -6.923  0.5201E-01  0.3067E-01
     -6.869  0.6004E-01  0.3389E-01
     -6.816  0.6942E-01  0.3761E-01
     -6.762  0.7781E-01  0.4179E-01
     -6.708  0.8519E-01  0.4636E-01
     -6.655  0.9314E-01  0.5136E-01
     -6.601  0.1014E+00  0.5680E-01
     -6.547  0.1080E+00  0.6259E-01
     -6.494  0.1128E+00  0.6865E-01
     -6.440  0.1177E+00  0.7496E-01
     -6.386  0.1228E+00  0.8155E-01
     -6.333  0.1266E+00  0.8835E-01
     -6.279  0.1300E+00  0.9532E-01
     -6.225  0.1355E+00  0.1026E+00
     -6.172  0.1431E+00  0.1103E+00
     -6.118  0.1514E+00  0.1184E+00
     -6.064  0.1585E+00  0.1269E+00
     -6.011  0.1626E+00  0.1356E+00
     -5.957  0.1640E+00  0.1444E+00
     -5.903  0.1612E+00  0.1531E+00
     -5.850  0.1535E+00  0.1613E+00
     -5.796  0.1441E+00  0.1691E+00
     -5.742  0.1377E+00  0.1764E+00
     -5.689  0.1347E+00  0.1837E+00
     -5.635  0.1323E+00  0.1908E+00
     -5.581  0.1313E+00  0.1978E+00
     -5.528  0.1344E+00  0.2050E+00
     -5.474  0.1396E+00  0.2125E+00
     -5.420  0.1442E+00  0.2203E+00
     -5.367  0.1500E+00  0.2283E+00
     -5.313  0.1579E+00  0.2368E+00
     -5.259  0.1641E+00  0.2456E+00
     -5.206  0.1671E+00  0.2546E+00
     -5.152  0.1685E+00  0.2636E+00
     -5.098  0.1691E+00  0.2727E+00
     -5.045  0.1677E+00  0.2817E+00
     -4.991  0.1640E+00  0.2905E+00
     -4.937  0.1599E+00  0.2991E+00
     -4.884  0.1579E+00  0.3075E+00
     -4.830  0.1607E+00  0.3162E+00
     -4.776  0.1681E+00  0.3252E+00
     -4.723  0.1758E+00  0.3346E+00
     -4.669  0.1794E+00  0.3442E+00
     -4.615  0.1772E+00  0.3538E+00
     -4.562  0.1726E+00  0.3630E+00
     -4.508  0.1707E+00  0.3722E+00
     -4.454  0.1721E+00  0.3814E+00
     -4.401  0.1728E+00  0.3907E+00
     -4.347  0.1733E+00  0.4000E+00
     -4.293  0.1777E+00  0.4095E+00
     -4.240  0.1849E+00  0.4194E+00
     -4.186  0.1909E+00  0.4297E+00
     -4.132  0.1943E+00  0.4401E+00
     -4.079  0.1944E+00  0.4505E+00
     -4.025  0.1916E+00  0.4608E+00
     -3.971  0.1882E+00  0.4709E+00
     -3.918  0.1864E+00  0.4809E+00
     -3.864  0.1865E+00  0.4909E+00
     -3.810  0.1894E+00  0.5011E+00
     -3.757  0.1942E+00  0.5115E+00
     -3.703  0.1970E+00  0.5221E+00
     -3.649  0.1973E+00  0.5327E+00
     -3.596  0.1967E+00  0.5433E+00
     -3.542  0.1952E+00  0.5537E+00
     -3.488  0.1939E+00  0.5641E+00
     -3.435  0.1959E+00  0.5746E+00
     -3.381  0.2008E+00  0.5854E+00
     -3.327  0.2040E+00  0.5964E+00
     -3.274  0.2030E+00  0.6073E+00
     -3.220  0.2000E+00  0.6180E+00
     -3.166  0.1964E+00  0.6285E+00
     -3.113  0.1911E+00  0.6388E+00
     -3.059  0.1867E+00  0.6488E+00
     -3.005  0.1863E+00  0.6588E+00
     -2.952  0.1879E+00  0.6689E+00
     -2.898  0.1880E+00  0.6790E+00
     -2.844  0.1873E+00  0.6890E+00
     -2.791  0.1891E+00  0.6992E+00
     -2.737  0.1929E+00  0.7095E+00
     -2.683  0.1962E+00  0.7201E+00
     -2.630  0.1962E+00  0.7306E+00
     -2.576  0.1912E+00  0.7408E+00
     -2.522  0.1846E+00  0.7508E+00
     -2.469  0.1819E+00  0.7605E+00
     -2.415  0.1831E+00  0.7703E+00
     -2.361  0.1842E+00  0.7802E+00
     -2.308  0.1851E+00  0.7902E+00
     -2.254  0.1861E+00  0.8001E+00
     -2.200  0.1846E+00  0.8101E+00
     -2.147  0.1811E+00  0.8198E+00
     -2.093  0.1783E+00  0.8293E+00
     -2.039  0.1771E+00  0.8388E+00
     -1.986  0.1776E+00  0.8484E+00
     -1.932  0.1813E+00  0.8581E+00
     -1.878  0.1848E+00  0.8680E+00
     -1.825  0.1849E+00  0.8779E+00
     -1.771  0.1861E+00  0.8879E+00
     -1.717  0.1906E+00  0.8982E+00
     -1.664  0.1938E+00  0.9086E+00
     -1.610  0.1946E+00  0.9190E+00
     -1.556  0.1950E+00  0.9295E+00
     -1.503  0.1957E+00  0.9400E+00
     -1.449  0.1970E+00  0.9505E+00
     -1.395  0.1980E+00  0.9612E+00
     -1.342  0.1952E+00  0.9716E+00
     -1.288  0.1869E+00  0.9817E+00
     -1.234  0.1732E+00  0.9910E+00
     -1.181  0.1530E+00  0.9992E+00
     -1.127  0.1275E+00  0.1006E+01
     -1.073  0.9934E-01  0.1011E+01
     -1.020  0.6965E-01  0.1015E+01
     -0.966  0.4245E-01  0.1017E+01
     -0.912  0.2488E-01  0.1019E+01
     -0.859  0.1804E-01  0.1020E+01
     -0.805  0.1807E-01  0.1021E+01
     -0.751  0.2063E-01  0.1022E+01
     -0.698  0.2165E-01  0.1023E+01
     -0.644  0.2198E-01  0.1024E+01
     -0.590  0.2652E-01  0.1026E+01
     -0.537  0.3509E-01  0.1027E+01
     -0.483  0.4177E-01  0.1030E+01
     -0.429  0.4290E-01  0.1032E+01
     -0.376  0.4010E-01  0.1034E+01
     -0.322  0.3840E-01  0.1036E+01
     -0.268  0.4107E-01  0.1038E+01
     -0.215  0.4400E-01  0.1041E+01
     -0.161  0.4129E-01  0.1043E+01
     -0.107  0.3308E-01  0.1045E+01
     -0.054  0.2384E-01  0.1046E+01
     -0.000  0.1917E-01  0.1047E+01
      0.054  0.2204E-01  0.1048E+01
      0.107  0.2899E-01  0.1050E+01
      0.161  0.3316E-01  0.1052E+01
      0.215  0.3301E-01  0.1053E+01
      0.268  0.3358E-01  0.1055E+01
      0.322  0.3650E-01  0.1057E+01
      0.376  0.3840E-01  0.1059E+01
      0.429  0.3831E-01  0.1061E+01
      0.483  0.3722E-01  0.1063E+01
      0.537  0.3662E-01  0.1065E+01
      0.590  0.3875E-01  0.1067E+01
      0.644  0.4268E-01  0.1070E+01
      0.698  0.4493E-01  0.1072E+01
      0.751  0.4369E-01  0.1074E+01
      0.805  0.3684E-01  0.1076E+01
      0.859  0.2614E-01  0.1078E+01
      0.912  0.2019E-01  0.1079E+01
      0.966  0.2212E-01  0.1080E+01
      1.020  0.2580E-01  0.1081E+01
      1.073  0.2619E-01  0.1083E+01
      1.127  0.2353E-01  0.1084E+01
      1.181  0.1987E-01  0.1085E+01
      1.234  0.1595E-01  0.1086E+01
      1.288  0.1208E-01  0.1087E+01
      1.342  0.1056E-01  0.1087E+01
      1.395  0.1296E-01  0.1088E+01
      1.449  0.1894E-01  0.1089E+01
      1.503  0.2780E-01  0.1090E+01
      1.556  0.3536E-01  0.1092E+01
      1.610  0.3658E-01  0.1094E+01
      1.664  0.3305E-01  0.1096E+01
      1.717  0.3050E-01  0.1098E+01
      1.771  0.3179E-01  0.1099E+01
      1.825  0.3395E-01  0.1101E+01
      1.878  0.3192E-01  0.1103E+01
      1.932  0.2640E-01  0.1104E+01
      1.986  0.2226E-01  0.1105E+01
      2.039  0.2114E-01  0.1107E+01
      2.093  0.2257E-01  0.1108E+01
      2.147  0.2565E-01  0.1109E+01
      2.200  0.2954E-01  0.1111E+01
      2.254  0.3470E-01  0.1113E+01
      2.308  0.4033E-01  0.1115E+01
      2.361  0.4446E-01  0.1117E+01
      2.415  0.4563E-01  0.1120E+01
      2.469  0.4447E-01  0.1122E+01
      2.522  0.4514E-01  0.1124E+01
      2.576  0.4843E-01  0.1127E+01
      2.630  0.4915E-01  0.1130E+01
      2.683  0.4553E-01  0.1132E+01
      2.737  0.3951E-01  0.1134E+01
      2.791  0.3148E-01  0.1136E+01
      2.844  0.2264E-01  0.1137E+01
      2.898  0.1648E-01  0.1138E+01
      2.952  0.1446E-01  0.1139E+01
      3.005  0.1322E-01  0.1139E+01
      3.059  0.1172E-01  0.1140E+01
      3.113  0.1448E-01  0.1141E+01
      3.166  0.2216E-01  0.1142E+01
      3.220  0.2756E-01  0.1144E+01
      3.274  0.2432E-01  0.1145E+01
      3.327  0.1575E-01  0.1146E+01
      3.381  0.1110E-01  0.1146E+01
      3.435  0.1514E-01  0.1147E+01
      3.488  0.2522E-01  0.1148E+01
      3.542  0.3515E-01  0.1150E+01
      3.596  0.3946E-01  0.1152E+01
      3.649  0.3667E-01  0.1154E+01
      3.703  0.3203E-01  0.1156E+01
      3.757  0.3125E-01  0.1158E+01
      3.810  0.3099E-01  0.1160E+01
      3.864  0.2676E-01  0.1161E+01
      3.918  0.2256E-01  0.1162E+01
      3.971  0.2354E-01  0.1163E+01
      4.025  0.2809E-01  0.1165E+01
      4.079  0.3003E-01  0.1167E+01
      4.132  0.2734E-01  0.1168E+01
      4.186  0.2429E-01  0.1169E+01
      4.240  0.2210E-01  0.1171E+01
      4.293  0.1800E-01  0.1171E+01
      4.347  0.1526E-01  0.1172E+01
      4.401  0.1990E-01  0.1173E+01
      4.454  0.2867E-01  0.1175E+01
      4.508  0.3449E-01  0.1177E+01
      4.562  0.3962E-01  0.1179E+01
      4.615  0.4831E-01  0.1181E+01
      4.669  0.5523E-01  0.1184E+01
      4.723  0.5544E-01  0.1187E+01
      4.776  0.5255E-01  0.1190E+01
      4.830  0.5117E-01  0.1193E+01
      4.884  0.5278E-01  0.1196E+01
      4.937  0.5663E-01  0.1199E+01
      4.991  0.6078E-01  0.1202E+01
      5.045  0.6282E-01  0.1205E+01
      5.098  0.6061E-01  0.1209E+01
      5.152  0.5600E-01  0.1212E+01
      5.206  0.5518E-01  0.1215E+01
      5.259  0.5625E-01  0.1218E+01
      5.313  0.4967E-01  0.1220E+01
      5.367  0.3523E-01  0.1222E+01
      5.420  0.2012E-01  0.1223E+01
      5.474  0.8831E-02  0.1224E+01
      5.528  0.2693E-02  0.1224E+01
      5.581  0.5243E-03  0.1224E+01
      5.635  0.6202E-04  0.1224E+01
      5.689  0.4345E-05  0.1224E+01
      5.742  0.1779E-06  0.1224E+01
      5.796  0.4222E-08  0.1224E+01
      5.850  0.5775E-10  0.1224E+01
      5.903  0.4536E-12  0.1224E+01
      5.957  0.2040E-14  0.1224E+01
      6.011  0.4137E-17  0.1224E+01
      6.064  0.0000E+00  0.1224E+01
      6.118  0.0000E+00  0.1224E+01
      6.172  0.0000E+00  0.1224E+01
      6.225  0.0000E+00  0.1224E+01
      6.279  0.0000E+00  0.1224E+01
      6.333  0.0000E+00  0.1224E+01
      6.386  0.0000E+00  0.1224E+01
