unknown system                          
           1
    11.002582    0.000000    0.000000
     5.501291    9.528515    0.000000
     0.000000    0.000000   24.491785
   Au   Pd
  24  24
Direct configuration=     1
   0.08333333  0.08333333  0.40830017
   0.41666667  0.66666667  0.50000000
   0.50000000  0.00000000  0.59169983
   0.58333333  0.83333333  0.40830017
   0.41666667  0.91666667  0.50000000
   0.50000000  0.75000000  0.59169983
   0.33333333  0.83333333  0.40830017
   0.25000000  0.50000000  0.59169983
   0.16666667  0.66666667  0.50000000
   0.83333333  0.08333333  0.40830017
   0.25000000  0.25000000  0.59169983
   0.16666667  0.41666667  0.50000000
   0.83333333  0.33333333  0.40830017
   0.50000000  0.25000000  0.59169983
   0.91666667  0.91666667  0.50000000
   0.75000000  0.25000000  0.59169983
   0.83333333  0.58333333  0.40830017
   0.66666667  0.66666667  0.50000000
   0.75000000  0.50000000  0.59169983
   0.91666667  0.41666667  0.50000000
   0.08333333  0.33333333  0.40830017
   0.00000000  0.00000000  0.59169983
   0.91666667  0.16666667  0.50000000
   0.33333333  0.08333333  0.40830017
   0.58333333  0.58333333  0.40830017
   0.66666667  0.16666667  0.50000000
   0.66666667  0.41666667  0.50000000
   0.83333333  0.83333333  0.40830017
   0.50000000  0.50000000  0.59169983
   0.75000000  0.00000000  0.59169983
   0.25000000  0.75000000  0.59169983
   0.58333333  0.33333333  0.40830017
   0.00000000  0.25000000  0.59169983
   0.08333333  0.58333333  0.40830017
   0.91666667  0.66666667  0.50000000
   0.00000000  0.50000000  0.59169983
   0.08333333  0.83333333  0.40830017
   0.00000000  0.75000000  0.59169983
   0.41666667  0.41666667  0.50000000
   0.16666667  0.16666667  0.50000000
   0.33333333  0.33333333  0.40830017
   0.33333333  0.58333333  0.40830017
   0.16666667  0.91666667  0.50000000
   0.66666667  0.91666667  0.50000000
   0.58333333  0.08333333  0.40830017
   0.41666667  0.16666667  0.50000000
   0.25000000  0.00000000  0.59169983
   0.75000000  0.75000000  0.59169983
Direct configuration=     2
   0.08395629  0.08214382  0.40631727
   0.41652634  0.66464751  0.49996953
   0.50102084 -0.00036081  0.59348557
   0.58442671  0.83370564  0.40610264
   0.41504703  0.91880830  0.50041928
   0.49917759  0.75000747  0.59417170
   0.33276816  0.83206553  0.40606461
   0.24967871  0.50134805  0.59387293
   0.16635978  0.66719864  0.49962548
   0.83200911  0.08283489  0.40616766
   0.24879959  0.24946862  0.59355179
   0.16724814  0.41660171  0.49963016
   0.83111307  0.33439760  0.40607159
   0.50081230  0.24994464  0.59327290
   0.91574153  0.91539149  0.49999721
   0.74929567  0.25042675  0.59358443
   0.83361168  0.58440412  0.40607052
   0.66768499  0.66661379  0.50003503
   0.75048452  0.49973554  0.59385376
   0.91736250  0.41644847  0.50080285
   0.08449595  0.33359317  0.40608473
   0.00131492 -0.00098048  0.59382563
   0.91705823  0.16692468  0.50040626
   0.33388276  0.08461169  0.40640782
   0.58290197  0.58254471  0.40703222
   0.66488998  0.16722518  0.49972689
   0.66501864  0.41640403  0.49976092
   0.83367055  0.83310324  0.40734309
   0.49969508  0.50009650  0.59275534
   0.75010230 -0.00071391  0.59261858
   0.24991880  0.75021197  0.59292586
   0.58247888  0.33368593  0.40764053
   0.00076558  0.24976749  0.59290384
   0.08353077  0.58403181  0.40716439
   0.91626538  0.66766410  0.50023296
  -0.00068636  0.50080691  0.59286361
   0.08356714  0.83252102  0.40710758
  -0.00073289  0.74992226  0.59283032
   0.41820062  0.41566709  0.49937479
   0.16708374  0.16591396  0.50050187
   0.33420457  0.33356786  0.40745073
   0.33347295  0.58271509  0.40719704
   0.16684743  0.91666793  0.50026789
   0.66744612  0.91732768  0.49999827
   0.58330476  0.08379606  0.40761185
   0.41778290  0.16678326  0.49949253
   0.24916444  0.00015855  0.59271060
   0.75123024  0.75015046  0.59269694
Direct configuration=     3
   0.08582518  0.07857530  0.40036857
   0.41610537  0.65859003  0.49987812
   0.50408335 -0.00144325  0.59884279
   0.58770683  0.83482255  0.39951007
   0.41018813  0.92523320  0.50167713
   0.49671036  0.75002988  0.60158730
   0.33107263  0.82826213  0.39935792
   0.24871483  0.50539218  0.60039222
   0.16543914  0.66879455  0.49850193
   0.82803643  0.08133955  0.39977014
   0.24519838  0.24787449  0.59910766
   0.16899257  0.41640684  0.49852065
   0.82445229  0.33759042  0.39938583
   0.50324919  0.24977854  0.59799209
   0.91296611  0.91156595  0.49998885
   0.74718269  0.25170699  0.59923822
   0.83444672  0.58761650  0.39938158
   0.67073995  0.66645514  0.50014011
   0.75193808  0.49894214  0.60031555
   0.91944998  0.41579386  0.50321139
   0.08798382  0.33437266  0.39943841
   0.00525967 -0.00392192  0.60020303
   0.91823291  0.16769873  0.50162506
   0.33553105  0.08844677  0.40073075
   0.58160786  0.58017885  0.40322839
   0.65955990  0.16890070  0.49890756
   0.66007455  0.41561611  0.49904368
   0.83468218  0.83241297  0.40447186
   0.49878032  0.50038599  0.59592186
   0.75040921 -0.00285562  0.59537481
   0.24967520  0.75084787  0.59660395
   0.57991552  0.33474373  0.40566162
   0.00306230  0.24906997  0.59651587
   0.08412306  0.58612725  0.40375707
   0.91506153  0.67065639  0.50093185
  -0.00274544  0.50322764  0.59635494
   0.08426857  0.83008407  0.40352979
  -0.00293156  0.74968904  0.59622177
   0.42280247  0.41266837  0.49749918
   0.16833494  0.16365585  0.50200750
   0.33681828  0.33427142  0.40490242
   0.33389180  0.58086037  0.40388767
   0.16738973  0.91667172  0.50107155
   0.66978449  0.91931072  0.49999309
   0.58321905  0.08518426  0.40554689
   0.42113162  0.16713306  0.49797011
   0.24665777  0.00063422  0.59574292
   0.75492097  0.75060183  0.59568827
Direct configuration=     4
   0.08431866  0.08011081  0.39901980
   0.41675865  0.66241886  0.49999051
   0.50353798 -0.00156587  0.60038723
   0.58553623  0.83525931  0.39804858
   0.41361713  0.92153251  0.50121773
   0.49743740  0.74995084  0.60333358
   0.33321459  0.82806809  0.39778201
   0.24847097  0.50447806  0.60189312
   0.16588979  0.66739366  0.49900009
   0.82929449  0.08143301  0.39824848
   0.24683188  0.24908962  0.60054914
   0.16984648  0.41598740  0.49897800
   0.82675640  0.33647205  0.39790278
   0.50070801  0.25044752  0.59934798
   0.91390096  0.91617214  0.49999499
   0.74911652  0.25051279  0.60072346
   0.83541978  0.58561539  0.39770007
   0.66804413  0.66765464  0.50004089
   0.75083242  0.49995781  0.60220494
   0.91861086  0.41619174  0.50247873
   0.08591692  0.33499526  0.39773570
   0.00328953 -0.00355942  0.60198768
   0.91657349  0.16658670  0.50121035
   0.33592108  0.08659660  0.39911512
   0.58102386  0.58224527  0.40230032
   0.66295734  0.16803813  0.49930966
   0.66416348  0.41421896  0.49947240
   0.83547187  0.83248942  0.40321579
   0.49873973  0.50087374  0.59700367
   0.75177691 -0.00216311  0.59638178
   0.24963689  0.75048460  0.59759156
   0.58013920  0.33423144  0.40409806
   0.00147749  0.24896132  0.59813780
   0.08448880  0.58594395  0.40259457
   0.91585933  0.66749158  0.50058910
  -0.00139873  0.50298904  0.59754335
   0.08299946  0.83092013  0.40242591
  -0.00201758  0.74980027  0.59745647
   0.41996621  0.41243019  0.49835173
   0.16769174  0.16597011  0.50115801
   0.33654221  0.33533828  0.40349709
   0.33336242  0.58048309  0.40239380
   0.16653499  0.91630934  0.50068031
   0.66614464  0.91917877  0.49987947
   0.58339562  0.08493101  0.40425716
   0.41957795  0.16723700  0.49874323
   0.24792084 -0.00037003  0.59726241
   0.75370099  0.75016798  0.59676537
Direct configuration=     5
   0.08366846  0.08077352  0.39843769
   0.41704060  0.66407134  0.50003901
   0.50330260 -0.00161879  0.60105378
   0.58459943  0.83544782  0.39741782
   0.41509704  0.91993534  0.50101946
   0.49775118  0.74991673  0.60408726
   0.33413903  0.82798435  0.39710187
   0.24836572  0.50408353  0.60254088
   0.16608428  0.66678905  0.49921509
   0.82983746  0.08147335  0.39759176
   0.24753688  0.24961406  0.60117127
   0.17021501  0.41580637  0.49917539
   0.82775082  0.33598938  0.39726272
   0.49961126  0.25073624  0.59993316
   0.91430443  0.91816011  0.49999765
   0.74995113  0.24999739  0.60136447
   0.83583975  0.58475174  0.39697434
   0.66688065  0.66817232  0.49999806
   0.75035523  0.50039616  0.60302038
   0.91824870  0.41636346  0.50216252
   0.08502488  0.33526396  0.39700083
   0.00243924 -0.00340297  0.60275792
   0.91585731  0.16610675  0.50103137
   0.33608941  0.08579809  0.39841784
   0.58077181  0.58313711  0.40189978
   0.66442364  0.16766585  0.49948320
   0.66592821  0.41361597  0.49965743
   0.83581269  0.83252241  0.40267369
   0.49872221  0.50108424  0.59747057
   0.75236719 -0.00186422  0.59681637
   0.24962036  0.75032782  0.59801779
   0.58023574  0.33401034  0.40342325
   0.00079351  0.24891443  0.59883781
   0.08464665  0.58586485  0.40209286
   0.91620364  0.66612569  0.50044117
  -0.00081751  0.50288606  0.59805625
   0.08245172  0.83128096  0.40194948
  -0.00162312  0.74984827  0.59798935
   0.41874212  0.41232740  0.49871968
   0.16741414  0.16696892  0.50079138
   0.33642306  0.33579873  0.40289056
   0.33313394  0.58032027  0.40174906
   0.16616609  0.91615293  0.50051146
   0.66457374  0.91912182  0.49983043
   0.58347182  0.08482171  0.40370053
   0.41890740  0.16728187  0.49907690
   0.24846597 -0.00080345  0.59791821
   0.75317446  0.74998073  0.59723023
Direct configuration=     6
   0.08370157  0.08124902  0.39829096
   0.41728980  0.66426720  0.50001328
   0.50293742 -0.00161590  0.60141410
   0.58501501  0.83466872  0.39708793
   0.41427806  0.91979662  0.50083853
   0.49825011  0.74994694  0.60458106
   0.33349674  0.82910573  0.39682207
   0.24839075  0.50377691  0.60292054
   0.16630504  0.66670500  0.49949207
   0.83032761  0.08208762  0.39719774
   0.24747947  0.24965726  0.60138397
   0.16944114  0.41530724  0.49935109
   0.82854474  0.33565191  0.39708554
   0.49975099  0.25077807  0.60017427
   0.91413039  0.91720874  0.49996581
   0.74959602  0.25012846  0.60172415
   0.83508318  0.58476101  0.39668860
   0.66707318  0.66728712  0.49991049
   0.75036217  0.50067581  0.60341592
   0.91744393  0.41624992  0.50181766
   0.08499691  0.33476412  0.39668291
   0.00244644 -0.00320861  0.60321615
   0.91666898  0.16652227  0.50078764
   0.33498288  0.08576156  0.39818619
   0.58164763  0.58306402  0.40201622
   0.66447649  0.16768897  0.49969881
   0.66637002  0.41419357  0.49984667
   0.83526682  0.83247523  0.40263580
   0.49906823  0.50078365  0.59751362
   0.75208906 -0.00158699  0.59686347
   0.24963476  0.75016802  0.59806811
   0.58103647  0.33410380  0.40324896
   0.00087269  0.24893367  0.59890985
   0.08470430  0.58541392  0.40191837
   0.91575680  0.66690953  0.50012933
  -0.00053775  0.50206362  0.59820902
   0.08277157  0.83171865  0.40187102
  -0.00143595  0.74998124  0.59799688
   0.41919080  0.41343744  0.49928904
   0.16743134  0.16673250  0.50043525
   0.33562884  0.33531788  0.40247802
   0.33309119  0.58100325  0.40162568
   0.16642504  0.91686928  0.50025207
   0.66515308  0.91866141  0.49976423
   0.58356898  0.08465182  0.40353861
   0.41850911  0.16652901  0.49945948
   0.24871382 -0.00053157  0.59793675
   0.75257414  0.74988535  0.59724610
Direct configuration=     7
   0.08371767  0.08148025  0.39821961
   0.41741098  0.66436245  0.50000078
   0.50275985 -0.00161450  0.60158931
   0.58521710  0.83428986  0.39692751
   0.41387980  0.91972916  0.50075055
   0.49849273  0.74996163  0.60482119
   0.33318441  0.82965104  0.39668600
   0.24840292  0.50362780  0.60310516
   0.16641240  0.66666413  0.49962676
   0.83056596  0.08238633  0.39700613
   0.24745155  0.24967827  0.60148740
   0.16906482  0.41506451  0.49943653
   0.82893082  0.33548781  0.39699939
   0.49981894  0.25079841  0.60029152
   0.91404576  0.91674611  0.49995033
   0.74942334  0.25019220  0.60189906
   0.83471527  0.58476552  0.39654965
   0.66716680  0.66685665  0.49986791
   0.75036555  0.50081180  0.60360826
   0.91705259  0.41619471  0.50164997
   0.08498330  0.33452106  0.39652830
   0.00244994 -0.00311409  0.60343898
   0.91706368  0.16672433  0.50066911
   0.33444479  0.08574380  0.39807354
   0.58207352  0.58302848  0.40207284
   0.66450219  0.16770022  0.49980366
   0.66658487  0.41447445  0.49993869
   0.83500137  0.83245228  0.40261737
   0.49923650  0.50063748  0.59753455
   0.75195381 -0.00145217  0.59688637
   0.24964176  0.75009031  0.59809257
   0.58142585  0.33414924  0.40316420
   0.00091119  0.24894303  0.59894489
   0.08473233  0.58519464  0.40183351
   0.91553951  0.66729070  0.49997768
  -0.00040171  0.50166368  0.59828330
   0.08292711  0.83193149  0.40183286
  -0.00134494  0.75004590  0.59800054
   0.41940898  0.41397724  0.49956590
   0.16743970  0.16661753  0.50026207
   0.33524262  0.33508405  0.40227740
   0.33307040  0.58133538  0.40156569
   0.16655096  0.91721763  0.50012593
   0.66543480  0.91843751  0.49973204
   0.58361622  0.08456920  0.40345986
   0.41831543  0.16616291  0.49964553
   0.24883435 -0.00039935  0.59794576
   0.75228221  0.74983896  0.59725381
Direct configuration=     8
   0.08363443  0.08156516  0.39806443
   0.41724301  0.66447190  0.49997826
   0.50267268 -0.00153463  0.60172692
   0.58507940  0.83435345  0.39674051
   0.41401618  0.91957039  0.50065052
   0.49836464  0.75000442  0.60513485
   0.33311909  0.82989134  0.39650268
   0.24836615  0.50357959  0.60335702
   0.16662403  0.66650129  0.49970365
   0.83061762  0.08239658  0.39686112
   0.24734522  0.24948490  0.60156512
   0.16885596  0.41511171  0.49945300
   0.82914460  0.33554581  0.39687355
   0.50001515  0.25059706  0.60041964
   0.91419571  0.91664451  0.49988754
   0.74941565  0.25033433  0.60205176
   0.83473269  0.58470220  0.39634200
   0.66739626  0.66697036  0.49988023
   0.75072856  0.50055436  0.60385502
   0.91700123  0.41646814  0.50150452
   0.08477495  0.33478752  0.39629872
   0.00268855 -0.00297084  0.60360386
   0.91733515  0.16624297  0.50063871
   0.33473160  0.08547973  0.39800353
   0.58220089  0.58291550  0.40223402
   0.66422288  0.16798871  0.49985266
   0.66647897  0.41445901  0.50008824
   0.83486030  0.83262490  0.40260124
   0.49937719  0.50075458  0.59755799
   0.75169263 -0.00154808  0.59682538
   0.24988317  0.75013527  0.59799678
   0.58133401  0.33441970  0.40337696
   0.00095570  0.24894960  0.59877144
   0.08474185  0.58499620  0.40189757
   0.91535272  0.66723242  0.49980532
  -0.00063795  0.50147658  0.59816497
   0.08294540  0.83204320  0.40195207
  -0.00155401  0.74998842  0.59788097
   0.41963201  0.41399208  0.49970400
   0.16747264  0.16652335  0.50010434
   0.33525115  0.33479562  0.40239873
   0.33328495  0.58153391  0.40172037
   0.16619855  0.91741447  0.50002913
   0.66529407  0.91823248  0.49970596
   0.58335188  0.08472451  0.40359563
   0.41842880  0.16608736  0.49978855
   0.24877553 -0.00028759  0.59777802
   0.75235815  0.74979555  0.59707249
Direct configuration=     9
   0.08353286  0.08166878  0.39787507
   0.41703805  0.66460546  0.49995078
   0.50256633 -0.00143719  0.60189483
   0.58491138  0.83443105  0.39651234
   0.41418259  0.91937665  0.50052848
   0.49820836  0.75005663  0.60551758
   0.33303938  0.83018454  0.39627899
   0.24832129  0.50352078  0.60366433
   0.16688226  0.66630259  0.49979747
   0.83068066  0.08240910  0.39668417
   0.24721547  0.24924896  0.60165994
   0.16860112  0.41516930  0.49947310
   0.82940546  0.33561657  0.39672001
   0.50025457  0.25035138  0.60057596
   0.91437869  0.91652054  0.49981092
   0.74940626  0.25050775  0.60223808
   0.83475394  0.58462495  0.39608863
   0.66767625  0.66710911  0.49989527
   0.75117150  0.50024023  0.60415610
   0.91693857  0.41680178  0.50132705
   0.08452071  0.33511265  0.39601858
   0.00297969 -0.00279604  0.60380505
   0.91766639  0.16565562  0.50060162
   0.33508157  0.08515752  0.39791811
   0.58235630  0.58277764  0.40243068
   0.66388207  0.16834072  0.49991246
   0.66634976  0.41444017  0.50027072
   0.83468817  0.83283553  0.40258157
   0.49954885  0.50089747  0.59758659
   0.75137394 -0.00166510  0.59675097
   0.25017773  0.75019013  0.59787990
   0.58122194  0.33474971  0.40363657
   0.00101001  0.24895761  0.59855981
   0.08475346  0.58475406  0.40197573
   0.91512479  0.66716130  0.49959500
  -0.00092619  0.50124828  0.59802059
   0.08296772  0.83217951  0.40209754
  -0.00180912  0.74991828  0.59773507
   0.41990414  0.41401018  0.49987251
   0.16751283  0.16640842  0.49991189
   0.33526156  0.33444368  0.40254677
   0.33354674  0.58177617  0.40190911
   0.16576855  0.91765466  0.49991102
   0.66512235  0.91798229  0.49967413
   0.58302933  0.08491401  0.40376130
   0.41856713  0.16599518  0.49996306
   0.24870376 -0.00015121  0.59757335
   0.75245082  0.74974259  0.59685124
Direct configuration=    10
   0.08351658  0.08180097  0.39766690
   0.41707993  0.66484262  0.49996664
   0.50251703 -0.00156340  0.60199142
   0.58497224  0.83436536  0.39630820
   0.41427228  0.91921671  0.50047143
   0.49824163  0.75007173  0.60582055
   0.33310338  0.83014890  0.39607980
   0.24829066  0.50346299  0.60390561
   0.16691967  0.66603683  0.49987971
   0.83041217  0.08254976  0.39657575
   0.24720779  0.24923570  0.60170483
   0.16881880  0.41514748  0.49949776
   0.82935790  0.33563742  0.39660438
   0.50022752  0.25038051  0.60072881
   0.91418451  0.91656577  0.49979533
   0.74957741  0.25038072  0.60236712
   0.83463426  0.58489248  0.39582711
   0.66745336  0.66714395  0.49994271
   0.75123834  0.50023050  0.60438943
   0.91685862  0.41663314  0.50117610
   0.08469312  0.33505871  0.39576201
   0.00296546 -0.00284899  0.60393022
   0.91738684  0.16573892  0.50058872
   0.33510408  0.08522736  0.39785008
   0.58240752  0.58282627  0.40261870
   0.66395859  0.16828016  0.49997247
   0.66659775  0.41432026  0.50045285
   0.83458591  0.83298589  0.40254521
   0.49959581  0.50100678  0.59764962
   0.75143542 -0.00170779  0.59664060
   0.25025678  0.75025630  0.59776733
   0.58119552  0.33486651  0.40389719
   0.00098596  0.24891643  0.59830746
   0.08487936  0.58480578  0.40208289
   0.91527019  0.66716136  0.49940101
  -0.00094267  0.50118712  0.59785560
   0.08298523  0.83207634  0.40222177
  -0.00189006  0.74990045  0.59757018
   0.41971585  0.41387194  0.50001937
   0.16758956  0.16642666  0.49969134
   0.33530470  0.33441218  0.40280386
   0.33360680  0.58181731  0.40211126
   0.16576145  0.91751954  0.49982426
   0.66499515  0.91807486  0.49962984
   0.58297741  0.08508241  0.40395681
   0.41854101  0.16612479  0.50012138
   0.24875177 -0.00022901  0.59734683
   0.75240143  0.74966133  0.59668155
Direct configuration=    11
   0.08349482  0.08197752  0.39738889
   0.41713587  0.66515936  0.49998783
   0.50245119 -0.00173197  0.60212043
   0.58505351  0.83427762  0.39603556
   0.41439207  0.91900310  0.50039525
   0.49828607  0.75009189  0.60622518
   0.33318886  0.83010130  0.39581376
   0.24824976  0.50338582  0.60422784
   0.16696964  0.66568188  0.49998955
   0.83005358  0.08273763  0.39643095
   0.24719753  0.24921799  0.60176477
   0.16910951  0.41511834  0.49953070
   0.82929438  0.33566527  0.39644994
   0.50019139  0.25041941  0.60093295
   0.91392516  0.91662618  0.49977450
   0.74980599  0.25021106  0.60253946
   0.83447442  0.58524979  0.39547783
   0.66715566  0.66719047  0.50000608
   0.75132760  0.50021750  0.60470105
   0.91675184  0.41640791  0.50097451
   0.08492338  0.33498667  0.39541933
   0.00294646 -0.00291971  0.60409739
   0.91701349  0.16585017  0.50057148
   0.33513414  0.08532064  0.39775922
   0.58247593  0.58289122  0.40286981
   0.66406080  0.16819928  0.50005261
   0.66692895  0.41416012  0.50069609
   0.83444933  0.83318670  0.40249665
   0.49965854  0.50115277  0.59773380
   0.75151752 -0.00176481  0.59649320
   0.25036234  0.75034467  0.59761700
   0.58116024  0.33502249  0.40424526
   0.00095384  0.24886144  0.59797044
   0.08504752  0.58487486  0.40222601
   0.91546438  0.66716145  0.49914193
  -0.00096468  0.50110543  0.59763524
   0.08300862  0.83193855  0.40238770
  -0.00199816  0.74987663  0.59734996
   0.41946437  0.41368732  0.50021552
   0.16769204  0.16645102  0.49939678
   0.33536231  0.33437011  0.40314723
   0.33368702  0.58187226  0.40238126
   0.16575197  0.91733908  0.49970838
   0.66482525  0.91819849  0.49957069
   0.58290805  0.08530732  0.40421794
   0.41850613  0.16629790  0.50033284
   0.24881587 -0.00033293  0.59704429
   0.75233547  0.74955279  0.59645491
Direct configuration=    12
   0.08345132  0.08233062  0.39683286
   0.41724775  0.66579285  0.50003020
   0.50231952 -0.00206911  0.60237845
   0.58521605  0.83410215  0.39549028
   0.41463166  0.91857588  0.50024288
   0.49837494  0.75013222  0.60703445
   0.33335980  0.83000610  0.39528168
   0.24816796  0.50323147  0.60487231
   0.16706957  0.66497199  0.50020924
   0.82933641  0.08311337  0.39614135
   0.24717703  0.24918256  0.60188466
   0.16969095  0.41506006  0.49959657
   0.82916733  0.33572097  0.39614105
   0.50011912  0.25049721  0.60134124
   0.91340646  0.91674700  0.49973284
   0.75026315  0.24987174  0.60288415
   0.83415473  0.58596442  0.39477928
   0.66656028  0.66728351  0.50013283
   0.75150614  0.50019151  0.60532429
   0.91653829  0.41595745  0.50057131
   0.08538390  0.33484260  0.39473399
   0.00290846 -0.00306114  0.60443174
   0.91626679  0.16607267  0.50053701
   0.33519426  0.08550721  0.39757751
   0.58261275  0.58302111  0.40337203
   0.66426522  0.16803753  0.50021290
   0.66759137  0.41383982  0.50118257
   0.83417617  0.83358832  0.40239954
   0.49978399  0.50144475  0.59790217
   0.75168172 -0.00187885  0.59619840
   0.25057348  0.75052141  0.59731632
   0.58108968  0.33533446  0.40494141
   0.00088958  0.24875145  0.59729639
   0.08538384  0.58501302  0.40251226
   0.91585276  0.66716161  0.49862376
  -0.00100870  0.50094206  0.59719452
   0.08305540  0.83166297  0.40271955
  -0.00221437  0.74982900  0.59690952
   0.41896142  0.41331807  0.50060782
   0.16789701  0.16649974  0.49880766
   0.33547754  0.33428598  0.40383397
   0.33384745  0.58198216  0.40292124
   0.16573301  0.91697816  0.49947663
   0.66448547  0.91844575  0.49945238
   0.58276935  0.08575713  0.40474020
   0.41843636  0.16664411  0.50075575
   0.24894409 -0.00054077  0.59643921
   0.75220356  0.74933573  0.59600164
Direct configuration=    13
   0.08347858  0.08210939  0.39718123
   0.41717766  0.66539594  0.50000365
   0.50240202 -0.00185788  0.60221679
   0.58511421  0.83421209  0.39583193
   0.41448155  0.91884355  0.50033835
   0.49831926  0.75010695  0.60652741
   0.33325270  0.83006575  0.39561505
   0.24821922  0.50332818  0.60446852
   0.16700696  0.66541677  0.50007160
   0.82978575  0.08287795  0.39632280
   0.24718988  0.24920475  0.60180955
   0.16932665  0.41509657  0.49955530
   0.82924693  0.33568607  0.39633458
   0.50016440  0.25044846  0.60108543
   0.91373145  0.91667130  0.49975894
   0.74997672  0.25008434  0.60266819
   0.83435503  0.58551667  0.39521695
   0.66693331  0.66722522  0.50005342
   0.75139428  0.50020779  0.60493380
   0.91667209  0.41623968  0.50082393
   0.08509536  0.33493287  0.39516339
   0.00293227 -0.00297253  0.60422225
   0.91673463  0.16593326  0.50055861
   0.33515659  0.08539032  0.39769136
   0.58252702  0.58293972  0.40305737
   0.66413714  0.16813888  0.50011247
   0.66717634  0.41404050  0.50087777
   0.83434732  0.83333669  0.40246038
   0.49970539  0.50126181  0.59779668
   0.75157884 -0.00180740  0.59638311
   0.25044119  0.75041068  0.59750471
   0.58113389  0.33513900  0.40450524
   0.00092984  0.24882036  0.59771871
   0.08517312  0.58492646  0.40233291
   0.91560943  0.66716151  0.49894842
  -0.00098112  0.50104442  0.59747065
   0.08302609  0.83183563  0.40251163
  -0.00207891  0.74985885  0.59718547
   0.41927654  0.41354942  0.50036203
   0.16776859  0.16646921  0.49917677
   0.33540534  0.33433869  0.40340370
   0.33374693  0.58191330  0.40258292
   0.16574489  0.91720430  0.49962183
   0.66469836  0.91829083  0.49952650
   0.58285625  0.08547530  0.40441298
   0.41848007  0.16642719  0.50049077
   0.24886376 -0.00041055  0.59681832
   0.75228621  0.74947173  0.59628564
Direct configuration=    14
   0.08341124  0.08204548  0.39693464
   0.41722239  0.66518738  0.50011188
   0.50247110 -0.00198217  0.60226783
   0.58510285  0.83434852  0.39561956
   0.41440656  0.91909384  0.50024936
   0.49845884  0.75003280  0.60686184
   0.33326512  0.82999718  0.39537121
   0.24820902  0.50342351  0.60473572
   0.16706061  0.66546968  0.50023507
   0.82971605  0.08299243  0.39624650
   0.24719827  0.24920810  0.60181988
   0.16916321  0.41489454  0.49963662
   0.82910492  0.33582336  0.39622347
   0.50016226  0.25054999  0.60128990
   0.91362958  0.91677739  0.49972156
   0.75005066  0.24990975  0.60283215
   0.83449753  0.58555836  0.39492984
   0.66708708  0.66707666  0.50012739
   0.75131695  0.50028629  0.60513685
   0.91672917  0.41625070  0.50058634
   0.08512787  0.33510140  0.39488285
   0.00290466 -0.00321261  0.60431200
   0.91669066  0.16585116  0.50047290
   0.33522273  0.08544611  0.39762442
   0.58258155  0.58304417  0.40324593
   0.66421176  0.16806294  0.50025616
   0.66706966  0.41412698  0.50113365
   0.83426866  0.83346611  0.40238316
   0.49967264  0.50123386  0.59788082
   0.75161349 -0.00174977  0.59629624
   0.25037988  0.75037130  0.59740840
   0.58117149  0.33522180  0.40480469
   0.00100391  0.24869959  0.59742196
   0.08524183  0.58499265  0.40240063
   0.91556777  0.66694527  0.49872515
  -0.00087158  0.50106347  0.59723762
   0.08298658  0.83193572  0.40262295
  -0.00198097  0.74977222  0.59700848
   0.41936206  0.41362563  0.50064542
   0.16769892  0.16649394  0.49887614
   0.33548185  0.33455757  0.40368179
   0.33374058  0.58182994  0.40281186
   0.16567079  0.91717010  0.49948006
   0.66456032  0.91835643  0.49946701
   0.58281836  0.08550877  0.40461391
   0.41847308  0.16625626  0.50072678
   0.24887199 -0.00049197  0.59653168
   0.75219604  0.74937717  0.59610974
Direct configuration=    15
   0.08327517  0.08191633  0.39643626
   0.41731279  0.66476590  0.50033060
   0.50261072 -0.00223335  0.60237098
   0.58507989  0.83462422  0.39519036
   0.41425502  0.91959966  0.50006952
   0.49874094  0.74988293  0.60753773
   0.33329023  0.82985860  0.39487841
   0.24818842  0.50361617  0.60527571
   0.16716905  0.66557662  0.50056544
   0.82957518  0.08322380  0.39609232
   0.24721522  0.24921485  0.60184077
   0.16883290  0.41448623  0.49980096
   0.82881791  0.33610082  0.39599893
   0.50015793  0.25075516  0.60170313
   0.91342372  0.91699178  0.49964600
   0.75020010  0.24955692  0.60316351
   0.83478553  0.58564262  0.39434958
   0.66739785  0.66677644  0.50027689
   0.75116067  0.50044492  0.60554720
   0.91684454  0.41627298  0.50010618
   0.08519355  0.33544200  0.39431588
   0.00284885 -0.00369782  0.60449339
   0.91660179  0.16568524  0.50029968
   0.33535639  0.08555886  0.39748913
   0.58269174  0.58325525  0.40362701
   0.66436255  0.16790947  0.50054654
   0.66685406  0.41430176  0.50165077
   0.83410970  0.83372768  0.40222709
   0.49960646  0.50117738  0.59805086
   0.75168352 -0.00163330  0.59612069
   0.25025597  0.75029171  0.59721378
   0.58124750  0.33538914  0.40540987
   0.00115359  0.24845553  0.59682223
   0.08538068  0.58512641  0.40253748
   0.91548359  0.66650825  0.49827394
  -0.00065018  0.50110197  0.59676666
   0.08290672  0.83213799  0.40284792
  -0.00178305  0.74959716  0.59665078
   0.41953490  0.41377965  0.50121816
   0.16755812  0.16654390  0.49826858
   0.33563647  0.33499993  0.40424380
   0.33372774  0.58166146  0.40327456
   0.16552102  0.91710099  0.49919355
   0.66428133  0.91848902  0.49934679
   0.58274180  0.08557641  0.40501997
   0.41845893  0.16591080  0.50120373
   0.24888864 -0.00065652  0.59595240
   0.75201381  0.74918606  0.59575425
Direct configuration=    16
   0.08330560  0.08194522  0.39654771
   0.41729258  0.66486016  0.50028169
   0.50257950 -0.00217718  0.60234791
   0.58508502  0.83456256  0.39528634
   0.41428891  0.91948655  0.50010974
   0.49867786  0.74991645  0.60738658
   0.33328461  0.82988959  0.39498861
   0.24819303  0.50357309  0.60515496
   0.16714480  0.66555271  0.50049156
   0.82960668  0.08317206  0.39612680
   0.24721143  0.24921334  0.60183610
   0.16890677  0.41457754  0.49976421
   0.82888210  0.33603877  0.39604914
   0.50015890  0.25070928  0.60161072
   0.91346976  0.91694384  0.49966290
   0.75016668  0.24963583  0.60308941
   0.83472113  0.58562378  0.39447935
   0.66732836  0.66684357  0.50024345
   0.75119562  0.50040944  0.60545543
   0.91681874  0.41626800  0.50021356
   0.08517886  0.33536583  0.39444267
   0.00286133 -0.00358931  0.60445283
   0.91662167  0.16572235  0.50033841
   0.33532650  0.08553364  0.39751939
   0.58266710  0.58320804  0.40354179
   0.66432883  0.16794379  0.50048160
   0.66690227  0.41426267  0.50153513
   0.83414525  0.83366919  0.40226199
   0.49962126  0.50119001  0.59801284
   0.75166786 -0.00165935  0.59615995
   0.25028368  0.75030951  0.59725731
   0.58123050  0.33535172  0.40527454
   0.00112012  0.24851011  0.59695634
   0.08534963  0.58509650  0.40250687
   0.91550241  0.66660598  0.49837484
  -0.00069969  0.50109336  0.59687198
   0.08292457  0.83209276  0.40279761
  -0.00182731  0.74963631  0.59673077
   0.41949625  0.41374521  0.50109008
   0.16758961  0.16653272  0.49840444
   0.33560189  0.33490101  0.40411812
   0.33373061  0.58169913  0.40317109
   0.16555451  0.91711645  0.49925762
   0.66434372  0.91845937  0.49937368
   0.58275892  0.08556128  0.40492917
   0.41846210  0.16598806  0.50109707
   0.24888492 -0.00061972  0.59608194
   0.75205456  0.74922880  0.59583375
Direct configuration=    17
   0.08329560  0.08191585  0.39639198
   0.41736904  0.66494328  0.50041228
   0.50270515 -0.00211577  0.60231547
   0.58505644  0.83462776  0.39524191