<?xml version="1.0" encoding="ISO-8859-1"?>
<modeling>
 <generator>
  <i name="program" type="string">vasp </i>
  <i name="version" type="string">5.4.1  </i>
  <i name="subversion" type="string">24Jun15 (build Mar 14 2019 10:18:33) complex                          parallel </i>
  <i name="platform" type="string">INTEL-19.0.2+OPENMPI-3.1.3 </i>
  <i name="date" type="string">2023 01 31 </i>
  <i name="time" type="string">01:13:08 </i>
 </generator>
 <incar>
  <i type="int" name="ISTART">     0</i>
  <i type="string" name="PREC">normal</i>
  <i type="string" name="ALGO"> Fast</i>
  <i type="int" name="NELM">   500</i>
  <i type="int" name="IBRION">     2</i>
  <i type="int" name="NFREE">     2</i>
  <i name="EDIFF">      0.00000100</i>
  <i name="EDIFFG">     -0.02000000</i>
  <i type="int" name="NSW">   500</i>
  <i type="int" name="ISIF">     0</i>
  <i type="int" name="ISYM">     2</i>
  <i name="ENCUT">    400.00000000</i>
  <i name="POTIM">      0.35000000</i>
  <i type="string" name="LREAL"> Auto</i>
  <i type="logical" name="LPLANE"> T  </i>
  <i type="int" name="ISMEAR">     0</i>
  <i name="SIGMA">      0.10000000</i>
  <i type="int" name="NWRITE">     1</i>
  <i type="logical" name="LWAVE"> F  </i>
  <i type="logical" name="LCHARG"> F  </i>
  <i type="logical" name="LVTOT"> F  </i>
  <i type="logical" name="LORBIT"> F  </i>
  <i type="logical" name="LAECHG"> F  </i>
  <v type="int" name="KPOINT_BSE">    -1     0     0     0</v>
  <i type="int" name="NELM">   500</i>
  <i type="string" name="GGA"> PE          ! optPBE-vdW XC-functional</i>
  <i type="int" name="VOSKOWN">     1</i>
  <i type="logical" name="LDIPOL"> T  </i>
  <i type="logical" name="LMONO"> F  </i>
  <i type="int" name="IDIPOL">     3</i>
  <v name="DIPOL">      0.00000000      0.00000000      0.50000000</v>
 </incar>
 <kpoints>
  <generation param="Monkhorst-Pack">
   <v type="int" name="divisions">       2        2        1 </v>
   <v name="usershift">      0.00000000       0.00000000       0.00000000 </v>
   <v name="genvec1">      0.50000000      -0.00000000       0.00000000 </v>
   <v name="genvec2">      0.00000000       0.50000000       0.00000000 </v>
   <v name="genvec3">      0.00000000       0.00000000       1.00000000 </v>
   <v name="shift">      0.50000000       0.50000000       0.00000000 </v>
  </generation>
  <varray name="kpointlist" >
   <v>       0.25000000       0.25000000       0.00000000 </v>
   <v>       0.00000000       0.25000000       0.00000000 </v>
   <v>      -0.25000000       0.00000000       0.00000000 </v>
   <v>      -0.25000000       0.25000000       0.00000000 </v>
   <v>       0.50000000      -0.25000000       0.00000000 </v>
   <v>      -0.25000000       0.50000000       0.00000000 </v>
  </varray>
  <varray name="weights" >
   <v>       0.16666667 </v>
   <v>       0.16666667 </v>
   <v>       0.16666667 </v>
   <v>       0.16666667 </v>
   <v>       0.16666667 </v>
   <v>       0.16666667 </v>
  </varray>
 </kpoints>
 <parameters>
  <separator name="general" >
   <i type="string" name="SYSTEM">unknown system</i>
   <i type="logical" name="LCOMPAT"> F  </i>
  </separator>
  <separator name="electronic" >
   <i type="string" name="PREC">normal</i>
   <i name="ENMAX">    400.00000000</i>
   <i name="ENAUG">    416.23000000</i>
   <i name="EDIFF">      0.00000100</i>
   <i type="int" name="IALGO">    68</i>
   <i type="int" name="IWAVPR">    11</i>
   <i type="int" name="NBANDS">   306</i>
   <i name="NELECT">    504.00000000</i>
   <i type="int" name="TURBO">     0</i>
   <i type="int" name="IRESTART">     0</i>
   <i type="int" name="NREBOOT">     0</i>
   <i type="int" name="NMIN">     0</i>
   <i name="EREF">      0.00000000</i>
   <separator name="electronic smearing" >
    <i type="int" name="ISMEAR">     0</i>
    <i name="SIGMA">      0.10000000</i>
    <i name="KSPACING">      0.50000000</i>
    <i type="logical" name="KGAMMA"> T  </i>
   </separator>
   <separator name="electronic projectors" >
    <i type="logical" name="LREAL"> T  </i>
    <v name="ROPT">     -0.00050000     -0.00050000</v>
    <i type="int" name="LMAXPAW">  -100</i>
    <i type="int" name="LMAXMIX">     2</i>
    <i type="logical" name="NLSPLINE"> F  </i>
   </separator>
   <separator name="electronic startup" >
    <i type="int" name="ISTART">     0</i>
    <i type="int" name="ICHARG">     2</i>
    <i type="int" name="INIWAV">     1</i>
   </separator>
   <separator name="electronic spin" >
    <i type="int" name="ISPIN">     1</i>
    <i type="logical" name="LNONCOLLINEAR"> F  </i>
    <v name="MAGMOM">      1.00000000      1.00000000      1.00000000      1.00000000      1.00000000      1.00000000      1.00000000      1.00000000      1.00000000      1.00000000      1.00000000      1.00000000      1.00000000      1.00000000      1.00000000      1.00000000      1.00000000      1.00000000      1.00000000      1.00000000
      1.00000000      1.00000000      1.00000000      1.00000000      1.00000000      1.00000000      1.00000000      1.00000000      1.00000000      1.00000000      1.00000000      1.00000000      1.00000000      1.00000000      1.00000000      1.00000000      1.00000000      1.00000000      1.00000000      1.00000000
      1.00000000      1.00000000      1.00000000      1.00000000      1.00000000      1.00000000      1.00000000      1.00000000</v>
    <i name="NUPDOWN">     -1.00000000</i>
    <i type="logical" name="LSORBIT"> F  </i>
    <v name="SAXIS">      0.00000000      0.00000000      1.00000000</v>
    <i type="logical" name="LSPIRAL"> F  </i>
    <v name="QSPIRAL">      0.00000000      0.00000000      0.00000000</v>
    <i type="logical" name="LZEROZ"> F  </i>
   </separator>
   <separator name="electronic exchange-correlation" >
    <i type="logical" name="LASPH"> F  </i>
    <i type="logical" name="LMETAGGA"> F  </i>
   </separator>
   <separator name="electronic convergence" >
    <i type="int" name="NELM">   500</i>
    <i type="int" name="NELMDL">    -5</i>
    <i type="int" name="NELMIN">     2</i>
    <i name="ENINI">    400.00000000</i>
    <separator name="electronic convergence detail" >
     <i type="logical" name="LDIAG"> T  </i>
     <i type="logical" name="LSUBROT"> F  </i>
     <i name="WEIMIN">      0.00100000</i>
     <i name="EBREAK">      0.00000000</i>
     <i name="DEPER">      0.30000000</i>
     <i type="int" name="NRMM">     4</i>
     <i name="TIME">      0.40000000</i>
    </separator>
   </separator>
   <separator name="electronic mixer" >
    <i name="AMIX">      0.40000000</i>
    <i name="BMIX">      1.00000000</i>
    <i name="AMIN">      0.10000000</i>
    <i name="AMIX_MAG">      1.60000000</i>
    <i name="BMIX_MAG">      1.00000000</i>
    <separator name="electronic mixer details" >
     <i type="int" name="IMIX">     4</i>
     <i type="logical" name="MIXFIRST"> F  </i>
     <i type="int" name="MAXMIX">   -45</i>
     <i name="WC">    100.00000000</i>
     <i type="int" name="INIMIX">     1</i>
     <i type="int" name="MIXPRE">     1</i>
     <i type="int" name="MREMOVE">     5</i>
    </separator>
   </separator>
   <separator name="electronic dipolcorrection" >
    <i type="logical" name="LDIPOL"> T  </i>
    <i type="logical" name="LMONO"> F  </i>
    <i type="int" name="IDIPOL">     3</i>
    <i name="EPSILON">      1.00000000</i>
    <v name="DIPOL">      0.00000000      0.00000000      0.50000000</v>
    <i name="EFIELD">      0.00000000</i>
   </separator>
  </separator>
  <separator name="grids" >
   <i type="int" name="NGX">    54</i>
   <i type="int" name="NGY">    54</i>
   <i type="int" name="NGZ">   120</i>
   <i type="int" name="NGXF">   108</i>
   <i type="int" name="NGYF">   108</i>
   <i type="int" name="NGZF">   240</i>
   <i type="logical" name="ADDGRID"> F  </i>
  </separator>
  <separator name="ionic" >
   <i type="int" name="NSW">   500</i>
   <i type="int" name="IBRION">     2</i>
   <i type="int" name="ISIF">     0</i>
   <i name="PSTRESS">      0.00000000</i>
   <i name="EDIFFG">     -0.02000000</i>
   <i type="int" name="NFREE">     2</i>
   <i name="POTIM">      0.35000000</i>
   <i name="SMASS">     -3.00000000</i>
   <i name="SCALEE">      1.00000000</i>
  </separator>
  <separator name="ionic md" >
   <i name="TEBEG">      0.00010000</i>
   <i name="TEEND">      0.00010000</i>
   <i type="int" name="NBLOCK">     1</i>
   <i type="int" name="KBLOCK">   500</i>
   <i type="int" name="NPACO">   256</i>
   <i name="APACO">     16.00000000</i>
  </separator>
  <separator name="symmetry" >
   <i type="int" name="ISYM">     2</i>
   <i name="SYMPREC">      0.00001000</i>
  </separator>
  <separator name="dos" >
   <i type="logical" name="LORBIT"> F  </i>
   <v name="RWIGS">     -1.00000000     -1.00000000</v>
   <i type="int" name="NEDOS">   301</i>
   <i name="EMIN">     10.00000000</i>
   <i name="EMAX">    -10.00000000</i>
   <i name="EFERMI">      0.00000000</i>
  </separator>
  <separator name="writing" >
   <i type="int" name="NWRITE">     1</i>
   <i type="logical" name="LWAVE"> F  </i>
   <i type="logical" name="LCHARG"> F  </i>
   <i type="logical" name="LPARD"> F  </i>
   <i type="logical" name="LVTOT"> F  </i>
   <i type="logical" name="LVHAR"> F  </i>
   <i type="logical" name="LELF"> F  </i>
   <i type="logical" name="LOPTICS"> F  </i>
   <v name="STM">      0.00000000      0.00000000      0.00000000      0.00000000      0.00000000      0.00000000      0.00000000</v>
  </separator>
  <separator name="performance" >
   <i type="int" name="NPAR">     6</i>
   <i type="int" name="NSIM">     4</i>
   <i type="int" name="NBLK">    -1</i>
   <i type="logical" name="LPLANE"> T  </i>
   <i type="logical" name="LSCALAPACK"> T  </i>
   <i type="logical" name="LSCAAWARE"> F  </i>
   <i type="logical" name="LSCALU"> F  </i>
   <i type="logical" name="LASYNC"> F  </i>
   <i type="logical" name="LORBITALREAL"> F  </i>
  </separator>
  <separator name="miscellaneous" >
   <i type="int" name="IDIOT">     3</i>
   <i type="logical" name="LMUSIC"> F  </i>
   <v name="POMASS">    196.96600000    106.42000000</v>
   <v name="DARWINR">      0.00000000      0.00000000</v>
   <v name="DARWINV">      1.00000000      1.00000000</v>
   <i type="logical" name="LCORR"> T  </i>
  </separator>
  <i type="logical" name="GGA_COMPAT"> T  </i>
  <i type="logical" name="LBERRY"> F  </i>
  <i type="int" name="ICORELEVEL">     0</i>
  <i type="logical" name="LDAU"> F  </i>
  <i type="int" name="I_CONSTRAINED_M">     0</i>
  <separator name="electronic exchange-correlation" >
   <i type="string" name="GGA">PE</i>
   <i type="int" name="VOSKOWN">     1</i>
   <i type="logical" name="LHFCALC"> F  </i>
   <i type="string" name="PRECFOCK"></i>
   <i type="logical" name="LSYMGRAD"> F  </i>
   <i type="logical" name="LHFONE"> F  </i>
   <i type="logical" name="LRHFCALC"> F  </i>
   <i type="logical" name="LTHOMAS"> F  </i>
   <i type="logical" name="LMODELHF"> F  </i>
   <i name="ENCUT4O">     -1.00000000</i>
   <i type="int" name="EXXOEP">     0</i>
   <i type="int" name="FOURORBIT">     0</i>
   <i name="AEXX">      0.00000000</i>
   <i name="HFALPHA">      0.00000000</i>
   <i name="MCALPHA">      0.00000000</i>
   <i name="ALDAX">      1.00000000</i>
   <i name="AGGAX">      1.00000000</i>
   <i name="ALDAC">      1.00000000</i>
   <i name="AGGAC">      1.00000000</i>
   <i type="int" name="NKREDX">     1</i>
   <i type="int" name="NKREDY">     1</i>
   <i type="int" name="NKREDZ">     1</i>
   <i type="logical" name="SHIFTRED"> F  </i>
   <i type="logical" name="ODDONLY"> F  </i>
   <i type="logical" name="EVENONLY"> F  </i>
   <i type="int" name="LMAXFOCK">     0</i>
   <i type="int" name="NMAXFOCKAE">     0</i>
   <i type="logical" name="LFOCKAEDFT"> F  </i>
   <i name="HFSCREEN">      0.00000000</i>
   <i name="HFSCREENC">      0.00000000</i>
   <i type="int" name="NBANDSGWLOW">     0</i>
  </separator>
  <separator name="vdW DFT" >
   <i type="logical" name="LUSE_VDW"> F  </i>
   <i name="Zab_VDW">     -0.84910000</i>
   <i name="PARAM1">      0.12340000</i>
   <i name="PARAM2">      1.00000000</i>
   <i name="PARAM3">      0.00000000</i>
  </separator>
  <separator name="model GW" >
   <i type="int" name="MODEL_GW">     0</i>
   <i name="MODEL_EPS0">     32.09595293</i>
   <i name="MODEL_ALPHA">      1.00000000</i>
  </separator>
  <separator name="linear response parameters" >
   <i type="logical" name="LEPSILON"> F  </i>
   <i type="logical" name="LRPA"> F  </i>
   <i type="logical" name="LNABLA"> F  </i>
   <i type="logical" name="LVEL"> F  </i>
   <i type="int" name="KINTER">     0</i>
   <i name="CSHIFT">      0.10000000</i>
   <i name="OMEGAMAX">     -1.00000000</i>
   <i name="DEG_THRESHOLD">      0.00200000</i>
  </separator>
  <separator name="orbital magnetization" >
   <i type="logical" name="NUCIND"> F  </i>
   <v name="MAGPOS">      0.00000000      0.00000000      0.00000000</v>
   <i type="logical" name="LNICSALL"> T  </i>
   <i type="logical" name="ORBITALMAG"> F  </i>
   <i type="logical" name="LMAGBLOCH"> F  </i>
   <i type="logical" name="LCHIMAG"> F  </i>
   <i type="logical" name="LGAUGE"> T  </i>
   <i type="int" name="MAGATOM">     0</i>
   <v name="MAGDIPOL">      0.00000000      0.00000000      0.00000000</v>
   <v name="AVECCONST">      0.00000000      0.00000000      0.00000000</v>
  </separator>
  <separator name="response functions" >
   <i type="logical" name="LADDER"> F  </i>
   <i type="logical" name="LFXC"> F  </i>
   <i type="logical" name="LHARTREE"> T  </i>
   <i type="int" name="IBSE">     0</i>
   <v type="int" name="KPOINT">    -1     0     0     0</v>
   <i type="logical" name="LTCTE"> F  </i>
   <i type="logical" name="LTETE"> F  </i>
   <i type="logical" name="LTRIPLET"> F  </i>
   <i type="logical" name="LFXCEPS"> F  </i>
   <i type="logical" name="LFXHEG"> F  </i>
   <i type="int" name="NATURALO">     0</i>
   <i type="logical" name="L2ORDER"> F  </i>
   <i type="logical" name="LUSEW"> F  </i>
   <i name="ENCUTGW">     -2.00000000</i>
   <i name="ENCUTGWSOFT">     -2.00000000</i>
   <i name="ENCUTLF">     -1.00000000</i>
   <i type="int" name="LMAXMP2">    -1</i>
   <i name="SCISSOR">      0.00000000</i>
   <i type="int" name="NOMEGA">     0</i>
   <i type="int" name="NOMEGAR">     0</i>
   <i type="int" name="NBANDSGW">    -1</i>
   <i type="int" name="NBANDSO">    -1</i>
   <i type="int" name="NBANDSV">    -1</i>
   <i type="int" name="NELM">   500</i>
   <i type="int" name="NELMHF">     1</i>
   <i type="int" name="DIM">     3</i>
   <i type="int" name="ANTIRES">     0</i>
   <i name="OMEGAMAX">    -30.00000000</i>
   <i name="OMEGAMIN">    -30.00000000</i>
   <i name="OMEGATL">   -200.00000000</i>
   <i type="int" name="OMEGAGRID">     0</i>
   <i name="CSHIFT">     -0.10000000</i>
   <i type="logical" name="SELFENERGY"> F  </i>
   <i type="logical" name="LSPECTRAL"> F  </i>
   <i type="logical" name="LSPECTRALGW"> F  </i>
   <i type="logical" name="LSINGLES"> F  </i>
   <i type="logical" name="LFERMIGW"> F  </i>
   <i type="logical" name="ODDONLYGW"> F  </i>
   <i type="logical" name="EVENONLYGW"> F  </i>
   <i type="int" name="NKREDLFX">     1</i>
   <i type="int" name="NKREDLFY">     1</i>
   <i type="int" name="NKREDLFZ">     1</i>
   <i type="int" name="MAXMEM">  1800</i>
   <i type="int" name="TELESCOPE">     0</i>
   <i type="int" name="TAUPAR">     1</i>
   <i type="int" name="OMEGAPAR">    -1</i>
   <i name="LAMBDA">      1.00000000</i>
  </separator>
  <separator name="External order field" >
   <i name="OFIELD_KAPPA">      0.00000000</i>
   <v name="OFIELD_K">      0.00000000      0.00000000      0.00000000</v>
   <i name="OFIELD_Q6_NEAR">      0.00000000</i>
   <i name="OFIELD_Q6_FAR">      0.00000000</i>
   <i name="OFIELD_A">      0.00000000</i>
  </separator>
 </parameters>
 <atominfo>
  <atoms>      48 </atoms>
  <types>       2 </types>
  <array name="atoms" >
   <dimension dim="1">ion</dimension>
   <field type="string">element</field>
   <field type="int">atomtype</field>
   <set>
    <rc><c>Au</c><c>   1</c></rc>
    <rc><c>Au</c><c>   1</c></rc>
    <rc><c>Au</c><c>   1</c></rc>
    <rc><c>Au</c><c>   1</c></rc>
    <rc><c>Au</c><c>   1</c></rc>
    <rc><c>Au</c><c>   1</c></rc>
    <rc><c>Au</c><c>   1</c></rc>
    <rc><c>Au</c><c>   1</c></rc>
    <rc><c>Au</c><c>   1</c></rc>
    <rc><c>Au</c><c>   1</c></rc>
    <rc><c>Au</c><c>   1</c></rc>
    <rc><c>Au</c><c>   1</c></rc>
    <rc><c>Au</c><c>   1</c></rc>
    <rc><c>Au</c><c>   1</c></rc>
    <rc><c>Au</c><c>   1</c></rc>
    <rc><c>Au</c><c>   1</c></rc>
    <rc><c>Au</c><c>   1</c></rc>
    <rc><c>Au</c><c>   1</c></rc>
    <rc><c>Au</c><c>   1</c></rc>
    <rc><c>Au</c><c>   1</c></rc>
    <rc><c>Au</c><c>   1</c></rc>
    <rc><c>Au</c><c>   1</c></rc>
    <rc><c>Au</c><c>   1</c></rc>
    <rc><c>Au</c><c>   1</c></rc>
    <rc><c>Pd</c><c>   2</c></rc>
    <rc><c>Pd</c><c>   2</c></rc>
    <rc><c>Pd</c><c>   2</c></rc>
    <rc><c>Pd</c><c>   2</c></rc>
    <rc><c>Pd</c><c>   2</c></rc>
    <rc><c>Pd</c><c>   2</c></rc>
    <rc><c>Pd</c><c>   2</c></rc>
    <rc><c>Pd</c><c>   2</c></rc>
    <rc><c>Pd</c><c>   2</c></rc>
    <rc><c>Pd</c><c>   2</c></rc>
    <rc><c>Pd</c><c>   2</c></rc>
    <rc><c>Pd</c><c>   2</c></rc>
    <rc><c>Pd</c><c>   2</c></rc>
    <rc><c>Pd</c><c>   2</c></rc>
    <rc><c>Pd</c><c>   2</c></rc>
    <rc><c>Pd</c><c>   2</c></rc>
    <rc><c>Pd</c><c>   2</c></rc>
    <rc><c>Pd</c><c>   2</c></rc>
    <rc><c>Pd</c><c>   2</c></rc>
    <rc><c>Pd</c><c>   2</c></rc>
    <rc><c>Pd</c><c>   2</c></rc>
    <rc><c>Pd</c><c>   2</c></rc>
    <rc><c>Pd</c><c>   2</c></rc>
    <rc><c>Pd</c><c>   2</c></rc>
   </set>
  </array>
  <array name="atomtypes" >
   <dimension dim="1">type</dimension>
   <field type="int">atomspertype</field>
   <field type="string">element</field>
   <field>mass</field>
   <field>valence</field>
   <field type="string">pseudopotential</field>
   <set>
    <rc><c>  24</c><c>Au</c><c>    196.96600000</c><c>     11.00000000</c><c>  PAW_PBE Au 04Oct2007                  </c></rc>
    <rc><c>  24</c><c>Pd</c><c>    106.42000000</c><c>     10.00000000</c><c>  PAW_PBE Pd 04Jan2005                  </c></rc>
   </set>
  </array>
 </atominfo>
 <structure name="initialpos" >
  <crystal>
   <varray name="basis" >
    <v>      11.00258152       0.00000000       0.00000000 </v>
    <v>       5.50129076       9.52851510       0.00000000 </v>
    <v>       0.00000000       0.00000000      24.49178509 </v>
   </varray>
   <i name="volume">   2567.67623402 </i>
   <varray name="rec_basis" >
    <v>       0.09088776      -0.05247407       0.00000000 </v>
    <v>       0.00000000       0.10494815       0.00000000 </v>
    <v>       0.00000000       0.00000000       0.04083002 </v>
   </varray>
  </crystal>
  <varray name="positions" >
   <v>       0.75000000       0.75000000       0.59169983 </v>
   <v>       0.08333333       0.83333333       0.40830017 </v>
   <v>       0.00000000       0.50000000       0.59169983 </v>
   <v>       0.41666667       0.66666667       0.50000000 </v>
   <v>       0.75000000       0.25000000       0.59169983 </v>
   <v>       0.00000000       0.25000000       0.59169983 </v>
   <v>       0.91666667       0.41666667       0.50000000 </v>
   <v>       0.00000000       0.00000000       0.59169983 </v>
   <v>       0.91666667       0.16666667       0.50000000 </v>
   <v>       0.83333333       0.58333333       0.40830017 </v>
   <v>       0.33333333       0.33333333       0.40830017 </v>
   <v>       0.16666667       0.16666667       0.50000000 </v>
   <v>       0.91666667       0.91666667       0.50000000 </v>
   <v>       0.16666667       0.41666667       0.50000000 </v>
   <v>       0.25000000       0.25000000       0.59169983 </v>
   <v>       0.83333333       0.33333333       0.40830017 </v>
   <v>       0.16666667       0.66666667       0.50000000 </v>
   <v>       0.16666667       0.91666667       0.50000000 </v>
   <v>       0.50000000       0.75000000       0.59169983 </v>
   <v>       0.41666667       0.91666667       0.50000000 </v>
   <v>       0.50000000       0.00000000       0.59169983 </v>
   <v>       0.58333333       0.33333333       0.40830017 </v>
   <v>       0.58333333       0.83333333       0.40830017 </v>
   <v>       0.66666667       0.41666667       0.50000000 </v>
   <v>       0.33333333       0.83333333       0.40830017 </v>
   <v>       0.25000000       0.50000000       0.59169983 </v>
   <v>       0.33333333       0.58333333       0.40830017 </v>
   <v>       0.25000000       0.00000000       0.59169983 </v>
   <v>       0.08333333       0.33333333       0.40830017 </v>
   <v>       0.00000000       0.75000000       0.59169983 </v>
   <v>       0.91666667       0.66666667       0.50000000 </v>
   <v>       0.08333333       0.58333333       0.40830017 </v>
   <v>       0.66666667       0.91666667       0.50000000 </v>
   <v>       0.33333333       0.08333333       0.40830017 </v>
   <v>       0.58333333       0.08333333       0.40830017 </v>
   <v>       0.75000000       0.50000000       0.59169983 </v>
   <v>       0.41666667       0.41666667       0.50000000 </v>
   <v>       0.50000000       0.25000000       0.59169983 </v>
   <v>       0.08333333       0.08333333       0.40830017 </v>
   <v>       0.75000000       0.00000000       0.59169983 </v>
   <v>       0.50000000       0.50000000       0.59169983 </v>
   <v>       0.83333333       0.83333333       0.40830017 </v>
   <v>       0.83333333       0.08333333       0.40830017 </v>
   <v>       0.66666667       0.66666667       0.50000000 </v>
   <v>       0.66666667       0.16666667       0.50000000 </v>
   <v>       0.58333333       0.58333333       0.40830017 </v>
   <v>       0.41666667       0.16666667       0.50000000 </v>
   <v>       0.25000000       0.75000000       0.59169983 </v>
  </varray>
  <varray name="selective"  type="logical" >
   <v type="logical" >  T  T  T </v>
   <v type="logical" >  F  F  F </v>
   <v type="logical" >  T  T  T </v>
   <v type="logical" >  T  T  T </v>
   <v type="logical" >  T  T  T </v>
   <v type="logical" >  T  T  T </v>
   <v type="logical" >  T  T  T </v>
   <v type="logical" >  T  T  T </v>
   <v type="logical" >  T  T  T </v>
   <v type="logical" >  F  F  F </v>
   <v type="logical" >  F  F  F </v>
   <v type="logical" >  T  T  T </v>
   <v type="logical" >  T  T  T </v>
   <v type="logical" >  T  T  T </v>
   <v type="logical" >  T  T  T </v>
   <v type="logical" >  F  F  F </v>
   <v type="logical" >  T  T  T </v>
   <v type="logical" >  T  T  T </v>
   <v type="logical" >  T  T  T </v>
   <v type="logical" >  T  T  T </v>
   <v type="logical" >  T  T  T </v>
   <v type="logical" >  F  F  F </v>
   <v type="logical" >  F  F  F </v>
   <v type="logical" >  T  T  T </v>
   <v type="logical" >  F  F  F </v>
   <v type="logical" >  T  T  T </v>
   <v type="logical" >  F  F  F </v>
   <v type="logical" >  T  T  T </v>
   <v type="logical" >  F  F  F </v>
   <v type="logical" >  T  T  T </v>
   <v type="logical" >  T  T  T </v>
   <v type="logical" >  F  F  F </v>
   <v type="logical" >  T  T  T </v>
   <v type="logical" >  F  F  F </v>
   <v type="logical" >  F  F  F </v>
   <v type="logical" >  T  T  T </v>
   <v type="logical" >  T  T  T </v>
   <v type="logical" >  T  T  T </v>
   <v type="logical" >  F  F  F </v>
   <v type="logical" >  T  T  T </v>
   <v type="logical" >  T  T  T </v>
   <v type="logical" >  F  F  F </v>
   <v type="logical" >  F  F  F </v>
   <v type="logical" >  T  T  T </v>
   <v type="logical" >  T  T  T </v>
   <v type="logical" >  F  F  F </v>
   <v type="logical" >  T  T  T </v>
   <v type="logical" >  T  T  T </v>
  </varray>
  <nose>
   <v>      -3.00000000       0.00000000       0.00010000       0.00010000 </v>
  </nose>
 </structure>
 <calculation>
  <scstep>
   <time name="dav">    6.88    6.90</time>
   <time name="total">    6.94    6.96</time>
   <dipole>
    <v name="dipole">      0.00000000       0.00000000      -0.00000148 </v>
    <i name="Tr[quadrupol]"> -10233.60715201 </i>
    <i name="Echarged">      0.00000000 </i>
    <i name="Edipol_quadrupol">      0.00000000 </i>
    <i name="Eion">      0.00000000 </i>
   </dipole>
   <energy>
    <i name="alphaZ">    805.86936475 </i>
    <i name="ewald"> 200635.55242331 </i>
    <i name="hartreedc">-243051.73601270 </i>
    <i name="XCdc">   -327.49777956 </i>
    <i name="pawpsdc">  40340.05962942 </i>
    <i name="pawaedc"> -38292.62782345 </i>
    <i name="eentropy">     -0.13325225 </i>
    <i name="bandstr">   1430.81099615 </i>
    <i name="atom">  41659.78587232 </i>
    <i name="e_fr_energy">   3200.08341799 </i>
    <i name="e_wo_entrp">   3200.21667025 </i>
    <i name="e_0_energy">   3200.15004412 </i>
   </energy>
  </scstep>
  <scstep>
   <time name="dav">    8.01    8.03</time>
   <time name="total">    8.02    8.04</time>
   <dipole>
    <v name="dipole">      0.00000000       0.00000000      -0.00000148 </v>
    <i name="Tr[quadrupol]"> -10233.60715201 </i>
    <i name="Echarged">      0.00000000 </i>
    <i name="Edipol_quadrupol">      0.00000000 </i>
    <i name="Eion">      0.00000000 </i>
   </dipole>
   <energy>
    <i name="e_fr_energy">     17.41990156 </i>
    <i name="e_wo_entrp">     17.56162259 </i>
    <i name="e_0_energy">     17.49076207 </i>
   </energy>
  </scstep>
  <scstep>
   <time name="dav">    7.97    8.00</time>
   <time name="total">    7.98    8.00</time>
   <dipole>
    <v name="dipole">      0.00000000       0.00000000      -0.00000148 </v>
    <i name="Tr[quadrupol]"> -10233.60715201 </i>
    <i name="Echarged">      0.00000000 </i>
    <i name="Edipol_quadrupol">      0.00000000 </i>
    <i name="Eion">      0.00000000 </i>
   </dipole>
   <energy>
    <i name="e_fr_energy">   -199.54625890 </i>
    <i name="e_wo_entrp">   -199.32993753 </i>
    <i name="e_0_energy">   -199.43809822 </i>
   </energy>
  </scstep>
  <scstep>
   <time name="dav">    8.16    8.18</time>
   <time name="total">    8.16    8.19</time>
   <dipole>
    <v name="dipole">      0.00000000       0.00000000      -0.00000148 </v>
    <i name="Tr[quadrupol]"> -10233.60715201 </i>
    <i name="Echarged">      0.00000000 </i>
    <i name="Edipol_quadrupol">      0.00000000 </i>
    <i name="Eion">      0.00000000 </i>
   </dipole>
   <energy>
    <i name="e_fr_energy">   -205.40005234 </i>
    <i name="e_wo_entrp">   -205.17475034 </i>
    <i name="e_0_energy">   -205.28740134 </i>
   </energy>
  </scstep>
  <scstep>
   <time name="dav">    8.37    8.49</time>
   <time name="total">    8.61    8.74</time>
   <dipole>
    <v name="dipole">      0.00000000       0.00000000      -0.00000148 </v>
    <i name="Tr[quadrupol]"> -10233.60715201 </i>
    <i name="Echarged">      0.00000000 </i>
    <i name="Edipol_quadrupol">      0.00000000 </i>
    <i name="Eion">      0.00000000 </i>
   </dipole>
   <energy>
    <i name="e_fr_energy">   -205.58674549 </i>
    <i name="e_wo_entrp">   -205.36143017 </i>
    <i name="e_0_energy">   -205.47408783 </i>
   </energy>
  </scstep>
  <scstep>
   <time name="diag">    1.24    1.24</time>
   <time name="diis">    3.44    3.45</time>
   <time name="orth">    0.30    0.30</time>
   <time name="total">    5.28    5.29</time>
   <dipole>
    <v name="dipole">      0.00000000       0.00000000      -0.68197973 </v>
    <i name="Tr[quadrupol]"> -10233.60169670 </i>
    <i name="Echarged">      0.00000000 </i>
    <i name="Edipol_quadrupol">      0.00000000 </i>
    <i name="Eion">      0.00000000 </i>
   </dipole>
   <energy>
    <i name="e_fr_energy">   -199.66155648 </i>
    <i name="e_wo_entrp">   -199.41344907 </i>
    <i name="e_0_energy">   -199.53750278 </i>
   </energy>
  </scstep>
  <scstep>
   <time name="diag">    1.24    1.25</time>
   <time name="diis">    3.42    3.43</time>
   <time name="orth">    0.31    0.31</time>
   <time name="total">    5.26    5.27</time>
   <dipole>
    <v name="dipole">      0.00000000       0.00000000       1.22065529 </v>
    <i name="Tr[quadrupol]"> -10233.36731190 </i>
    <i name="Echarged">      0.00000000 </i>
    <i name="Edipol_quadrupol">      0.00000000 </i>
    <i name="Eion">      0.00000000 </i>
   </dipole>
   <energy>
    <i name="e_fr_energy">   -210.58563840 </i>
    <i name="e_wo_entrp">   -210.33310502 </i>
    <i name="e_0_energy">   -210.45937171 </i>
   </energy>
  </scstep>
  <scstep>
   <time name="diag">    1.25    1.25</time>
   <time name="diis">    3.44    3.45</time>
   <time name="orth">    0.30    0.30</time>
   <time name="total">    5.28    5.30</time>
   <dipole>
    <v name="dipole">      0.00000000       0.00000000      -2.01093238 </v>
    <i name="Tr[quadrupol]"> -10234.93972555 </i>
    <i name="Echarged">      0.00000000 </i>
    <i name="Edipol_quadrupol">      0.00000000 </i>
    <i name="Eion">      0.00000000 </i>
   </dipole>
   <energy>
    <i name="e_fr_energy">   -228.29924341 </i>
    <i name="e_wo_entrp">   -228.00010150 </i>
    <i name="e_0_energy">   -228.14967245 </i>
   </energy>
  </scstep>
  <scstep>
   <time name="diag">    1.24    1.24</time>
   <time name="diis">    3.41    3.42</time>
   <time name="orth">    0.30    0.30</time>
   <time name="total">    5.24    5.25</time>
   <dipole>
    <v name="dipole">      0.00000000       0.00000000       0.41664117 </v>
    <i name="Tr[quadrupol]"> -10236.08736333 </i>
    <i name="Echarged">      0.00000000 </i>
    <i name="Edipol_quadrupol">      0.00000000 </i>
    <i name="Eion">      0.00000000 </i>
   </dipole>
   <energy>
    <i name="e_fr_energy">   -217.08762791 </i>
    <i name="e_wo_entrp">   -216.84946480 </i>
    <i name="e_0_energy">   -216.96854636 </i>
   </energy>
  </scstep>
  <scstep>
   <time name="diag">    1.23    1.24</time>
   <time name="diis">    3.44    3.45</time>
   <time name="orth">    0.30    0.30</time>
   <time name="total">    5.26    5.28</time>
   <dipole>
    <v name="dipole">      0.00000000       0.00000000      -0.40375983 </v>
    <i name="Tr[quadrupol]"> -10234.52253168 </i>
    <i name="Echarged">      0.00000000 </i>
    <i name="Edipol_quadrupol">      0.00000000 </i>
    <i name="Eion">      0.00000000 </i>
   </dipole>
   <energy>
    <i name="e_fr_energy">   -199.76071269 </i>
    <i name="e_wo_entrp">   -199.60477077 </i>
    <i name="e_0_energy">   -199.68274173 </i>
   </energy>
  </scstep>
  <scstep>
   <time name="diag">    1.23    1.24</time>
   <time name="diis">    3.43    3.43</time>
   <time name="orth">    0.30    0.30</time>
   <time name="total">    5.24    5.26</time>
   <dipole>
    <v name="dipole">      0.00000000       0.00000000      -0.10984794 </v>
    <i name="Tr[quadrupol]"> -10235.35677808 </i>
    <i name="Echarged">      0.00000000 </i>
    <i name="Edipol_quadrupol">      0.00000000 </i>
    <i name="Eion">      0.00000000 </i>
   </dipole>
   <energy>
    <i name="e_fr_energy">   -192.03535473 </i>
    <i name="e_wo_entrp">   -191.83718393 </i>
    <i name="e_0_energy">   -191.93626933 </i>
   </energy>
  </scstep>
  <scstep>
   <time name="diag">    1.22    1.30</time>
   <time name="diis">    3.42    3.44</time>
   <time name="orth">    0.30    0.30</time>
   <time name="total">    5.24    5.35</time>
   <dipole>
    <v name="dipole">      0.00000000       0.00000000      -0.16088590 </v>
    <i name="Tr[quadrupol]"> -10235.68198260 </i>
    <i name="Echarged">      0.00000000 </i>
    <i name="Edipol_quadrupol">      0.00000000 </i>
    <i name="Eion">      0.00000000 </i>
   </dipole>
   <energy>
    <i name="e_fr_energy">   -188.90409836 </i>
    <i name="e_wo_entrp">   -188.71215388 </i>
    <i name="e_0_energy">   -188.80812612 </i>
   </energy>
  </scstep>
  <scstep>
   <time name="diag">    1.24    1.25</time>
   <time name="diis">    3.35    3.36</time>
   <time name="orth">    0.30    0.30</time>
   <time name="total">    5.19    5.20</time>
   <dipole>
    <v name="dipole">      0.00000000       0.00000000      -0.08369574 </v>
    <i name="Tr[quadrupol]"> -10235.97870452 </i>
    <i name="Echarged">      0.00000000 </i>
    <i name="Edipol_quadrupol">      0.00000000 </i>
    <i name="Eion">      0.00000000 </i>
   </dipole>
   <energy>
    <i name="e_fr_energy">   -188.39017900 </i>
    <i name="e_wo_entrp">   -188.17542886 </i>
    <i name="e_0_energy">   -188.28280393 </i>
   </energy>
  </scstep>
  <scstep>
   <time name="diag">    1.23    1.24</time>
   <time name="diis">    3.39    3.40</time>
   <time name="orth">    0.30    0.30</time>
   <time name="total">    5.21    5.23</time>
   <dipole>
    <v name="dipole">      0.00000000       0.00000000      -0.05091838 </v>
    <i name="Tr[quadrupol]"> -10236.26683815 </i>
    <i name="Echarged">      0.00000000 </i>
    <i name="Edipol_quadrupol">      0.00000000 </i>
    <i name="Eion">      0.00000000 </i>
   </dipole>
   <energy>
    <i name="e_fr_energy">   -188.64875002 </i>
    <i name="e_wo_entrp">   -188.41642360 </i>
    <i name="e_0_energy">   -188.53258681 </i>
   </energy>
  </scstep>
  <scstep>
   <time name="diag">    1.23    1.24</time>
   <time name="diis">    3.43    3.44</time>
   <time name="orth">    0.30    0.30</time>
   <time name="total">    5.25    5.26</time>
   <dipole>
    <v name="dipole">      0.00000000       0.00000000      -0.04803451 </v>
    <i name="Tr[quadrupol]"> -10236.49715123 </i>
    <i name="Echarged">      0.00000000 </i>
    <i name="Edipol_quadrupol">      0.00000000 </i>
    <i name="Eion">      0.00000000 </i>
   </dipole>
   <energy>
    <i name="e_fr_energy">   -188.48935113 </i>
    <i name="e_wo_entrp">   -188.25915301 </i>
    <i name="e_0_energy">   -188.37425207 </i>
   </energy>
  </scstep>
  <scstep>
   <time name="diag">    1.24    1.24</time>
   <time name="diis">    3.45    3.46</time>
   <time name="orth">    0.30    0.30</time>
   <time name="total">    5.27    5.29</time>
   <dipole>
    <v name="dipole">      0.00000000       0.00000000      -0.04803487 </v>
    <i name="Tr[quadrupol]"> -10236.79732367 </i>
    <i name="Echarged">      0.00000000 </i>
    <i name="Edipol_quadrupol">      0.00000000 </i>
    <i name="Eion">      0.00000000 </i>
   </dipole>
   <energy>
    <i name="e_fr_energy">   -188.15828944 </i>
    <i name="e_wo_entrp">   -187.91372523 </i>
    <i name="e_0_energy">   -188.03600733 </i>
   </energy>
  </scstep>
  <scstep>
   <time name="diag">    1.24    1.24</time>
   <time name="diis">    3.45    3.46</time>
   <time name="orth">    0.30    0.30</time>
   <time name="total">    5.28    5.29</time>
   <dipole>
    <v name="dipole">      0.00000000       0.00000000      -0.04964188 </v>
    <i name="Tr[quadrupol]"> -10237.13691873 </i>
    <i name="Echarged">      0.00000000 </i>
    <i name="Edipol_quadrupol">      0.00000000 </i>
    <i name="Eion">      0.00000000 </i>
   </dipole>
   <energy>
    <i name="e_fr_energy">   -188.07151494 </i>
    <i name="e_wo_entrp">   -187.83964638 </i>
    <i name="e_0_energy">   -187.95558066 </i>
   </energy>
  </scstep>
  <scstep>
   <time name="diag">    1.23    1.23</time>
   <time name="diis">    3.41    3.43</time>
   <time name="orth">    0.30    0.30</time>
   <time name="total">    5.22    5.25</time>
   <dipole>
    <v name="dipole">      0.00000000       0.00000000      -0.05471816 </v>
    <i name="Tr[quadrupol]"> -10237.41319053 </i>
    <i name="Echarged">      0.00000000 </i>
    <i name="Edipol_quadrupol">      0.00000000 </i>
    <i name="Eion">      0.00000000 </i>
   </dipole>
   <energy>
    <i name="e_fr_energy">   -188.00193427 </i>
    <i name="e_wo_entrp">   -187.76250190 </i>
    <i name="e_0_energy">   -187.88221808 </i>
   </energy>
  </scstep>
  <scstep>
   <time name="diag">    1.23    1.23</time>
   <time name="diis">    3.32    3.42</time>
   <time name="orth">    0.30    0.30</time>
   <time name="total">    5.14    5.23</time>
   <dipole>
    <v name="dipole">      0.00000000       0.00000000      -0.04973925 </v>
    <i name="Tr[quadrupol]"> -10237.50565900 </i>
    <i name="Echarged">      0.00000000 </i>
    <i name="Edipol_quadrupol">      0.00000000 </i>
    <i name="Eion">      0.00000000 </i>
   </dipole>
   <energy>
    <i name="e_fr_energy">   -187.97369501 </i>
    <i name="e_wo_entrp">   -187.73332054 </i>
    <i name="e_0_energy">   -187.85350778 </i>
   </energy>
  </scstep>
  <scstep>
   <time name="diag">    1.24    1.24</time>
   <time name="diis">    3.43    3.44</time>
   <time name="orth">    0.30    0.30</time>
   <time name="total">    5.25    5.27</time>
   <dipole>
    <v name="dipole">      0.00000000       0.00000000      -0.03393678 </v>
    <i name="Tr[quadrupol]"> -10237.67580106 </i>
    <i name="Echarged">      0.00000000 </i>
    <i name="Edipol_quadrupol">      0.00000000 </i>
    <i name="Eion">      0.00000000 </i>
   </dipole>
   <energy>
    <i name="e_fr_energy">   -187.96647779 </i>
    <i name="e_wo_entrp">   -187.72371575 </i>
    <i name="e_0_energy">   -187.84509677 </i>
   </energy>
  </scstep>
  <scstep>
   <time name="diag">    1.23    1.24</time>
   <time name="diis">    3.42    3.43</time>
   <time name="orth">    0.30    0.30</time>
   <time name="total">    5.24    5.26</time>
   <dipole>
    <v name="dipole">      0.00000000       0.00000000      -0.03047876 </v>
    <i name="Tr[quadrupol]"> -10237.77732201 </i>
    <i name="Echarged">      0.00000000 </i>
    <i name="Edipol_quadrupol">      0.00000000 </i>
    <i name="Eion">      0.00000000 </i>
   </dipole>
   <energy>
    <i name="e_fr_energy">   -187.96161590 </i>
    <i name="e_wo_entrp">   -187.71736331 </i>
    <i name="e_0_energy">   -187.83948961 </i>
   </energy>
  </scstep>
  <scstep>
   <time name="diag">    1.23    1.23</time>
   <time name="diis">    3.39    3.40</time>
   <time name="orth">    0.30    0.30</time>
   <time name="total">    5.20    5.22</time>
   <dipole>
    <v name="dipole">      0.00000000       0.00000000      -0.02805758 </v>
    <i name="Tr[quadrupol]"> -10237.95337268 </i>
    <i name="Echarged">      0.00000000 </i>
    <i name="Edipol_quadrupol">      0.00000000 </i>
    <i name="Eion">      0.00000000 </i>
   </dipole>
   <energy>
    <i name="e_fr_energy">   -187.95824163 </i>
    <i name="e_wo_entrp">   -187.71644813 </i>
    <i name="e_0_energy">   -187.83734488 </i>
   </energy>
  </scstep>
  <scstep>
   <time name="diag">    1.23    1.23</time>
   <time name="diis">    3.37    3.38</time>
   <time name="orth">    0.30    0.30</time>
   <time name="total">    5.19    5.20</time>
   <dipole>
    <v name="dipole">      0.00000000       0.00000000      -0.03067281 </v>
    <i name="Tr[quadrupol]"> -10238.10608093 </i>
    <i name="Echarged">      0.00000000 </i>
    <i name="Edipol_quadrupol">      0.00000000 </i>
    <i name="Eion">      0.00000000 </i>
   </dipole>
   <energy>
    <i name="e_fr_energy">   -187.95810606 </i>
    <i name="e_wo_entrp">   -187.71502085 </i>
    <i name="e_0_energy">   -187.83656346 </i>
   </energy>
  </scstep>
  <scstep>
   <time name="diag">    1.24    1.24</time>
   <time name="diis">    3.41    3.42</time>
   <time name="orth">    0.30    0.30</time>
   <time name="total">    5.24    5.25</time>
   <dipole>
    <v name="dipole">      0.00000000       0.00000000      -0.02945313 </v>
    <i name="Tr[quadrupol]"> -10238.23517949 </i>
    <i name="Echarged">      0.00000000 </i>
    <i name="Edipol_quadrupol">      0.00000000 </i>
    <i name="Eion">      0.00000000 </i>
   </dipole>
   <energy>
    <i name="e_fr_energy">   -187.95726416 </i>
    <i name="e_wo_entrp">   -187.71478822 </i>
    <i name="e_0_energy">   -187.83602619 </i>
   </energy>
  </scstep>
  <scstep>
   <time name="diag">    1.24    1.25</time>
   <time name="diis">    3.42    3.43</time>
   <time name="orth">    0.30    0.30</time>
   <time name="total">    5.25    5.27</time>
   <dipole>
    <v name="dipole">      0.00000000       0.00000000      -0.02554616 </v>
    <i name="Tr[quadrupol]"> -10238.31228690 </i>
    <i name="Echarged">      0.00000000 </i>
    <i name="Edipol_quadrupol">      0.00000000 </i>
    <i name="Eion">      0.00000000 </i>
   </dipole>
   <energy>
    <i name="e_fr_energy">   -187.95735882 </i>
    <i name="e_wo_entrp">   -187.71494509 </i>
    <i name="e_0_energy">   -187.83615195 </i>
   </energy>
  </scstep>
  <scstep>
   <time name="diag">    1.23    1.24</time>
   <time name="diis">    3.39    3.40</time>
   <time name="orth">    0.30    0.30</time>
   <time name="total">    5.21    5.23</time>
   <dipole>
    <v name="dipole">      0.00000000       0.00000000      -0.02420935 </v>
    <i name="Tr[quadrupol]"> -10238.37106318 </i>
    <i name="Echarged">      0.00000000 </i>
    <i name="Edipol_quadrupol">      0.00000000 </i>
    <i name="Eion">      0.00000000 </i>
   </dipole>
   <energy>
    <i name="e_fr_energy">   -187.95753270 </i>
    <i name="e_wo_entrp">   -187.71481522 </i>
    <i name="e_0_energy">   -187.83617396 </i>
   </energy>
  </scstep>
  <scstep>
   <time name="diag">    1.23    1.23</time>
   <time name="diis">    3.37    3.47</time>
   <time name="orth">    0.29    0.29</time>
   <time name="total">    5.18    5.28</time>
   <dipole>
    <v name="dipole">      0.00000000       0.00000000      -0.02201762 </v>
    <i name="Tr[quadrupol]"> -10238.46316548 </i>
    <i name="Echarged">      0.00000000 </i>
    <i name="Edipol_quadrupol">      0.00000000 </i>
    <i name="Eion">      0.00000000 </i>
   </dipole>
   <energy>
    <i name="e_fr_energy">   -187.95798882 </i>
    <i name="e_wo_entrp">   -187.71552469 </i>
    <i name="e_0_energy">   -187.83675676 </i>
   </energy>
  </scstep>
  <scstep>
   <time name="diag">    1.24    1.25</time>
   <time name="diis">    3.40    3.44</time>
   <time name="orth">    0.30    0.30</time>
   <time name="total">    5.23    5.29</time>
   <dipole>
    <v name="dipole">      0.00000000       0.00000000      -0.02125543 </v>
    <i name="Tr[quadrupol]"> -10238.52189254 </i>
    <i name="Echarged">      0.00000000 </i>
    <i name="Edipol_quadrupol">      0.00000000 </i>
    <i name="Eion">      0.00000000 </i>
   </dipole>
   <energy>
    <i name="e_fr_energy">   -187.95836424 </i>
    <i name="e_wo_entrp">   -187.71582464 </i>
    <i name="e_0_energy">   -187.83709444 </i>
   </energy>
  </scstep>
  <scstep>
   <time name="diag">    1.24    1.25</time>
   <time name="diis">    3.56    3.57</time>
   <time name="orth">    0.30    0.30</time>
   <time name="total">    5.40    5.41</time>
   <dipole>
    <v name="dipole">      0.00000000       0.00000000      -0.01959271 </v>
    <i name="Tr[quadrupol]"> -10238.59715994 </i>
    <i name="Echarged">      0.00000000 </i>
    <i name="Edipol_quadrupol">      0.00000000 </i>
    <i name="Eion">      0.00000000 </i>
   </dipole>
   <energy>
    <i name="e_fr_energy">   -187.95903662 </i>
    <i name="e_wo_entrp">   -187.71663017 </i>
    <i name="e_0_energy">   -187.83783340 </i>
   </energy>
  </scstep>
  <scstep>
   <time name="diag">    1.23    1.23</time>
   <time name="diis">    3.41    3.42</time>
   <time name="orth">    0.30    0.30</time>
   <time name="total">    5.22    5.24</time>
   <dipole>
    <v name="dipole">      0.00000000       0.00000000      -0.01832589 </v>
    <i name="Tr[quadrupol]"> -10238.64177714 </i>
    <i name="Echarged">      0.00000000 </i>
    <i name="Edipol_quadrupol">      0.00000000 </i>
    <i name="Eion">      0.00000000 </i>
   </dipole>
   <energy>
    <i name="e_fr_energy">   -187.95945240 </i>
    <i name="e_wo_entrp">   -187.71694072 </i>
    <i name="e_0_energy">   -187.83819656 </i>
   </energy>
  </scstep>
  <scstep>
   <time name="diag">    1.23    1.24</time>
   <time name="diis">    3.41    3.42</time>
   <time name="orth">    0.30    0.30</time>
   <time name="total">    5.23    5.24</time>
   <dipole>
    <v name="dipole">      0.00000000       0.00000000      -0.01548608 </v>
    <i name="Tr[quadrupol]"> -10238.73638309 </i>
    <i name="Echarged">      0.00000000 </i>
    <i name="Edipol_quadrupol">      0.00000000 </i>
    <i name="Eion">      0.00000000 </i>
   </dipole>
   <energy>
    <i name="e_fr_energy">   -187.96023225 </i>
    <i name="e_wo_entrp">   -187.71773478 </i>
    <i name="e_0_energy">   -187.83898352 </i>
   </energy>
  </scstep>
  <scstep>
   <time name="diag">    1.24    1.24</time>
   <time name="diis">    3.00    3.01</time>
   <time name="orth">    0.29    0.30</time>
   <time name="total">    4.83    4.85</time>
   <dipole>
    <v name="dipole">      0.00000000       0.00000000      -0.01417338 </v>
    <i name="Tr[quadrupol]"> -10238.77963793 </i>
    <i name="Echarged">      0.00000000 </i>
    <i name="Edipol_quadrupol">      0.00000000 </i>
    <i name="Eion">      0.00000000 </i>
   </dipole>
   <energy>
    <i name="e_fr_energy">   -187.96055059 </i>
    <i name="e_wo_entrp">   -187.71798085 </i>
    <i name="e_0_energy">   -187.83926572 </i>
   </energy>
  </scstep>
  <scstep>
   <time name="diag">    1.24    1.24</time>
   <time name="diis">    2.64    2.65</time>
   <time name="orth">    0.30    0.30</time>
   <time name="total">    4.47    4.48</time>
   <dipole>
    <v name="dipole">      0.00000000       0.00000000      -0.01343310 </v>
    <i name="Tr[quadrupol]"> -10238.80630072 </i>
    <i name="Echarged">      0.00000000 </i>
    <i name="Edipol_quadrupol">      0.00000000 </i>
    <i name="Eion">      0.00000000 </i>
   </dipole>
   <energy>
    <i name="e_fr_energy">   -187.96072753 </i>
    <i name="e_wo_entrp">   -187.71824380 </i>
    <i name="e_0_energy">   -187.83948567 </i>
   </energy>
  </scstep>
  <scstep>
   <time name="diag">    1.24    1.24</time>
   <time name="diis">    2.35    2.36</time>
   <time name="orth">    0.29    0.29</time>
   <time name="total">    4.17    4.19</time>
   <dipole>
    <v name="dipole">      0.00000000       0.00000000      -0.01302217 </v>
    <i name="Tr[quadrupol]"> -10238.81779685 </i>
    <i name="Echarged">      0.00000000 </i>
    <i name="Edipol_quadrupol">      0.00000000 </i>
    <i name="Eion">      0.00000000 </i>
   </dipole>
   <energy>
    <i name="e_fr_energy">   -187.96080188 </i>
    <i name="e_wo_entrp">   -187.71831914 </i>
    <i name="e_0_energy">   -187.83956051 </i>
   </energy>
  </scstep>
  <scstep>
   <time name="diag">    1.23    1.24</time>
   <time name="diis">    2.10    2.19</time>
   <time name="orth">    0.30    0.30</time>
   <time name="total">    3.92    4.02</time>
   <dipole>
    <v name="dipole">      0.00000000       0.00000000      -0.01248501 </v>
    <i name="Tr[quadrupol]"> -10238.82885372 </i>
    <i name="Echarged">      0.00000000 </i>
    <i name="Edipol_quadrupol">      0.00000000 </i>
    <i name="Eion">      0.00000000 </i>
   </dipole>
   <energy>
    <i name="e_fr_energy">   -187.96087043 </i>
    <i name="e_wo_entrp">   -187.71837723 </i>
    <i name="e_0_energy">   -187.83962383 </i>
   </energy>
  </scstep>
  <scstep>
   <time name="diag">    1.24    1.24</time>
   <time name="diis">    2.12    2.13</time>
   <time name="orth">    0.29    0.29</time>
   <time name="total">    3.95    3.97</time>
   <dipole>
    <v name="dipole">      0.00000000       0.00000000      -0.01208360 </v>
    <i name="Tr[quadrupol]"> -10238.83693311 </i>
    <i name="Echarged">      0.00000000 </i>
    <i name="Edipol_quadrupol">      0.00000000 </i>
    <i name="Eion">      0.00000000 </i>
   </dipole>
   <energy>
    <i name="e_fr_energy">   -187.96091675 </i>
    <i name="e_wo_entrp">   -187.71843181 </i>
    <i name="e_0_energy">   -187.83967428 </i>
   </energy>
  </scstep>
  <scstep>
   <time name="diag">    1.24    1.24</time>
   <time name="diis">    2.11    2.11</time>
   <time name="orth">    0.29    0.29</time>
   <time name="total">    3.93    3.94</time>
   <dipole>
    <v name="dipole">      0.00000000       0.00000000      -0.01172682 </v>
    <i name="Tr[quadrupol]"> -10238.84304618 </i>
    <i name="Echarged">      0.00000000 </i>
    <i name="Edipol_quadrupol">      0.00000000 </i>
    <i name="Eion">      0.00000000 </i>
   </dipole>
   <energy>
    <i name="e_fr_energy">   -187.96094457 </i>
    <i name="e_wo_entrp">   -187.71845250 </i>
    <i name="e_0_energy">   -187.83969853 </i>
   </energy>
  </scstep>
  <scstep>
   <time name="diag">    1.23    1.23</time>
   <time name="diis">    2.07    2.08</time>
   <time name="orth">    0.29    0.29</time>
   <time name="total">    3.89    3.90</time>
   <dipole>
    <v name="dipole">      0.00000000       0.00000000      -0.01133256 </v>
    <i name="Tr[quadrupol]"> -10238.85029545 </i>
    <i name="Echarged">      0.00000000 </i>
    <i name="Edipol_quadrupol">      0.00000000 </i>
    <i name="Eion">      0.00000000 </i>
   </dipole>
   <energy>
    <i name="e_fr_energy">   -187.96096376 </i>
    <i name="e_wo_entrp">   -187.71847353 </i>
    <i name="e_0_energy">   -187.83971864 </i>
   </energy>
  </scstep>
  <scstep>
   <time name="diag">    1.23    1.23</time>
   <time name="diis">    1.68    1.69</time>
   <time name="orth">    0.29    0.29</time>
   <time name="total">    3.50    3.51</time>
   <dipole>
    <v name="dipole">      0.00000000       0.00000000      -0.01116283 </v>
    <i name="Tr[quadrupol]"> -10238.85346132 </i>
    <i name="Echarged">      0.00000000 </i>
    <i name="Edipol_quadrupol">      0.00000000 </i>
    <i name="Eion">      0.00000000 </i>
   </dipole>
   <energy>
    <i name="e_fr_energy">   -187.96096698 </i>
    <i name="e_wo_entrp">   -187.71848031 </i>
    <i name="e_0_energy">   -187.83972364 </i>
   </energy>
  </scstep>
  <scstep>
   <time name="diag">    1.24    1.24</time>
   <time name="diis">    1.60    1.60</time>
   <time name="orth">    0.29    0.29</time>
   <time name="total">    3.43    3.44</time>
   <dipole>
    <v name="dipole">      0.00000000       0.00000000      -0.01103365 </v>
    <i name="Tr[quadrupol]"> -10238.85596187 </i>
    <i name="Echarged">      0.00000000 </i>
    <i name="Edipol_quadrupol">      0.00000000 </i>
    <i name="Eion">      0.00000000 </i>
   </dipole>
   <energy>
    <i name="e_fr_energy">   -187.96096817 </i>
    <i name="e_wo_entrp">   -187.71848154 </i>
    <i name="e_0_energy">   -187.83972485 </i>
   </energy>
  </scstep>
  <scstep>
   <time name="diag">    1.23    1.24</time>
   <time name="diis">    1.49    1.49</time>
   <time name="orth">    0.29    0.29</time>
   <time name="total">    3.06    3.07</time>
   <dipole>
    <v name="dipole">      0.00000000       0.00000000      -0.01095226 </v>
    <i name="Tr[quadrupol]"> -10238.85770709 </i>
    <i name="Echarged">      0.00000000 </i>
    <i name="Edipol_quadrupol">      0.00000000 </i>
    <i name="Eion">      0.00000000 </i>
   </dipole>
   <energy>
    <i name="alphaZ">    805.87282707 </i>
    <i name="ewald"> 200635.55242331 </i>
    <i name="hartreedc">-242819.22589286 </i>
    <i name="XCdc">   -343.07083752 </i>
    <i name="pawpsdc">  49458.41984578 </i>
    <i name="pawaedc"> -47536.03364853 </i>
    <i name="eentropy">     -0.24248620 </i>
    <i name="bandstr">  -2049.01907240 </i>
    <i name="atom">  41659.78587232 </i>
    <i name="e_fr_energy">   -187.96096902 </i>
    <i name="e_wo_entrp">   -187.71848283 </i>
    <i name="e_0_energy">   -187.83972593 </i>
   </energy>
  </scstep>
  <structure>
   <crystal>
    <varray name="basis" >
     <v>      11.00258152       0.00000000       0.00000000 </v>
     <v>       5.50129076       9.52851510       0.00000000 </v>
     <v>       0.00000000       0.00000000      24.49178509 </v>
    </varray>
    <i name="volume">   2567.67623402 </i>
    <varray name="rec_basis" >
     <v>       0.09088776      -0.05247407       0.00000000 </v>
     <v>       0.00000000       0.10494815       0.00000000 </v>
     <v>       0.00000000       0.00000000       0.04083002 </v>
    </varray>
   </crystal>
   <varray name="positions" >
    <v>       0.75000000       0.75000000       0.59169983 </v>
    <v>       0.08333333       0.83333333       0.40830017 </v>
    <v>       0.00000000       0.50000000       0.59169983 </v>
    <v>       0.41666667       0.66666667       0.50000000 </v>
    <v>       0.75000000       0.25000000       0.59169983 </v>
    <v>       0.00000000       0.25000000       0.59169983 </v>
    <v>       0.91666667       0.41666667       0.50000000 </v>
    <v>       0.00000000       0.00000000       0.59169983 </v>
    <v>       0.91666667       0.16666667       0.50000000 </v>
    <v>       0.83333333       0.58333333       0.40830017 </v>
    <v>       0.33333333       0.33333333       0.40830017 </v>
    <v>       0.16666667       0.16666667       0.50000000 </v>
    <v>       0.91666667       0.91666667       0.50000000 </v>
    <v>       0.16666667       0.41666667       0.50000000 </v>
    <v>       0.25000000       0.25000000       0.59169983 </v>
    <v>       0.83333333       0.33333333       0.40830017 </v>
    <v>       0.16666667       0.66666667       0.50000000 </v>
    <v>       0.16666667       0.91666667       0.50000000 </v>
    <v>       0.50000000       0.75000000       0.59169983 </v>
    <v>       0.41666667       0.91666667       0.50000000 </v>
    <v>       0.50000000       0.00000000       0.59169983 </v>
    <v>       0.58333333       0.33333333       0.40830017 </v>
    <v>       0.58333333       0.83333333       0.40830017 </v>
    <v>       0.66666667       0.41666667       0.50000000 </v>
    <v>       0.33333333       0.83333333       0.40830017 </v>
    <v>       0.25000000       0.50000000       0.59169983 </v>
    <v>       0.33333333       0.58333333       0.40830017 </v>
    <v>       0.25000000       0.00000000       0.59169983 </v>
    <v>       0.08333333       0.33333333       0.40830017 </v>
    <v>       0.00000000       0.75000000       0.59169983 </v>
    <v>       0.91666667       0.66666667       0.50000000 </v>
    <v>       0.08333333       0.58333333       0.40830017 </v>
    <v>       0.66666667       0.91666667       0.50000000 </v>
    <v>       0.33333333       0.08333333       0.40830017 </v>
    <v>       0.58333333       0.08333333       0.40830017 </v>
    <v>       0.75000000       0.50000000       0.59169983 </v>
    <v>       0.41666667       0.41666667       0.50000000 </v>
    <v>       0.50000000       0.25000000       0.59169983 </v>
    <v>       0.08333333       0.08333333       0.40830017 </v>
    <v>       0.75000000       0.00000000       0.59169983 </v>
    <v>       0.50000000       0.50000000       0.59169983 </v>
    <v>       0.83333333       0.83333333       0.40830017 </v>
    <v>       0.83333333       0.08333333       0.40830017 </v>
    <v>       0.66666667       0.66666667       0.50000000 </v>
    <v>       0.66666667       0.16666667       0.50000000 </v>
    <v>       0.58333333       0.58333333       0.40830017 </v>
    <v>       0.41666667       0.16666667       0.50000000 </v>
    <v>       0.25000000       0.75000000       0.59169983 </v>
   </varray>
  </structure>
  <varray name="forces" >
   <v>       0.22398592      -0.02156744       1.15478460 </v>
   <v>      -0.02324443      -0.01455691      -1.78899251 </v>
   <v>       0.10401787       0.37887145       1.62445338 </v>
   <v>      -0.02806606      -0.37611315      -0.21217149 </v>
   <v>      -0.52123935       0.13862349       1.56958022 </v>
   <v>      -0.01439976      -0.00742426       1.93246619 </v>
   <v>      -0.01846913       0.54345171      -0.07512575 </v>
   <v>      -0.01452475      -0.42934995       1.85363901 </v>
   <v>      -0.32279975      -0.22587050      -0.55871048 </v>
   <v>       0.28954039       0.21019597      -1.37711445 </v>
   <v>      -0.07216623      -0.09111747      -1.34455473 </v>
   <v>       0.32139265      -0.25534096      -0.59557365 </v>
   <v>      -0.96184930      -0.02182942      -0.05416607 </v>
   <v>       0.38425742       0.25114428      -0.28342345 </v>
   <v>       0.39872064      -0.05509562       1.61657029 </v>
   <v>       0.09822872      -0.22219988      -1.83327724 </v>
   <v>      -0.13100588      -0.46348800       0.25324865 </v>
   <v>       0.35387936      -0.05556703      -0.04155679 </v>
   <v>      -0.24266022      -0.29311206       1.59184230 </v>
   <v>       0.21244385       0.19999107      -0.33815374 </v>
   <v>       0.25989215       0.26156300       1.33461068 </v>
   <v>      -0.16069257      -0.10057010      -1.35357321 </v>
   <v>       0.05018232       0.15617491      -1.27405533 </v>
   <v>      -0.37260046       0.44649114       0.27065871 </v>
   <v>       0.01104166      -0.02028956      -1.03006222 </v>
   <v>       0.30510812       0.09141495       0.80663415 </v>
   <v>       0.08939464       0.05736519      -0.86879070 </v>
   <v>      -0.06862640      -0.13002594       1.10658068 </v>
   <v>       0.08618984      -0.11507633      -0.99938272 </v>
   <v>       0.06843079      -0.03641652       0.84079253 </v>
   <v>      -0.06487446       0.36862538      -0.10118732 </v>
   <v>      -0.06802628       0.04529970      -0.90242353 </v>
   <v>       0.29625374       0.14745355      -0.15013324 </v>
   <v>      -0.03855479       0.05976376      -0.82424884 </v>
   <v>       0.08633181      -0.11741295      -0.53140518 </v>
   <v>      -0.13526986       0.06969151       0.91481968 </v>
   <v>       0.02886453      -0.24561786       0.35984431 </v>
   <v>       0.09567249       0.10422157       0.44790850 </v>
   <v>       0.17158178       0.00801065      -1.04473001 </v>
   <v>      -0.09941996       0.04886444       0.66937400 </v>
   <v>      -0.21456551      -0.08009539       0.81848505 </v>
   <v>      -0.01740988       0.09647847      -0.69680096 </v>
   <v>      -0.19819745      -0.09924864      -0.86401274 </v>
   <v>       0.18312031       0.00723411      -0.01349014 </v>
   <v>      -0.55111364      -0.18051464       0.00795419 </v>
   <v>      -0.21708755       0.18940109      -0.89205790 </v>
   <v>       0.53356539      -0.09349751      -0.15571981 </v>
   <v>      -0.09523272      -0.12893330       1.03064707 </v>
  </varray>
  <energy>
   <i name="e_fr_energy">   -187.96096902 </i>
   <i name="e_wo_entrp">   -187.83972593 </i>
   <i name="e_0_energy">     -0.24248620 </i>
  </energy>
  <time name="totalsc">  217.51  218.72</time>
 </calculation>
 <calculation>
  <scstep>
   <time name="dav">    7.02    7.08</time>
   <time name="total">    7.31    7.37</time>
   <dipole>
    <v name="dipole">      0.00000000       0.00000000      -0.01083805 </v>
    <i name="Tr[quadrupol]"> -10250.99180425 </i>
    <i name="Echarged">      0.00000000 </i>
    <i name="Edipol_quadrupol">      0.00000000 </i>
    <i name="Eion">      0.00000000 </i>
   </dipole>
   <energy>
    <i name="alphaZ">    805.87762211 </i>
    <i name="ewald"> 199170.68632501 </i>
    <i name="hartreedc">-241363.72482572 </i>
    <i name="XCdc">   -344.29998592 </i>
    <i name="pawpsdc">  49458.41266713 </i>
    <i name="pawaedc"> -47536.02653705 </i>
    <i name="eentropy">     -0.24143204 </i>
    <i name="bandstr">  -2039.08357057 </i>
    <i name="atom">  41659.78587232 </i>
    <i name="e_fr_energy">   -188.61386475 </i>
    <i name="e_wo_entrp">   -188.37243271 </i>
    <i name="e_0_energy">   -188.49314873 </i>
   </energy>
  </scstep>
  <scstep>
   <time name="diag">    1.23    1.23</time>
   <time name="diis">    3.47    3.48</time>
   <time name="orth">    0.29    0.29</time>
   <time name="total">    5.29    5.31</time>
   <dipole>
    <v name="dipole">      0.00000000       0.00000000       0.04493977 </v>
    <i name="Tr[quadrupol]"> -10250.85678438 </i>
    <i name="Echarged">      0.00000000 </i>
    <i name="Edipol_quadrupol">      0.00000000 </i>
    <i name="Eion">      0.00000000 </i>
   </dipole>
   <energy>
    <i name="e_fr_energy">   -188.87289857 </i>
    <i name="e_wo_entrp">   -188.63197468 </i>
    <i name="e_0_energy">   -188.75243663 </i>
   </energy>
  </scstep>
  <scstep>
   <time name="diag">    1.21    1.27</time>
   <time name="diis">    3.46    3.50</time>
   <time name="orth">    0.29    0.29</time>
   <time name="total">    5.26    5.35</time>
   <dipole>
    <v name="dipole">      0.00000000       0.00000000      -0.14316422 </v>
    <i name="Tr[quadrupol]"> -10251.01262983 </i>
    <i name="Echarged">      0.00000000 </i>
    <i name="Edipol_quadrupol">      0.00000000 </i>
    <i name="Eion">      0.00000000 </i>
   </dipole>
   <energy>
    <i name="e_fr_energy">   -189.12801101 </i>
    <i name="e_wo_entrp">   -188.90487972 </i>
    <i name="e_0_energy">   -189.01644537 </i>
   </energy>
  </scstep>
  <scstep>
   <time name="diag">    1.23    1.23</time>
   <time name="diis">    3.45    3.46</time>
   <time name="orth">    0.29    0.29</time>
   <time name="total">    5.26    5.28</time>
   <dipole>
    <v name="dipole">      0.00000000       0.00000000       0.00317560 </v>
    <i name="Tr[quadrupol]"> -10251.11758978 </i>
    <i name="Echarged">      0.00000000 </i>
    <i name="Edipol_quadrupol">      0.00000000 </i>
    <i name="Eion">      0.00000000 </i>
   </dipole>
   <energy>
    <i name="e_fr_energy">   -188.87016239 </i>
    <i name="e_wo_entrp">   -188.62096706 </i>
    <i name="e_0_energy">   -188.74556472 </i>
   </energy>
  </scstep>
  <scstep>
   <time name="diag">    1.22    1.22</time>
   <time name="diis">    3.43    3.44</time>
   <time name="orth">    0.29    0.29</time>
   <time name="total">    5.23    5.25</time>
   <dipole>
    <v name="dipole">      0.00000000       0.00000000      -0.00689290 </v>
    <i name="Tr[quadrupol]"> -10251.00224523 </i>
    <i name="Echarged">      0.00000000 </i>
    <i name="Edipol_quadrupol">      0.00000000 </i>
    <i name="Eion">      0.00000000 </i>
   </dipole>
   <energy>
    <i name="e_fr_energy">   -188.85786898 </i>
    <i name="e_wo_entrp">   -188.62456486 </i>
    <i name="e_0_energy">   -188.74121692 </i>
   </energy>
  </scstep>
  <scstep>
   <time name="diag">    1.23    1.24</time>
   <time name="diis">    3.43    3.45</time>
   <time name="orth">    0.29    0.29</time>
   <time name="total">    5.25    5.27</time>
   <dipole>
    <v name="dipole">      0.00000000       0.00000000       0.01185922 </v>
    <i name="Tr[quadrupol]"> -10251.03746153 </i>
    <i name="Echarged">      0.00000000 </i>
    <i name="Edipol_quadrupol">      0.00000000 </i>
    <i name="Eion">      0.00000000 </i>
   </dipole>
   <energy>
    <i name="e_fr_energy">   -188.84779684 </i>
    <i name="e_wo_entrp">   -188.60380231 </i>
    <i name="e_0_energy">   -188.72579957 </i>
   </energy>
  </scstep>
  <scstep>
   <time name="diag">    1.23    1.23</time>
   <time name="diis">    3.42    3.43</time>
   <time name="orth">    0.29    0.29</time>
   <time name="total">    5.23    5.24</time>
   <dipole>
    <v name="dipole">      0.00000000       0.00000000       0.00630028 </v>
    <i name="Tr[quadrupol]"> -10251.02133604 </i>
    <i name="Echarged">      0.00000000 </i>
    <i name="Edipol_quadrupol">      0.00000000 </i>
    <i name="Eion">      0.00000000 </i>
   </dipole>
   <energy>
    <i name="e_fr_energy">   -188.84391858 </i>
    <i name="e_wo_entrp">   -188.60212286 </i>
    <i name="e_0_energy">   -188.72302072 </i>
   </energy>
  </scstep>
  <scstep>
   <time name="diag">    1.23    1.24</time>
   <time name="diis">    3.43    3.44</time>
   <time name="orth">    0.29    0.29</time>
   <time name="total">    5.25    5.27</time>
   <dipole>
    <v name="dipole">      0.00000000       0.00000000       0.00063903 </v>
    <i name="Tr[quadrupol]"> -10251.01141569 </i>
    <i name="Echarged">      0.00000000 </i>
    <i name="Edipol_quadrupol">      0.00000000 </i>
    <i name="Eion">      0.00000000 </i>
   </dipole>
   <energy>
    <i name="e_fr_energy">   -188.84218116 </i>
    <i name="e_wo_entrp">   -188.60012363 </i>
    <i name="e_0_energy">   -188.72115240 </i>
   </energy>
  </scstep>
  <scstep>
   <time name="diag">    1.23    1.23</time>
   <time name="diis">    3.44    3.44</time>
   <time name="orth">    0.29    0.29</time>
   <time name="total">    5.25    5.26</time>
   <dipole>
    <v name="dipole">      0.00000000       0.00000000       0.00013689 </v>
    <i name="Tr[quadrupol]"> -10251.00684957 </i>
    <i name="Echarged">      0.00000000 </i>
    <i name="Edipol_quadrupol">      0.00000000 </i>
    <i name="Eion">      0.00000000 </i>
   </dipole>
   <energy>
    <i name="e_fr_energy">   -188.84178764 </i>
    <i name="e_wo_entrp">   -188.59957645 </i>
    <i name="e_0_energy">   -188.72068204 </i>
   </energy>
  </scstep>
  <scstep>
   <time name="diag">    1.23    1.24</time>
   <time name="diis">    3.37    3.46</time>
   <time name="orth">    0.30    0.30</time>
   <time name="total">    5.19    5.29</time>
   <dipole>
    <v name="dipole">      0.00000000       0.00000000       0.00102120 </v>
    <i name="Tr[quadrupol]"> -10251.00497272 </i>
    <i name="Echarged">      0.00000000 </i>
    <i name="Edipol_quadrupol">      0.00000000 </i>
    <i name="Eion">      0.00000000 </i>
   </dipole>
   <energy>
    <i name="e_fr_energy">   -188.84163864 </i>
    <i name="e_wo_entrp">   -188.59927151 </i>
    <i name="e_0_energy">   -188.72045507 </i>
   </energy>
  </scstep>
  <scstep>
   <time name="diag">    1.23    1.23</time>
   <time name="diis">    3.41    3.43</time>
   <time name="orth">    0.29    0.29</time>
   <time name="total">    5.22    5.24</time>
   <dipole>
    <v name="dipole">      0.00000000       0.00000000       0.00099692 </v>
    <i name="Tr[quadrupol]"> -10251.00540899 </i>
    <i name="Echarged">      0.00000000 </i>
    <i name="Edipol_quadrupol">      0.00000000 </i>
    <i name="Eion">      0.00000000 </i>
   </dipole>
   <energy>
    <i name="e_fr_energy">   -188.84161699 </i>
    <i name="e_wo_entrp">   -188.59917466 </i>
    <i name="e_0_energy">   -188.72039582 </i>
   </energy>
  </scstep>
  <scstep>
   <time name="diag">    1.23    1.24</time>
   <time name="diis">    3.40    3.43</time>
   <time name="orth">    0.30    0.30</time>
   <time name="total">    5.21    5.26</time>
   <dipole>
    <v name="dipole">      0.00000000       0.00000000       0.00090978 </v>
    <i name="Tr[quadrupol]"> -10251.00841145 </i>
    <i name="Echarged">      0.00000000 </i>
    <i name="Edipol_quadrupol">      0.00000000 </i>
    <i name="Eion">      0.00000000 </i>
   </dipole>
   <energy>
    <i name="e_fr_energy">   -188.84161362 </i>
    <i name="e_wo_entrp">   -188.59920079 </i>
    <i name="e_0_energy">   -188.72040720 </i>
   </energy>
  </scstep>
  <scstep>
   <time name="diag">    1.23    1.23</time>
   <time name="diis">    3.23    3.24</time>
   <time name="orth">    0.29    0.29</time>
   <time name="total">    5.05    5.06</time>
   <dipole>
    <v name="dipole">      0.00000000       0.00000000       0.00070927 </v>
    <i name="Tr[quadrupol]"> -10251.00992269 </i>
    <i name="Echarged">      0.00000000 </i>
    <i name="Edipol_quadrupol">      0.00000000 </i>
    <i name="Eion">      0.00000000 </i>
   </dipole>
   <energy>
    <i name="e_fr_energy">   -188.84160983 </i>
    <i name="e_wo_entrp">   -188.59916464 </i>
    <i name="e_0_energy">   -188.72038723 </i>
   </energy>
  </scstep>
  <scstep>
   <time name="diag">    1.24    1.24</time>
   <time name="diis">    2.61    2.62</time>
   <time name="orth">    0.29    0.29</time>
   <time name="total">    4.19    4.21</time>
   <dipole>
    <v name="dipole">      0.00000000       0.00000000       0.00070055 </v>
    <i name="Tr[quadrupol]"> -10251.01228027 </i>
    <i name="Echarged">      0.00000000 </i>
    <i name="Edipol_quadrupol">      0.00000000 </i>
    <i name="Eion">      0.00000000 </i>
   </dipole>
   <energy>
    <i name="alphaZ">    805.86883024 </i>
    <i name="ewald"> 199170.68632501 </i>
    <i name="hartreedc">-241364.64785258 </i>
    <i name="XCdc">   -344.26790985 </i>
    <i name="pawpsdc">  49200.15088451 </i>
    <i name="pawaedc"> -47276.15158816 </i>
    <i name="eentropy">     -0.24242801 </i>
    <i name="bandstr">  -2040.02374353 </i>
    <i name="atom">  41659.78587232 </i>
    <i name="e_fr_energy">   -188.84161005 </i>
    <i name="e_wo_entrp">   -188.59918204 </i>
    <i name="e_0_energy">   -188.72039605 </i>
   </energy>
  </scstep>
  <structure>
   <crystal>
    <varray name="basis" >
     <v>      11.00258152       0.00000000       0.00000000 </v>
     <v>       5.50129076       9.52851510       0.00000000 </v>
     <v>       0.00000000       0.00000000      24.49178509 </v>
    </varray>
    <i name="volume">   2567.67623402 </i>
    <varray name="rec_basis" >
     <v>       0.09088776      -0.05247407       0.00000000 </v>
     <v>       0.00000000       0.10494815       0.00000000 </v>
     <v>       0.00000000       0.00000000       0.04083002 </v>
    </varray>
   </crystal>
   <varray name="positions" >
    <v>       0.75072569       0.74992356       0.59329208 </v>
    <v>       0.08333333       0.83333333       0.40830017 </v>
    <v>      -0.00035212       0.50134275       0.59393967 </v>
    <v>       0.41724701       0.66533369       0.49970745 </v>
    <v>       0.74815453       0.25049129       0.59386401 </v>
    <v>      -0.00003104       0.24997369       0.59436436 </v>
    <v>       0.91564696       0.41859271       0.49989641 </v>
    <v>       0.00071625      -0.00152165       0.59425567 </v>
    <v>       0.91607616       0.16586616       0.49922964 </v>
    <v>       0.83333333       0.58333333       0.40830017 </v>
    <v>       0.33333333       0.33333333       0.40830017 </v>
    <v>       0.16810558       0.16576172       0.49917881 </v>
    <v>       0.91375318       0.91658930       0.49992531 </v>
    <v>       0.16740102       0.41755674       0.49960921 </v>
    <v>       0.25132141       0.24980474       0.59392880 </v>
    <v>       0.83333333       0.33333333       0.40830017 </v>
    <v>       0.16708589       0.66502403       0.50034919 </v>
    <v>       0.16785128       0.91646973       0.49994270 </v>
    <v>       0.49977462       0.74896119       0.59389470 </v>
    <v>       0.41696432       0.91737545       0.49953375 </v>
    <v>       0.50033418       0.00092700       0.59354002 </v>
    <v>       0.58333333       0.33333333       0.40830017 </v>
    <v>       0.58333333       0.83333333       0.40830017 </v>
    <v>       0.66473186       0.41824907       0.50037319 </v>
    <v>       0.33333333       0.83333333       0.40830017 </v>
    <v>       0.25077447       0.50032398       0.59281204 </v>
    <v>       0.33333333       0.58333333       0.40830017 </v>
    <v>       0.25001978      -0.00046082       0.59322561 </v>
    <v>       0.08333333       0.33333333       0.40830017 </v>
    <v>       0.00027456       0.74987094       0.59285914 </v>
    <v>       0.91581433       0.66797311       0.49986048 </v>
    <v>       0.08333333       0.58333333       0.40830017 </v>
    <v>       0.66731465       0.91718925       0.49979299 </v>
    <v>       0.33333333       0.08333333       0.40830017 </v>
    <v>       0.58333333       0.08333333       0.40830017 </v>
    <v>       0.74946132       0.50024699       0.59296121 </v>
    <v>       0.41719050       0.41579618       0.50049616 </v>
    <v>       0.50010896       0.25036937       0.59231742 </v>
    <v>       0.08333333       0.08333333       0.40830017 </v>
    <v>       0.74960826       0.00017318       0.59262278 </v>
    <v>       0.49948337       0.49971614       0.59282838 </v>
    <v>       0.83333333       0.83333333       0.40830017 </v>
    <v>       0.83333333       0.08333333       0.40830017 </v>
    <v>       0.66721589       0.66669230       0.49998140 </v>
    <v>       0.66529503       0.16602691       0.50001097 </v>
    <v>       0.58333333       0.58333333       0.40830017 </v>
    <v>       0.41847000       0.16633530       0.49978529 </v>
    <v>       0.24993618       0.74954305       0.59312091 </v>
   </varray>
  </structure>
  <varray name="forces" >
   <v>       0.06443186       0.03924485       0.87323143 </v>
   <v>      -0.03563848      -0.02732273      -1.63762316 </v>
   <v>       0.12128694       0.12225058       1.11887158 </v>
   <v>      -0.00501821      -0.08439361       0.14669687 </v>
   <v>      -0.21236819       0.01663508       1.07046275 </v>
   <v>      -0.02533187      -0.03064039       1.19378648 </v>
   <v>       0.08006963       0.13792629       0.42974630 </v>
   <v>      -0.03823907      -0.19684369       1.20426909 </v>
   <v>      -0.20262691      -0.10406349       0.24856035 </v>
   <v>       0.29098015       0.22746136      -1.43561383 </v>
   <v>      -0.03708983      -0.09103975      -1.37805605 </v>
   <v>       0.15075619       0.10018177       0.13738200 </v>
   <v>      -0.32555912       0.00280042       0.26478741 </v>
   <v>       0.06458169       0.01174882       0.25279790 </v>
   <v>       0.16098832       0.02928058       1.06091244 </v>
   <v>       0.06857981      -0.17239612      -1.77671539 </v>
   <v>      -0.04540825      -0.10571720       0.34810043 </v>
   <v>       0.01589320      -0.09395311       0.33395908 </v>
   <v>      -0.14921151      -0.12073210       1.08617689 </v>
   <v>       0.25219208      -0.00600749       0.23475781 </v>
   <v>       0.10823868       0.05491411       0.95172995 </v>
   <v>      -0.14632929      -0.09301395      -1.30646863 </v>
   <v>       0.07140205       0.13611472      -1.30269623 </v>
   <v>      -0.14885931       0.08820080       0.43965784 </v>
   <v>       0.00851030      -0.03910724      -1.05653838 </v>
   <v>       0.16674907       0.03567940       0.69649492 </v>
   <v>       0.06020266       0.04289425      -0.85861010 </v>
   <v>      -0.00286325      -0.06510226       0.76992545 </v>
   <v>       0.07292584      -0.08933946      -1.00034439 </v>
   <v>       0.07559948      -0.00208016       0.65811130 </v>
   <v>      -0.06315081       0.18437669       0.17633707 </v>
   <v>      -0.06664679       0.07756645      -0.94062922 </v>
   <v>       0.00890671       0.05199832       0.14468091 </v>
   <v>       0.00186047       0.06623835      -0.94071438 </v>
   <v>       0.08775689      -0.12043768      -0.61004358 </v>
   <v>      -0.07461350       0.00138735       0.70830159 </v>
   <v>       0.02024537      -0.19941955       0.35339012 </v>
   <v>       0.04816537       0.08070814       0.43800142 </v>
   <v>       0.16078988      -0.01847053      -1.11613430 </v>
   <v>      -0.02514246       0.03654950       0.58294722 </v>
   <v>      -0.15945817      -0.01379429       0.70954439 </v>
   <v>      -0.02686896       0.07836643      -0.80199827 </v>
   <v>      -0.22873195      -0.11203311      -0.92067492 </v>
   <v>       0.08259481       0.16080665       0.29366083 </v>
   <v>      -0.25087750      -0.01825000       0.18749602 </v>
   <v>      -0.19611319       0.18105395      -0.91886915 </v>
   <v>       0.26707565      -0.06475209       0.14120569 </v>
   <v>      -0.04463650      -0.09547487       0.74574645 </v>
  </varray>
  <energy>
   <i name="e_fr_energy">   -188.84161005 </i>
   <i name="e_wo_entrp">   -188.72039605 </i>
   <i name="e_0_energy">     -0.24242801 </i>
  </energy>
  <time name="totalsc">   76.67   77.15</time>
 </calculation>
 <calculation>
  <scstep>
   <time name="dav">    7.01    7.03</time>
   <time name="total">    7.30    7.32</time>
   <dipole>
    <v name="dipole">      0.00000000       0.00000000       0.00046071 </v>
    <i name="Tr[quadrupol]"> -10278.42749900 </i>
    <i name="Echarged">      0.00000000 </i>
    <i name="Edipol_quadrupol">      0.00000000 </i>
    <i name="Eion">      0.00000000 </i>
   </dipole>
   <energy>
    <i name="alphaZ">    805.86855798 </i>
    <i name="ewald"> 195965.05509405 </i>
    <i name="hartreedc">-238175.93017327 </i>
    <i name="XCdc">   -346.50679765 </i>
    <i name="pawpsdc">  49200.01280484 </i>
    <i name="pawaedc"> -47276.01327384 </i>
    <i name="eentropy">     -0.24132858 </i>
    <i name="bandstr">  -2020.39804253 </i>
    <i name="atom">  41659.78587232 </i>
    <i name="e_fr_energy">   -188.36728668 </i>
    <i name="e_wo_entrp">   -188.12595810 </i>
    <i name="e_0_energy">   -188.24662239 </i>
   </energy>
  </scstep>
  <scstep>
   <time name="diag">    1.23    1.23</time>
   <time name="diis">    3.41    3.42</time>
   <time name="orth">    0.29    0.29</time>
   <time name="total">    5.22    5.23</time>
   <dipole>
    <v name="dipole">      0.00000000       0.00000000       0.10548653 </v>
    <i name="Tr[quadrupol]"> -10278.07002987 </i>
    <i name="Echarged">      0.00000000 </i>
    <i name="Edipol_quadrupol">      0.00000000 </i>
    <i name="Eion">      0.00000000 </i>
   </dipole>
   <energy>
    <i name="e_fr_energy">   -189.63023294 </i>
    <i name="e_wo_entrp">   -189.40049574 </i>
    <i name="e_0_energy">   -189.51536434 </i>
   </energy>
  </scstep>
  <scstep>
   <time name="diag">    1.24    1.24</time>
   <time name="diis">    3.51    3.60</time>
   <time name="orth">    0.29    0.29</time>
   <time name="total">    5.33    5.43</time>
   <dipole>
    <v name="dipole">      0.00000000       0.00000000      -0.20895027 </v>
    <i name="Tr[quadrupol]"> -10278.49186718 </i>
    <i name="Echarged">      0.00000000 </i>
    <i name="Edipol_quadrupol">      0.00000000 </i>
    <i name="Eion">      0.00000000 </i>
   </dipole>
   <energy>
    <i name="e_fr_energy">   -190.29491153 </i>
    <i name="e_wo_entrp">   -190.06834189 </i>
    <i name="e_0_energy">   -190.18162671 </i>
   </energy>
  </scstep>
  <scstep>
   <time name="diag">    1.23    1.23</time>
   <time name="diis">    3.42    3.43</time>
   <time name="orth">    0.30    0.30</time>
   <time name="total">    5.24    5.25</time>
   <dipole>
    <v name="dipole">      0.00000000       0.00000000       0.06077217 </v>
    <i name="Tr[quadrupol]"> -10278.58063400 </i>
    <i name="Echarged">      0.00000000 </i>
    <i name="Edipol_quadrupol">      0.00000000 </i>
    <i name="Eion">      0.00000000 </i>
   </dipole>
   <energy>
    <i name="e_fr_energy">   -189.62089079 </i>
    <i name="e_wo_entrp">   -189.37031038 </i>
    <i name="e_0_energy">   -189.49560059 </i>
   </energy>
  </scstep>
  <scstep>
   <time name="diag">    1.24    1.24</time>
   <time name="diis">    3.43    3.44</time>
   <time name="orth">    0.29    0.30</time>
   <time name="total">    5.26    5.30</time>
   <dipole>
    <v name="dipole">      0.00000000       0.00000000       0.00342173 </v>
    <i name="Tr[quadrupol]"> -10278.40853216 </i>
    <i name="Echarged">      0.00000000 </i>
    <i name="Edipol_quadrupol">      0.00000000 </i>
    <i name="Eion">      0.00000000 </i>
   </dipole>
   <energy>
    <i name="e_fr_energy">   -189.55048255 </i>
    <i name="e_wo_entrp">   -189.32728021 </i>
    <i name="e_0_energy">   -189.43888138 </i>
   </energy>
  </scstep>
  <scstep>
   <time name="diag">    1.24    1.24</time>
   <time name="diis">    3.38    3.39</time>
   <time name="orth">    0.29    0.29</time>
   <time name="total">    5.20    5.21</time>
   <dipole>
    <v name="dipole">      0.00000000       0.00000000       0.05689309 </v>
    <i name="Tr[quadrupol]"> -10278.49318608 </i>
    <i name="Echarged">      0.00000000 </i>
    <i name="Edipol_quadrupol">      0.00000000 </i>
    <i name="Eion">      0.00000000 </i>
   </dipole>
   <energy>
    <i name="e_fr_energy">   -189.55167320 </i>
    <i name="e_wo_entrp">   -189.30414874 </i>
    <i name="e_0_energy">   -189.42791097 </i>
   </energy>
  </scstep>
  <scstep>
   <time name="diag">    1.23    1.24</time>
   <time name="diis">    3.43    3.44</time>
   <time name="orth">    0.29    0.29</time>
   <time name="total">    5.25    5.26</time>
   <dipole>
    <v name="dipole">      0.00000000       0.00000000       0.03898707 </v>
    <i name="Tr[quadrupol]"> -10278.45504865 </i>
    <i name="Echarged">      0.00000000 </i>
    <i name="Edipol_quadrupol">      0.00000000 </i>
    <i name="Eion">      0.00000000 </i>
   </dipole>
   <energy>
[...]
       <r>    -9.4828     0.0000     0.0000 </r>
       <r>    -9.4282     0.0000     0.0000 </r>
       <r>    -9.3737     0.0000     0.0000 </r>
       <r>    -9.3192     0.0000     0.0000 </r>
       <r>    -9.2647     0.0002     0.0000 </r>
       <r>    -9.2102     0.0052     0.0003 </r>
       <r>    -9.1557     0.0647     0.0038 </r>
       <r>    -9.1011     0.4557     0.0287 </r>
       <r>    -9.0466     1.8285     0.1284 </r>
       <r>    -8.9921     4.2106     0.3579 </r>
       <r>    -8.9376     5.7202     0.6698 </r>
       <r>    -8.8831     5.2527     0.9561 </r>
       <r>    -8.8286     4.8948     1.2230 </r>
       <r>    -8.7740     5.4933     1.5224 </r>
       <r>    -8.7195     4.9090     1.7901 </r>
       <r>    -8.6650     2.7467     1.9398 </r>
       <r>    -8.6105     0.9088     1.9894 </r>
       <r>    -8.5560     0.1796     1.9991 </r>
       <r>    -8.5015     0.0737     2.0032 </r>
       <r>    -8.4469     0.3566     2.0226 </r>
       <r>    -8.3924     1.3476     2.0961 </r>
       <r>    -8.3379     3.0265     2.2611 </r>
       <r>    -8.2834     4.2340     2.4919 </r>
       <r>    -8.2289     4.1544     2.7184 </r>
       <r>    -8.1743     3.6381     2.9167 </r>
       <r>    -8.1198     4.0910     3.1397 </r>
       <r>    -8.0653     6.0971     3.4721 </r>
       <r>    -8.0108     8.2042     3.9194 </r>
       <r>    -7.9563     8.3459     4.3744 </r>
       <r>    -7.9018     6.4706     4.7272 </r>
       <r>    -7.8472     4.3388     4.9637 </r>
       <r>    -7.7927     4.0006     5.1818 </r>
       <r>    -7.7382     5.4281     5.4777 </r>
       <r>    -7.6837     6.4359     5.8286 </r>
       <r>    -7.6292     6.7352     6.1958 </r>
       <r>    -7.5747     7.5319     6.6064 </r>
       <r>    -7.5201     8.3772     7.0631 </r>
       <r>    -7.4656     9.5223     7.5822 </r>
       <r>    -7.4111    12.1474     8.2445 </r>
       <r>    -7.3566    15.9441     9.1137 </r>
       <r>    -7.3021    20.1678    10.2132 </r>
       <r>    -7.2476    23.6143    11.5005 </r>
       <r>    -7.1930    24.9276    12.8595 </r>
       <r>    -7.1385    25.2417    14.2356 </r>
       <r>    -7.0840    26.4225    15.6761 </r>
       <r>    -7.0295    28.1143    17.2088 </r>
       <r>    -6.9750    28.7145    18.7742 </r>
       <r>    -6.9205    27.7621    20.2878 </r>
       <r>    -6.8659    25.7479    21.6915 </r>
       <r>    -6.8114    24.1680    23.0090 </r>
       <r>    -6.7569    26.2477    24.4400 </r>
       <r>    -6.7024    33.6705    26.2756 </r>
       <r>    -6.6479    43.2499    28.6334 </r>
       <r>    -6.5934    49.3579    31.3243 </r>
       <r>    -6.5388    50.5637    34.0809 </r>
       <r>    -6.4843    51.5071    36.8889 </r>
       <r>    -6.4298    56.9741    39.9949 </r>
       <r>    -6.3753    66.6061    43.6261 </r>
       <r>    -6.3208    75.2455    47.7283 </r>
       <r>    -6.2663    77.9997    51.9806 </r>
       <r>    -6.2117    76.2750    56.1388 </r>
       <r>    -6.1572    75.5918    60.2599 </r>
       <r>    -6.1027    78.3401    64.5308 </r>
       <r>    -6.0482    81.9297    68.9973 </r>
       <r>    -5.9937    82.1125    73.4738 </r>
       <r>    -5.9392    77.6360    77.7063 </r>
       <r>    -5.8846    72.3251    81.6493 </r>
       <r>    -5.8301    70.4367    85.4893 </r>
       <r>    -5.7756    71.1047    89.3657 </r>
       <r>    -5.7211    71.1162    93.2427 </r>
       <r>    -5.6666    69.8213    97.0492 </r>
       <r>    -5.6121    68.2228   100.7685 </r>
       <r>    -5.5575    66.9397   104.4178 </r>
       <r>    -5.5030    65.5614   107.9920 </r>
       <r>    -5.4485    63.8055   111.4705 </r>
       <r>    -5.3940    63.8230   114.9500 </r>
       <r>    -5.3395    67.6506   118.6381 </r>
       <r>    -5.2849    73.9126   122.6676 </r>
       <r>    -5.2304    79.6748   127.0112 </r>
       <r>    -5.1759    84.1276   131.5976 </r>
       <r>    -5.1214    87.8096   136.3847 </r>
       <r>    -5.0669    90.3736   141.3116 </r>
       <r>    -5.0124    91.6120   146.3060 </r>
       <r>    -4.9578    91.1903   151.2774 </r>
       <r>    -4.9033    88.5833   156.1067 </r>
       <r>    -4.8488    84.9668   160.7389 </r>
       <r>    -4.7943    82.4057   165.2314 </r>
       <r>    -4.7398    81.5193   169.6756 </r>
       <r>    -4.6853    81.3980   174.1131 </r>
       <r>    -4.6307    81.2131   178.5406 </r>
       <r>    -4.5762    81.0764   182.9607 </r>
       <r>    -4.5217    81.8363   187.4221 </r>
       <r>    -4.4672    83.8746   191.9947 </r>
       <r>    -4.4127    85.5604   196.6592 </r>
       <r>    -4.3582    84.7329   201.2786 </r>
       <r>    -4.3036    83.0989   205.8089 </r>
       <r>    -4.2491    83.4969   210.3609 </r>
       <r>    -4.1946    85.3084   215.0117 </r>
       <r>    -4.1401    86.9526   219.7521 </r>
       <r>    -4.0856    87.5471   224.5249 </r>
       <r>    -4.0311    87.2869   229.2835 </r>
       <r>    -3.9765    88.2162   234.0928 </r>
       <r>    -3.9220    90.9315   239.0501 </r>
       <r>    -3.8675    93.4677   244.1457 </r>
       <r>    -3.8130    94.9910   249.3243 </r>
       <r>    -3.7585    96.4135   254.5805 </r>
       <r>    -3.7040    98.1856   259.9333 </r>
       <r>    -3.6494    98.6150   265.3094 </r>
       <r>    -3.5949    95.4820   270.5148 </r>
       <r>    -3.5404    90.6597   275.4573 </r>
       <r>    -3.4859    88.6879   280.2923 </r>
       <r>    -3.4314    90.8192   285.2435 </r>
       <r>    -3.3769    93.9325   290.3644 </r>
       <r>    -3.3223    94.7407   295.5294 </r>
       <r>    -3.2678    92.8575   300.5917 </r>
       <r>    -3.2133    90.2918   305.5142 </r>
       <r>    -3.1588    88.9816   310.3652 </r>
       <r>    -3.1043    88.9325   315.2135 </r>
       <r>    -3.0498    89.8046   320.1094 </r>
       <r>    -2.9952    91.3856   325.0914 </r>
       <r>    -2.9407    92.4770   330.1330 </r>
       <r>    -2.8862    92.5327   335.1776 </r>
       <r>    -2.8317    93.1639   340.2566 </r>
       <r>    -2.7772    95.7844   345.4785 </r>
       <r>    -2.7226    99.7403   350.9161 </r>
       <r>    -2.6681   103.2637   356.5457 </r>
       <r>    -2.6136   104.5850   362.2473 </r>
       <r>    -2.5591   103.0317   367.8643 </r>
       <r>    -2.5046    98.8169   373.2515 </r>
       <r>    -2.4501    93.5171   378.3498 </r>
       <r>    -2.3955    90.4802   383.2825 </r>
       <r>    -2.3410    90.7826   388.2317 </r>
       <r>    -2.2865    91.7957   393.2361 </r>
       <r>    -2.2320    90.6287   398.1769 </r>
       <r>    -2.1775    87.4415   402.9440 </r>
       <r>    -2.1230    85.7646   407.6196 </r>
       <r>    -2.0684    88.2139   412.4288 </r>
       <r>    -2.0139    93.6861   417.5363 </r>
       <r>    -1.9594    99.5425   422.9630 </r>
       <r>    -1.9049   104.3993   428.6546 </r>
       <r>    -1.8504   107.4792   434.5140 </r>
       <r>    -1.7959   108.5373   440.4311 </r>
       <r>    -1.7413   108.9188   446.3690 </r>
       <r>    -1.6868   108.9172   452.3069 </r>
       <r>    -1.6323   107.1671   458.1493 </r>
       <r>    -1.5778   103.4475   463.7890 </r>
       <r>    -1.5233    98.9032   469.1809 </r>
       <r>    -1.4688    95.3353   474.3783 </r>
       <r>    -1.4142    93.8643   479.4955 </r>
       <r>    -1.3597    93.8571   484.6123 </r>
       <r>    -1.3052    92.6512   489.6633 </r>
       <r>    -1.2507    86.6275   494.3860 </r>
       <r>    -1.1962    74.5947   498.4527 </r>
       <r>    -1.1417    59.4090   501.6915 </r>
       <r>    -1.0871    45.7832   504.1875 </r>
       <r>    -1.0326    35.6192   506.1293 </r>
       <r>    -0.9781    27.0604   507.6046 </r>
       <r>    -0.9236    19.1214   508.6470 </r>
       <r>    -0.8691    13.0471   509.3583 </r>
       <r>    -0.8146     9.6409   509.8839 </r>
       <r>    -0.7600     9.0466   510.3771 </r>
       <r>    -0.7055    10.9968   510.9766 </r>
       <r>    -0.6510    13.9167   511.7353 </r>
       <r>    -0.5965    16.5281   512.6364 </r>
       <r>    -0.5420    19.3102   513.6891 </r>
       <r>    -0.4875    22.4159   514.9111 </r>
       <r>    -0.4329    23.3607   516.1847 </r>
       <r>    -0.3784    20.4289   517.2984 </r>
       <r>    -0.3239    17.2006   518.2361 </r>
       <r>    -0.2694    18.0874   519.2222 </r>
       <r>    -0.2149    20.4033   520.3345 </r>
       <r>    -0.1604    18.8571   521.3626 </r>
       <r>    -0.1058    14.3830   522.1467 </r>
       <r>    -0.0513    10.3752   522.7123 </r>
       <r>     0.0032     8.1234   523.1552 </r>
       <r>     0.0577     8.4075   523.6135 </r>
       <r>     0.1122    11.0260   524.2146 </r>
       <r>     0.1668    13.9118   524.9730 </r>
       <r>     0.2213    14.7343   525.7763 </r>
       <r>     0.2758    14.7239   526.5790 </r>
       <r>     0.3303    16.5010   527.4786 </r>
       <r>     0.3848    19.3228   528.5320 </r>
       <r>     0.4393    21.8043   529.7207 </r>
       <r>     0.4939    24.8036   531.0729 </r>
       <r>     0.5484    27.8941   532.5936 </r>
       <r>     0.6029    28.5286   534.1489 </r>
       <r>     0.6574    26.5201   535.5947 </r>
       <r>     0.7119    23.0467   536.8512 </r>
       <r>     0.7664    18.8329   537.8779 </r>
       <r>     0.8210    15.1155   538.7019 </r>
       <r>     0.8755    12.6471   539.3914 </r>
       <r>     0.9300    11.6145   540.0246 </r>
       <r>     0.9845    12.0741   540.6829 </r>
       <r>     1.0390    12.7462   541.3777 </r>
       <r>     1.0935    11.8687   542.0248 </r>
       <r>     1.1481     9.2030   542.5265 </r>
       <r>     1.2026     5.7191   542.8383 </r>
       <r>     1.2571     3.2053   543.0130 </r>
       <r>     1.3116     3.3081   543.1934 </r>
       <r>     1.3661     5.7338   543.5060 </r>
       <r>     1.4206     8.8061   543.9861 </r>
       <r>     1.4752    11.8602   544.6326 </r>
       <r>     1.5297    15.0246   545.4517 </r>
       <r>     1.5842    16.8082   546.3681 </r>
       <r>     1.6387    15.9220   547.2361 </r>
       <r>     1.6932    14.2300   548.0119 </r>
       <r>     1.7477    14.2846   548.7906 </r>
       <r>     1.8023    15.6893   549.6460 </r>
       <r>     1.8568    16.0825   550.5227 </r>
       <r>     1.9113    14.2587   551.3001 </r>
       <r>     1.9658    11.3740   551.9201 </r>
       <r>     2.0203    10.2448   552.4787 </r>
       <r>     2.0748    12.6220   553.1668 </r>
       <r>     2.1294    17.9497   554.1453 </r>
       <r>     2.1839    23.1435   555.4070 </r>
       <r>     2.2384    25.0996   556.7754 </r>
       <r>     2.2929    24.4634   558.1091 </r>
       <r>     2.3474    22.9353   559.3594 </r>
       <r>     2.4019    20.7832   560.4925 </r>
       <r>     2.4565    18.5426   561.5034 </r>
       <r>     2.5110    17.2641   562.4446 </r>
       <r>     2.5655    17.7285   563.4111 </r>
       <r>     2.6200    20.7628   564.5430 </r>
       <r>     2.6745    24.7810   565.8940 </r>
       <r>     2.7291    24.8220   567.2472 </r>
       <r>     2.7836    18.4896   568.2552 </r>
       <r>     2.8381    10.3609   568.8200 </r>
       <r>     2.8926     6.1521   569.1554 </r>
       <r>     2.9471     5.8663   569.4752 </r>
       <r>     3.0016     5.4871   569.7744 </r>
       <r>     3.0562     3.9289   569.9886 </r>
       <r>     3.1107     3.9337   570.2030 </r>
       <r>     3.1652     6.3716   570.5504 </r>
       <r>     3.2197     8.9896   571.0405 </r>
       <r>     3.2742    10.2542   571.5995 </r>
       <r>     3.3287    10.1807   572.1545 </r>
       <r>     3.3833     9.3679   572.6652 </r>
       <r>     3.4378     9.9193   573.2060 </r>
       <r>     3.4923    12.4602   573.8853 </r>
       <r>     3.5468    14.5960   574.6810 </r>
       <r>     3.6013    16.6566   575.5891 </r>
       <r>     3.6558    20.5041   576.7069 </r>
       <r>     3.7104    23.0799   577.9652 </r>
       <r>     3.7649    21.2294   579.1225 </r>
       <r>     3.8194    16.9920   580.0489 </r>
       <r>     3.8739    13.2671   580.7722 </r>
       <r>     3.9284    11.3598   581.3915 </r>
       <r>     3.9829    12.1052   582.0514 </r>
       <r>     4.0375    13.9390   582.8113 </r>
       <r>     4.0920    13.3253   583.5378 </r>
       <r>     4.1465    10.9293   584.1336 </r>
       <r>     4.2010    10.2213   584.6908 </r>
       <r>     4.2555    10.3815   585.2568 </r>
       <r>     4.3100     9.0845   585.7521 </r>
       <r>     4.3646     8.0575   586.1913 </r>
       <r>     4.4191     9.8917   586.7306 </r>
       <r>     4.4736    13.3622   587.4591 </r>
       <r>     4.5281    17.4857   588.4123 </r>
       <r>     4.5826    23.4393   589.6902 </r>
       <r>     4.6371    28.2919   591.2326 </r>
       <r>     4.6917    27.9226   592.7548 </r>
       <r>     4.7462    25.2290   594.1302 </r>
       <r>     4.8007    24.3994   595.4604 </r>
       <r>     4.8552    24.5343   596.7979 </r>
       <r>     4.9097    24.8146   598.1508 </r>
       <r>     4.9642    27.1321   599.6299 </r>
       <r>     5.0188    31.9107   601.3696 </r>
       <r>     5.0733    36.2586   603.3463 </r>
       <r>     5.1278    36.5759   605.3403 </r>
       <r>     5.1823    33.4727   607.1651 </r>
       <r>     5.2368    30.3482   608.8196 </r>
       <r>     5.2913    25.9018   610.2317 </r>
       <r>     5.3459    17.9185   611.2086 </r>
       <r>     5.4004     9.3906   611.7205 </r>
       <r>     5.4549     3.7419   611.9245 </r>
       <r>     5.5094     1.1176   611.9855 </r>
       <r>     5.5639     0.2330   611.9982 </r>
       <r>     5.6185     0.0311   611.9999 </r>
       <r>     5.6730     0.0025   612.0000 </r>
       <r>     5.7275     0.0001   612.0000 </r>
       <r>     5.7820     0.0000   612.0000 </r>
       <r>     5.8365     0.0000   612.0000 </r>
       <r>     5.8910     0.0000   612.0000 </r>
       <r>     5.9456     0.0000   612.0000 </r>
       <r>     6.0001     0.0000   612.0000 </r>
       <r>     6.0546     0.0000   612.0000 </r>
       <r>     6.1091     0.0000   612.0000 </r>
       <r>     6.1636     0.0000   612.0000 </r>
       <r>     6.2181     0.0000   612.0000 </r>
       <r>     6.2727     0.0000   612.0000 </r>
       <r>     6.3272     0.0000   612.0000 </r>
       <r>     6.3817     0.0000   612.0000 </r>
      </set>
     </set>
    </array>
   </total>
  </dos>
 </calculation>
 <structure name="finalpos" >
  <crystal>
   <varray name="basis" >
    <v>      11.00258152       0.00000000       0.00000000 </v>
    <v>       5.50129076       9.52851510       0.00000000 </v>
    <v>       0.00000000       0.00000000      24.49178509 </v>
   </varray>
   <i name="volume">   2567.67623402 </i>
   <varray name="rec_basis" >
    <v>       0.09088776      -0.05247407       0.00000000 </v>
    <v>       0.00000000       0.10494815       0.00000000 </v>
    <v>       0.00000000       0.00000000       0.04083002 </v>
   </varray>
  </crystal>
  <varray name="positions" >
   <v>       0.75112988       0.74990221       0.60853725 </v>
   <v>       0.08333333       0.83333333       0.40830017 </v>
   <v>       0.00110342       0.50183404       0.61402843 </v>
   <v>       0.41773220       0.66515657       0.50638805 </v>
   <v>       0.74696424       0.24989446       0.61269735 </v>
   <v>       0.00018685       0.24885900       0.61659587 </v>
   <v>       0.91541878       0.41924791       0.51085553 </v>
   <v>       0.00126016      -0.00348958       0.61535441 </v>
   <v>       0.91422569       0.16601874       0.50897306 </v>
   <v>       0.83333333       0.58333333       0.40830017 </v>
   <v>       0.33333333       0.33333333       0.40830017 </v>
   <v>       0.16735847       0.16746917       0.50691389 </v>
   <v>       0.91148861       0.91728782       0.50711522 </v>
   <v>       0.16709201       0.41713177       0.50812332 </v>
   <v>       0.25182691       0.25017323       0.61206429 </v>
   <v>       0.83333333       0.33333333       0.40830017 </v>
   <v>       0.16649382       0.66425435       0.50757364 </v>
   <v>       0.16624597       0.91700219       0.50880415 </v>
   <v>       0.49863166       0.74740366       0.61177143 </v>
   <v>       0.41805242       0.91751455       0.50757369 </v>
   <v>       0.50065775       0.00091751       0.60950996 </v>
   <v>       0.58333333       0.33333333       0.40830017 </v>
   <v>       0.58333333       0.83333333       0.40830017 </v>
   <v>       0.66453637       0.41769867       0.51012606 </v>
   <v>       0.33333333       0.83333333       0.40830017 </v>
   <v>       0.25202076       0.50052859       0.60548757 </v>
   <v>       0.33333333       0.58333333       0.40830017 </v>
   <v>       0.24984908      -0.00083810       0.60684626 </v>
   <v>       0.08333333       0.33333333       0.40830017 </v>
   <v>       0.00117995       0.75000973       0.60468685 </v>
   <v>       0.91341113       0.66848430       0.50791875 </v>
   <v>       0.08333333       0.58333333       0.40830017 </v>
   <v>       0.66590104       0.91736936       0.50712515 </v>
   <v>       0.33333333       0.08333333       0.40830017 </v>
   <v>       0.58333333       0.08333333       0.40830017 </v>
   <v>       0.74964284       0.49920720       0.60756762 </v>
   <v>       0.41781068       0.41424113       0.50766803 </v>
   <v>       0.49997269       0.25085923       0.60306462 </v>
   <v>       0.08333333       0.08333333       0.40830017 </v>
   <v>       0.74994959       0.00046704       0.60397518 </v>
   <v>       0.49811315       0.49945038       0.60601691 </v>
   <v>       0.83333333       0.83333333       0.40830017 </v>
   <v>       0.83333333       0.08333333       0.40830017 </v>
   <v>       0.66638562       0.66838457       0.50916200 </v>
   <v>       0.66359223       0.16684807       0.50679672 </v>
   <v>       0.58333333       0.58333333       0.40830017 </v>
   <v>       0.41944728       0.16576638       0.50724798 </v>
   <v>       0.24989245       0.74853832       0.60580096 </v>
  </varray>
  <varray name="selective"  type="logical" >
   <v type="logical" >  T  T  T </v>
   <v type="logical" >  F  F  F </v>
   <v type="logical" >  T  T  T </v>
   <v type="logical" >  T  T  T </v>
   <v type="logical" >  T  T  T </v>
   <v type="logical" >  T  T  T </v>
   <v type="logical" >  T  T  T </v>
   <v type="logical" >  T  T  T </v>
   <v type="logical" >  T  T  T </v>
   <v type="logical" >  F  F  F </v>
   <v type="logical" >  F  F  F </v>
   <v type="logical" >  T  T  T </v>
   <v type="logical" >  T  T  T </v>
   <v type="logical" >  T  T  T </v>
   <v type="logical" >  T  T  T </v>
   <v type="logical" >  F  F  F </v>
   <v type="logical" >  T  T  T </v>
   <v type="logical" >  T  T  T </v>
   <v type="logical" >  T  T  T </v>
   <v type="logical" >  T  T  T </v>
   <v type="logical" >  T  T  T </v>
   <v type="logical" >  F  F  F </v>
   <v type="logical" >  F  F  F </v>
   <v type="logical" >  T  T  T </v>
   <v type="logical" >  F  F  F </v>
   <v type="logical" >  T  T  T </v>
   <v type="logical" >  F  F  F </v>
   <v type="logical" >  T  T  T </v>
   <v type="logical" >  F  F  F </v>
   <v type="logical" >  T  T  T </v>
   <v type="logical" >  T  T  T </v>
   <v type="logical" >  F  F  F </v>
   <v type="logical" >  T  T  T </v>
   <v type="logical" >  F  F  F </v>
   <v type="logical" >  F  F  F </v>
   <v type="logical" >  T  T  T </v>
   <v type="logical" >  T  T  T </v>
   <v type="logical" >  T  T  T </v>
   <v type="logical" >  F  F  F </v>
   <v type="logical" >  T  T  T </v>
   <v type="logical" >  T  T  T </v>
   <v type="logical" >  F  F  F </v>
   <v type="logical" >  F  F  F </v>
   <v type="logical" >  T  T  T </v>
   <v type="logical" >  T  T  T </v>
   <v type="logical" >  F  F  F </v>
   <v type="logical" >  T  T  T </v>
   <v type="logical" >  T  T  T </v>
  </varray>
  <nose>
   <v>      -3.00000000       0.00000000       0.00010000       0.00010000 </v>
  </nose>
 </structure>
</modeling>
