  48  48   0   0
  0.5349325E+02  0.1100258E-08  0.1100258E-08  0.2449179E-08  0.3500000E-15
  1.000000000000000E-004
  CAR 
 unknown system                          
      6.38308987     -9.75102074  301     -1.09873430      1.00000000
     -9.751  0.0000E+00  0.0000E+00
     -9.697  0.0000E+00  0.0000E+00
     -9.643  0.0000E+00  0.0000E+00
     -9.590  0.0000E+00  0.0000E+00
     -9.536  0.0000E+00  0.0000E+00
     -9.482  0.0000E+00  0.0000E+00
     -9.428  0.0000E+00  0.0000E+00
     -9.375  0.0000E+00  0.0000E+00
     -9.321  0.1032E-16  0.5551E-18
     -9.267  0.3977E-14  0.2144E-15
     -9.213  0.8730E-12  0.4716E-13
     -9.159  0.1087E-09  0.5893E-11
     -9.106  0.7689E-08  0.4194E-09
     -9.052  0.3096E-06  0.1707E-07
     -8.998  0.7115E-05  0.3997E-06
     -8.944  0.9350E-04  0.5428E-05
     -8.891  0.7046E-03  0.4332E-04
     -8.837  0.3054E-02  0.2076E-03
     -8.783  0.7659E-02  0.6195E-03
     -8.729  0.1140E-01  0.1232E-02
     -8.675  0.1135E-01  0.1843E-02
     -8.622  0.1077E-01  0.2422E-02
     -8.568  0.1170E-01  0.3051E-02
     -8.514  0.1012E-01  0.3595E-02
     -8.460  0.5452E-02  0.3889E-02
     -8.407  0.1722E-02  0.3981E-02
     -8.353  0.3162E-03  0.3998E-02
     -8.299  0.5440E-04  0.4001E-02
     -8.245  0.2034E-03  0.4012E-02
     -8.191  0.1128E-02  0.4073E-02
     -8.138  0.3786E-02  0.4276E-02
     -8.084  0.7814E-02  0.4697E-02
     -8.030  0.1049E-01  0.5260E-02
     -7.976  0.1064E-01  0.5832E-02
     -7.922  0.1133E-01  0.6442E-02
     -7.869  0.1503E-01  0.7250E-02
     -7.815  0.1997E-01  0.8324E-02
     -7.761  0.2313E-01  0.9568E-02
     -7.707  0.2210E-01  0.1076E-01
     -7.654  0.1687E-01  0.1166E-01
     -7.600  0.1314E-01  0.1237E-01
     -7.546  0.1573E-01  0.1322E-01
     -7.492  0.2120E-01  0.1436E-01
     -7.438  0.2301E-01  0.1560E-01
     -7.385  0.2015E-01  0.1668E-01
     -7.331  0.1801E-01  0.1765E-01
     -7.277  0.2104E-01  0.1878E-01
     -7.223  0.2660E-01  0.2021E-01
     -7.170  0.2828E-01  0.2173E-01
     -7.116  0.2469E-01  0.2306E-01
     -7.062  0.2247E-01  0.2427E-01
     -7.008  0.3030E-01  0.2590E-01
     -6.954  0.4788E-01  0.2847E-01
     -6.901  0.6607E-01  0.3203E-01
     -6.847  0.7798E-01  0.3622E-01
     -6.793  0.8245E-01  0.4065E-01
     -6.739  0.8336E-01  0.4514E-01
     -6.686  0.8521E-01  0.4972E-01
     -6.632  0.8731E-01  0.5442E-01
     -6.578  0.8907E-01  0.5921E-01
     -6.524  0.9314E-01  0.6421E-01
     -6.470  0.9964E-01  0.6957E-01
     -6.417  0.1080E+00  0.7538E-01
     -6.363  0.1200E+00  0.8183E-01
     -6.309  0.1337E+00  0.8902E-01
     -6.255  0.1436E+00  0.9674E-01
     -6.202  0.1483E+00  0.1047E+00
     -6.148  0.1507E+00  0.1128E+00
     -6.094  0.1537E+00  0.1211E+00
     -6.040  0.1581E+00  0.1296E+00
     -5.986  0.1607E+00  0.1382E+00
     -5.933  0.1578E+00  0.1467E+00
     -5.879  0.1522E+00  0.1549E+00
     -5.825  0.1491E+00  0.1629E+00
     -5.771  0.1482E+00  0.1709E+00
     -5.717  0.1455E+00  0.1787E+00
     -5.664  0.1413E+00  0.1863E+00
     -5.610  0.1392E+00  0.1938E+00
     -5.556  0.1399E+00  0.2013E+00
     -5.502  0.1433E+00  0.2090E+00
     -5.449  0.1478E+00  0.2170E+00
     -5.395  0.1520E+00  0.2251E+00
     -5.341  0.1575E+00  0.2336E+00
     -5.287  0.1667E+00  0.2426E+00
     -5.233  0.1753E+00  0.2520E+00
     -5.180  0.1757E+00  0.2615E+00
     -5.126  0.1701E+00  0.2706E+00
     -5.072  0.1650E+00  0.2795E+00
     -5.018  0.1609E+00  0.2881E+00
     -4.965  0.1593E+00  0.2967E+00
     -4.911  0.1646E+00  0.3056E+00
     -4.857  0.1754E+00  0.3150E+00
     -4.803  0.1861E+00  0.3250E+00
     -4.749  0.1922E+00  0.3353E+00
     -4.696  0.1917E+00  0.3456E+00
     -4.642  0.1868E+00  0.3557E+00
     -4.588  0.1812E+00  0.3654E+00
     -4.534  0.1774E+00  0.3750E+00
     -4.481  0.1759E+00  0.3844E+00
     -4.427  0.1767E+00  0.3939E+00
     -4.373  0.1788E+00  0.4036E+00
     -4.319  0.1802E+00  0.4132E+00
     -4.265  0.1804E+00  0.4229E+00
     -4.212  0.1806E+00  0.4327E+00
     -4.158  0.1801E+00  0.4423E+00
     -4.104  0.1785E+00  0.4519E+00
     -4.050  0.1779E+00  0.4615E+00
     -3.997  0.1783E+00  0.4711E+00
     -3.943  0.1775E+00  0.4806E+00
     -3.889  0.1770E+00  0.4902E+00
     -3.835  0.1808E+00  0.4999E+00
     -3.781  0.1881E+00  0.5100E+00
     -3.728  0.1949E+00  0.5205E+00
     -3.674  0.1994E+00  0.5312E+00
     -3.620  0.2014E+00  0.5420E+00
     -3.566  0.2009E+00  0.5528E+00
     -3.512  0.1989E+00  0.5635E+00
     -3.459  0.1969E+00  0.5741E+00
     -3.405  0.1954E+00  0.5846E+00
     -3.351  0.1940E+00  0.5951E+00
     -3.297  0.1919E+00  0.6054E+00
     -3.244  0.1888E+00  0.6155E+00
     -3.190  0.1869E+00  0.6256E+00
     -3.136  0.1863E+00  0.6356E+00
     -3.082  0.1857E+00  0.6456E+00
     -3.028  0.1868E+00  0.6557E+00
     -2.975  0.1889E+00  0.6658E+00
     -2.921  0.1904E+00  0.6761E+00
     -2.867  0.1918E+00  0.6864E+00
     -2.813  0.1928E+00  0.6967E+00
     -2.760  0.1935E+00  0.7071E+00
     -2.706  0.1946E+00  0.7176E+00
     -2.652  0.1941E+00  0.7281E+00
     -2.598  0.1910E+00  0.7383E+00
     -2.544  0.1864E+00  0.7483E+00
     -2.491  0.1819E+00  0.7581E+00
     -2.437  0.1786E+00  0.7677E+00
     -2.383  0.1759E+00  0.7772E+00
     -2.329  0.1739E+00  0.7866E+00
     -2.276  0.1754E+00  0.7960E+00
     -2.222  0.1798E+00  0.8057E+00
     -2.168  0.1837E+00  0.8155E+00
     -2.114  0.1867E+00  0.8256E+00
     -2.060  0.1893E+00  0.8358E+00
     -2.007  0.1877E+00  0.8458E+00
     -1.953  0.1825E+00  0.8557E+00
     -1.899  0.1824E+00  0.8655E+00
     -1.845  0.1898E+00  0.8757E+00
     -1.792  0.1972E+00  0.8863E+00
     -1.738  0.1981E+00  0.8969E+00
     -1.684  0.1933E+00  0.9073E+00
     -1.630  0.1894E+00  0.9175E+00
     -1.576  0.1909E+00  0.9278E+00
     -1.523  0.1954E+00  0.9383E+00
     -1.469  0.1985E+00  0.9490E+00
     -1.415  0.1973E+00  0.9596E+00
     -1.361  0.1905E+00  0.9698E+00
     -1.308  0.1778E+00  0.9794E+00
     -1.254  0.1619E+00  0.9881E+00
     -1.200  0.1453E+00  0.9959E+00
     -1.146  0.1277E+00  0.1003E+01
     -1.092  0.1088E+00  0.1009E+01
     -1.039  0.8809E-01  0.1013E+01
     -0.985  0.6429E-01  0.1017E+01
     -0.931  0.4110E-01  0.1019E+01
     -0.877  0.2528E-01  0.1020E+01
     -0.823  0.1778E-01  0.1021E+01
     -0.770  0.1528E-01  0.1022E+01
     -0.716  0.1587E-01  0.1023E+01
     -0.662  0.1908E-01  0.1024E+01
     -0.608  0.2482E-01  0.1025E+01
     -0.555  0.3358E-01  0.1027E+01
     -0.501  0.4386E-01  0.1030E+01
     -0.447  0.4806E-01  0.1032E+01
     -0.393  0.3995E-01  0.1034E+01
     -0.339  0.2678E-01  0.1036E+01
     -0.286  0.2299E-01  0.1037E+01
     -0.232  0.3141E-01  0.1039E+01
     -0.178  0.4005E-01  0.1041E+01
     -0.124  0.4006E-01  0.1043E+01
     -0.071  0.3608E-01  0.1045E+01
     -0.017  0.3468E-01  0.1047E+01
      0.037  0.3340E-01  0.1049E+01
      0.091  0.2965E-01  0.1050E+01
      0.145  0.2815E-01  0.1052E+01
      0.198  0.3046E-01  0.1053E+01
      0.252  0.3296E-01  0.1055E+01
      0.306  0.3484E-01  0.1057E+01
      0.360  0.3782E-01  0.1059E+01
      0.413  0.4089E-01  0.1061E+01
      0.467  0.4220E-01  0.1063E+01
      0.521  0.4284E-01  0.1066E+01
      0.575  0.4422E-01  0.1068E+01
      0.629  0.4495E-01  0.1071E+01
      0.682  0.4248E-01  0.1073E+01
      0.736  0.3751E-01  0.1075E+01
      0.790  0.3086E-01  0.1077E+01
      0.844  0.2249E-01  0.1078E+01
      0.897  0.1653E-01  0.1079E+01
      0.951  0.1582E-01  0.1079E+01
      1.005  0.1820E-01  0.1080E+01
      1.059  0.2112E-01  0.1082E+01
      1.113  0.2346E-01  0.1083E+01
      1.166  0.2481E-01  0.1084E+01
      1.220  0.2372E-01  0.1085E+01
      1.274  0.1987E-01  0.1087E+01
      1.328  0.1546E-01  0.1087E+01
      1.382  0.1283E-01  0.1088E+01
      1.435  0.1436E-01  0.1089E+01
      1.489  0.1995E-01  0.1090E+01
      1.543  0.2724E-01  0.1091E+01
      1.597  0.3334E-01  0.1093E+01
      1.650  0.3454E-01  0.1095E+01
      1.704  0.3326E-01  0.1097E+01
      1.758  0.3553E-01  0.1099E+01
      1.812  0.3809E-01  0.1101E+01
      1.866  0.3332E-01  0.1103E+01
      1.919  0.2363E-01  0.1104E+01
      1.973  0.1870E-01  0.1105E+01
      2.027  0.2021E-01  0.1106E+01
      2.081  0.2315E-01  0.1107E+01
      2.134  0.2665E-01  0.1109E+01
      2.188  0.3107E-01  0.1110E+01
      2.242  0.3600E-01  0.1112E+01
      2.296  0.4202E-01  0.1114E+01
      2.350  0.4596E-01  0.1117E+01
      2.403  0.4387E-01  0.1119E+01
      2.457  0.3848E-01  0.1121E+01
      2.511  0.3477E-01  0.1123E+01
      2.565  0.3625E-01  0.1125E+01
      2.618  0.4345E-01  0.1128E+01
      2.672  0.5116E-01  0.1130E+01
      2.726  0.5308E-01  0.1133E+01
      2.780  0.4532E-01  0.1136E+01
      2.834  0.2996E-01  0.1137E+01
      2.887  0.1715E-01  0.1138E+01
      2.941  0.1317E-01  0.1139E+01
      2.995  0.1317E-01  0.1140E+01
      3.049  0.1278E-01  0.1140E+01
      3.102  0.1422E-01  0.1141E+01
      3.156  0.1804E-01  0.1142E+01
      3.210  0.2134E-01  0.1143E+01
      3.264  0.2221E-01  0.1144E+01
      3.318  0.2120E-01  0.1145E+01
      3.371  0.2049E-01  0.1147E+01
      3.425  0.2103E-01  0.1148E+01
      3.479  0.2193E-01  0.1149E+01
      3.533  0.2372E-01  0.1150E+01
      3.587  0.2739E-01  0.1152E+01
      3.640  0.3157E-01  0.1153E+01
      3.694  0.3496E-01  0.1155E+01
      3.748  0.3823E-01  0.1157E+01
      3.802  0.3850E-01  0.1159E+01
      3.855  0.3110E-01  0.1161E+01
      3.909  0.2228E-01  0.1162E+01
      3.963  0.2180E-01  0.1163E+01
      4.017  0.2581E-01  0.1165E+01
      4.071  0.2639E-01  0.1166E+01
      4.124  0.2520E-01  0.1167E+01
      4.178  0.2472E-01  0.1169E+01
      4.232  0.2320E-01  0.1170E+01
      4.286  0.2007E-01  0.1171E+01
      4.339  0.1761E-01  0.1172E+01
      4.393  0.1984E-01  0.1173E+01
      4.447  0.2642E-01  0.1175E+01
      4.501  0.3469E-01  0.1176E+01
      4.555  0.4561E-01  0.1179E+01
      4.608  0.5516E-01  0.1182E+01
      4.662  0.5564E-01  0.1185E+01
      4.716  0.4981E-01  0.1188E+01
      4.770  0.4563E-01  0.1190E+01
      4.823  0.4508E-01  0.1192E+01
      4.877  0.4661E-01  0.1195E+01
      4.931  0.4958E-01  0.1198E+01
      4.985  0.5549E-01  0.1201E+01
      5.039  0.6432E-01  0.1204E+01
      5.092  0.7063E-01  0.1208E+01
      5.146  0.6926E-01  0.1212E+01
      5.200  0.6341E-01  0.1215E+01
      5.254  0.5704E-01  0.1218E+01
      5.307  0.4740E-01  0.1221E+01
      5.361  0.3335E-01  0.1222E+01
      5.415  0.1899E-01  0.1223E+01
      5.469  0.8236E-02  0.1224E+01
      5.523  0.2487E-02  0.1224E+01
      5.576  0.4827E-03  0.1224E+01
      5.630  0.5735E-04  0.1224E+01
      5.684  0.4057E-05  0.1224E+01
      5.738  0.1682E-06  0.1224E+01
      5.792  0.4047E-08  0.1224E+01
      5.845  0.5614E-10  0.1224E+01
      5.899  0.4467E-12  0.1224E+01
      5.953  0.2029E-14  0.1224E+01
      6.007  0.5505E-17  0.1224E+01
      6.060  0.0000E+00  0.1224E+01
      6.114  0.0000E+00  0.1224E+01
      6.168  0.0000E+00  0.1224E+01
      6.222  0.0000E+00  0.1224E+01
      6.276  0.0000E+00  0.1224E+01
      6.329  0.0000E+00  0.1224E+01
      6.383  0.0000E+00  0.1224E+01
