  48  48   0   0
  0.5349325E+02  0.1100258E-08  0.1100258E-08  0.2449179E-08  0.3500000E-15
  1.000000000000000E-004
  CAR 
 unknown system                          
      6.41163312     -9.63181487  301     -1.11202388      1.00000000
     -9.632  0.0000E+00  0.0000E+00
     -9.578  0.0000E+00  0.0000E+00
     -9.525  0.0000E+00  0.0000E+00
     -9.471  0.0000E+00  0.0000E+00
     -9.418  0.0000E+00  0.0000E+00
     -9.364  0.0000E+00  0.0000E+00
     -9.311  0.0000E+00  0.0000E+00
     -9.257  0.0000E+00  0.0000E+00
     -9.204  0.9688E-17  0.5181E-18
     -9.151  0.3870E-14  0.2075E-15
     -9.097  0.8318E-12  0.4469E-13
     -9.044  0.1020E-09  0.5497E-11
     -8.990  0.7139E-08  0.3873E-09
     -8.937  0.2860E-06  0.1568E-07
     -8.883  0.6573E-05  0.3672E-06
     -8.830  0.8684E-04  0.5011E-05
     -8.776  0.6610E-03  0.4036E-04
     -8.723  0.2906E-02  0.1958E-03
     -8.669  0.7396E-02  0.5913E-03
     -8.616  0.1098E-01  0.1178E-02
     -8.562  0.9991E-02  0.1713E-02
     -8.509  0.7601E-02  0.2119E-02
     -8.455  0.8836E-02  0.2592E-02
     -8.402  0.1114E-01  0.3187E-02
     -8.348  0.9214E-02  0.3680E-02
     -8.295  0.4488E-02  0.3920E-02
     -8.241  0.1278E-02  0.3988E-02
     -8.188  0.3276E-03  0.4006E-02
     -8.134  0.8173E-03  0.4050E-02
     -8.081  0.3145E-02  0.4218E-02
     -8.027  0.7548E-02  0.4622E-02
     -7.974  0.1177E-01  0.5251E-02
     -7.921  0.1443E-01  0.6023E-02
     -7.867  0.1806E-01  0.6988E-02
     -7.814  0.2169E-01  0.8148E-02
     -7.760  0.1984E-01  0.9209E-02
     -7.707  0.1449E-01  0.9984E-02
     -7.653  0.1320E-01  0.1069E-01
     -7.600  0.1625E-01  0.1156E-01
     -7.546  0.1851E-01  0.1255E-01
     -7.493  0.1872E-01  0.1355E-01
     -7.439  0.1850E-01  0.1454E-01
     -7.386  0.1774E-01  0.1549E-01
     -7.332  0.1637E-01  0.1636E-01
     -7.279  0.1708E-01  0.1728E-01
     -7.225  0.2111E-01  0.1841E-01
     -7.172  0.2601E-01  0.1980E-01
     -7.118  0.2952E-01  0.2137E-01
     -7.065  0.3140E-01  0.2305E-01
     -7.011  0.3366E-01  0.2485E-01
     -6.958  0.3906E-01  0.2694E-01
     -6.904  0.4852E-01  0.2954E-01
     -6.851  0.6062E-01  0.3278E-01
     -6.797  0.7112E-01  0.3658E-01
     -6.744  0.7774E-01  0.4074E-01
     -6.691  0.8450E-01  0.4526E-01
     -6.637  0.9403E-01  0.5029E-01
     -6.584  0.1024E+00  0.5576E-01
     -6.530  0.1056E+00  0.6141E-01
     -6.477  0.1053E+00  0.6704E-01
     -6.423  0.1068E+00  0.7275E-01
     -6.370  0.1136E+00  0.7882E-01
     -6.316  0.1244E+00  0.8548E-01
     -6.263  0.1365E+00  0.9278E-01
     -6.209  0.1489E+00  0.1007E+00
     -6.156  0.1599E+00  0.1093E+00
     -6.102  0.1661E+00  0.1182E+00
     -6.049  0.1674E+00  0.1271E+00
     -5.995  0.1694E+00  0.1362E+00
     -5.942  0.1737E+00  0.1455E+00
     -5.888  0.1753E+00  0.1548E+00
     -5.835  0.1704E+00  0.1640E+00
     -5.781  0.1609E+00  0.1726E+00
     -5.728  0.1505E+00  0.1806E+00
     -5.674  0.1414E+00  0.1882E+00
     -5.621  0.1358E+00  0.1954E+00
     -5.567  0.1337E+00  0.2026E+00
     -5.514  0.1324E+00  0.2097E+00
     -5.461  0.1308E+00  0.2167E+00
     -5.407  0.1329E+00  0.2238E+00
     -5.354  0.1420E+00  0.2314E+00
     -5.300  0.1544E+00  0.2396E+00
     -5.247  0.1633E+00  0.2484E+00
     -5.193  0.1676E+00  0.2573E+00
     -5.140  0.1710E+00  0.2665E+00
     -5.086  0.1765E+00  0.2759E+00
     -5.033  0.1833E+00  0.2857E+00
     -4.979  0.1868E+00  0.2957E+00
     -4.926  0.1805E+00  0.3053E+00
     -4.872  0.1670E+00  0.3143E+00
     -4.819  0.1587E+00  0.3228E+00
     -4.765  0.1621E+00  0.3314E+00
     -4.712  0.1716E+00  0.3406E+00
     -4.658  0.1784E+00  0.3501E+00
     -4.605  0.1794E+00  0.3597E+00
     -4.551  0.1788E+00  0.3693E+00
     -4.498  0.1795E+00  0.3789E+00
     -4.444  0.1796E+00  0.3885E+00
     -4.391  0.1779E+00  0.3980E+00
     -4.337  0.1753E+00  0.4074E+00
     -4.284  0.1726E+00  0.4166E+00
     -4.231  0.1715E+00  0.4258E+00
     -4.177  0.1735E+00  0.4351E+00
     -4.124  0.1769E+00  0.4445E+00
     -4.070  0.1789E+00  0.4541E+00
     -4.017  0.1771E+00  0.4636E+00
     -3.963  0.1729E+00  0.4728E+00
     -3.910  0.1726E+00  0.4821E+00
     -3.856  0.1766E+00  0.4915E+00
     -3.803  0.1815E+00  0.5012E+00
     -3.749  0.1882E+00  0.5113E+00
     -3.696  0.1983E+00  0.5219E+00
     -3.642  0.2081E+00  0.5330E+00
     -3.589  0.2116E+00  0.5443E+00
     -3.535  0.2089E+00  0.5555E+00
     -3.482  0.2054E+00  0.5665E+00
     -3.428  0.2024E+00  0.5773E+00
     -3.375  0.1980E+00  0.5879E+00
     -3.321  0.1921E+00  0.5982E+00
     -3.268  0.1853E+00  0.6081E+00
     -3.214  0.1783E+00  0.6176E+00
     -3.161  0.1740E+00  0.6269E+00
     -3.107  0.1745E+00  0.6362E+00
     -3.054  0.1769E+00  0.6457E+00
     -3.001  0.1797E+00  0.6553E+00
     -2.947  0.1848E+00  0.6652E+00
     -2.894  0.1908E+00  0.6754E+00
     -2.840  0.1950E+00  0.6858E+00
     -2.787  0.1979E+00  0.6964E+00
     -2.733  0.2003E+00  0.7071E+00
     -2.680  0.2012E+00  0.7179E+00
     -2.626  0.1974E+00  0.7284E+00
     -2.573  0.1893E+00  0.7386E+00
     -2.519  0.1809E+00  0.7482E+00
     -2.466  0.1762E+00  0.7577E+00
     -2.412  0.1766E+00  0.7671E+00
     -2.359  0.1814E+00  0.7768E+00
     -2.305  0.1871E+00  0.7868E+00
     -2.252  0.1913E+00  0.7970E+00
     -2.198  0.1931E+00  0.8074E+00
     -2.145  0.1931E+00  0.8177E+00
     -2.091  0.1909E+00  0.8279E+00
     -2.038  0.1873E+00  0.8379E+00
     -1.984  0.1849E+00  0.8478E+00
     -1.931  0.1825E+00  0.8576E+00
     -1.877  0.1816E+00  0.8673E+00
     -1.824  0.1870E+00  0.8773E+00
     -1.771  0.1976E+00  0.8878E+00
     -1.717  0.2048E+00  0.8988E+00
     -1.664  0.2044E+00  0.9097E+00
     -1.610  0.2019E+00  0.9205E+00
     -1.557  0.2038E+00  0.9314E+00
     -1.503  0.2085E+00  0.9426E+00
     -1.450  0.2094E+00  0.9538E+00
     -1.396  0.2039E+00  0.9647E+00
     -1.343  0.1941E+00  0.9750E+00
     -1.289  0.1801E+00  0.9847E+00
     -1.236  0.1601E+00  0.9932E+00
     -1.182  0.1356E+00  0.1000E+01
     -1.129  0.1105E+00  0.1006E+01
     -1.075  0.8852E-01  0.1011E+01
     -1.022  0.6942E-01  0.1015E+01
     -0.968  0.5008E-01  0.1018E+01
     -0.915  0.3248E-01  0.1019E+01
     -0.861  0.2124E-01  0.1020E+01
     -0.808  0.1611E-01  0.1021E+01
     -0.754  0.1396E-01  0.1022E+01
     -0.701  0.1442E-01  0.1023E+01
     -0.647  0.1716E-01  0.1024E+01
     -0.594  0.2073E-01  0.1025E+01
     -0.541  0.2609E-01  0.1026E+01
     -0.487  0.3499E-01  0.1028E+01
     -0.434  0.4442E-01  0.1030E+01
     -0.380  0.4714E-01  0.1033E+01
     -0.327  0.4245E-01  0.1035E+01
     -0.273  0.3985E-01  0.1037E+01
     -0.220  0.4324E-01  0.1040E+01
     -0.166  0.4337E-01  0.1042E+01
     -0.113  0.3532E-01  0.1044E+01
     -0.059  0.2547E-01  0.1045E+01
     -0.006  0.2083E-01  0.1046E+01
      0.048  0.2388E-01  0.1048E+01
      0.101  0.3132E-01  0.1049E+01
      0.155  0.3702E-01  0.1051E+01
      0.208  0.3834E-01  0.1053E+01
      0.262  0.3742E-01  0.1055E+01
      0.315  0.3698E-01  0.1057E+01
      0.369  0.3647E-01  0.1059E+01
      0.422  0.3503E-01  0.1061E+01
      0.476  0.3393E-01  0.1063E+01
      0.529  0.3371E-01  0.1065E+01
      0.583  0.3475E-01  0.1067E+01
      0.636  0.4013E-01  0.1069E+01
      0.689  0.4814E-01  0.1071E+01
      0.743  0.5097E-01  0.1074E+01
      0.796  0.4506E-01  0.1076E+01
      0.850  0.3346E-01  0.1078E+01
      0.903  0.2112E-01  0.1079E+01
      0.957  0.1298E-01  0.1080E+01
      1.010  0.1168E-01  0.1081E+01
      1.064  0.1453E-01  0.1081E+01
      1.117  0.1761E-01  0.1082E+01
      1.171  0.1959E-01  0.1083E+01
      1.224  0.1970E-01  0.1085E+01
      1.278  0.1838E-01  0.1086E+01
      1.331  0.1717E-01  0.1086E+01
      1.385  0.1714E-01  0.1087E+01
      1.438  0.2059E-01  0.1088E+01
      1.492  0.2826E-01  0.1090E+01
      1.545  0.3429E-01  0.1092E+01
      1.599  0.3424E-01  0.1094E+01
      1.652  0.3295E-01  0.1095E+01
      1.706  0.3553E-01  0.1097E+01
      1.759  0.3915E-01  0.1099E+01
      1.813  0.3741E-01  0.1101E+01
      1.866  0.2801E-01  0.1103E+01
      1.919  0.1617E-01  0.1104E+01
      1.973  0.1026E-01  0.1104E+01
      2.026  0.1204E-01  0.1105E+01
      2.080  0.1594E-01  0.1106E+01
      2.133  0.1961E-01  0.1107E+01
      2.187  0.2648E-01  0.1108E+01
      2.240  0.3652E-01  0.1110E+01
      2.294  0.4423E-01  0.1113E+01
      2.347  0.4710E-01  0.1115E+01
      2.401  0.4826E-01  0.1118E+01
      2.454  0.5022E-01  0.1120E+01
      2.508  0.5163E-01  0.1123E+01
      2.561  0.5044E-01  0.1126E+01
      2.615  0.4807E-01  0.1128E+01
      2.668  0.4818E-01  0.1131E+01
      2.722  0.4832E-01  0.1134E+01
      2.775  0.4076E-01  0.1136E+01
      2.829  0.2688E-01  0.1137E+01
      2.882  0.1639E-01  0.1138E+01
      2.936  0.1334E-01  0.1139E+01
      2.989  0.1287E-01  0.1139E+01
      3.043  0.1179E-01  0.1140E+01
      3.096  0.1392E-01  0.1141E+01
      3.149  0.2070E-01  0.1142E+01
      3.203  0.2651E-01  0.1143E+01
      3.256  0.2535E-01  0.1145E+01
      3.310  0.1861E-01  0.1146E+01
      3.363  0.1387E-01  0.1146E+01
      3.417  0.1453E-01  0.1147E+01
      3.470  0.1740E-01  0.1148E+01
      3.524  0.2022E-01  0.1149E+01
      3.577  0.2460E-01  0.1151E+01
      3.631  0.3141E-01  0.1152E+01
      3.684  0.3653E-01  0.1154E+01
      3.738  0.3758E-01  0.1156E+01
      3.791  0.3661E-01  0.1158E+01
      3.845  0.3273E-01  0.1160E+01
      3.898  0.2573E-01  0.1161E+01
      3.952  0.2171E-01  0.1162E+01
      4.005  0.2493E-01  0.1164E+01
      4.059  0.2975E-01  0.1165E+01
      4.112  0.3007E-01  0.1167E+01
      4.166  0.2794E-01  0.1168E+01
      4.219  0.2591E-01  0.1170E+01
      4.273  0.2193E-01  0.1171E+01
      4.326  0.1640E-01  0.1172E+01
      4.379  0.1549E-01  0.1173E+01
      4.433  0.2197E-01  0.1174E+01
      4.486  0.3253E-01  0.1176E+01
      4.540  0.4419E-01  0.1178E+01
      4.593  0.5347E-01  0.1181E+01
      4.647  0.5524E-01  0.1184E+01
      4.700  0.4885E-01  0.1186E+01
      4.754  0.4094E-01  0.1189E+01
      4.807  0.3953E-01  0.1191E+01
      4.861  0.4594E-01  0.1193E+01
      4.914  0.5410E-01  0.1196E+01
      4.968  0.5928E-01  0.1199E+01
      5.021  0.6253E-01  0.1203E+01
      5.075  0.6395E-01  0.1206E+01
      5.128  0.6086E-01  0.1209E+01
      5.182  0.5688E-01  0.1212E+01
      5.235  0.5790E-01  0.1215E+01
      5.289  0.5780E-01  0.1219E+01
      5.342  0.4725E-01  0.1221E+01
      5.396  0.3038E-01  0.1223E+01
      5.449  0.1603E-01  0.1224E+01
      5.503  0.6724E-02  0.1224E+01
      5.556  0.1998E-02  0.1224E+01
      5.609  0.3808E-03  0.1224E+01
      5.663  0.4423E-04  0.1224E+01
      5.716  0.3059E-05  0.1224E+01
      5.770  0.1244E-06  0.1224E+01
      5.823  0.2952E-08  0.1224E+01
      5.877  0.4063E-10  0.1224E+01
      5.930  0.3228E-12  0.1224E+01
      5.984  0.1477E-14  0.1224E+01
      6.037  0.2768E-17  0.1224E+01
      6.091  0.0000E+00  0.1224E+01
      6.144  0.0000E+00  0.1224E+01
      6.198  0.0000E+00  0.1224E+01
      6.251  0.0000E+00  0.1224E+01
      6.305  0.0000E+00  0.1224E+01
      6.358  0.0000E+00  0.1224E+01
      6.412  0.0000E+00  0.1224E+01
