unknown system                          
           1
    11.002582    0.000000    0.000000
     5.501291    9.528515    0.000000
     0.000000    0.000000   24.491785
   Au   Pd
  24  24
Direct configuration=     1
   0.08333333  0.08333333  0.40830017
   0.83333333  0.83333333  0.40830017
   0.75000000  0.50000000  0.59169983
   0.83333333  0.58333333  0.40830017
   0.75000000  0.00000000  0.59169983
   0.83333333  0.08333333  0.40830017
   0.50000000  0.50000000  0.59169983
   0.41666667  0.66666667  0.50000000
   0.58333333  0.58333333  0.40830017
   0.41666667  0.41666667  0.50000000
   0.50000000  0.00000000  0.59169983
   0.41666667  0.16666667  0.50000000
   0.58333333  0.08333333  0.40830017
   0.33333333  0.83333333  0.40830017
   0.25000000  0.50000000  0.59169983
   0.75000000  0.75000000  0.59169983
   0.91666667  0.66666667  0.50000000
   0.91666667  0.16666667  0.50000000
   0.00000000  0.25000000  0.59169983
   0.25000000  0.00000000  0.59169983
   0.16666667  0.16666667  0.50000000
   0.08333333  0.33333333  0.40830017
   0.91666667  0.41666667  0.50000000
   0.00000000  0.75000000  0.59169983
   0.50000000  0.75000000  0.59169983
   0.66666667  0.16666667  0.50000000
   0.66666667  0.41666667  0.50000000
   0.41666667  0.91666667  0.50000000
   0.75000000  0.25000000  0.59169983
   0.66666667  0.66666667  0.50000000
   0.00000000  0.00000000  0.59169983
   0.83333333  0.33333333  0.40830017
   0.58333333  0.83333333  0.40830017
   0.16666667  0.41666667  0.50000000
   0.33333333  0.33333333  0.40830017
   0.00000000  0.50000000  0.59169983
   0.50000000  0.25000000  0.59169983
   0.08333333  0.83333333  0.40830017
   0.58333333  0.33333333  0.40830017
   0.91666667  0.91666667  0.50000000
   0.33333333  0.08333333  0.40830017
   0.66666667  0.91666667  0.50000000
   0.16666667  0.91666667  0.50000000
   0.16666667  0.66666667  0.50000000
   0.33333333  0.58333333  0.40830017
   0.25000000  0.25000000  0.59169983
   0.08333333  0.58333333  0.40830017
   0.25000000  0.75000000  0.59169983
Direct configuration=     2
   0.08372625  0.08261511  0.40612837
   0.83382156  0.83313372  0.40649885
   0.74944942  0.50025625  0.59359715
   0.83273943  0.58361974  0.40611445
   0.75001225  0.00144669  0.59327193
   0.83300574  0.08380935  0.40641717
   0.50058880  0.49975048  0.59380007
   0.41589465  0.66788805  0.50025368
   0.58387240  0.58238222  0.40643514
   0.41697944  0.41596739  0.49927762
   0.49957472  0.00024428  0.59351885
   0.41652146  0.16691857  0.49994481
   0.58242355  0.08369709  0.40650485
   0.33311740  0.83382268  0.40644686
   0.24944446  0.49951845  0.59358484
   0.74937450  0.74959168  0.59354149
   0.91783699  0.66643728  0.49992892
   0.91491497  0.16612369  0.50031762
   0.00004613  0.24996320  0.59418178
   0.25023988 -0.00125506  0.59357283
   0.16873101  0.16587316  0.50000365
   0.08439811  0.33366493  0.40605062
   0.91575187  0.41754582  0.50003372
   0.00112973  0.75019240  0.59352822
   0.49962105  0.75017614  0.59268448
   0.66692395  0.16704676  0.50027354
   0.66698105  0.41565155  0.49981101
   0.41771639  0.91585448  0.49980834
   0.74980485  0.24952226  0.59268851
   0.66531401  0.66806426  0.49998896
   0.00011359 -0.00032602  0.59268157
   0.83248330  0.33352324  0.40702661
   0.58286260  0.83372128  0.40747823
   0.16684628  0.41731666  0.49995110
   0.33295011  0.33421495  0.40718836
   0.00081767  0.49939814  0.59298785
   0.50030298  0.24980081  0.59288947
   0.08388657  0.83228879  0.40751558
   0.58300315  0.33384990  0.40734029
   0.91763718  0.91664933  0.50006807
   0.33395468  0.08297669  0.40709079
   0.66612114  0.91646592  0.49977662
   0.16638896  0.91524750  0.50023365
   0.16614182  0.66765904  0.49949106
   0.33251548  0.58277268  0.40719781
   0.24991485  0.25076920  0.59293504
   0.08455895  0.58328769  0.40733291
   0.24954469  0.75086158  0.59260667
Direct configuration=     3
   0.08490498  0.08046043  0.39961296
   0.83528625  0.83253488  0.40109491
   0.74779769  0.50102501  0.59928912
   0.83095771  0.58447896  0.39955731
   0.75004900  0.00578676  0.59798825
   0.83202295  0.08523740  0.40076815
   0.50235522  0.49900192  0.60010077
   0.41357859  0.67155220  0.50101473
   0.58548961  0.57952887  0.40084005
   0.41791775  0.41386954  0.49711049
   0.49829886  0.00097711  0.59897593
   0.41608582  0.16767428  0.49977923
   0.57969418  0.08478836  0.40111889
   0.33246961  0.83529074  0.40088692
   0.24777783  0.49807379  0.59923988
   0.74749801  0.74836670  0.59906646
   0.92134797  0.66574912  0.49971567
   0.90965988  0.16449476  0.50127046
   0.00018453  0.24985282  0.60162761
   0.25095951 -0.00502023  0.59919181
   0.17492405  0.16349265  0.50001462
   0.08759242  0.33465972  0.39930199
   0.91300749  0.42018327  0.50013486
   0.00451891  0.75076961  0.59901340
   0.49848421  0.75070456  0.59563841
   0.66769578  0.16818706  0.50109416
   0.66792420  0.41260620  0.49924404
   0.42086556  0.91341790  0.49923337
   0.74921942  0.24808902  0.59565454
   0.66125604  0.67225703  0.49995583
   0.00045436 -0.00130409  0.59562679
   0.82993320  0.33409295  0.40320594
   0.58145038  0.83488512  0.40501240
   0.16738512  0.41926664  0.49980438
   0.33180046  0.33685981  0.40385294
   0.00327068  0.49759258  0.59685190
   0.50121192  0.24920325  0.59645839
   0.08554627  0.82915514  0.40516183
   0.58201259  0.33539961  0.40446065
   0.92054873  0.91659732  0.50027229
   0.33581872  0.08190677  0.40346265
   0.66448457  0.91586367  0.49910647
   0.16555585  0.91099002  0.50093459
   0.16456727  0.67063616  0.49796422
   0.33006192  0.58109073  0.40389071
   0.24965938  0.25307681  0.59664068
   0.08823582  0.58315076  0.40443114
   0.24817877  0.75344631  0.59532720
Direct configuration=     4
   0.08387675  0.08204751  0.39860890
   0.83504826  0.83270943  0.39989064
   0.74874588  0.49999080  0.60050801
   0.83207910  0.58422485  0.39811796
   0.75031324  0.00313300  0.59902315
   0.83183983  0.08486736  0.39929285
   0.50048573  0.49913303  0.60131694
   0.41520529  0.66841753  0.50062403
   0.58329905  0.58094984  0.39968267
   0.41735256  0.41640754  0.49807793
   0.49830690  0.00144698  0.60022760
   0.41851495  0.16638974  0.49995506
   0.58022548  0.08528380  0.39983986
   0.33338319  0.83344830  0.39950079
   0.24987094  0.49852235  0.60034171
   0.74900632  0.74914182  0.60015530
   0.91905014  0.66735302  0.49991499
   0.91454594  0.16499769  0.50089538
   0.00055918  0.24933472  0.60303945
   0.25024722 -0.00317744  0.60041825
   0.17068598  0.16369792  0.50006804
   0.08662486  0.33435669  0.39790925
   0.91393587  0.41851701  0.50001648
   0.00291626  0.75076867  0.60036138
   0.49834892  0.75037629  0.59664592
   0.66627665  0.16582361  0.50063921
   0.66595026  0.41580171  0.49960660
   0.41907154  0.91495473  0.49950447
   0.74952611  0.24962325  0.59689977
   0.66347221  0.67008595  0.49982648
   0.00049901 -0.00020998  0.59674017
   0.83241011  0.33286499  0.40246152
   0.58202054  0.83421311  0.40406090
   0.16690690  0.41922923  0.49986521
   0.33240383  0.33589960  0.40254070
   0.00164318  0.49836821  0.59762273
   0.49996497  0.25039223  0.59721744
   0.08524207  0.83015767  0.40417869
   0.58197146  0.33469153  0.40330549
   0.91818922  0.91577978  0.50013453
   0.33493730  0.08277555  0.40239238
   0.66637522  0.91622094  0.49939719
   0.16536025  0.91438665  0.50050126
   0.16594831  0.66877809  0.49865884
   0.33142402  0.58182978  0.40281927
   0.24986106  0.25160218  0.59752014
   0.08664722  0.58330887  0.40329453
   0.24943074  0.75108387  0.59637993
Direct configuration=     5
   0.08350043  0.08262835  0.39824143
   0.83496115  0.83277331  0.39944990
   0.74909289  0.49961230  0.60095410
   0.83248951  0.58413185  0.39759118
   0.75040995  0.00216177  0.59940191
   0.83177281  0.08473193  0.39875292
   0.49980153  0.49918101  0.60176204
   0.41580064  0.66727029  0.50048103
   0.58249735  0.58146989  0.39925909
   0.41714571  0.41733640  0.49843200
   0.49830984  0.00161895  0.60068569
   0.41940398  0.16591963  0.50001940
   0.58041992  0.08546512  0.39937176
   0.33371755  0.83277400  0.39899349
   0.25063699  0.49868651  0.60074497
   0.74955834  0.74942551  0.60055380
   0.91820918  0.66794002  0.49998793
   0.91633415  0.16518176  0.50075811
   0.00069629  0.24914511  0.60355616
   0.24998654 -0.00250301  0.60086711
   0.16913491  0.16377305  0.50008759
   0.08627075  0.33424579  0.39739953
   0.91427564  0.41790718  0.49997315
   0.00232971  0.75076833  0.60085471
   0.49829941  0.75025615  0.59701465
   0.66575728  0.16495862  0.50047270
   0.66522783  0.41697122  0.49973929
   0.41841496  0.91551718  0.49960369
   0.74963836  0.25018475  0.59735551
   0.66428329  0.66929138  0.49977914
   0.00051535  0.00019045  0.59714764
   0.83331662  0.33241558  0.40218908
   0.58222920  0.83396716  0.40371267
   0.16673189  0.41921554  0.49988747
   0.33262465  0.33554817  0.40206045
   0.00104754  0.49865208  0.59790485
   0.49950861  0.25082738  0.59749524
   0.08513074  0.83052459  0.40381887
   0.58195640  0.33443239  0.40288272
   0.91732567  0.91548058  0.50008412
   0.33461472  0.08309350  0.40200068
   0.66706717  0.91635170  0.49950359
   0.16528866  0.91562976  0.50034267
   0.16645375  0.66809806  0.49891305
   0.33192252  0.58210026  0.40242714
   0.24993487  0.25106249  0.59784201
   0.08606582  0.58336673  0.40287856
   0.24988894  0.75021925  0.59676521
Direct configuration=     6
   0.08367618  0.08264674  0.39786546
   0.83464645  0.83289686  0.39899120
   0.74912287  0.49978572  0.60131275
   0.83271549  0.58375920  0.39712406
   0.75028280  0.00218185  0.59968791
   0.83201364  0.08459925  0.39833898
   0.49992817  0.49932309  0.60228558
   0.41591652  0.66799629  0.50030072
   0.58300347  0.58130623  0.39888170
   0.41679014  0.41718139  0.49884203
   0.49849384  0.00136057  0.60109456
   0.41800474  0.16606877  0.49998216
   0.58065555  0.08513401  0.39885693
   0.33340491  0.83304714  0.39855550
   0.25008636  0.49884930  0.60108927
   0.74957230  0.74944164  0.60086974
   0.91753215  0.66748052  0.50000645
   0.91545947  0.16555680  0.50059267
   0.00072365  0.24938341  0.60421370
   0.25008663 -0.00226903  0.60127051
   0.16864244  0.16490989  0.50004834
   0.08589612  0.33417288  0.39696685
   0.91488621  0.41787114  0.49988181
   0.00228338  0.75040466  0.60133398
   0.49872227  0.75000248  0.59717974
   0.66754625  0.16467525  0.50025499
   0.66575092  0.41678426  0.49995102
   0.41787240  0.91569562  0.49978286
   0.74972460  0.24998341  0.59740039
   0.66530738  0.66860225  0.49974741
   0.00029634  0.00032219  0.59740053
   0.83363049  0.33269122  0.40213023
   0.58253682  0.83388314  0.40359315
   0.16681767  0.41820595  0.49989837
   0.33275525  0.33529911  0.40180819
   0.00080947  0.49885562  0.59797232
   0.49964371  0.25067893  0.59767848
   0.08485462  0.83124277  0.40367752
   0.58223827  0.33423253  0.40267756
   0.91689643  0.91617116  0.50003438
   0.33417096  0.08335774  0.40185776
   0.66730546  0.91597851  0.49961330
   0.16607557  0.91543899  0.50010780
   0.16604648  0.66816655  0.49939035
   0.33207102  0.58217765  0.40204808
   0.24969826  0.25088602  0.59785838
   0.08545298  0.58343437  0.40259906
   0.24995289  0.75014597  0.59694527
Direct configuration=     7
   0.08377744  0.08265733  0.39764885
   0.83446514  0.83296804  0.39872693
   0.74914015  0.49988563  0.60151939
   0.83284568  0.58354450  0.39685493
   0.75020955  0.00219342  0.59985268
   0.83215239  0.08452281  0.39810050
   0.50000113  0.49940494  0.60258720
   0.41598328  0.66841456  0.50019684
   0.58329507  0.58121195  0.39866428
   0.41658529  0.41709209  0.49907827
   0.49859985  0.00121171  0.60133012
   0.41719859  0.16615470  0.49996071
   0.58079130  0.08494324  0.39856033
   0.33322478  0.83320451  0.39830317
   0.24976912  0.49894308  0.60128763
   0.74958034  0.74945094  0.60105176
   0.91714210  0.66721579  0.50001712
   0.91495555  0.16577288  0.50049735
   0.00073942  0.24952070  0.60459253
   0.25014429 -0.00213423  0.60150291
   0.16835871  0.16556485  0.50002573
   0.08568029  0.33413087  0.39671757
   0.91523798  0.41785037  0.49982918
   0.00225669  0.75019514  0.60161009
   0.49896589  0.74985634  0.59727486
   0.66857694  0.16451199  0.50012956
   0.66605229  0.41667655  0.50007300
   0.41755981  0.91579841  0.49988608
   0.74977428  0.24986741  0.59742624
   0.66589738  0.66820523  0.49972912
   0.00017016  0.00039809  0.59754623
   0.83381132  0.33285002  0.40209632
   0.58271405  0.83383473  0.40352430
   0.16686709  0.41762430  0.49990465
   0.33283048  0.33515562  0.40166285
   0.00067231  0.49897289  0.59801119
   0.49972155  0.25059341  0.59778405
   0.08469554  0.83165654  0.40359608
   0.58240066  0.33411739  0.40255936
   0.91664913  0.91656902  0.50000572
   0.33391530  0.08350998  0.40177543
   0.66744274  0.91576350  0.49967650
   0.16652894  0.91532908  0.49997249
   0.16581184  0.66820601  0.49966534
   0.33215657  0.58222223  0.40182969
   0.24956195  0.25078434  0.59786781
   0.08509991  0.58347334  0.40243803
   0.24998973  0.75010376  0.59704901
Direct configuration=     8
   0.08389196  0.08260356  0.39740348
   0.83448031  0.83287039  0.39849673
   0.74920531  0.49992163  0.60172114
   0.83279156  0.58356267  0.39647490
   0.75011200  0.00254875  0.59995663
   0.83236539  0.08463983  0.39777606
   0.50020226  0.49942998  0.60289479
   0.41613124  0.66856506  0.50002943
   0.58378782  0.58097650  0.39849145
   0.41683574  0.41664598  0.49917970
   0.49872213  0.00106021  0.60152218
   0.41770772  0.16585239  0.49985669
   0.58060979  0.08478488  0.39835845
   0.33330482  0.83345155  0.39805128
   0.24938801  0.49865124  0.60151144
   0.74934773  0.74941856  0.60126247
   0.91763462  0.66704257  0.49991539
   0.91497047  0.16566821  0.50045300
   0.00051427  0.24971105  0.60506907
   0.25017411 -0.00242735  0.60169445
   0.16791584  0.16567475  0.49999578
   0.08579798  0.33412362  0.39633552
   0.91534598  0.41769948  0.49982649
   0.00227257  0.75028750  0.60188769
   0.49915313  0.74981932  0.59724509
   0.66840918  0.16483103  0.49995227
   0.66607910  0.41665307  0.50021148
   0.41775467  0.91572637  0.49999336
   0.74982522  0.24958931  0.59732753
   0.66579837  0.66820023  0.49969400
   0.00021445  0.00021337  0.59747784
   0.83356536  0.33301667  0.40214081
   0.58259295  0.83390207  0.40366296
   0.16675109  0.41779268  0.49979968
   0.33284698  0.33529714  0.40169528
   0.00069850  0.49890875  0.59797777
   0.49987179  0.25034698  0.59773781
   0.08456678  0.83161543  0.40372660
   0.58247744  0.33423290  0.40269433
   0.91723277  0.91641141  0.50000696
   0.33399758  0.08342399  0.40178096
   0.66672066  0.91609642  0.49971899
   0.16649956  0.91532576  0.49991131
   0.16510464  0.66853367  0.49986493
   0.33190667  0.58208357  0.40184829
   0.24945930  0.25095086  0.59784590
   0.08513180  0.58365873  0.40250949
   0.24983237  0.75060724  0.59701215
Direct configuration=     9
   0.08397192  0.08256602  0.39723214
   0.83449090  0.83280220  0.39833599
   0.74925082  0.49994677  0.60186202
   0.83275376  0.58357536  0.39620952
   0.75004388  0.00279688  0.60002923
   0.83251413  0.08472154  0.39754951
   0.50034271  0.49944747  0.60310958
   0.41623455  0.66867015  0.49991254
   0.58413190  0.58081209  0.39837076
   0.41701063  0.41633447  0.49925052
   0.49880752  0.00095443  0.60165629
   0.41806323  0.16564129  0.49978406
   0.58048305  0.08467430  0.39821749
   0.33336071  0.83362405  0.39787539
   0.24912189  0.49844745  0.60166773
   0.74918531  0.74939596  0.60140960
   0.91797853  0.66692161  0.49984436
   0.91498090  0.16559513  0.50042202
   0.00035706  0.24984398  0.60540182
   0.25019493 -0.00263204  0.60182820
   0.16760660  0.16575149  0.49997486
   0.08588017  0.33411856  0.39606875
   0.91542139  0.41759411  0.49982461
   0.00228365  0.75035199  0.60208153
   0.49928387  0.74979347  0.59722431
   0.66829203  0.16505381  0.49982847
   0.66609781  0.41663667  0.50030818
   0.41789073  0.91567605  0.50006828
   0.74986078  0.24939512  0.59725860
   0.66572923  0.66819675  0.49966947
   0.00024537  0.00008438  0.59743008
   0.83339362  0.33313303  0.40217187
   0.58250840  0.83394910  0.40375979
   0.16667009  0.41791026  0.49972638
   0.33285850  0.33539596  0.40171792
   0.00071679  0.49886397  0.59795443
   0.49997670  0.25017490  0.59770552
   0.08447687  0.83158672  0.40381774
   0.58253105  0.33431357  0.40278858
   0.91764031  0.91630136  0.50000783
   0.33405504  0.08336394  0.40178482
   0.66621644  0.91632889  0.49974865
   0.16647905  0.91532344  0.49986859
   0.16461082  0.66876246  0.50000430
   0.33173216  0.58198675  0.40186127
   0.24938763  0.25106713  0.59783060
   0.08515407  0.58378819  0.40255938
   0.24972249  0.75095882  0.59698641
Direct configuration=    10
   0.08399366  0.08266902  0.39694577
   0.83437891  0.83291810  0.39821483
   0.74932620  0.49978136  0.60205483
   0.83286591  0.58367518  0.39578977
   0.75012586  0.00273049  0.60002750
   0.83247970  0.08477060  0.39716011
   0.50006136  0.49952394  0.60336586
   0.41603075  0.66830847  0.49970318
   0.58405545  0.58088861  0.39823559
   0.41687751  0.41672433  0.49937558
   0.49864369  0.00106382  0.60183085
   0.41824545  0.16550303  0.49969725
   0.58057966  0.08463593  0.39802311
   0.33361606  0.83341554  0.39764464
   0.24928990  0.49830705  0.60188179
   0.74929601  0.74941032  0.60157113
   0.91769643  0.66736052  0.49974908
   0.91517834  0.16542462  0.50038072
   0.00025077  0.24973336  0.60594845
   0.25008152 -0.00251452  0.60196657
   0.16780919  0.16535781  0.49997781
   0.08603501  0.33422347  0.39561100
   0.91517732  0.41766571  0.49981669
   0.00204180  0.75057676  0.60239432
   0.49927429  0.74971191  0.59713307
   0.66811202  0.16501986  0.49955522
   0.66596623  0.41684076  0.50051064
   0.41776648  0.91587783  0.50021199
   0.74993055  0.24931746  0.59710365
   0.66589058  0.66815840  0.49963604
   0.00032596  0.00009099  0.59728720
   0.83342237  0.33307149  0.40225940
   0.58243056  0.83388625  0.40396969
   0.16688425  0.41788171  0.49956409
   0.33285326  0.33555227  0.40182911
   0.00050803  0.49890179  0.59787437
   0.49991171  0.25013776  0.59760700
   0.08454117  0.83143083  0.40402723
   0.58251307  0.33442041  0.40303069
   0.91766963  0.91616226  0.50001072
   0.33407646  0.08338773  0.40186148
   0.66627593  0.91631786  0.49982000
   0.16654793  0.91537160  0.49979517
   0.16488797  0.66867620  0.50024894
   0.33158618  0.58198414  0.40208873
   0.24938953  0.25083805  0.59769681
   0.08527290  0.58387316  0.40267575
   0.24982648  0.75093574  0.59683660
Direct configuration=    11
   0.08401272  0.08275930  0.39669478
   0.83428075  0.83301967  0.39810864
   0.74939227  0.49963639  0.60222382
   0.83296420  0.58376267  0.39542188
   0.75019770  0.00267230  0.60002599
   0.83244953  0.08481359  0.39681882
   0.49981478  0.49959096  0.60359047
   0.41585213  0.66799148  0.49951969
   0.58398846  0.58095567  0.39811712
   0.41676084  0.41706602  0.49948518
   0.49850011  0.00115970  0.60198383
   0.41840515  0.16538186  0.49962116
   0.58066434  0.08460230  0.39785274
   0.33383987  0.83323280  0.39744241
   0.24943714  0.49818399  0.60206940
   0.74939303  0.74942290  0.60171269
   0.91744919  0.66774518  0.49966559
   0.91535138  0.16527518  0.50034451
   0.00015762  0.24963642  0.60642752
   0.24998212 -0.00241152  0.60208784
   0.16798675  0.16501278  0.49998040
   0.08617072  0.33431542  0.39520982
   0.91496341  0.41772846  0.49980975
   0.00182983  0.75077376  0.60266846
   0.49926589  0.74964043  0.59705311
   0.66795425  0.16499011  0.49931573
   0.66585091  0.41701963  0.50068807
   0.41765759  0.91605468  0.50033794
   0.74999170  0.24924939  0.59696785
   0.66603200  0.66812480  0.49960673
   0.00039658  0.00009678  0.59716198
   0.83344757  0.33301755  0.40233612
   0.58236234  0.83383118  0.40415366
   0.16707194  0.41785668  0.49942185
   0.33284867  0.33568927  0.40192657
   0.00032506  0.49893493  0.59780419
   0.49985475  0.25010520  0.59752066
   0.08459753  0.83129420  0.40421083
   0.58249731  0.33451406  0.40324288
   0.91769533  0.91604034  0.50001326
   0.33409523  0.08340859  0.40192867
   0.66632807  0.91630820  0.49988253
   0.16660830  0.91541381  0.49973083
   0.16513087  0.66860059  0.50046335
   0.33145824  0.58198185  0.40228808
   0.24939119  0.25063727  0.59757955
   0.08537704  0.58394762  0.40277773
   0.24991762  0.75091552  0.59670530
Direct configuration=    12
   0.08407805  0.08273254  0.39650246
   0.83417589  0.83322440  0.39810186
   0.74922369  0.49956899  0.60232931
   0.83314235  0.58370022  0.39517788
   0.75008471  0.00260914  0.59989797
   0.83246680  0.08469005  0.39653551
   0.49969770  0.49953180  0.60376631
   0.41605606  0.66826020  0.49945183
   0.58388013  0.58096011  0.39809984
   0.41662299  0.41706287  0.49969831
   0.49846393  0.00117049  0.60206893
   0.41809580  0.16572504  0.49960974
   0.58077761  0.08473013  0.39772667
   0.33367268  0.83318496  0.39734627
   0.24930754  0.49838317  0.60218717
   0.74941322  0.74943325  0.60173679
   0.91726127  0.66767372  0.49966287
   0.91527100  0.16532217  0.50023717
   0.00027105  0.24944392  0.60681724
   0.24986879 -0.00222261  0.60215107
   0.16786817  0.16541041  0.49996078
   0.08610163  0.33443465  0.39493064
   0.91529384  0.41772418  0.49977625
   0.00202935  0.75053399  0.60286287
   0.49924653  0.74947069  0.59688736
   0.66825494  0.16470392  0.49913737
   0.66589422  0.41708751  0.50083482
   0.41762492  0.91567201  0.50046086
   0.74986971  0.24940500  0.59680854
   0.66591838  0.66815669  0.49963605
   0.00045504  0.00019925  0.59704194
   0.83371597  0.33308088  0.40243098
   0.58249195  0.83379072  0.40430869
   0.16687107  0.41768140  0.49937851
   0.33301587  0.33551011  0.40200960
   0.00042966  0.49886486  0.59764805
   0.49982281  0.25011092  0.59737824
   0.08467641  0.83146774  0.40436064
   0.58245958  0.33452763  0.40343673
   0.91725153  0.91628661  0.49999017
   0.33402187  0.08349688  0.40199787
   0.66680813  0.91611852  0.49997081
   0.16685109  0.91535613  0.49962588
   0.16523402  0.66840485  0.50075613
   0.33157649  0.58211301  0.40247255
   0.24915823  0.25059897  0.59737258
   0.08521219  0.58400307  0.40285562
   0.25001517  0.75060484  0.59656424
Direct configuration=    13
   0.08408491  0.08272974  0.39648228
   0.83416488  0.83324588  0.39810114
   0.74920600  0.49956192  0.60234038
   0.83316104  0.58369366  0.39515228
   0.75007285  0.00260251  0.59988454
   0.83246861  0.08467709  0.39650579
   0.49968542  0.49952559  0.60378477
   0.41607745  0.66828839  0.49944471
   0.58386876  0.58096057  0.39809803
   0.41660853  0.41706254  0.49972067
   0.49846013  0.00117163  0.60207786
   0.41806334  0.16576105  0.49960854
   0.58078949  0.08474354  0.39771344
   0.33365514  0.83317994  0.39733619
   0.24929394  0.49840407  0.60219953
   0.74941534  0.74943434  0.60173931
   0.91724155  0.66766623  0.49966258
   0.91526256  0.16532710  0.50022591
   0.00028296  0.24942372  0.60685813
   0.24985689 -0.00220279  0.60215770
   0.16785573  0.16545213  0.49995872
   0.08609439  0.33444717  0.39490135
   0.91532851  0.41772373  0.49977274
   0.00205029  0.75050884  0.60288327
   0.49924450  0.74945288  0.59686997
   0.66828649  0.16467390  0.49911865
   0.66589876  0.41709464  0.50085022
   0.41762150  0.91563186  0.50047375
   0.74985691  0.24942133  0.59679183
   0.66590646  0.66816004  0.49963913
   0.00046117  0.00021000  0.59702935
   0.83374413  0.33308753  0.40244093
   0.58250555  0.83378647  0.40432496
   0.16684999  0.41766300  0.49937396
   0.33303342  0.33549131  0.40201831
   0.00044063  0.49885751  0.59763167
   0.49981946  0.25011152  0.59736329
   0.08468469  0.83148594  0.40437636
   0.58245563  0.33452905  0.40345707
   0.91720496  0.91631245  0.49998775
   0.33401418  0.08350614  0.40200513
   0.66685850  0.91609862  0.49998007
   0.16687656  0.91535008  0.49961487
   0.16524485  0.66838432  0.50078685
   0.33158890  0.58212677  0.40249191
   0.24913378  0.25059495  0.59735086
   0.08519489  0.58400889  0.40286380
   0.25002540  0.75057224  0.59654944
Direct configuration=    14
   0.08407821  0.08277381  0.39642531
   0.83424215  0.83320589  0.39815674
   0.74923165  0.49958071  0.60234709
   0.83307866  0.58373198  0.39512498
   0.75009749  0.00259266  0.59977444
   0.83261610  0.08471206  0.39638287
   0.49972902  0.49941433  0.60386867
   0.41626970  0.66828849  0.49947258
   0.58405578  0.58087560  0.39815091
   0.41665521  0.41704582  0.49985028
   0.49844517  0.00111498  0.60204301
   0.41817626  0.16552460  0.49961455
   0.58070363  0.08481448  0.39769938
   0.33352852  0.83337685  0.39733875
   0.24918423  0.49832800  0.60224490
   0.74938934  0.74930230  0.60168708
   0.91736940  0.66742879  0.49969416
   0.91534699  0.16543036  0.50011947
   0.00016062  0.24953065  0.60699482
   0.24990948 -0.00234376  0.60213322
   0.16766034  0.16556760  0.49990317
   0.08613287  0.33441443  0.39480296
   0.91537219  0.41769926  0.49975189
   0.00210044  0.75044226  0.60292613
   0.49920309  0.74940974  0.59681304
   0.66835030  0.16464421  0.49907614
   0.66600580  0.41708025  0.50086904
   0.41761637  0.91577956  0.50049131
   0.74979473  0.24943418  0.59671414
   0.66598700  0.66804671  0.49967566
   0.00040960  0.00019931  0.59694016
   0.83381013  0.33312880  0.40248488
   0.58257763  0.83382990  0.40440852
   0.16659506  0.41779806  0.49937350
   0.33305055  0.33547372  0.40204033
   0.00045941  0.49873762  0.59754138
   0.49978646  0.25008949  0.59728873
   0.08462545  0.83158629  0.40444683
   0.58254428  0.33452293  0.40354005
   0.91720346  0.91634797  0.49996932
   0.33407469  0.08344966  0.40205005
   0.66675336  0.91619508  0.50001848
   0.16679778  0.91549814  0.49957792
   0.16505424  0.66832550  0.50089254
   0.33161501  0.58212564  0.40261205
   0.24900742  0.25075881  0.59724534
   0.08512239  0.58411221  0.40292013
   0.25002230  0.75057406  0.59650310
Direct configuration=    15
   0.08407675  0.08278346  0.39641284
   0.83425906  0.83319714  0.39816891
   0.74923726  0.49958482  0.60234856
   0.83306063  0.58374037  0.39511901
   0.75010289  0.00259051  0.59975034
   0.83264838  0.08471971  0.39635596
   0.49973857  0.49938998  0.60388704
   0.41631178  0.66828852  0.49947867
   0.58409672  0.58085701  0.39816249
   0.41666543  0.41704216  0.49987865
   0.49844190  0.00110258  0.60203538
   0.41820098  0.16547284  0.49961586
   0.58068483  0.08483001  0.39769631
   0.33350081  0.83341995  0.39733932
   0.24916022  0.49831135  0.60225483
   0.74938364  0.74927340  0.60167564
   0.91739739  0.66737682  0.49970108
   0.91536547  0.16545296  0.50009617
   0.00013384  0.24955405  0.60702474
   0.24992099 -0.00237462  0.60212786
   0.16761757  0.16559287  0.49989101
   0.08614129  0.33440726  0.39478143
   0.91538175  0.41769390  0.49974733
   0.00211142  0.75042769  0.60293551
   0.49919403  0.74940030  0.59680058
   0.66836427  0.16463771  0.49906683
   0.66602923  0.41707710  0.50087316
   0.41761524  0.91581189  0.50049515
   0.74978112  0.24943699  0.59669713
   0.66600463  0.66802191  0.49968365
   0.00039831  0.00019697  0.59692063
   0.83382458  0.33313783  0.40249450
   0.58259341  0.83383940  0.40442681
   0.16653926  0.41782762  0.49937340
   0.33305430  0.33546988  0.40204515
   0.00046352  0.49871138  0.59752162
   0.49977923  0.25008467  0.59727241
   0.08461249  0.83160826  0.40446226
   0.58256368  0.33452159  0.40355821
   0.91720313  0.91635575  0.49996528
   0.33408794  0.08343730  0.40205988
   0.66673034  0.91621620  0.50002688
   0.16678053  0.91553055  0.49956983
   0.16501252  0.66831263  0.50091568
   0.33162073  0.58212540  0.40263834
   0.24897976  0.25079468  0.59722224
   0.08510652  0.58413482  0.40293246
   0.25002163  0.75057446  0.59649296
Direct configuration=    16
   0.08406858  0.08287552  0.39636226
   0.83427558  0.83324081  0.39825196
   0.74924651  0.49954173  0.60233977
   0.83304567  0.58379394  0.39514369
   0.75016764  0.00250402  0.59966126
   0.83265742  0.08478035  0.39627040
   0.49974428  0.49932995  0.60396446
   0.41623166  0.66828501  0.49950744
   0.58409852  0.58093955  0.39823725
   0.41664835  0.41702207  0.49996546
   0.49841326  0.00106999  0.60198964
   0.41816719  0.16549229  0.49960561
   0.58072973  0.08483795  0.39770561
   0.33358515  0.83343995  0.39738003
   0.24916082  0.49821223  0.60230591
   0.74939073  0.74920766  0.60161728
   0.91725274  0.66753138  0.49973011
   0.91539097  0.16546862  0.50001703
   0.00008194  0.24953296  0.60708297
   0.24986420 -0.00237209  0.60207435
   0.16762115  0.16555845  0.49983548
   0.08620680  0.33441750  0.39471639
   0.91527607  0.41767697  0.49972733
   0.00200016  0.75046708  0.60295137
   0.49918610  0.74934510  0.59679124
   0.66840743  0.16469291  0.49902924
   0.66609640  0.41702386  0.50087929
   0.41755132  0.91598683  0.50048263
   0.74979417  0.24938237  0.59663443
   0.66614098  0.66797178  0.49969614
   0.00034185  0.00020552  0.59683016
   0.83386893  0.33314018  0.40248747
   0.58260775  0.83388913  0.40447868
   0.16668226  0.41774342  0.49933885
   0.33300661  0.33556880  0.40209341
   0.00040120  0.49864723  0.59749723
   0.49974026  0.25001801  0.59723915
   0.08461437  0.83161473  0.40450874
   0.58264558  0.33449536  0.40361583
   0.91727713  0.91630963  0.49993783
   0.33409560  0.08343742  0.40207712
   0.66672173  0.91617348  0.50004616
   0.16675891  0.91556054  0.49955302
   0.16499562  0.66835130  0.50096450
   0.33163740  0.58210492  0.40278329
   0.24894920  0.25076581  0.59714843
   0.08513646  0.58415612  0.40297017
   0.25001763  0.75056164  0.59647394
