  48  48   0   0
  0.5349325E+02  0.1100258E-08  0.1100258E-08  0.2449179E-08  0.3500000E-15
  1.000000000000000E-004
  CAR 
 unknown system                          
      6.36317859     -9.77844392  301     -1.10550872      1.00000000
     -9.778  0.0000E+00  0.0000E+00
     -9.725  0.0000E+00  0.0000E+00
     -9.671  0.0000E+00  0.0000E+00
     -9.617  0.0000E+00  0.0000E+00
     -9.563  0.0000E+00  0.0000E+00
     -9.509  0.0000E+00  0.0000E+00
     -9.456  0.0000E+00  0.0000E+00
     -9.402  0.0000E+00  0.0000E+00
     -9.348  0.4815E-17  0.2591E-18
     -9.294  0.1971E-14  0.1063E-15
     -9.240  0.4306E-12  0.2328E-13
     -9.187  0.5374E-10  0.2915E-11
     -9.133  0.3847E-08  0.2099E-09
     -9.079  0.1588E-06  0.8752E-08
     -9.025  0.3799E-05  0.2132E-06
     -8.971  0.5303E-04  0.3066E-05
     -8.918  0.4343E-03  0.2644E-04
     -8.864  0.2099E-02  0.1394E-03
     -8.810  0.6035E-02  0.4641E-03
     -8.756  0.1054E-01  0.1031E-02
     -8.702  0.1211E-01  0.1683E-02
     -8.649  0.1135E-01  0.2294E-02
     -8.595  0.1087E-01  0.2879E-02
     -8.541  0.9658E-02  0.3398E-02
     -8.487  0.6636E-02  0.3755E-02
     -8.433  0.3247E-02  0.3930E-02
     -8.380  0.1098E-02  0.3989E-02
     -8.326  0.5010E-03  0.4016E-02
     -8.272  0.1189E-02  0.4080E-02
     -8.218  0.2742E-02  0.4228E-02
     -8.164  0.3858E-02  0.4435E-02
     -8.110  0.3919E-02  0.4646E-02
     -8.057  0.4942E-02  0.4912E-02
     -8.003  0.8288E-02  0.5358E-02
     -7.949  0.1196E-01  0.6001E-02
     -7.895  0.1412E-01  0.6761E-02
     -7.841  0.1591E-01  0.7617E-02
     -7.788  0.1912E-01  0.8646E-02
     -7.734  0.2241E-01  0.9852E-02
     -7.680  0.2248E-01  0.1106E-01
     -7.626  0.1996E-01  0.1213E-01
     -7.572  0.1883E-01  0.1315E-01
     -7.519  0.1896E-01  0.1417E-01
     -7.465  0.1824E-01  0.1515E-01
     -7.411  0.1859E-01  0.1615E-01
     -7.357  0.2201E-01  0.1733E-01
     -7.303  0.2552E-01  0.1871E-01
     -7.250  0.2460E-01  0.2003E-01
     -7.196  0.2109E-01  0.2117E-01
     -7.142  0.2322E-01  0.2242E-01
     -7.088  0.3395E-01  0.2424E-01
     -7.034  0.4556E-01  0.2669E-01
     -6.981  0.5165E-01  0.2947E-01
     -6.927  0.5509E-01  0.3244E-01
     -6.873  0.6051E-01  0.3569E-01
     -6.819  0.6890E-01  0.3940E-01
     -6.765  0.7764E-01  0.4358E-01
     -6.712  0.8312E-01  0.4805E-01
     -6.658  0.8588E-01  0.5267E-01
     -6.604  0.8849E-01  0.5743E-01
     -6.550  0.9212E-01  0.6239E-01
     -6.496  0.9893E-01  0.6771E-01
     -6.443  0.1094E+00  0.7360E-01
     -6.389  0.1207E+00  0.8009E-01
     -6.335  0.1309E+00  0.8714E-01
     -6.281  0.1375E+00  0.9453E-01
     -6.227  0.1365E+00  0.1019E+00
     -6.173  0.1295E+00  0.1088E+00
     -6.120  0.1250E+00  0.1156E+00
     -6.066  0.1291E+00  0.1225E+00
     -6.012  0.1415E+00  0.1301E+00
     -5.958  0.1550E+00  0.1385E+00
     -5.904  0.1619E+00  0.1472E+00
     -5.851  0.1627E+00  0.1559E+00
     -5.797  0.1617E+00  0.1646E+00
     -5.743  0.1584E+00  0.1732E+00
     -5.689  0.1527E+00  0.1814E+00
     -5.635  0.1484E+00  0.1894E+00
     -5.582  0.1481E+00  0.1973E+00
     -5.528  0.1503E+00  0.2054E+00
     -5.474  0.1511E+00  0.2135E+00
     -5.420  0.1505E+00  0.2216E+00
     -5.366  0.1521E+00  0.2298E+00
     -5.313  0.1567E+00  0.2383E+00
     -5.259  0.1620E+00  0.2470E+00
     -5.205  0.1665E+00  0.2559E+00
     -5.151  0.1697E+00  0.2651E+00
     -5.097  0.1700E+00  0.2742E+00
     -5.044  0.1656E+00  0.2831E+00
     -4.990  0.1604E+00  0.2917E+00
     -4.936  0.1602E+00  0.3004E+00
     -4.882  0.1638E+00  0.3092E+00
     -4.828  0.1672E+00  0.3182E+00
     -4.775  0.1693E+00  0.3273E+00
     -4.721  0.1721E+00  0.3365E+00
     -4.667  0.1775E+00  0.3461E+00
     -4.613  0.1843E+00  0.3560E+00
     -4.559  0.1884E+00  0.3661E+00
     -4.506  0.1881E+00  0.3763E+00
     -4.452  0.1858E+00  0.3863E+00
     -4.398  0.1819E+00  0.3961E+00
     -4.344  0.1765E+00  0.4055E+00
     -4.290  0.1733E+00  0.4149E+00
     -4.236  0.1761E+00  0.4243E+00
     -4.183  0.1833E+00  0.4342E+00
     -4.129  0.1908E+00  0.4445E+00
     -4.075  0.1947E+00  0.4549E+00
     -4.021  0.1923E+00  0.4653E+00
     -3.967  0.1857E+00  0.4753E+00
     -3.914  0.1834E+00  0.4852E+00
     -3.860  0.1902E+00  0.4954E+00
     -3.806  0.1983E+00  0.5061E+00
     -3.752  0.2010E+00  0.5169E+00
     -3.698  0.2037E+00  0.5278E+00
     -3.645  0.2106E+00  0.5392E+00
     -3.591  0.2141E+00  0.5507E+00
     -3.537  0.2084E+00  0.5619E+00
     -3.483  0.1997E+00  0.5726E+00
     -3.429  0.1958E+00  0.5832E+00
     -3.376  0.1979E+00  0.5938E+00
     -3.322  0.2013E+00  0.6047E+00
     -3.268  0.2002E+00  0.6154E+00
     -3.214  0.1954E+00  0.6259E+00
     -3.160  0.1909E+00  0.6362E+00
     -3.107  0.1876E+00  0.6463E+00
     -3.053  0.1853E+00  0.6563E+00
     -2.999  0.1848E+00  0.6662E+00
     -2.945  0.1874E+00  0.6763E+00
     -2.891  0.1897E+00  0.6865E+00
     -2.838  0.1876E+00  0.6966E+00
     -2.784  0.1830E+00  0.7065E+00
     -2.730  0.1797E+00  0.7161E+00
     -2.676  0.1763E+00  0.7256E+00
     -2.622  0.1710E+00  0.7348E+00
     -2.569  0.1678E+00  0.7438E+00
     -2.515  0.1726E+00  0.7531E+00
     -2.461  0.1823E+00  0.7629E+00
     -2.407  0.1899E+00  0.7731E+00
     -2.353  0.1935E+00  0.7836E+00
     -2.299  0.1941E+00  0.7940E+00
     -2.246  0.1925E+00  0.8044E+00
     -2.192  0.1898E+00  0.8146E+00
     -2.138  0.1877E+00  0.8247E+00
     -2.084  0.1853E+00  0.8346E+00
     -2.030  0.1822E+00  0.8444E+00
     -1.977  0.1825E+00  0.8543E+00
     -1.923  0.1878E+00  0.8644E+00
     -1.869  0.1938E+00  0.8748E+00
     -1.815  0.1950E+00  0.8853E+00
     -1.761  0.1901E+00  0.8955E+00
     -1.708  0.1835E+00  0.9054E+00
     -1.654  0.1816E+00  0.9152E+00
     -1.600  0.1844E+00  0.9251E+00
     -1.546  0.1864E+00  0.9351E+00
     -1.492  0.1872E+00  0.9452E+00
     -1.439  0.1882E+00  0.9553E+00
     -1.385  0.1875E+00  0.9654E+00
     -1.331  0.1825E+00  0.9752E+00
     -1.277  0.1730E+00  0.9845E+00
     -1.223  0.1588E+00  0.9931E+00
     -1.170  0.1397E+00  0.1001E+01
     -1.116  0.1178E+00  0.1007E+01
     -1.062  0.9388E-01  0.1012E+01
     -1.008  0.6803E-01  0.1016E+01
     -0.954  0.4537E-01  0.1018E+01
     -0.901  0.3132E-01  0.1020E+01
     -0.847  0.2439E-01  0.1021E+01
     -0.793  0.2052E-01  0.1022E+01
     -0.739  0.1831E-01  0.1023E+01
     -0.685  0.1897E-01  0.1024E+01
     -0.632  0.2384E-01  0.1025E+01
     -0.578  0.3140E-01  0.1027E+01
     -0.524  0.3767E-01  0.1029E+01
     -0.470  0.3947E-01  0.1031E+01
     -0.416  0.3596E-01  0.1033E+01
     -0.362  0.3075E-01  0.1035E+01
     -0.309  0.3039E-01  0.1037E+01
     -0.255  0.3648E-01  0.1039E+01
     -0.201  0.4302E-01  0.1041E+01
     -0.147  0.4279E-01  0.1043E+01
     -0.093  0.3541E-01  0.1045E+01
     -0.040  0.2724E-01  0.1046E+01
      0.014  0.2407E-01  0.1048E+01
      0.068  0.2672E-01  0.1049E+01
      0.122  0.3294E-01  0.1051E+01
      0.176  0.3964E-01  0.1053E+01
      0.229  0.4309E-01  0.1055E+01
      0.283  0.4108E-01  0.1058E+01
      0.337  0.3638E-01  0.1060E+01
      0.391  0.3388E-01  0.1061E+01
      0.445  0.3390E-01  0.1063E+01
      0.498  0.3447E-01  0.1065E+01
      0.552  0.3471E-01  0.1067E+01
      0.606  0.3456E-01  0.1069E+01
      0.660  0.3484E-01  0.1071E+01
      0.714  0.3679E-01  0.1073E+01
      0.767  0.3787E-01  0.1075E+01
      0.821  0.3377E-01  0.1077E+01
      0.875  0.2693E-01  0.1078E+01
      0.929  0.2518E-01  0.1079E+01
      0.983  0.2997E-01  0.1081E+01
      1.036  0.3279E-01  0.1083E+01
      1.090  0.2731E-01  0.1084E+01
      1.144  0.1744E-01  0.1085E+01
      1.198  0.9934E-02  0.1086E+01
      1.252  0.6644E-02  0.1086E+01
      1.305  0.6625E-02  0.1086E+01
      1.359  0.9467E-02  0.1087E+01
      1.413  0.1576E-01  0.1088E+01
      1.467  0.2498E-01  0.1089E+01
      1.521  0.3319E-01  0.1091E+01
      1.574  0.3568E-01  0.1093E+01
      1.628  0.3357E-01  0.1095E+01
      1.682  0.3272E-01  0.1096E+01
      1.736  0.3493E-01  0.1098E+01
      1.790  0.3812E-01  0.1100E+01
      1.844  0.4073E-01  0.1102E+01
      1.897  0.3937E-01  0.1105E+01
      1.951  0.3205E-01  0.1106E+01
      2.005  0.2262E-01  0.1108E+01
      2.059  0.1494E-01  0.1108E+01
      2.113  0.1226E-01  0.1109E+01
      2.166  0.1681E-01  0.1110E+01
      2.220  0.2504E-01  0.1111E+01
      2.274  0.3360E-01  0.1113E+01
      2.328  0.4339E-01  0.1115E+01
      2.382  0.5052E-01  0.1118E+01
      2.435  0.4847E-01  0.1121E+01
      2.489  0.4082E-01  0.1123E+01
      2.543  0.3742E-01  0.1125E+01
      2.597  0.4111E-01  0.1127E+01
      2.651  0.4681E-01  0.1130E+01
      2.704  0.4895E-01  0.1132E+01
      2.758  0.4325E-01  0.1135E+01
      2.812  0.3065E-01  0.1136E+01
      2.866  0.1955E-01  0.1137E+01
      2.920  0.1477E-01  0.1138E+01
      2.973  0.1388E-01  0.1139E+01
      3.027  0.1352E-01  0.1140E+01
      3.081  0.1419E-01  0.1140E+01
      3.135  0.1843E-01  0.1141E+01
      3.189  0.2388E-01  0.1143E+01
      3.242  0.2554E-01  0.1144E+01
      3.296  0.2317E-01  0.1145E+01
      3.350  0.2078E-01  0.1146E+01
      3.404  0.2076E-01  0.1147E+01
      3.458  0.2287E-01  0.1149E+01
      3.511  0.2646E-01  0.1150E+01
      3.565  0.2973E-01  0.1152E+01
      3.619  0.3145E-01  0.1153E+01
      3.673  0.3199E-01  0.1155E+01
      3.727  0.3263E-01  0.1157E+01
      3.781  0.3393E-01  0.1159E+01
      3.834  0.3252E-01  0.1160E+01
      3.888  0.2646E-01  0.1162E+01
      3.942  0.2186E-01  0.1163E+01
      3.996  0.2393E-01  0.1164E+01
      4.050  0.2720E-01  0.1166E+01
      4.103  0.2658E-01  0.1167E+01
      4.157  0.2520E-01  0.1169E+01
      4.211  0.2390E-01  0.1170E+01
      4.265  0.2042E-01  0.1171E+01
      4.319  0.1705E-01  0.1172E+01
      4.372  0.1866E-01  0.1173E+01
      4.426  0.2459E-01  0.1174E+01
      4.480  0.3001E-01  0.1176E+01
      4.534  0.3631E-01  0.1178E+01
      4.588  0.4694E-01  0.1180E+01
      4.641  0.5638E-01  0.1183E+01
      4.695  0.5692E-01  0.1186E+01
      4.749  0.5205E-01  0.1189E+01
      4.803  0.4965E-01  0.1192E+01
      4.857  0.5098E-01  0.1195E+01
      4.910  0.5394E-01  0.1198E+01
      4.964  0.5821E-01  0.1201E+01
      5.018  0.6585E-01  0.1204E+01
      5.072  0.7459E-01  0.1208E+01
      5.126  0.7534E-01  0.1212E+01
      5.179  0.6612E-01  0.1216E+01
      5.233  0.5369E-01  0.1219E+01
      5.287  0.4148E-01  0.1221E+01
      5.341  0.2906E-01  0.1223E+01
      5.395  0.1688E-01  0.1223E+01
      5.448  0.7370E-02  0.1224E+01
      5.502  0.2217E-02  0.1224E+01
      5.556  0.4306E-03  0.1224E+01
      5.610  0.5158E-04  0.1224E+01
      5.664  0.3698E-05  0.1224E+01
      5.718  0.1558E-06  0.1224E+01
      5.771  0.3807E-08  0.1224E+01
      5.825  0.5356E-10  0.1224E+01
      5.879  0.4313E-12  0.1224E+01
      5.933  0.1979E-14  0.1224E+01
      5.987  0.5502E-17  0.1224E+01
      6.040  0.0000E+00  0.1224E+01
      6.094  0.0000E+00  0.1224E+01
      6.148  0.0000E+00  0.1224E+01
      6.202  0.0000E+00  0.1224E+01
      6.256  0.0000E+00  0.1224E+01
      6.309  0.0000E+00  0.1224E+01
      6.363  0.0000E+00  0.1224E+01
