unknown system                          
           1
    11.002582    0.000000    0.000000
     5.501291    9.528515    0.000000
     0.000000    0.000000   24.491785
   Au   Pd
  24  24
Direct configuration=     1
   0.75000000  0.75000000  0.59169983
   0.58333333  0.83333333  0.40830017
   0.50000000  0.00000000  0.59169983
   0.41666667  0.91666667  0.50000000
   0.50000000  0.75000000  0.59169983
   0.66666667  0.91666667  0.50000000
   0.83333333  0.08333333  0.40830017
   0.25000000  0.50000000  0.59169983
   0.33333333  0.58333333  0.40830017
   0.25000000  0.25000000  0.59169983
   0.50000000  0.25000000  0.59169983
   0.25000000  0.00000000  0.59169983
   0.16666667  0.16666667  0.50000000
   0.41666667  0.66666667  0.50000000
   0.08333333  0.58333333  0.40830017
   0.91666667  0.91666667  0.50000000
   0.08333333  0.83333333  0.40830017
   0.83333333  0.58333333  0.40830017
   0.66666667  0.66666667  0.50000000
   0.75000000  0.50000000  0.59169983
   0.33333333  0.08333333  0.40830017
   0.00000000  0.25000000  0.59169983
   0.91666667  0.41666667  0.50000000
   0.08333333  0.33333333  0.40830017
   0.50000000  0.50000000  0.59169983
   0.83333333  0.83333333  0.40830017
   0.75000000  0.25000000  0.59169983
   0.75000000  0.00000000  0.59169983
   0.83333333  0.33333333  0.40830017
   0.66666667  0.16666667  0.50000000
   0.66666667  0.41666667  0.50000000
   0.08333333  0.08333333  0.40830017
   0.41666667  0.41666667  0.50000000
   0.58333333  0.33333333  0.40830017
   0.41666667  0.16666667  0.50000000
   0.58333333  0.08333333  0.40830017
   0.16666667  0.91666667  0.50000000
   0.33333333  0.83333333  0.40830017
   0.16666667  0.66666667  0.50000000
   0.16666667  0.41666667  0.50000000
   0.33333333  0.33333333  0.40830017
   0.00000000  0.75000000  0.59169983
   0.00000000  0.50000000  0.59169983
   0.91666667  0.66666667  0.50000000
   0.00000000  0.00000000  0.59169983
   0.91666667  0.16666667  0.50000000
   0.58333333  0.58333333  0.40830017
   0.25000000  0.75000000  0.59169983
Direct configuration=     2
   0.75209942  0.74965239  0.59393492
   0.58333334  0.83342231  0.40581475
   0.50062603  0.00061645  0.59398640
   0.41519321  0.91720946  0.49949553
   0.49920279  0.74919845  0.59430535
   0.66761557  0.91837199  0.49963794
   0.83241293  0.08464642  0.40649455
   0.24913415  0.50147763  0.59320323
   0.33445727  0.58233915  0.40655977
   0.24951155  0.25114488  0.59359646
   0.50145155  0.25001065  0.59323270
   0.24884173 -0.00099288  0.59396032
   0.16613354  0.16635404  0.49954073
   0.41581566  0.66564863  0.49994678
   0.08343924  0.58329538  0.40671477
   0.91719548  0.91637274  0.50076941
   0.08378084  0.83390895  0.40641253
   0.83294611  0.58355175  0.40608956
   0.66730808  0.66510136  0.49953954
   0.74980933  0.49894183  0.59387856
   0.33360063  0.08367333  0.40613185
  -0.00104579  0.24968058  0.59386946
   0.91660774  0.41656694  0.49996316
   0.08358827  0.33288130  0.40612365
   0.50014438  0.49952009  0.59259212
   0.83292747  0.83363499  0.40704098
   0.74970964  0.24975748  0.59233987
   0.75074412  0.00037384  0.59279667
   0.83242278  0.33312419  0.40741693
   0.66593934  0.16819565  0.49997697
   0.66653259  0.41510204  0.49972253
   0.08322459  0.08311697  0.40731059
   0.41725963  0.41586920  0.49976057
   0.58359908  0.33311492  0.40765713
   0.41706802  0.16818014  0.49949152
   0.58312989  0.08427033  0.40734827
   0.16588290  0.91671311  0.50003956
   0.33290348  0.83354521  0.40709625
   0.16657442  0.66641166  0.50060714
   0.16732001  0.41737264  0.50008127
   0.33460397  0.33281645  0.40760563
   0.00019796  0.75004577  0.59255918
   0.00019922  0.50076391  0.59276657
   0.91805526  0.66638516  0.50031092
  -0.00032312 -0.00043581  0.59249245
   0.91585758  0.16668113  0.49997341
   0.58358323  0.58232158  0.40716388
   0.24938489  0.75004559  0.59264767
Direct configuration=     3
   0.75839769  0.74860956  0.60064017
   0.58333337  0.83368925  0.39835851
   0.50250410  0.00246578  0.60084611
   0.41077284  0.91883783  0.49798214
   0.49681115  0.74679379  0.60212190
   0.67046226  0.92348797  0.49855176
   0.82965172  0.08858567  0.40107769
   0.24653662  0.50591054  0.59771342
   0.33782907  0.57935662  0.40133858
   0.24804620  0.25457951  0.59928634
   0.50580619  0.25004262  0.59783132
   0.24536691 -0.00397152  0.60074177
   0.16453416  0.16541615  0.49816291
   0.41326264  0.66259453  0.49978712
   0.08375697  0.58318151  0.40195859
   0.91878192  0.91549096  0.50307762
   0.08512336  0.83563582  0.40074961
   0.83178445  0.58420701  0.39945772
   0.66923233  0.66040544  0.49815817
   0.74923734  0.49576731  0.60041474
   0.33440251  0.08469333  0.39962690
  -0.00418315  0.24872234  0.60037834
   0.91643098  0.41626774  0.49985262
   0.08435307  0.33152520  0.39959411
   0.50057754  0.49808037  0.59526900
   0.83170988  0.83453994  0.40326340
   0.74883855  0.24902993  0.59426001
   0.75297649  0.00149537  0.59608717
   0.82969112  0.33249675  0.40476721
   0.66375734  0.17278260  0.49990787
   0.66613037  0.41040818  0.49889013
   0.08289835  0.08246789  0.40434184
   0.41903852  0.41347679  0.49904228
   0.58439632  0.33245969  0.40572799
   0.41827210  0.17272058  0.49796607
   0.58251955  0.08708130  0.40449257
   0.16353159  0.91685244  0.50015824
   0.33161390  0.83418086  0.40348451
   0.16629769  0.66564664  0.50242856
   0.16928005  0.41949057  0.50032509
   0.33841587  0.33126580  0.40552202
   0.00079186  0.75018310  0.59513723
   0.00079687  0.50305562  0.59596679
   0.92222105  0.66554064  0.50124370
  -0.00129246 -0.00174324  0.59487030
   0.91343032  0.16672451  0.49989365
   0.58433292  0.57928634  0.40375502
   0.24753954  0.75018236  0.59549118
Direct configuration=     4
   0.75536900  0.74928138  0.60154851
   0.58285730  0.83386510  0.39710666
   0.50199361  0.00097606  0.60154485
   0.41420715  0.91767270  0.49857750
   0.49835396  0.74757548  0.60319043
   0.66801917  0.92118024  0.49896260
   0.83075785  0.08634292  0.40003927
   0.24849541  0.50425300  0.59904334
   0.33669838  0.58010655  0.40010011
   0.24830116  0.25309766  0.59997886
   0.50379387  0.25070320  0.59893952
   0.24640024 -0.00260093  0.60193198
   0.16464322  0.16712337  0.49877692
   0.41424917  0.66360415  0.49983683
   0.08411405  0.58355266  0.40107116
   0.91907073  0.91632643  0.50174578
   0.08409152  0.83509377  0.39985049
   0.83240869  0.58349356  0.39809681
   0.66757822  0.66354876  0.49871052
   0.74883125  0.49744977  0.60155151
   0.33469308  0.08443011  0.39807288
  -0.00289278  0.24842130  0.60154338
   0.91768149  0.41564768  0.49997232
   0.08368741  0.33215031  0.39831389
   0.50000585  0.49832438  0.59576366
   0.83251671  0.83511342  0.40264219
   0.74968819  0.24870373  0.59503090
   0.75269855  0.00123946  0.59705642
   0.83072379  0.33329466  0.40404154
   0.66522819  0.17137373  0.49987935
   0.66649391  0.41222018  0.49933443
   0.08259529  0.08310043  0.40349207
   0.41733795  0.41505405  0.49958664
   0.58406322  0.33267085  0.40456236
   0.41688815  0.17077908  0.49886956
   0.58311536  0.08628543  0.40337929
   0.16368681  0.91643100  0.50005589
   0.33257415  0.83361238  0.40267940
   0.16700386  0.66532334  0.50143721
   0.16908577  0.41815048  0.50024314
   0.33734387  0.33204263  0.40455760
   0.00087850  0.75090454  0.59656572
   0.00034910  0.50154693  0.59661074
   0.92017892  0.66538412  0.50067898
  -0.00167685 -0.00141743  0.59594990
   0.91385334  0.16652225  0.49979474
   0.58412159  0.58003360  0.40295061
   0.24784262  0.75001152  0.59633156
Direct configuration=     5
   0.75329291  0.74974189  0.60217116
   0.58253096  0.83398564  0.39624855
   0.50164367 -0.00004510  0.60202381
   0.41656128  0.91687404  0.49898561
   0.49941152  0.74811130  0.60392287
   0.66634450  0.91959834  0.49924421
   0.83151607  0.08480557  0.39932746
   0.24983811  0.50311680  0.59995495
   0.33592331  0.58062062  0.39925118
   0.24847593  0.25208189  0.60045356
   0.50241449  0.25115602  0.59969916
   0.24710856 -0.00166142  0.60274783
   0.16471798  0.16829362  0.49919781
   0.41492541  0.66429622  0.49987090
   0.08435882  0.58380708  0.40046286
   0.91926871  0.91689912  0.50083285
   0.08338423  0.83472222  0.39923417
   0.83283660  0.58300451  0.39716394
   0.66644438  0.66570343  0.49908914
   0.74855289  0.49860306  0.60233073
   0.33489226  0.08424967  0.39700764
  -0.00200827  0.24821495  0.60234198
   0.91853869  0.41522265  0.50005437
   0.08323113  0.33257881  0.39743633
   0.49961397  0.49849164  0.59610274
   0.83306978  0.83550652  0.40221637
   0.75027060  0.24848013  0.59555933
   0.75250802  0.00106404  0.59772081
   0.83143166  0.33384161  0.40354411
   0.66623642  0.17040799  0.49985980
   0.66674310  0.41346227  0.49963898
   0.08238755  0.08353401  0.40290957
   0.41617226  0.41613521  0.49995978
   0.58383489  0.33281560  0.40376335
   0.41593950  0.16944823  0.49948888
   0.58352377  0.08573989  0.40261616
   0.16379321  0.91614211  0.49998573
   0.33323237  0.83322270  0.40212751
   0.16748791  0.66510172  0.50075766
   0.16895260  0.41723188  0.50018696
   0.33660904  0.33257512  0.40389651
   0.00093789  0.75139906  0.59754491
   0.00004216  0.50051276  0.59705214
   0.91877910  0.66527683  0.50029189
  -0.00194034 -0.00119410  0.59668993
   0.91414331  0.16638361  0.49972694
   0.58397673  0.58054582  0.40239921
   0.24805038  0.74989441  0.59690762
Direct configuration=     6
   0.75338023  0.74963237  0.60251905
   0.58319008  0.83357915  0.39550320
   0.50129362  0.00007440  0.60239235
   0.41515035  0.91772522  0.49920247
   0.49903471  0.74843443  0.60456046
   0.66683917  0.91916549  0.49944615
   0.83167007  0.08520283  0.39876136
   0.24905848  0.50287806  0.60047659
   0.33591819  0.58119293  0.39869928
   0.24873579  0.25146398  0.60081950
   0.50232209  0.25025388  0.60010263
   0.24775537 -0.00191553  0.60320122
   0.16613773  0.16654749  0.49929529
   0.41521188  0.66532087  0.49986399
   0.08395321  0.58357547  0.40008867
   0.91797173  0.91621519  0.50048815
   0.08395664  0.83459732  0.39869362
   0.83253601  0.58368075  0.39658446
   0.66739066  0.66519390  0.49925228
   0.74886084  0.49849920  0.60282320
   0.33442791  0.08434579  0.39640557
  -0.00215921  0.24848108  0.60294039
   0.91720680  0.41629368  0.50010926
   0.08360765  0.33249859  0.39677566
   0.49995317  0.49908335  0.59630644
   0.83263434  0.83500854  0.40209875
   0.75020955  0.24885491  0.59589491
   0.75205421  0.00065870  0.59780907
   0.83161117  0.33381220  0.40332809
   0.66563342  0.16977565  0.49981687
   0.66714439  0.41454405  0.49984808
   0.08287665  0.08362865  0.40273831
   0.41608565  0.41585427  0.50005576
   0.58405362  0.33284015  0.40347505
   0.41607817  0.16878175  0.49980986
   0.58337257  0.08547684  0.40245574
   0.16545911  0.91661752  0.49998618
   0.33326989  0.83338417  0.40200164
   0.16714917  0.66474240  0.50045655
   0.16849560  0.41747417  0.50019694
   0.33637867  0.33227932  0.40370218
   0.00047976  0.75104262  0.59765552
  -0.00022888  0.50063481  0.59718055
   0.91804171  0.66571645  0.50016435
  -0.00170690 -0.00126470  0.59706961
   0.91484298  0.16689036  0.49964102
   0.58397704  0.58098325  0.40221905
   0.24868494  0.75024400  0.59708473
Direct configuration=     7
   0.75339958  0.74960810  0.60259616
   0.58333618  0.83348905  0.39533799
   0.50121603  0.00010089  0.60247403
   0.41483761  0.91791388  0.49925054
   0.49895119  0.74850605  0.60470178
   0.66694881  0.91906954  0.49949090
   0.83170420  0.08529089  0.39863588
   0.24888567  0.50282515  0.60059221
   0.33591705  0.58131979  0.39857695
   0.24879339  0.25132702  0.60090061
   0.50230161  0.25005392  0.60019205
   0.24789874 -0.00197185  0.60330172
   0.16645242  0.16616045  0.49931690
   0.41527538  0.66554799  0.49986245
   0.08386330  0.58352413  0.40000573
   0.91768425  0.91606359  0.50041175
   0.08408351  0.83456964  0.39857380
   0.83246938  0.58383064  0.39645601
   0.66760040  0.66508096  0.49928844
   0.74892909  0.49847618  0.60293236
   0.33432498  0.08436710  0.39627212
  -0.00219267  0.24854007  0.60307303
   0.91691158  0.41653108  0.50012143
   0.08369111  0.33248080  0.39662922
   0.50002835  0.49921451  0.59635159
   0.83253782  0.83489816  0.40207268
   0.75019602  0.24893798  0.59596929
   0.75195362  0.00056886  0.59782863
   0.83165096  0.33380568  0.40328021
   0.66549976  0.16963549  0.49980735
   0.66723333  0.41478384  0.49989443
   0.08298506  0.08364962  0.40270035
   0.41606646  0.41579200  0.50007704
   0.58410210  0.33284559  0.40341115
   0.41610891  0.16863402  0.49988101
   0.58333906  0.08541854  0.40242018
   0.16582837  0.91672289  0.49998628
   0.33327821  0.83341996  0.40197373
   0.16707409  0.66466276  0.50038980
   0.16839431  0.41752788  0.50019915
   0.33632760  0.33221376  0.40365910
   0.00037821  0.75096361  0.59768004
  -0.00028896  0.50066186  0.59720902
   0.91787827  0.66581390  0.50013608
  -0.00165515 -0.00128035  0.59715376
   0.91499807  0.16700268  0.49962198
   0.58397711  0.58108021  0.40217911
   0.24882559  0.75032148  0.59712399
Direct configuration=     8
   0.75377332  0.74936389  0.60280704
   0.58334396  0.83357016  0.39490276
   0.50134515  0.00003099  0.60277576
   0.41492210  0.91792483  0.49922486
   0.49885841  0.74839113  0.60520336
   0.66669234  0.91915001  0.49953652
   0.83172267  0.08579057  0.39835928
   0.24822907  0.50314863  0.60074476
   0.33627032  0.58121375  0.39836297
   0.24848314  0.25141838  0.60112813
   0.50269987  0.24984303  0.60034219
   0.24770782 -0.00213087  0.60368403
   0.16610902  0.16647224  0.49925592
   0.41529786  0.66547770  0.49983253
   0.08374419  0.58334822  0.39979974
   0.91805528  0.91600053  0.50043091
   0.08435517  0.83482498  0.39830206
   0.83232651  0.58394238  0.39608879
   0.66765461  0.66524555  0.49929650
   0.74913887  0.49827030  0.60333129
   0.33435437  0.08414736  0.39595390
  -0.00230991  0.24861633  0.60341667
   0.91715436  0.41635987  0.50007941
   0.08375753  0.33245582  0.39629518
   0.50008545  0.49930445  0.59638461
   0.83226574  0.83471506  0.40199869
   0.74980739  0.24902399  0.59599996
   0.75188560  0.00037450  0.59771651
   0.83166520  0.33382118  0.40324141
   0.66498456  0.17007292  0.49977300
   0.66704906  0.41468683  0.49996737
   0.08332951  0.08361683  0.40270761
   0.41647338  0.41550670  0.50007366
   0.58421338  0.33296594  0.40353065
   0.41642360  0.16870734  0.49991786
   0.58305768  0.08536280  0.40255611
   0.16549964  0.91679934  0.50006133
   0.33339907  0.83372368  0.40198789
   0.16691526  0.66475494  0.50038207
   0.16789840  0.41758806  0.50021747
   0.33653667  0.33193055  0.40377664
   0.00031826  0.75068491  0.59738711
  -0.00032060  0.50082911  0.59716841
   0.91809092  0.66575545  0.50014124
  -0.00150402 -0.00151877  0.59703549
   0.91528650  0.16687691  0.49962483
   0.58407768  0.58128679  0.40220322
   0.24887566  0.75025468  0.59699228
Direct configuration=     9
   0.75412956  0.74913113  0.60300805
   0.58335138  0.83364746  0.39448791
   0.50146821 -0.00003563  0.60306336
   0.41500263  0.91793527  0.49920039
   0.49876998  0.74828159  0.60568144
   0.66644788  0.91922671  0.49957999
   0.83174028  0.08626686  0.39809563
   0.24760323  0.50345696  0.60089017
   0.33660703  0.58111268  0.39815902
   0.24818742  0.25150546  0.60134500
   0.50307947  0.24964202  0.60048529
   0.24752584 -0.00228244  0.60404844
   0.16578170  0.16676942  0.49919781
   0.41531929  0.66541071  0.49980400
   0.08363066  0.58318056  0.39960339
   0.91840893  0.91594042  0.50044918
   0.08461410  0.83506837  0.39804305
   0.83219034  0.58404887  0.39573878
   0.66770627  0.66540243  0.49930417
   0.74933881  0.49807407  0.60371153
   0.33438238  0.08393792  0.39565059
  -0.00242167  0.24868901  0.60374423
   0.91738576  0.41619668  0.50003936
   0.08382084  0.33243200  0.39597678
   0.50013987  0.49939018  0.59641608
   0.83200640  0.83454054  0.40192818
   0.74943697  0.24910597  0.59602919
   0.75182077  0.00018924  0.59760965
   0.83167876  0.33383595  0.40320443
   0.66449349  0.17048986  0.49974026
   0.66687341  0.41459437  0.50003689
   0.08365782  0.08358557  0.40271454
   0.41686125  0.41523476  0.50007045
   0.58431945  0.33308066  0.40364455
   0.41672355  0.16877722  0.49995299
   0.58278948  0.08530967  0.40268567
   0.16518630  0.91687220  0.50013286
   0.33351427  0.83401318  0.40200138
   0.16676387  0.66484280  0.50037470
   0.16742571  0.41764543  0.50023494
   0.33673594  0.33166062  0.40388868
   0.00026111  0.75041927  0.59710790
  -0.00035075  0.50098852  0.59712970
   0.91829361  0.66569974  0.50014617
  -0.00135996 -0.00174603  0.59692275
   0.91556142  0.16675704  0.49962754
   0.58417353  0.58148369  0.40222621
   0.24892337  0.75019101  0.59686674
Direct configuration=    10
   0.75398251  0.74894505  0.60324022
   0.58317740  0.83382591  0.39398309
   0.50143093 -0.00025583  0.60340214
   0.41493790  0.91808789  0.49921739
   0.49897391  0.74809109  0.60629491
   0.66658646  0.91922628  0.49959752
   0.83170097  0.08620683  0.39791649
   0.24784976  0.50332104  0.60091996
   0.33664352  0.58101816  0.39804583
   0.24814193  0.25148655  0.60153161
   0.50270077  0.25004808  0.60064085
   0.24734600 -0.00225690  0.60448817
   0.16592112  0.16697711  0.49917123
   0.41521454  0.66526661  0.49975600
   0.08390882  0.58330408  0.39940746
   0.91820192  0.91646377  0.50026171
   0.08454390  0.83514690  0.39781644
   0.83214099  0.58380158  0.39535420
   0.66776859  0.66535322  0.49933427
   0.74929114  0.49808932  0.60414861
   0.33449795  0.08390692  0.39533060
  -0.00256850  0.24851025  0.60410948
   0.91715546  0.41618860  0.49995274
   0.08379682  0.33240003  0.39562721
   0.49980112  0.49936624  0.59642502
   0.83212196  0.83488333  0.40194009
   0.74954942  0.24894874  0.59596921
   0.75204061 -0.00002842  0.59738093
   0.83176601  0.33410694  0.40324102
   0.66492597  0.17046144  0.49967830
   0.66708613  0.41442578  0.50012830
   0.08383989  0.08368801  0.40273637
   0.41654452  0.41555605  0.50015442
   0.58437293  0.33323276  0.40380550
   0.41637961  0.16906715  0.50006928
   0.58289864  0.08522177  0.40290486
   0.16504380  0.91681922  0.50017009
   0.33373902  0.83403597  0.40207685
   0.16719230  0.66452488  0.50023615
   0.16760997  0.41750248  0.50021773
   0.33681272  0.33164669  0.40414112
   0.00025282  0.75043297  0.59670697
  -0.00049952  0.50083382  0.59708170
   0.91829601  0.66572640  0.50002005
  -0.00154143 -0.00181637  0.59671891
   0.91520245  0.16672649  0.49966673
   0.58433249  0.58165875  0.40234217
   0.24888781  0.74982636  0.59664009
Direct configuration=    11
   0.75387982  0.74881510  0.60340236
   0.58305591  0.83395053  0.39363054
   0.50140489 -0.00040961  0.60363873
   0.41489269  0.91819447  0.49922926
   0.49911633  0.74795806  0.60672333
   0.66668324  0.91922598  0.49960977
   0.83167351  0.08616491  0.39779138
   0.24802192  0.50322612  0.60094076
   0.33666900  0.58095215  0.39796678
   0.24811016  0.25147334  0.60166194
   0.50243631  0.25033165  0.60074948
   0.24722041 -0.00223906  0.60479527
   0.16601848  0.16712215  0.49915267
   0.41514139  0.66516599  0.49972247
   0.08410307  0.58339035  0.39927063
   0.91805735  0.91682925  0.50013080
   0.08449487  0.83520175  0.39765819
   0.83210653  0.58362888  0.39508563
   0.66781212  0.66531885  0.49935530
   0.74925784  0.49809997  0.60445385
   0.33457866  0.08388527  0.39510713
  -0.00267104  0.24838541  0.60436456
   0.91699462  0.41618297  0.49989225
   0.08378004  0.33237771  0.39538309
   0.49956454  0.49934953  0.59643125
   0.83220266  0.83512272  0.40194840
   0.74962794  0.24883894  0.59592733
   0.75219414 -0.00018043  0.59722120
   0.83182693  0.33429619  0.40326657
   0.66522799  0.17044159  0.49963504
   0.66723468  0.41430804  0.50019213
   0.08396703  0.08375955  0.40275161
   0.41632333  0.41578041  0.50021306
   0.58441028  0.33333898  0.40391791
   0.41613941  0.16926962  0.50015050
   0.58297488  0.08516038  0.40305794
   0.16494428  0.91678221  0.50019608
   0.33389598  0.83405189  0.40212955
   0.16749150  0.66430286  0.50013939
   0.16773864  0.41740266  0.50020571
   0.33686633  0.33163696  0.40431742
   0.00024702  0.75044254  0.59642698
  -0.00060343  0.50072579  0.59704817
   0.91829769  0.66574501  0.49993197
  -0.00166817 -0.00186550  0.59657656
   0.91495176  0.16670517  0.49969410
   0.58444350  0.58178100  0.40242316
   0.24886297  0.74957170  0.59648180
Direct configuration=    12
   0.75359397  0.74883586  0.60353899
   0.58336689  0.83390096  0.39323741
   0.50132006 -0.00040868  0.60387888
   0.41492241  0.91816024  0.49934703
   0.49891186  0.74788573  0.60722488
   0.66657209  0.91915100  0.49964785
   0.83171890  0.08618890  0.39766751
   0.24804889  0.50295119  0.60089326
   0.33668091  0.58107697  0.39791837
   0.24813886  0.25123989  0.60177761
   0.50228429  0.25011327  0.60081613
   0.24728390 -0.00250085  0.60511653
   0.16598971  0.16700993  0.49920526
   0.41549994  0.66535997  0.49971497
   0.08408348  0.58350730  0.39916978
   0.91799070  0.91669081  0.49970551
   0.08454573  0.83524578  0.39751727
   0.83238135  0.58388363  0.39481992
   0.66757166  0.66545197  0.49943168
   0.74898555  0.49798329  0.60476268
   0.33464570  0.08420329  0.39491953
  -0.00266540  0.24816367  0.60458938
   0.91690761  0.41621924  0.49987918
   0.08389877  0.33255453  0.39514096
   0.49957683  0.49934968  0.59643455
   0.83239893  0.83513112  0.40196581
   0.74968726  0.24879732  0.59589932
   0.75192629 -0.00003157  0.59701823
   0.83189950  0.33425502  0.40332634
   0.66522024  0.17041732  0.49964746
   0.66726112  0.41459175  0.50033918
   0.08381697  0.08381259  0.40282734
   0.41615604  0.41588742  0.50033322
   0.58447220  0.33344338  0.40404443
   0.41613590  0.16912069  0.50038662
   0.58317983  0.08521648  0.40326066
   0.16523818  0.91691275  0.50014795
   0.33388142  0.83384374  0.40222126
   0.16743302  0.66420417  0.49982594
   0.16773322  0.41751854  0.50018906
   0.33681763  0.33169725  0.40455521
   0.00023454  0.75034288  0.59603521
  -0.00064333  0.50035359  0.59693378
   0.91824377  0.66570865  0.49968082
  -0.00171314 -0.00190422  0.59643889
   0.91496609  0.16698444  0.49967040
   0.58440972  0.58185549  0.40257469
   0.24898996  0.74962359  0.59632305
Direct configuration=    13
   0.75340505  0.74884958  0.60362929
   0.58357241  0.83386819  0.39297760
   0.50126400 -0.00040806  0.60403760
   0.41494205  0.91813762  0.49942486
   0.49877672  0.74783793  0.60755635
   0.66649863  0.91910145  0.49967303
   0.83174890  0.08620475  0.39758564
   0.24806672  0.50276950  0.60086186
   0.33668878  0.58115946  0.39788637
   0.24815783  0.25108561  0.60185405
   0.50218382  0.24996895  0.60086018
   0.24732586 -0.00267387  0.60532885
   0.16597069  0.16693576  0.49924002
   0.41573691  0.66548817  0.49971002
   0.08407053  0.58358460  0.39910313
   0.91794666  0.91659931  0.49942445
   0.08457934  0.83527488  0.39742414
   0.83256297  0.58405198  0.39464432
   0.66741274  0.66553995  0.49948216
   0.74880559  0.49790617  0.60496677
   0.33469001  0.08441346  0.39479555
  -0.00266167  0.24801713  0.60473796
   0.91685010  0.41624321  0.49987055
   0.08397723  0.33267138  0.39498094
   0.49958495  0.49934977  0.59643672
   0.83252864  0.83513667  0.40197731
   0.74972646  0.24876982  0.59588081
   0.75174927  0.00006681  0.59688409
   0.83194745  0.33422782  0.40336585
   0.66521512  0.17040129  0.49965566
   0.66727859  0.41477925  0.50043636
   0.08371780  0.08384765  0.40287739
   0.41604547  0.41595814  0.50041263
   0.58451313  0.33351238  0.40412805
   0.41613358  0.16902226  0.50054267
   0.58331528  0.08525355  0.40339464
   0.16543242  0.91699903  0.50011614
   0.33387180  0.83370618  0.40228187
   0.16739437  0.66413895  0.49961879
   0.16772964  0.41759513  0.50017806
   0.33678545  0.33173710  0.40471237
   0.00022630  0.75027702  0.59577629
  -0.00066971  0.50010761  0.59685818
   0.91820813  0.66568462  0.49951484
  -0.00174286 -0.00192980  0.59634791
   0.91497555  0.16716901  0.49965473
   0.58438741  0.58190472  0.40267483
   0.24907388  0.74965788  0.59621813
Direct configuration=    14
   0.75343246  0.74867430  0.60362155
   0.58366990  0.83394449  0.39277387
   0.50117758 -0.00058609  0.60426458
   0.41507601  0.91828513  0.49953787
   0.49857072  0.74780405  0.60796211
   0.66626593  0.91886242  0.49971861
   0.83175033  0.08648695  0.39747940
   0.24774196  0.50289634  0.60072475
   0.33677091  0.58113070  0.39790174
   0.24795214  0.25074541  0.60191403
   0.50242461  0.24968654  0.60087735
   0.24736854 -0.00287073  0.60557596
   0.16591022  0.16702563  0.49931504
   0.41569356  0.66557226  0.49983609
   0.08417938  0.58353959  0.39898579
   0.91825609  0.91649416  0.49909485
   0.08474583  0.83535296  0.39727854
   0.83260706  0.58426549  0.39452468
   0.66765074  0.66570640  0.49959511
   0.74878385  0.49772741  0.60516288
   0.33486884  0.08429042  0.39480458
  -0.00261531  0.24793024  0.60483757
   0.91699051  0.41648760  0.49988424
   0.08404400  0.33273280  0.39489477
   0.49961203  0.49921705  0.59645090
   0.83245104  0.83509959  0.40185647
   0.74951615  0.24876189  0.59589545
   0.75165537  0.00001719  0.59668616
   0.83195713  0.33438401  0.40342108
   0.66497210  0.17059904  0.49973218
   0.66716895  0.41498750  0.50060032
   0.08377984  0.08398427  0.40293272
   0.41632674  0.41595556  0.50054135
   0.58453997  0.33364157  0.40425987
   0.41623085  0.16875301  0.50079921
   0.58330541  0.08533868  0.40353009
   0.16543302  0.91703116  0.50006701
   0.33393063  0.83400372  0.40231992
   0.16738710  0.66452335  0.49930755
   0.16749213  0.41753503  0.50017323
   0.33680923  0.33194379  0.40491800
   0.00009659  0.75004657  0.59538119
  -0.00092862  0.49997296  0.59669046
   0.91786729  0.66551425  0.49930338
  -0.00176818 -0.00215288  0.59612504
   0.91514975  0.16719441  0.49962634
   0.58465413  0.58186241  0.40276756
   0.24904549  0.74960141  0.59604860
Direct configuration=    15
   0.75344027  0.74862440  0.60361935
   0.58369765  0.83396620  0.39271587
   0.50115298 -0.00063677  0.60432919
   0.41511414  0.91832712  0.49957004
   0.49851208  0.74779440  0.60807762
   0.66619969  0.91879438  0.49973158
   0.83175073  0.08656728  0.39744916
   0.24764951  0.50293245  0.60068572
   0.33679429  0.58112251  0.39790611
   0.24789359  0.25064857  0.60193110
   0.50249316  0.24960615  0.60088224
   0.24738069 -0.00292677  0.60564630
   0.16589301  0.16705122  0.49933640
   0.41568123  0.66559620  0.49987197
   0.08421036  0.58352677  0.39895239
   0.91834417  0.91646423  0.49900103
   0.08479322  0.83537519  0.39723709
   0.83261961  0.58432627  0.39449062
   0.66771849  0.66575378  0.49962726
   0.74877765  0.49767653  0.60521871
   0.33491975  0.08425539  0.39480715
  -0.00260211  0.24790550  0.60486592
   0.91703047  0.41655717  0.49988813
   0.08406301  0.33275028  0.39487023
   0.49961973  0.49917927  0.59645493
   0.83242895  0.83508903  0.40182207
   0.74945629  0.24875963  0.59589962
   0.75162864  0.00000307  0.59662982
   0.83195988  0.33442847  0.40343680
   0.66490292  0.17065533  0.49975396
   0.66713774  0.41504677  0.50064699
   0.08379750  0.08402316  0.40294847
   0.41640681  0.41595482  0.50057799
   0.58454761  0.33367834  0.40429739
   0.41625854  0.16867636  0.50087224
   0.58330260  0.08536291  0.40356864
   0.16543319  0.91704031  0.50005303
   0.33394737  0.83408842  0.40233075
   0.16738503  0.66463277  0.49921895
   0.16742452  0.41751793  0.50017186
   0.33681600  0.33200263  0.40497653
   0.00005967  0.74998098  0.59526873
  -0.00100232  0.49993463  0.59664271
   0.91777027  0.66546575  0.49924319
  -0.00177539 -0.00221639  0.59606160
   0.91519934  0.16720164  0.49961826
   0.58473006  0.58185037  0.40279396
   0.24903741  0.74958534  0.59600034
Direct configuration=    16
   0.75348721  0.74842444  0.60354512
   0.58357843  0.83408302  0.39262908
   0.50117335 -0.00099051  0.60463449
   0.41499636  0.91835878  0.49970250
   0.49852246  0.74755301  0.60843215
   0.66642786  0.91874841  0.49972929
   0.83172268  0.08683782  0.39735846
   0.24737914  0.50288545  0.60043262
   0.33704964  0.58119636  0.39796312
   0.24774670  0.25056810  0.60196707
   0.50237876  0.24953148  0.60092965
   0.24717001 -0.00311277  0.60586645
   0.16593858  0.16711723  0.49941908
   0.41572959  0.66576364  0.50000383
   0.08437377  0.58350048  0.39879457
   0.91817645  0.91661459  0.49872511
   0.08491874  0.83550730  0.39702493
   0.83253018  0.58434563  0.39442014
   0.66774233  0.66569326  0.49975701
   0.74877876  0.49752080  0.60537202
   0.33508852  0.08417140  0.39497324
  -0.00275466  0.24772820  0.60489315
   0.91696654  0.41654145  0.49985804
   0.08416826  0.33267813  0.39488816
   0.49948799  0.49904947  0.59655356
   0.83226868  0.83531166  0.40160669
   0.74945975  0.24864269  0.59593442
   0.75182258 -0.00040607  0.59638384
   0.83198134  0.33480526  0.40353064
   0.66495302  0.17057742  0.49981440
   0.66733073  0.41518461  0.50079393
   0.08396750  0.08424237  0.40297709
   0.41650961  0.41595226  0.50070876
   0.58461162  0.33380568  0.40443830
   0.41622933  0.16872556  0.50112930
   0.58320357  0.08546408  0.40369653
   0.16549758  0.91716218  0.49998334
   0.33424792  0.83441009  0.40238231
   0.16743401  0.66480288  0.49890052
   0.16748276  0.41748458  0.50016916
   0.33691865  0.33202641  0.40520261
  -0.00018207  0.74978080  0.59481424
  -0.00134472  0.49993626  0.59649238
   0.91768969  0.66555555  0.49901214
  -0.00184785 -0.00243933  0.59576483
   0.91517313  0.16730095  0.49960496
   0.58496739  0.58195946  0.40291750
   0.24884815  0.74939946  0.59586930
Direct configuration=    17
   0.75351159  0.74832054  0.60350655
   0.58351649  0.83414371  0.39258398
   0.50118394 -0.00117431  0.60479311
   0.41493516  0.91837523  0.49977132