unknown system                          
           1
    11.002582    0.000000    0.000000
     5.501291    9.528515    0.000000
     0.000000    0.000000   24.491785
   Au   Pd
  24  24
Direct configuration=     1
   0.08333333  0.08333333  0.40830017
   0.66666667  0.91666667  0.50000000
   0.58333333  0.08333333  0.40830017
   0.50000000  0.00000000  0.59169983
   0.58333333  0.33333333  0.40830017
   0.41666667  0.41666667  0.50000000
   0.50000000  0.25000000  0.59169983
   0.58333333  0.58333333  0.40830017
   0.41666667  0.91666667  0.50000000
   0.75000000  0.00000000  0.59169983
   0.83333333  0.33333333  0.40830017
   0.66666667  0.41666667  0.50000000
   0.75000000  0.25000000  0.59169983
   0.83333333  0.58333333  0.40830017
   0.66666667  0.66666667  0.50000000
   0.75000000  0.50000000  0.59169983
   0.16666667  0.91666667  0.50000000
   0.33333333  0.58333333  0.40830017
   0.25000000  0.75000000  0.59169983
   0.75000000  0.75000000  0.59169983
   0.16666667  0.41666667  0.50000000
   0.33333333  0.33333333  0.40830017
   0.00000000  0.00000000  0.59169983
   0.91666667  0.91666667  0.50000000
   0.83333333  0.83333333  0.40830017
   0.91666667  0.16666667  0.50000000
   0.08333333  0.33333333  0.40830017
   0.91666667  0.41666667  0.50000000
   0.00000000  0.25000000  0.59169983
   0.08333333  0.58333333  0.40830017
   0.91666667  0.66666667  0.50000000
   0.66666667  0.16666667  0.50000000
   0.83333333  0.08333333  0.40830017
   0.50000000  0.75000000  0.59169983
   0.16666667  0.66666667  0.50000000
   0.25000000  0.25000000  0.59169983
   0.50000000  0.50000000  0.59169983
   0.41666667  0.66666667  0.50000000
   0.08333333  0.83333333  0.40830017
   0.00000000  0.75000000  0.59169983
   0.33333333  0.08333333  0.40830017
   0.16666667  0.16666667  0.50000000
   0.41666667  0.16666667  0.50000000
   0.25000000  0.00000000  0.59169983
   0.33333333  0.83333333  0.40830017
   0.25000000  0.50000000  0.59169983
   0.00000000  0.50000000  0.59169983
   0.58333333  0.83333333  0.40830017
Direct configuration=     2
   0.08372643  0.08333061  0.40649316
   0.66707152  0.91674393  0.49915923
   0.58369717  0.08251211  0.40645865
   0.49807902  0.00061894  0.59389903
   0.58444673  0.33192297  0.40604111
   0.41600429  0.41744522  0.50082151
   0.49879504  0.25092507  0.59356985
   0.58205675  0.58506251  0.40601681
   0.41530380  0.91739461  0.49964552
   0.75049357 -0.00022810  0.59398859
   0.83472892  0.33221902  0.40640788
   0.66688878  0.41606833  0.50045398
   0.75036534  0.25021636  0.59359930
   0.83460619  0.58383231  0.40640687
   0.66634032  0.66700540  0.49996514
   0.75065678  0.49969880  0.59383320
   0.16736530  0.91642869  0.49964859
   0.33151583  0.58547601  0.40634940
   0.25098234  0.74869679  0.59358119
   0.75143229  0.74885118  0.59396986
   0.16502829  0.41697142  0.50040960
   0.33197923  0.33276404  0.40614040
   0.00053554  0.00054394  0.59387685
   0.91713246  0.91583846  0.49919717
   0.83419853  0.83292513  0.40720397
   0.91689884  0.16733334  0.49996596
   0.08376824  0.33306283  0.40742535
   0.91855402  0.41552207  0.50025392
   0.00097121  0.24985419  0.59241945
   0.08272784  0.58393849  0.40733601
   0.91839036  0.66571726  0.49993757
   0.66726702  0.16640953  0.49974681
   0.83365149  0.08276485  0.40732871
   0.49938023  0.74988900  0.59295488
   0.16587334  0.66662043  0.49998904
   0.24921887  0.25014886  0.59256370
   0.49917504  0.50086545  0.59288667
   0.41601559  0.66707748  0.50023744
   0.08308086  0.83271131  0.40724569
   0.00057124  0.74884259  0.59275466
   0.33316037  0.08312093  0.40734802
   0.16627501  0.16760169  0.50025468
   0.41550437  0.16674150  0.50001561
   0.24976848  0.00103483  0.59283467
   0.33356440  0.83332167  0.40713935
   0.24931265  0.50039331  0.59275164
   0.00073899  0.49987636  0.59253113
   0.58270109  0.83388825  0.40694218
Direct configuration=     3
   0.08490573  0.08332244  0.40107213
   0.66828608  0.91697572  0.49663692
   0.58478868  0.08004846  0.40093408
   0.49231607  0.00247574  0.60049663
   0.58778692  0.32769190  0.39926393
   0.41401714  0.41978089  0.50328606
   0.49518015  0.25370029  0.59917991
   0.57822698  0.59025005  0.39916673
   0.41121522  0.91957844  0.49858207
   0.75197427 -0.00091239  0.60085485
   0.83891569  0.32887609  0.40073102
   0.66755510  0.41427333  0.50181591
   0.75146135  0.25086544  0.59929770
   0.83842478  0.58532924  0.40072696
   0.66536129  0.66802162  0.49986055
   0.75262713  0.49879519  0.60023332
   0.16946118  0.91571476  0.49859437
   0.32606331  0.59190405  0.40049709
   0.25392938  0.74478715  0.59922527
   0.75572915  0.74540474  0.60077996
   0.16011318  0.41788567  0.50163840
   0.32791691  0.33105618  0.39966110
   0.00214215  0.00217576  0.60040789
   0.91852986  0.91335385  0.49678867
   0.83679412  0.83170051  0.40391536
   0.91759536  0.16933336  0.49986386
   0.08507295  0.33225133  0.40480091
   0.92421606  0.41208827  0.50101570
   0.00388483  0.24941678  0.59457831
   0.08091136  0.58575397  0.40444354
   0.92356143  0.66286906  0.49975029
   0.66906808  0.16563811  0.49898725
   0.83460597  0.08105941  0.40441431
   0.49752092  0.74955599  0.59672002
   0.16349335  0.66648170  0.49995615
   0.24687548  0.25059544  0.59515531
   0.49670018  0.50346180  0.59644718
   0.41406237  0.66830991  0.50094977
   0.08232345  0.83084526  0.40408225
   0.00228496  0.74537035  0.59591913
   0.33264148  0.08248371  0.40449159
   0.16510004  0.17040675  0.50101871
   0.41201748  0.16696601  0.50006244
   0.24907391  0.00413931  0.59623920
   0.33425761  0.83328668  0.40365688
   0.24725061  0.50157323  0.59590708
   0.00295595  0.49950546  0.59502504
   0.58080436  0.83555300  0.40286819
Direct configuration=     4
   0.08583547  0.08177783  0.39968600
   0.66734718  0.91696184  0.49760452
   0.58403577  0.08072223  0.39933681
   0.49489873  0.00093260  0.60176166
   0.58555518  0.33018845  0.39801499
   0.41387938  0.41845660  0.50213404
   0.49600392  0.25254552  0.60052804
   0.58034187  0.58764659  0.39780785
   0.41348266  0.91943962  0.49910095
   0.75137664 -0.00137134  0.60196724
   0.83698996  0.33156920  0.39955637
   0.66779087  0.41550725  0.50126489
   0.75094649  0.25075526  0.60076649
   0.83673979  0.58483405  0.39955451
   0.66700214  0.66662109  0.49990581
   0.75264335  0.49910931  0.60170548
   0.16648291  0.91675155  0.49905776
   0.32792123  0.58860510  0.39933486
   0.25165354  0.74717322  0.60063577
   0.75397382  0.74706633  0.60205562
   0.16478910  0.41680702  0.50096928
   0.32897393  0.33253316  0.39851888
   0.00329255  0.00034811  0.60156233
   0.91864638  0.91523214  0.49807668
   0.83646853  0.83172265  0.40234431
   0.91845920  0.16787458  0.49989949
   0.08460235  0.33251127  0.40401709
   0.91909330  0.41438148  0.50059751
   0.00326789  0.24987049  0.59557387
   0.08261202  0.58436552  0.40352274
   0.91984504  0.66423136  0.49987602
   0.66799403  0.16595787  0.49938653
   0.83556346  0.08049890  0.40346601
   0.49851947  0.75012965  0.59741617
   0.16535987  0.66621318  0.50005697
   0.24683042  0.25155729  0.59625644
   0.49828603  0.50241359  0.59773672
   0.41462737  0.66708797  0.50060361
   0.08182800  0.83236827  0.40277816
   0.00221623  0.74722584  0.59665372
   0.33278345  0.08214954  0.40350065
   0.16506665  0.16851130  0.50058869
   0.41325492  0.16773064  0.50003007
   0.24855649  0.00292703  0.59705512
   0.33312881  0.83456995  0.40239429
   0.24682374  0.50114815  0.59713511
   0.00293879  0.49919352  0.59644161
   0.58127106  0.83514726  0.40176225
Direct configuration=     5
   0.08625800  0.08107586  0.39905606
   0.66692048  0.91695552  0.49804426
   0.58369360  0.08102843  0.39861091
   0.49607246  0.00023129  0.60233658
   0.58454094  0.33132305  0.39744739
   0.41381677  0.41785476  0.50161049
   0.49637830  0.25202071  0.60114072
   0.58130301  0.58646341  0.39719029
   0.41451314  0.91937653  0.49933676
   0.75110504 -0.00157991  0.60247278
   0.83611479  0.33279312  0.39902253
   0.66789802  0.41606802  0.50101448
   0.75071250  0.25070519  0.60143401
   0.83597403  0.58460900  0.39902167
   0.66774785  0.66598460  0.49992638
   0.75265072  0.49925207  0.60237452
   0.16512938  0.91722273  0.49926836
   0.32876559  0.58710584  0.39880667
   0.25061925  0.74825761  0.60127679
   0.75317608  0.74782146  0.60263537
   0.16691415  0.41631681  0.50066519
   0.32945431  0.33320439  0.39799978
   0.00381536 -0.00048249  0.60208698
   0.91869934  0.91608575  0.49866203
   0.83632056  0.83173271  0.40163033
   0.91885179  0.16721161  0.49991569
   0.08438848  0.33262940  0.40366088
   0.91676518  0.41542366  0.50040745
   0.00298751  0.25007668  0.59602631
   0.08338491  0.58373451  0.40310427
   0.91815608  0.66485048  0.49993316
   0.66750592  0.16610320  0.49956799
   0.83599861  0.08024416  0.40303504
   0.49897327  0.75039036  0.59773254
   0.16620814  0.66609115  0.50010279
   0.24680994  0.25199441  0.59675687
   0.49900674  0.50193721  0.59832277
   0.41488415  0.66653264  0.50044629
   0.08160284  0.83306043  0.40218550
   0.00218499  0.74806909  0.59698757
   0.33284797  0.08199767  0.40305030
   0.16505148  0.16764988  0.50039327
   0.41381730  0.16807814  0.50001535
   0.24832135  0.00237609  0.59742592
   0.33261581  0.83515314  0.40182049
   0.24662974  0.50095497  0.59769321
   0.00293099  0.49905176  0.59708539
   0.58148315  0.83496287  0.40125963
Direct configuration=     6
   0.08546436  0.08178205  0.39849771
   0.66709156  0.91739872  0.49844619
   0.58375180  0.08144447  0.39821144
   0.49645300  0.00016829  0.60268505
   0.58428901  0.33169988  0.39713784
   0.41596534  0.41705873  0.50118814
   0.49683182  0.25173689  0.60150177
   0.58128587  0.58617187  0.39675340
   0.41490036  0.91848042  0.49962028
   0.75104372 -0.00131726  0.60279419
   0.83557180  0.33261602  0.39869320
   0.66717887  0.41568783  0.50080540
   0.75092433  0.25016498  0.60180633
   0.83551861  0.58484500  0.39865113
   0.66731540  0.66612386  0.49992428
   0.75241229  0.49951245  0.60292955
   0.16648607  0.91646073  0.49945752
   0.32974195  0.58665607  0.39844049
   0.25138820  0.74799833  0.60167916
   0.75283010  0.74815819  0.60305961
   0.16529368  0.41659481  0.50037255
   0.33029117  0.33291764  0.39752506
   0.00262898 -0.00000636  0.60257772
   0.91727041  0.91622007  0.49927022
   0.83594224  0.83200250  0.40143106
   0.91787722  0.16776715  0.49989817
   0.08435209  0.33258652  0.40360402
   0.91697785  0.41585964  0.50024874
   0.00235278  0.25024363  0.59624306
   0.08315669  0.58364762  0.40302353
   0.91776031  0.66500436  0.49997211
   0.66706168  0.16670275  0.49974507
   0.83531966  0.08115683  0.40292378
   0.49920254  0.75032590  0.59767649
   0.16625448  0.66647184  0.50007215
   0.24737477  0.25149063  0.59698113
   0.49911051  0.50166182  0.59844583
   0.41502213  0.66671544  0.50018873
   0.08201623  0.83279358  0.40184703
   0.00155032  0.74866308  0.59705232
   0.33315546  0.08234691  0.40281467
   0.16476357  0.16781163  0.50013796
   0.41503879  0.16751140  0.49999708
   0.24903501  0.00184028  0.59755570
   0.33306209  0.83415726  0.40165505
   0.24725297  0.50086910  0.59807728
   0.00258564  0.49936865  0.59729434
   0.58184625  0.83442777  0.40108641
Direct configuration=     7
   0.08522832  0.08199209  0.39833165
   0.66714244  0.91753053  0.49856573
   0.58376912  0.08156821  0.39809263
   0.49656618  0.00014956  0.60278870
   0.58421409  0.33181196  0.39704578
   0.41660437  0.41682197  0.50106252
   0.49696671  0.25165247  0.60160916
   0.58128078  0.58608516  0.39662346
   0.41501552  0.91821390  0.49970460
   0.75102548 -0.00123914  0.60288979
   0.83541031  0.33256334  0.39859526
   0.66696498  0.41557476  0.50074322
   0.75098734  0.25000432  0.60191707
   0.83538316  0.58491519  0.39854093
   0.66718678  0.66616528  0.49992366
   0.75234138  0.49958989  0.60309462
   0.16688958  0.91623409  0.49951378
   0.33003234  0.58652230  0.39833159
   0.25161690  0.74792122  0.60179884
   0.75272720  0.74825834  0.60318579
   0.16481172  0.41667749  0.50028551
   0.33054007  0.33283236  0.39738386
   0.00227613  0.00013525  0.60272368
   0.91684542  0.91626001  0.49945111
   0.83582972  0.83208274  0.40137180
   0.91758736  0.16793238  0.49989295
   0.08434127  0.33257376  0.40358711
   0.91704110  0.41598931  0.50020154
   0.00216400  0.25029329  0.59630753
   0.08308881  0.58362178  0.40299952
   0.91764260  0.66505013  0.49998369
   0.66692955  0.16688107  0.49979773
   0.83511773  0.08142827  0.40289069
   0.49927073  0.75030673  0.59765982
   0.16626827  0.66658506  0.50006304
   0.24754276  0.25134080  0.59704783
   0.49914138  0.50157992  0.59848243
   0.41506317  0.66676981  0.50011213
   0.08213918  0.83271421  0.40174636
   0.00136156  0.74883975  0.59707158
   0.33324691  0.08245078  0.40274460
   0.16467794  0.16785974  0.50006203
   0.41540209  0.16734284  0.49999165
   0.24924727  0.00168093  0.59759430
   0.33319482  0.83386107  0.40160585
   0.24743833  0.50084356  0.59819151
   0.00248293  0.49946290  0.59735649
   0.58195424  0.83426862  0.40103489
Direct configuration=     8
   0.08502053  0.08220207  0.39809714
   0.66693578  0.91767747  0.49865113
   0.58414343  0.08133853  0.39799264
   0.49644658  0.00034492  0.60300020
   0.58446057  0.33157302  0.39675402
   0.41614208  0.41695020  0.50097556
   0.49693512  0.25183007  0.60175666
   0.58134389  0.58619364  0.39632128
   0.41507473  0.91829760  0.49971295
   0.75081274 -0.00103557  0.60320696
   0.83532588  0.33237744  0.39844636
   0.66727243  0.41557543  0.50073906
   0.75096483  0.25023511  0.60208739
   0.83538869  0.58496564  0.39835806
   0.66700675  0.66605497  0.49989432
   0.75211489  0.49956253  0.60335569
   0.16675436  0.91630346  0.49954006
   0.32989065  0.58672224  0.39812998
   0.25206764  0.74762969  0.60196057
   0.75275329  0.74818653  0.60346146
   0.16470106  0.41682696  0.50032093
   0.33054224  0.33267536  0.39715340
   0.00216897  0.00034758  0.60298233
   0.91688823  0.91624579  0.49953879
   0.83565749  0.83246093  0.40152183
   0.91727655  0.16802181  0.49988045
   0.08435397  0.33258046  0.40353805
   0.91700007  0.41599806  0.50016879
   0.00204663  0.25026396  0.59624746
   0.08288437  0.58378014  0.40305686
   0.91769442  0.66513024  0.49997875
   0.66709008  0.16687435  0.49986380
   0.83470708  0.08169296  0.40307198
   0.49943489  0.74998985  0.59756329
   0.16628113  0.66640285  0.50004345
   0.24773935  0.25103681  0.59692474
   0.49919790  0.50138472  0.59835720
   0.41522546  0.66664646  0.49995879
   0.08221170  0.83254708  0.40184815
   0.00135669  0.74870760  0.59704590
   0.33346189  0.08233488  0.40277757
   0.16471501  0.16782261  0.49994242
   0.41540965  0.16723938  0.49998147
   0.24938607  0.00167180  0.59759724
   0.33337444  0.83359582  0.40163909
   0.24792088  0.50073440  0.59808144
   0.00245306  0.49964848  0.59732799
   0.58196586  0.83435367  0.40114634
Direct configuration=     9
   0.08474061  0.08248495  0.39778123
   0.66665738  0.91787541  0.49876617
   0.58464767  0.08102913  0.39785794
   0.49628545  0.00060810  0.60328513
   0.58479261  0.33125114  0.39636098
   0.41551932  0.41712294  0.50085842
   0.49689255  0.25206933  0.60195538
   0.58142891  0.58633978  0.39591420
   0.41515448  0.91841036  0.49972421
   0.75052615 -0.00076134  0.60363424
   0.83521216  0.33212701  0.39824577
   0.66768661  0.41557634  0.50073344
   0.75093450  0.25054602  0.60231684
   0.83539613  0.58503359  0.39811170
   0.66676422  0.66590637  0.49985479
   0.75180977  0.49952567  0.60370738
   0.16657220  0.91639690  0.49957546
   0.32969979  0.58699157  0.39785840
   0.25267484  0.74723696  0.60217845
   0.75278844  0.74808979  0.60383282
   0.16455199  0.41702831  0.50036866
   0.33054517  0.33246388  0.39684293
   0.00202462  0.00063363  0.60333076
   0.91694590  0.91622663  0.49965691
   0.83542548  0.83297039  0.40172394
   0.91685785  0.16814229  0.49986362
   0.08437109  0.33258949  0.40347196
   0.91694479  0.41600985  0.50012467
   0.00188853  0.25022445  0.59616655
   0.08260896  0.58399347  0.40313411
   0.91776424  0.66523815  0.49997208
   0.66730632  0.16686528  0.49995280
   0.83415389  0.08204952  0.40331621
   0.49965602  0.74956296  0.59743325
   0.16629845  0.66615740  0.50001706
   0.24800418  0.25062730  0.59675894
   0.49927405  0.50112176  0.59818850
   0.41544410  0.66648029  0.49975222
   0.08230940  0.83232193  0.40198527
   0.00135014  0.74852958  0.59701129
   0.33375150  0.08217876  0.40282198
   0.16476494  0.16777258  0.49978128
   0.41541985  0.16710000  0.49996775
   0.24957306  0.00165950  0.59760119
   0.33361642  0.83323850  0.40168388
   0.24857094  0.50058735  0.59793317
   0.00241282  0.49989848  0.59728959
   0.58198151  0.83446824  0.40129647
Direct configuration=    10
   0.08494216  0.08216267  0.39759048
   0.66667606  0.91779189  0.49896521
   0.58460940  0.08101914  0.39778542
   0.49635693  0.00047778  0.60355604
   0.58448532  0.33148457  0.39602303
   0.41552335  0.41697501  0.50064888
   0.49689002  0.25215647  0.60206381
   0.58162394  0.58620257  0.39550787
   0.41491217  0.91853485  0.49976212
   0.75047044 -0.00068473  0.60405423
   0.83524364  0.33230236  0.39808375
   0.66756748  0.41558865  0.50068535
   0.75083394  0.25071106  0.60253242
   0.83544109  0.58506114  0.39794365
   0.66698621  0.66585885  0.49981017
   0.75186004  0.49956226  0.60398816
   0.16631713  0.91656989  0.49961521
   0.32969254  0.58673884  0.39760103
   0.25260586  0.74736417  0.60229224
   0.75271077  0.74807522  0.60413049
   0.16464632  0.41681306  0.50038299
   0.33050060  0.33247982  0.39659879
   0.00242909  0.00036943  0.60360524
   0.91713795  0.91619875  0.49981401
   0.83549084  0.83303707  0.40197264
   0.91705678  0.16798483  0.49988563
   0.08429586  0.33266681  0.40342538
   0.91696600  0.41601024  0.50008489
   0.00196139  0.25030633  0.59598691
   0.08252663  0.58405684  0.40320279
   0.91737538  0.66542807  0.49997954
   0.66712836  0.16710053  0.50011835
   0.83429474  0.08190188  0.40357981
   0.49988414  0.74939070  0.59729908
   0.16630687  0.66623164  0.50001619
   0.24789102  0.25066796  0.59653811
   0.49945861  0.50091080  0.59795189
   0.41538470  0.66632010  0.49954832
   0.08210490  0.83260056  0.40220036
   0.00156850  0.74853538  0.59698519
   0.33383489  0.08196922  0.40287717
   0.16463422  0.16773224  0.49961435
   0.41523021  0.16737318  0.49993842
   0.24949696  0.00157298  0.59754551
   0.33341542  0.83358323  0.40177020
   0.24870229  0.50049166  0.59775534
   0.00249575  0.49979626  0.59720930
   0.58203310  0.83451780  0.40147402
Direct configuration=    11
   0.08516925  0.08179953  0.39737555
   0.66669711  0.91769778  0.49918948
   0.58456628  0.08100788  0.39770370
   0.49643746  0.00033094  0.60386129
   0.58413908  0.33174760  0.39564224
   0.41552789  0.41680833  0.50041279
   0.49688716  0.25225465  0.60218599
   0.58184369  0.58604798  0.39505004
   0.41463914  0.91867512  0.49980484
   0.75040766 -0.00059842  0.60452745
   0.83527911  0.33249993  0.39790118
   0.66743324  0.41560251  0.50063116
   0.75072064  0.25089702  0.60277533
   0.83549174  0.58509218  0.39775430
   0.66723635  0.66580531  0.49975990
   0.75191667  0.49960349  0.60430453
   0.16602972  0.91676480  0.49966000
   0.32968437  0.58645409  0.39731105
   0.25252814  0.74750751  0.60242045
   0.75262327  0.74805879  0.60446588
   0.16475261  0.41657052  0.50039913
   0.33045037  0.33249779  0.39632370
   0.00288483  0.00007175  0.60391451
   0.91735435  0.91616733  0.49999103
   0.83556448  0.83311219  0.40225285
   0.91728092  0.16780742  0.49991045
   0.08421110  0.33275392  0.40337289
   0.91698990  0.41601068  0.50004007
   0.00204348  0.25039859  0.59578450
   0.08243386  0.58412824  0.40328018
   0.91693724  0.66564206  0.49998794
   0.66692785  0.16736561  0.50030488
   0.83445344  0.08173552  0.40387683
   0.50014117  0.74919660  0.59714790
   0.16631636  0.66631528  0.50001522
   0.24776350  0.25071378  0.59628929
   0.49966656  0.50067309  0.59768530
   0.41531777  0.66613960  0.49931858
   0.08187448  0.83291451  0.40244272
   0.00181453  0.74854192  0.59695578
   0.33392886  0.08173311  0.40293936
   0.16448694  0.16768678  0.49942626
   0.41501654  0.16768098  0.49990536
   0.24941122  0.00147550  0.59748278
   0.33318896  0.83397166  0.40186747
   0.24885029  0.50038383  0.59755497
   0.00258919  0.49968107  0.59711883
   0.58209122  0.83457364  0.40167408
Direct configuration=    12
   0.08519831  0.08178311  0.39722015
   0.66655830  0.91811619  0.49956455
   0.58428066  0.08130456  0.39777990
   0.49636091  0.00019611  0.60413052
   0.58406945  0.33181469  0.39531054
   0.41583556  0.41666480  0.50006320
   0.49684761  0.25202269  0.60223052
   0.58162242  0.58620737  0.39460645
   0.41455775  0.91863483  0.49995899
   0.75079663 -0.00077538  0.60497411
   0.83542954  0.33244564  0.39779877
   0.66738483  0.41557356  0.50046815
   0.75112009  0.25049600  0.60297691
   0.83551014  0.58524284  0.39761865
   0.66732031  0.66570109  0.49970559
   0.75227731  0.49957584  0.60451444
   0.16621554  0.91665004  0.49977697
   0.32951279  0.58666120  0.39703207
   0.25264237  0.74742951  0.60243960
   0.75285440  0.74807919  0.60475493
   0.16454503  0.41669986  0.50021207
   0.33018137  0.33246872  0.39604705
   0.00287633  0.00007217  0.60424365
   0.91693009  0.91640159  0.50041910
   0.83568716  0.83287597  0.40254478
   0.91731547  0.16795724  0.49998383
   0.08424662  0.33268798  0.40331195
   0.91682021  0.41603329  0.49994468
   0.00206368  0.25039128  0.59554750
   0.08257744  0.58403680  0.40337574
   0.91688438  0.66553719  0.50007022
   0.66672647  0.16729022  0.50055838
   0.83450442  0.08195750  0.40415882
   0.50018305  0.74920304  0.59694995
   0.16641471  0.66628793  0.50000081
   0.24783529  0.25067369  0.59607441
   0.49961684  0.50091456  0.59738108
   0.41510291  0.66622296  0.49905189
   0.08188590  0.83297831  0.40268190
   0.00183208  0.74863011  0.59696527
   0.33378914  0.08187577  0.40295070
   0.16427136  0.16767257  0.49917906
   0.41513261  0.16757247  0.49985908
   0.24948683  0.00141575  0.59739161
   0.33326946  0.83378539  0.40194798
   0.24863040  0.50046952  0.59733005
   0.00257064  0.49969133  0.59700741
   0.58222518  0.83437291  0.40188605
Direct configuration=    13
   0.08522274  0.08176930  0.39708948
   0.66644158  0.91846801  0.49987993
   0.58404051  0.08155401  0.39784397
   0.49629655  0.00008274  0.60435690
   0.58401090  0.33187110  0.39503164
   0.41609426  0.41654412  0.49976926
   0.49681435  0.25182765  0.60226796
   0.58143637  0.58634139  0.39423346
   0.41448931  0.91860094  0.50008860
   0.75112370 -0.00092417  0.60534967
   0.83555603  0.33239998  0.39771266
   0.66734413  0.41554922  0.50033108
   0.75145595  0.25015880  0.60314641
   0.83552562  0.58536952  0.39750459
   0.66739091  0.66561347  0.49965992
   0.75258055  0.49955258  0.60469093
   0.16637179  0.91655354  0.49987533
   0.32936852  0.58683536  0.39679750
   0.25273842  0.74736394  0.60245570
   0.75304874  0.74809634  0.60499797
   0.16437048  0.41680861  0.50005477
   0.32995519  0.33244428  0.39581443
   0.00286919  0.00007252  0.60452040
   0.91657335  0.91659856  0.50077903
   0.83579031  0.83267735  0.40279025
   0.91734452  0.16808321  0.50004553
   0.08427648  0.33263253  0.40326071
   0.91667753  0.41605230  0.49986446
   0.00208067  0.25038513  0.59534822
   0.08269817  0.58395992  0.40345609
   0.91683994  0.66544902  0.50013939
   0.66655714  0.16722684  0.50077153
   0.83454728  0.08214416  0.40439594
   0.50021826  0.74920845  0.59678351
   0.16649741  0.66626493  0.49998870
   0.24789565  0.25063998  0.59589372
   0.49957503  0.50111760  0.59712527
   0.41492225  0.66629304  0.49882764
   0.08189550  0.83303196  0.40288301
   0.00184683  0.74870428  0.59697325
   0.33367166  0.08199573  0.40296024
   0.16409010  0.16766061  0.49897119
   0.41523021  0.16748123  0.49982016
   0.24955041  0.00136552  0.59731494
   0.33333715  0.83362877  0.40201568
   0.24844551  0.50054156  0.59714093
   0.00255504  0.49969995  0.59691371
   0.58233781  0.83420413  0.40206429
Direct configuration=    14
   0.08514497  0.08185557  0.39701546
   0.66612374  0.91851432  0.50028689
   0.58415741  0.08149982  0.39813075
   0.49641129  0.00001071  0.60459438
   0.58421944  0.33177919  0.39480240
   0.41602024  0.41646437  0.49941017
   0.49691497  0.25174954  0.60216118
   0.58132876  0.58641565  0.39387433
   0.41494480  0.91856595  0.50016573
   0.75123437 -0.00109975  0.60579538
   0.83537270  0.33252929  0.39768207
   0.66752379  0.41540509  0.50012639
   0.75146552  0.25025696  0.60322736
   0.83550831  0.58523063  0.39746060
   0.66709402  0.66573002  0.49963763
   0.75264667  0.49938924  0.60466456
   0.16602761  0.91656162  0.50002703
   0.32921390  0.58702306  0.39653379
   0.25286528  0.74721767  0.60235947
   0.75321741  0.74811448  0.60518839
   0.16451729  0.41679161  0.49978417
   0.32980657  0.33257649  0.39553409
   0.00302338  0.00013766  0.60488523
   0.91646096  0.91686830  0.50120566
   0.83562191  0.83289924  0.40314321
   0.91705432  0.16814794  0.50012616
   0.08411060  0.33264073  0.40310218
   0.91633377  0.41618641  0.49968777
   0.00222616  0.25018476  0.59519261
   0.08286191  0.58388997  0.40346374
   0.91691259  0.66545563  0.50027908
   0.66659673  0.16727772  0.50106057
   0.83425634  0.08242320  0.40468125
   0.50041518  0.74906984  0.59663070
   0.16646544  0.66623932  0.49995957
   0.24806387  0.25049177  0.59571266
   0.49975554  0.50104355  0.59681170
   0.41510251  0.66623997  0.49859330
   0.08181224  0.83301329  0.40315916
   0.00189103  0.74862449  0.59711122
   0.33366240  0.08191592  0.40292685
   0.16423176  0.16767288  0.49877132
   0.41505704  0.16740674  0.49976784
   0.24945356  0.00153878  0.59728144
   0.33347389  0.83349948  0.40201638
   0.24845502  0.50047958  0.59684517
   0.00261904  0.49975771  0.59680808
   0.58232377  0.83431361  0.40231495
Direct configuration=    15
   0.08510041  0.08190499  0.39697306
   0.66594165  0.91854085  0.50052003
   0.58422437  0.08146877  0.39829504
   0.49647703 -0.00003055  0.60473042
   0.58433890  0.33172654  0.39467107
   0.41597783  0.41641869  0.49920446
   0.49697261  0.25170480  0.60210001
   0.58126711  0.58645818  0.39366859
   0.41520573  0.91854591  0.50020991
   0.75129777 -0.00120034  0.60605072
   0.83526767  0.33260337  0.39766454
   0.66762671  0.41532252  0.50000912
   0.75147100  0.25031320  0.60327373
   0.83549839  0.58515106  0.39743540
   0.66692394  0.66579680  0.49962486
   0.75268455  0.49929566  0.60464944
   0.16583044  0.91656625  0.50011394
   0.32912533  0.58713059  0.39638272
   0.25293795  0.74713387  0.60230434
   0.75331403  0.74812487  0.60529748
   0.16460139  0.41678188  0.49962915
   0.32972143  0.33265223  0.39537349
   0.00311171  0.00017497  0.60509423
   0.91639657  0.91702282  0.50145007
   0.83552543  0.83302636  0.40334542
   0.91688806  0.16818502  0.50017235
   0.08401557  0.33264543  0.40301136
   0.91613684  0.41626324  0.49958654
   0.00230950  0.25006997  0.59510346
   0.08295572  0.58384990  0.40346813
   0.91695421  0.66545942  0.50035910
   0.66661941  0.16730688  0.50122616
   0.83408967  0.08258305  0.40484469
   0.50052799  0.74899043  0.59654315
   0.16644713  0.66622465  0.49994288
   0.24816024  0.25040686  0.59560893
   0.49985895  0.50100113  0.59663206
   0.41520578  0.66620957  0.49845905
   0.08176454  0.83300259  0.40331737
   0.00191635  0.74857879  0.59719025
   0.33365710  0.08187020  0.40290772
   0.16431292  0.16767990  0.49865682
   0.41495784  0.16736407  0.49973786
   0.24939807  0.00163804  0.59726224
   0.33355223  0.83342541  0.40201679
   0.24846047  0.50044407  0.59667573
   0.00265571  0.49979080  0.59674756
   0.58231573  0.83437633  0.40245855
Direct configuration=    16
   0.08499344  0.08184022  0.39700822
   0.66620258  0.91832739  0.50091832
   0.58425974  0.08147031  0.39870444
   0.49661860 -0.00003985  0.60495465
   0.58428254  0.33168044  0.39452712
   0.41593592  0.41640672  0.49889844
   0.49710180  0.25180315  0.60188952
   0.58129374  0.58649758  0.39339738
   0.41480644  0.91869210  0.50022630
   0.75125583 -0.00111536  0.60651211
   0.83502827  0.33269498  0.39762730
   0.66752567  0.41529542  0.49979309
   0.75129421  0.25047188  0.60327983
   0.83544411  0.58519862  0.39748594
   0.66696910  0.66567398  0.49961221
   0.75269745  0.49924153  0.60443778
   0.16585310  0.91676613  0.50024182
   0.32919291  0.58708799  0.39613078
   0.25309563  0.74702717  0.60214107
   0.75337805  0.74788139  0.60542837
   0.16461029  0.41660595  0.49939928
   0.32993161  0.33266284  0.39508540
   0.00317715  0.00015475  0.60546999
   0.91622737  0.91710004  0.50179267
   0.83543829  0.83322905  0.40375783
   0.91680738  0.16814683  0.50024991
   0.08384456  0.33268300  0.40278005
   0.91619640  0.41640886  0.49942832
   0.00245772  0.25000457  0.59498911
   0.08271944  0.58399587  0.40337328
   0.91685674  0.66565091  0.50049161
   0.66654185  0.16734512  0.50146121
   0.83397022  0.08256443  0.40511436
   0.50070773  0.74884851  0.59650095
   0.16636105  0.66626925  0.49991175
   0.24824345  0.25035084  0.59545415
   0.50004616  0.50074818  0.59630171
   0.41532798  0.66615985  0.49825424
   0.08149101  0.83315985  0.40358829
   0.00208105  0.74844668  0.59744530
   0.33371004  0.08174267  0.40282646
   0.16441221  0.16757971  0.49853590
   0.41480612  0.16751742  0.49969175
   0.24948063  0.00167533  0.59723895
   0.33340328  0.83367391  0.40201616
   0.24876839  0.50021161  0.59636232
   0.00282288  0.49964746  0.59661433
   0.58232989  0.83451472  0.40265005
Direct configuration=    17
   0.08489160  0.08177855  0.39704170
   0.66645098  0.91812417  0.50129750
   0.58429340  0.08147177  0.39909420
   0.49675338 -0.00004869  0.60516811