 vasp.5.4.1 24Jun15 (build Mar 14 2019 10:18:33) complex                        
  
 executed on INTEL-19.0.2+OPENMPI date 2023.01.30  16:27:01
 running on   36 total cores
 distrk:  each k-point on   36 cores,    1 groups
 distr:  one band on NCORES_PER_BAND=   6 cores,    6 groups


--------------------------------------------------------------------------------------------------------


 INCAR:
 POTCAR:    PAW_PBE Au 04Oct2007                  
 POTCAR:    PAW_PBE Pd 04Jan2005                  
 POTCAR:    PAW_PBE Au 04Oct2007                  
  local pseudopotential read in
  partial core-charges read in
  partial kinetic energy density read in
  atomic valenz-charges read in
  non local Contribution for L=           2  read in
    real space projection operators read in
  non local Contribution for L=           2  read in
    real space projection operators read in
  non local Contribution for L=           0  read in
    real space projection operators read in
  non local Contribution for L=           0  read in
    real space projection operators read in
  non local Contribution for L=           1  read in
    real space projection operators read in
  non local Contribution for L=           1  read in
    real space projection operators read in
    PAW grid and wavefunctions read in
 
   number of l-projection  operators is LMAX  =           6
   number of lm-projection operators is LMMAX =          18
 
 POTCAR:    PAW_PBE Pd 04Jan2005                  
  local pseudopotential read in
  partial core-charges read in
  partial kinetic energy density read in
  atomic valenz-charges read in
  non local Contribution for L=           2  read in
    real space projection operators read in
  non local Contribution for L=           2  read in
    real space projection operators read in
  non local Contribution for L=           0  read in
    real space projection operators read in
  non local Contribution for L=           0  read in
    real space projection operators read in
  non local Contribution for L=           1  read in
    real space projection operators read in
  non local Contribution for L=           1  read in
    real space projection operators read in
    PAW grid and wavefunctions read in
 
   number of l-projection  operators is LMAX  =           6
   number of lm-projection operators is LMMAX =          18
 
 Optimization of the real space projectors (new method)

 maximal supplied QI-value         = 15.12
 optimisation between [QCUT,QGAM] = [ 10.13, 20.41] = [ 28.73,116.64] Ry 
 Optimized for a Real-space Cutoff    1.51 Angstroem

   l    n(q)    QCUT    max X(q) W(low)/X(q) W(high)/X(q)  e(spline) 
   2      8    10.129    60.898    0.46E-03    0.46E-03    0.14E-06
   2      8    10.129    58.894    0.47E-03    0.47E-03    0.14E-06
   0      9    10.129   109.617    0.16E-03    0.11E-03    0.54E-07
   0      9    10.129    75.026    0.15E-03    0.11E-03    0.52E-07
   1      9    10.129    16.344    0.96E-04    0.15E-03    0.14E-06
   1      9    10.129    10.160    0.81E-04    0.12E-03    0.11E-06
 Optimization of the real space projectors (new method)

 maximal supplied QI-value         = 14.36
 optimisation between [QCUT,QGAM] = [ 10.20, 20.39] = [ 29.12,116.47] Ry 
 Optimized for a Real-space Cutoff    1.51 Angstroem

   l    n(q)    QCUT    max X(q) W(low)/X(q) W(high)/X(q)  e(spline) 
   2      8    10.197    59.108    0.26E-03    0.14E-03    0.96E-07
   2      8    10.197    58.101    0.27E-03    0.14E-03    0.98E-07
   0      9    10.197   102.235    0.54E-04    0.60E-05    0.72E-07
   0      9    10.197    58.388    0.52E-04    0.60E-05    0.68E-07
   1      9    10.197    22.191    0.18E-03    0.25E-03    0.79E-07
   1      9    10.197    15.590    0.15E-03    0.21E-03    0.69E-07
  PAW_PBE Au 04Oct2007                  :
 energy of atom  1       EATOM= -926.0867
 kinetic energy error for atom=    0.0062 (will be added to EATOM!!)
  PAW_PBE Pd 04Jan2005                  :
 energy of atom  2       EATOM= -809.7530
 kinetic energy error for atom=    0.0091 (will be added to EATOM!!)
 
 
 POSCAR: Au Pd                                   
  positions in cartesian coordinates
  No initial velocities read in
 exchange correlation table for  LEXCH =        8
   RHO(1)=    0.500       N(1)  =     2000
   RHO(2)=  100.500       N(2)  =     4000

 VTST: version 3.2, (02/03/18)

 CHAIN: initializing optimizer
 
 OPT: Using VASP Conjugate-Gradient optimizer
 CHAIN: Read ICHAIN            0
 
 POSCAR: Au Pd                                   
  positions in cartesian coordinates
  No initial velocities read in
 


--------------------------------------------------------------------------------------------------------


 ion  position               nearest neighbor table
   1  0.083  0.083  0.408-  43 2.75  19 2.75  24 2.75  42 2.75   3 2.75  17 2.75  38 2.75  27 2.75
                            44 2.75
   2  0.333  0.333  0.408-  30 2.75   5 2.75  38 2.75  39 2.75  45 2.75  42 2.75  31 2.75  29 2.75
                            10 2.75
   3  0.083  0.833  0.408-  27 2.75   5 2.75  17 2.75   1 2.75  39 2.75  23 2.75  24 2.75  12 2.75
                            25 2.75
   4  0.000  0.500  0.592-  47 2.75  10 2.75  11 2.75  13 2.75  33 2.75   6 2.75  35 2.75  22 2.75
                            36 2.75
   5  0.083  0.583  0.408-  12 2.75   3 2.75   2 2.75  23 2.75  42 2.75  41 2.75  39 2.75  10 2.75
                            47 2.75
   6  0.000  0.250  0.592-  36 2.75  43 2.75   8 2.75  22 2.75   4 2.75   7 2.75  40 2.75  11 2.75
                            44 2.75
   7  0.000  0.000  0.592-  44 2.75  27 2.75   6 2.75  33 2.75  40 2.75   9 2.75   8 2.75  18 2.75
                            25 2.75
   8  0.250  0.000  0.592-  43 2.75  15 2.75  11 2.75   6 2.75  16 2.75   9 2.75  32 2.75   7 2.75
                            27 2.75
   9  0.250  0.750  0.592-  27 2.75  48 2.75  26 2.75   7 2.75  35 2.75   8 2.75  16 2.75  33 2.75
                            12 2.75
  10  0.167  0.417  0.500-  42 2.75  11 2.75   4 2.75  29 2.75  12 2.75  43 2.75  47 2.75  36 2.75
                            30 2.75   5 2.75   2 2.75  35 2.75
  11  0.250  0.250  0.592-  10 2.75  29 2.75   4 2.75   8 2.75  32 2.75  35 2.75  34 2.75   6 2.75
                            43 2.75
  12  0.167  0.667  0.500-   5 2.75  35 2.75  33 2.75  27 2.75  30 2.75  10 2.75  25 2.75  47 2.75
                            48 2.75   3 2.75   9 2.75  39 2.75
  13  0.750  0.750  0.592-  46 2.75  47 2.75  22 2.75  32 2.75   4 2.75  18 2.75  16 2.75  33 2.75
                            21 2.75
  14  0.583  0.833  0.408-  46 2.75  38 2.75  41 2.75  45 2.75  28 2.75  24 2.75  23 2.75  21 2.75
                            15 2.75
  15  0.417  0.917  0.500-  24 2.75  16 2.75   8 2.75  21 2.75  29 2.75  43 2.75  48 2.75  46 2.75
                            27 2.75  38 2.75  14 2.75  32 2.75
  16  0.500  0.750  0.592-  15 2.75  21 2.75   8 2.75  22 2.75  26 2.75  32 2.75  13 2.75   9 2.75
                            48 2.75
  17  0.833  0.083  0.408-  44 2.75  19 2.75  23 2.75  31 2.75   3 2.75   1 2.75  45 2.75  25 2.75
                            37 2.75
  18  0.750  0.000  0.592-  37 2.75  25 2.75  33 2.75  34 2.75  13 2.75  40 2.75   7 2.75  32 2.75
                            46 2.75
  19  0.833  0.333  0.408-  36 2.75  17 2.75  28 2.75   1 2.75  41 2.75  31 2.75  42 2.75  44 2.75
                            20 2.75
  20  0.667  0.417  0.500-  31 2.75  40 2.75  26 2.75  37 2.75  21 2.75  44 2.75  48 2.75  30 2.75
                            36 2.75  28 2.75  22 2.75  19 2.75
  21  0.667  0.667  0.500-  28 2.75  22 2.75  16 2.75  15 2.75  20 2.75  36 2.75  46 2.75  47 2.75
                            48 2.75  14 2.75  41 2.75  13 2.75
  22  0.750  0.500  0.592-  21 2.75  36 2.75  16 2.75   6 2.75  13 2.75  40 2.75   4 2.75  26 2.75
                            20 2.75
  23  0.833  0.833  0.408-  25 2.75  17 2.75   5 2.75  41 2.75  45 2.75   3 2.75  14 2.75  47 2.75
                            46 2.75
  24  0.333  0.833  0.408-  15 2.75   1 2.75  28 2.75  38 2.75  39 2.75   3 2.75  14 2.75  48 2.75
                            27 2.75
  25  0.917  0.917  0.500-  23 2.75  33 2.75  18 2.75  12 2.75  37 2.75  44 2.75  47 2.75  46 2.75
                            27 2.75  17 2.75   3 2.75   7 2.75
  26  0.500  0.500  0.592-  48 2.75  20 2.75   9 2.75  34 2.75  40 2.75  16 2.75  22 2.75  35 2.75
                            30 2.75
  27  0.167  0.917  0.500-   3 2.75   9 2.75   7 2.75  12 2.75  43 2.75  44 2.75  48 2.75  25 2.75
                            15 2.75   1 2.75   8 2.75  24 2.75
  28  0.583  0.583  0.408-  21 2.75  19 2.75  14 2.75  24 2.75  31 2.75  39 2.75  41 2.75  20 2.75
                            48 2.75
  29  0.417  0.167  0.500-  38 2.75  32 2.75  11 2.75  30 2.75  10 2.75  15 2.75  46 2.75  43 2.75
                            37 2.75   2 2.75  45 2.75  34 2.75
  30  0.417  0.417  0.500-   2 2.75  34 2.75  35 2.75  12 2.75  29 2.75  37 2.75  48 2.75  20 2.75
                            10 2.75  39 2.75  31 2.75  26 2.75
  31  0.583  0.333  0.408-  20 2.75  17 2.75  28 2.75  39 2.75  45 2.75   2 2.75  19 2.75  37 2.75
                            30 2.75
  32  0.500  0.000  0.592-  29 2.75  46 2.75  16 2.75  11 2.75  34 2.75  13 2.75  18 2.75   8 2.75
                            15 2.75
  33  0.000  0.750  0.592-  25 2.75  12 2.75   4 2.75  18 2.75   7 2.75  35 2.75  13 2.75   9 2.75
                            47 2.75
  34  0.500  0.250  0.592-  30 2.75  37 2.75  18 2.75  32 2.75  35 2.75  26 2.75  11 2.75  40 2.75
                            29 2.75
  35  0.250  0.500  0.592-  12 2.75  30 2.75   9 2.75  11 2.75  33 2.75  34 2.75  26 2.75   4 2.75
                            10 2.75
  36  0.917  0.417  0.500-  19 2.75   6 2.75  22 2.75  21 2.75  43 2.75  44 2.75  47 2.75  20 2.75
                            10 2.75  41 2.75  42 2.75   4 2.75
  37  0.667  0.167  0.500-  45 2.75  18 2.75  34 2.75  30 2.75  20 2.75  25 2.75  46 2.75  29 2.75
                            44 2.75  31 2.75  40 2.75  17 2.75
  38  0.333  0.083  0.408-  29 2.75  14 2.75  24 2.75   2 2.75  42 2.75   1 2.75  45 2.75  15 2.75
                            43 2.75
  39  0.333  0.583  0.408-  48 2.75   3 2.75  24 2.75  31 2.75   2 2.75   5 2.75  28 2.75  30 2.75
                            12 2.75
  40  0.750  0.250  0.592-  20 2.75  44 2.75   7 2.75  22 2.75  26 2.75  18 2.75  34 2.75   6 2.75
                            37 2.75
  41  0.833  0.583  0.408-  47 2.75  19 2.75  23 2.75  42 2.75  14 2.75   5 2.75  28 2.75  36 2.75
                            21 2.75
  42  0.083  0.333  0.408-  10 2.75   5 2.75   1 2.75  38 2.75  41 2.75   2 2.75  19 2.75  43 2.75
                            36 2.75
  43  0.167  0.167  0.500-   1 2.75   8 2.75   6 2.75  10 2.75  15 2.75  27 2.75  36 2.75  29 2.75
                            44 2.75  42 2.75  11 2.75  38 2.75
  44  0.917  0.167  0.500-  17 2.75   7 2.75  40 2.75  25 2.75  27 2.75  36 2.75  20 2.75  37 2.75
                            43 2.75  19 2.75   1 2.75   6 2.75
  45  0.583  0.083  0.408-  37 2.75  14 2.75  23 2.75  31 2.75   2 2.75  17 2.75  38 2.75  46 2.75
                            29 2.75
  46  0.667  0.917  0.500-  14 2.75  13 2.75  32 2.75  29 2.75  21 2.75  37 2.75  47 2.75  15 2.75
                            25 2.75  45 2.75  18 2.75  23 2.75
  47  0.917  0.667  0.500-  41 2.75   4 2.75  13 2.75  25 2.75  36 2.75  10 2.75  46 2.75  12 2.75
                            21 2.75  23 2.75  33 2.75   5 2.75
  48  0.417  0.667  0.500-  39 2.75  26 2.75   9 2.75  15 2.75  27 2.75  30 2.75  20 2.75  12 2.75
                            21 2.75  24 2.75  16 2.75  28 2.75
 
  LATTYP: Found a hexagonal cell.
 ALAT       =    11.0025815153
 C/A-ratio  =     2.2260035120
  
  Lattice vectors:
  
 A1 = (   5.5012907576,  -9.5285150994,   0.0000000000)
 A2 = ( -11.0025815153,   0.0000000000,   0.0000000000)
 A3 = (   0.0000000000,   0.0000000000, -24.4917850943)


Analysis of symmetry for initial positions (statically):
=====================================================================
 Subroutine PRICEL returns:
 Original cell was already a primitive cell.
 

 Routine SETGRP: Setting up the symmetry group for a 
 hexagonal supercell.


 Subroutine GETGRP returns: Found  1 space group operations
 (whereof  1 operations were pure point group operations)
 out of a pool of 24 trial point group operations.


The static configuration has the point symmetry C_1 .


Analysis of symmetry for dynamics (positions and initial velocities):
=====================================================================
 Subroutine PRICEL returns:
 Original cell was already a primitive cell.
 

 Routine SETGRP: Setting up the symmetry group for a 
 hexagonal supercell.


 Subroutine GETGRP returns: Found  1 space group operations
 (whereof  1 operations were pure point group operations)
 out of a pool of 24 trial point group operations.


The dynamic configuration has the point symmetry C_1 .


Analysis of constrained symmetry for selective dynamics:
=====================================================================
 Subroutine PRICEL returns:
 Original cell was already a primitive cell.
 

 Routine SETGRP: Setting up the symmetry group for a 
 hexagonal supercell.


 Subroutine GETGRP returns: Found  1 space group operations
 (whereof  1 operations were pure point group operations)
 out of a pool of 24 trial point group operations.


The constrained configuration has the point symmetry C_1 .
 
 
 KPOINTS: Automatic mesh                          

Automatic generation of k-mesh.
Space group operators:
 irot       det(A)        alpha          n_x          n_y          n_z        tau_x        tau_y        tau_z
    1     1.000000     0.000000     1.000000     0.000000     0.000000     0.000000     0.000000     0.000000
 
 Subroutine IBZKPT returns following result:
 ===========================================
 
 Found      6 irreducible k-points:
 
 Following reciprocal coordinates:
            Coordinates               Weight
  0.250000  0.250000  0.000000     16.000000
  0.000000  0.250000  0.000000     16.000000
 -0.250000  0.000000  0.000000     16.000000
 -0.250000  0.250000  0.000000     16.000000
  0.500000 -0.250000  0.000000     16.000000
 -0.250000  0.500000  0.000000     16.000000
 
 Following cartesian coordinates:
            Coordinates               Weight
  0.022722  0.013119  0.000000     16.000000
  0.000000  0.026237  0.000000     16.000000
 -0.022722  0.013119  0.000000     16.000000
 -0.022722  0.039356  0.000000     16.000000
  0.045444 -0.052474  0.000000     16.000000
 -0.022722  0.065593  0.000000     16.000000
 


--------------------------------------------------------------------------------------------------------




 Dimension of arrays:
   k-points           NKPTS =      6   k-points in BZ     NKDIM =      6   number of bands    NBANDS=    306
   number of dos      NEDOS =    301   number of ions     NIONS =     48
   non local maximal  LDIM  =      6   non local SUM 2l+1 LMDIM =     18
   total plane-waves  NPLWV = 349920
   max r-space proj   IRMAX =   2009   max aug-charges    IRDMAX=   8532
   dimension x,y,z NGX =    54 NGY =   54 NGZ =  120
   dimension x,y,z NGXF=   108 NGYF=  108 NGZF=  240
   support grid    NGXF=   108 NGYF=  108 NGZF=  240
   ions per type =              24  24
 NGX,Y,Z   is equivalent  to a cutoff of   8.16,  8.16,  8.15 a.u.
 NGXF,Y,Z  is equivalent  to a cutoff of  16.32, 16.32, 16.29 a.u.


 I would recommend the setting:
   dimension x,y,z NGX =    54 NGY =   54 NGZ =  120
 SYSTEM =  unknown system                          
 POSCAR =  Au Pd                                   

 Startparameter for this run:
   NWRITE =      1    write-flag & timer
   PREC   = normal    normal or accurate (medium, high low for compatibility)
   ISTART =      0    job   : 0-new  1-cont  2-samecut
   ICHARG =      2    charge: 1-file 2-atom 10-const
   ISPIN  =      1    spin polarized calculation?
   LNONCOLLINEAR =      F non collinear calculations
   LSORBIT =      F    spin-orbit coupling
   INIWAV =      1    electr: 0-lowe 1-rand  2-diag
   LASPH  =      F    aspherical Exc in radial PAW
   METAGGA=      F    non-selfconsistent MetaGGA calc.

 Electronic Relaxation 1
   ENCUT  =  400.0 eV  29.40 Ry    5.42 a.u.  17.94 17.94 39.94*2*pi/ulx,y,z
   ENINI  =  400.0     initial cutoff
   ENAUG  =  416.2 eV  augmentation charge cutoff
   NELM   =    500;   NELMIN=  2; NELMDL= -5     # of ELM steps 
   EDIFF  = 0.1E-05   stopping-criterion for ELM
   LREAL  =      T    real-space projection
   NLSPLINE    = F    spline interpolate recip. space projectors
   LCOMPAT=      F    compatible to vasp.4.4
   GGA_COMPAT  = T    GGA compatible to vasp.4.4-vasp.4.6
   LMAXPAW     = -100 max onsite density
   LMAXMIX     =    2 max onsite mixed and CHGCAR
   VOSKOWN=      1    Vosko Wilk Nusair interpolation
   ROPT   =   -0.00050  -0.00050
 Ionic relaxation
   EDIFFG = -.2E-01   stopping-criterion for IOM
   NSW    =    500    number of steps for IOM
   NBLOCK =      1;   KBLOCK =    500    inner block; outer block 
   IBRION =      2    ionic relax: 0-MD 1-quasi-New 2-CG
   NFREE  =      2    steps in history (QN), initial steepest desc. (CG)
   ISIF   =      0    stress and relaxation
   IWAVPR =     11    prediction:  0-non 1-charg 2-wave 3-comb
   ISYM   =      2    0-nonsym 1-usesym 2-fastsym
   LCORR  =      T    Harris-Foulkes like correction to forces

   POTIM  = 0.3500    time-step for ionic-motion
   TEIN   =    0.0    initial temperature
   TEBEG  =    0.0;   TEEND  =   0.0 temperature during run
   SMASS  =  -3.00    Nose mass-parameter (am)
   estimated Nose-frequenzy (Omega)   =  0.10E-29 period in steps =****** mass=  -0.277E-26a.u.
   SCALEE = 1.0000    scale energy and forces
   NPACO  =    256;   APACO  = 16.0  distance and # of slots for P.C.
   PSTRESS=    0.0 pullay stress

  Mass of Ions in am
   POMASS = 196.97106.42
  Ionic Valenz
   ZVAL   =  11.00 10.00
  Atomic Wigner-Seitz radii
   RWIGS  =  -1.00 -1.00
  virtual crystal weights 
   VCA    =   1.00  1.00
   NELECT =     504.0000    total number of electrons
   NUPDOWN=      -1.0000    fix difference up-down

 DOS related values:
   EMIN   =  10.00;   EMAX   =-10.00  energy-range for DOS
   EFERMI =   0.00
   ISMEAR =     0;   SIGMA  =   0.10  broadening in eV -4-tet -1-fermi 0-gaus

 Electronic relaxation 2 (details)
   IALGO  =     68    algorithm
   LDIAG  =      T    sub-space diagonalisation (order eigenvalues)
   LSUBROT=      F    optimize rotation matrix (better conditioning)
   TURBO    =      0    0=normal 1=particle mesh
   IRESTART =      0    0=no restart 2=restart with 2 vectors
   NREBOOT  =      0    no. of reboots
   NMIN     =      0    reboot dimension
   EREF     =   0.00    reference energy to select bands
   IMIX   =      4    mixing-type and parameters
     AMIX     =   0.40;   BMIX     =  1.00
     AMIX_MAG =   1.60;   BMIX_MAG =  1.00
     AMIN     =   0.10
     WC   =   100.;   INIMIX=   1;  MIXPRE=   1;  MAXMIX= -45

 Intra band minimization:
   WEIMIN = 0.0010     energy-eigenvalue tresh-hold
   EBREAK =  0.82E-09  absolut break condition
   DEPER  =   0.30     relativ break condition  

   TIME   =   0.40     timestep for ELM

  volume/ion in A,a.u.               =      53.49       360.99
  Fermi-wavevector in a.u.,A,eV,Ry     =   0.951418  1.797920 12.315955  0.905197
  Thomas-Fermi vector in A             =   2.079887
 
 Write flags
   LWAVE  =      F    write WAVECAR
   LCHARG =      F    write CHGCAR
   LVTOT  =      F    write LOCPOT, total local potential
   LVHAR  =      F    write LOCPOT, Hartree potential only
   LELF   =      F    write electronic localiz. function (ELF)
   LORBIT =      0    0 simple, 1 ext, 2 COOP (PROOUT)


 Dipole corrections
   LMONO  =      F    monopole corrections only (constant potential shift)
   LDIPOL =      T    correct potential (dipole corrections)
   IDIPOL =      3    1-x, 2-y, 3-z, 4-all directions 
   EPSILON=  1.0000000 bulk dielectric constant

 Exchange correlation treatment:
   GGA     =    PE    GGA type
   LEXCH   =     8    internal setting for exchange type
   VOSKOWN=      1    Vosko Wilk Nusair interpolation
   LHFCALC =     F    Hartree Fock is set to
   LHFONE  =     F    Hartree Fock one center treatment
   AEXX    =    0.0000 exact exchange contribution

 Linear response parameters
   LEPSILON=     F    determine dielectric tensor
   LRPA    =     F    only Hartree local field effects (RPA)
   LNABLA  =     F    use nabla operator in PAW spheres
   LVEL    =     F    velocity operator in full k-point grid
   LINTERFAST=   F  fast interpolation
   KINTER  =     0    interpolate to denser k-point grid
   CSHIFT  =0.1000    complex shift for real part using Kramers Kronig
   OMEGAMAX=  -1.0    maximum frequency
   DEG_THRESHOLD= 0.2000000E-02 threshold for treating states as degnerate
   RTIME   =    0.100 relaxation time in fs

 Orbital magnetization related:
   ORBITALMAG=     F  switch on orbital magnetization
   LCHIMAG   =     F  perturbation theory with respect to B field
   DQ        =  0.001000  dq finite difference perturbation B field



--------------------------------------------------------------------------------------------------------


 conjugate gradient relaxation of ions
   using selective dynamics as specified on POSCAR
   WARNING: If single coordinates had been selected the selection of coordinates
            is made according to the corresponding   d i r e c t   coordinates!
            Don't support selection of single cartesian coordinates -- sorry ...
  !
 charge density and potential will be updated during run
 non-spin polarized calculation
 RMM-DIIS sequential band-by-band and
  variant of blocked Davidson during initial phase
 perform sub-space diagonalisation
    before iterative eigenvector-optimisation
 modified Broyden-mixing scheme, WC =      100.0
 initial mixing is a Kerker type mixing with AMIX =  0.4000 and BMIX =      1.0000
 Hartree-type preconditioning will be used
 using additional bands           54
 real space projection scheme for non local part
 use partial core corrections
 calculate Harris-corrections to forces 
   (improved forces if not selfconsistent)
 use gradient corrections 
 use of overlap-Matrix (Vanderbilt PP)
 Gauss-broadening in eV      SIGMA  =   0.10


--------------------------------------------------------------------------------------------------------


  energy-cutoff  :      400.00
  volume of cell :     2567.68
      direct lattice vectors                 reciprocal lattice vectors
    11.002581515  0.000000000  0.000000000     0.090887761 -0.052474073  0.000000000
     5.501290758  9.528515099  0.000000000     0.000000000  0.104948147  0.000000000
     0.000000000  0.000000000 24.491785094     0.000000000  0.000000000  0.040830017

  length of vectors
    11.002581515 11.002581515 24.491785094     0.104948147  0.104948147  0.040830017


 
 k-points in units of 2pi/SCALE and weight: Automatic mesh                          
   0.02272194  0.01311852  0.00000000       0.167
   0.00000000  0.02623704  0.00000000       0.167
  -0.02272194  0.01311852  0.00000000       0.167
  -0.02272194  0.03935555  0.00000000       0.167
   0.04544388 -0.05247407  0.00000000       0.167
  -0.02272194  0.06559259  0.00000000       0.167
 
 k-points in reciprocal lattice and weights: Automatic mesh                          
   0.25000000  0.25000000  0.00000000       0.167
   0.00000000  0.25000000  0.00000000       0.167
  -0.25000000  0.00000000  0.00000000       0.167
  -0.25000000  0.25000000  0.00000000       0.167
   0.50000000 -0.25000000  0.00000000       0.167
  -0.25000000  0.50000000  0.00000000       0.167
 
 position of ions in fractional coordinates (direct lattice) 
   0.08333333  0.08333333  0.40830017
   0.33333333  0.33333333  0.40830017
   0.08333333  0.83333333  0.40830017
   0.00000000  0.50000000  0.59169983
   0.08333333  0.58333333  0.40830017
   0.00000000  0.25000000  0.59169983
   0.00000000  0.00000000  0.59169983
   0.25000000  0.00000000  0.59169983
   0.25000000  0.75000000  0.59169983
   0.16666667  0.41666667  0.50000000
   0.25000000  0.25000000  0.59169983
   0.16666667  0.66666667  0.50000000
   0.75000000  0.75000000  0.59169983
   0.58333333  0.83333333  0.40830017
   0.41666667  0.91666667  0.50000000
   0.50000000  0.75000000  0.59169983
   0.83333333  0.08333333  0.40830017
   0.75000000  0.00000000  0.59169983
   0.83333333  0.33333333  0.40830017
   0.66666667  0.41666667  0.50000000
   0.66666667  0.66666667  0.50000000
   0.75000000  0.50000000  0.59169983
   0.83333333  0.83333333  0.40830017
   0.33333333  0.83333333  0.40830017
   0.91666667  0.91666667  0.50000000
   0.50000000  0.50000000  0.59169983
   0.16666667  0.91666667  0.50000000
   0.58333333  0.58333333  0.40830017
   0.41666667  0.16666667  0.50000000
   0.41666667  0.41666667  0.50000000
   0.58333333  0.33333333  0.40830017
   0.50000000  0.00000000  0.59169983
   0.00000000  0.75000000  0.59169983
   0.50000000  0.25000000  0.59169983
   0.25000000  0.50000000  0.59169983
   0.91666667  0.41666667  0.50000000
   0.66666667  0.16666667  0.50000000
   0.33333333  0.08333333  0.40830017
   0.33333333  0.58333333  0.40830017
   0.75000000  0.25000000  0.59169983
   0.83333333  0.58333333  0.40830017
   0.08333333  0.33333333  0.40830017
   0.16666667  0.16666667  0.50000000
   0.91666667  0.16666667  0.50000000
   0.58333333  0.08333333  0.40830017
   0.66666667  0.91666667  0.50000000
   0.91666667  0.66666667  0.50000000
   0.41666667  0.66666667  0.50000000
 
 position of ions in cartesian coordinates  (Angst):
   1.37532269  0.79404292 10.00000000
   5.50129076  3.17617170 10.00000000
   5.50129076  7.94042925 10.00000000
   2.75064538  4.76425755 14.49178509
   4.12596807  5.55830047 10.00000000
   1.37532269  2.38212877 14.49178509
   0.00000000  0.00000000 14.49178509
   2.75064538  0.00000000 14.49178509
   6.87661345  7.14638632 14.49178509
   4.12596807  3.97021462 12.24589255
   4.12596807  2.38212877 14.49178509
   5.50129076  6.35234340 12.24589255
  12.37790420  7.14638632 14.49178509
  11.00258152  7.94042925 10.00000000
   9.62725883  8.73447217 12.24589255
   9.62725883  7.14638632 14.49178509
   9.62725883  0.79404292 10.00000000
   8.25193614  0.00000000 14.49178509
  11.00258152  3.17617170 10.00000000
   9.62725883  3.97021462 12.24589255
  11.00258152  6.35234340 12.24589255
  11.00258152  4.76425755 14.49178509
  13.75322689  7.94042925 10.00000000
   8.25193614  7.94042925 10.00000000
  15.12854958  8.73447217 12.24589255
   8.25193614  4.76425755 14.49178509
   6.87661345  8.73447217 12.24589255
   9.62725883  5.55830047 10.00000000
   5.50129076  1.58808585 12.24589255
   6.87661345  3.97021462 12.24589255
   8.25193614  3.17617170 10.00000000
   5.50129076  0.00000000 14.49178509
   4.12596807  7.14638632 14.49178509
   6.87661345  2.38212877 14.49178509
   5.50129076  4.76425755 14.49178509
  12.37790420  3.97021462 12.24589255
   8.25193614  1.58808585 12.24589255
   4.12596807  0.79404292 10.00000000
   6.87661345  5.55830047 10.00000000
   9.62725883  2.38212877 14.49178509
  12.37790420  5.55830047 10.00000000
   2.75064538  3.17617170 10.00000000
   2.75064538  1.58808585 12.24589255
  11.00258152  1.58808585 12.24589255
   6.87661345  0.79404292 10.00000000
  12.37790420  8.73447217 12.24589255
  13.75322689  6.35234340 12.24589255
   8.25193614  6.35234340 12.24589255
 


--------------------------------------------------------------------------------------------------------


 k-point  1 :   0.2500 0.2500 0.0000  plane waves:   46635
 k-point  2 :   0.0000 0.2500 0.0000  plane waves:   46635
 k-point  3 :  -0.2500 0.0000 0.0000  plane waves:   46635
 k-point  4 :  -0.2500 0.2500 0.0000  plane waves:   46644
 k-point  5 :   0.5000-0.2500 0.0000  plane waves:   46644
 k-point  6 :  -0.2500 0.5000 0.0000  plane waves:   46644

 maximum and minimum number of plane-waves per node :      7818     7732

 maximum number of plane-waves:     46644
 maximum index in each direction: 
   IXMAX=   18   IYMAX=   18   IZMAX=   39
   IXMIN=  -18   IYMIN=  -18   IZMIN=  -39

 WARNING: aliasing errors must be expected set NGX to  74 to avoid them
 WARNING: aliasing errors must be expected set NGY to  74 to avoid them
 WARNING: aliasing errors must be expected set NGZ to 158 to avoid them
 aliasing errors are usually negligible using standard VASP settings
 and one can safely disregard these warnings

 real space projection operators:
  total allocation   :      12803.06 KBytes
  max/ min on nodes  :       2145.66       2127.94


 parallel 3D FFT for wavefunctions:
    minimum data exchange during FFTs selected (reduces bandwidth)
 parallel 3D FFT for charge:
    minimum data exchange during FFTs selected (reduces bandwidth)


 total amount of memory used by VASP on root node    84353. kBytes
========================================================================

   base      :      30000. kBytes
   nonlr-proj:       4285. kBytes
   fftplans  :       4447. kBytes
   grid      :       6721. kBytes
   one-center:        124. kBytes
   wavefun   :      38776. kBytes
 
     INWAV:  cpu time    0.0000: real time    0.0000
 Broyden mixing: mesh for mixing (old mesh)
   NGX = 35   NGY = 35   NGZ = 79
  (NGX  =108   NGY  =108   NGZ  =240)
  gives a total of  96775 points

 initial charge density was supplied:
 charge density of overlapping atoms calculated
 number of electron     504.0000000 magnetization 
 keeping initial charge density in first step


--------------------------------------------------------------------------------------------------------


 Maximum index for non-local projection operator          355
 Maximum index for augmentation-charges          437 (set IRDMAX)


--------------------------------------------------------------------------------------------------------


 First call to EWALD:  gamma=   0.129
 Maximum number of real-space cells 4x 4x 2
 Maximum number of reciprocal cells 2x 2x 5

 FEWALD executed in parallel
    FEWALD:  cpu time    0.0020: real time    0.0020


----------------------------------------- Iteration    1(   1)  ---------------------------------------


    POTLOK:  cpu time    0.0456: real time    0.0463
    SETDIJ:  cpu time    0.0057: real time    0.0057
     EDDAV:  cpu time    7.1579: real time    7.1774
       DOS:  cpu time    0.0013: real time    0.0013
    --------------------------------------------
      LOOP:  cpu time    7.2131: real time    7.2376

 eigenvalue-minimisations  :  3672
 total energy-change (2. order) : 0.3200568E+04  (-0.1898361E+05)
 number of electron     504.0000000 magnetization 
 augmentation part      504.0000000 magnetization 

 DIPCOR: dipole corrections for dipol
 direction  3 min pos     1,
 dipolmoment           0.000000      0.000000     -0.000001 electrons x Angstroem
 Tr[quadrupol]    -10202.502303

 energy correction for charged system         0.000000 eV
 dipol+quadrupol energy correction           -0.000000 eV
 added-field ion interaction          0.000000 eV  (added to PSCEN)


 Free energy of the ion-electron system (eV)
  ---------------------------------------------------
  alpha Z        PSCENC =       805.86936440
  Ewald energy   TEWEN  =    199456.92939288
  -Hartree energ DENC   =   -241868.27080408
  -exchange      EXHF   =         0.00000000
  -V(xc)+E(xc)   XCENC  =      -327.82175520
  PAW double counting   =     40340.05962942   -38292.62782345
  entropy T*S    EENTRO =        -0.13564246
  eigenvalues    EBANDS =      1426.77971945
  atomic energy  EATOM  =     41659.78587232
  Solvation  Ediel_sol  =         0.00000000
  ---------------------------------------------------
  free energy    TOTEN  =      3200.56795329 eV

  energy without entropy =     3200.70359575  energy(sigma->0) =     3200.63577452


--------------------------------------------------------------------------------------------------------




----------------------------------------- Iteration    1(   2)  ---------------------------------------


     EDDAV:  cpu time    8.4662: real time    8.4891
       DOS:  cpu time    0.0014: real time    0.0014
    --------------------------------------------
      LOOP:  cpu time    8.4683: real time    8.4927

 eigenvalue-minimisations  :  4380
 total energy-change (2. order) :-0.3187475E+04  (-0.2933183E+04)
 number of electron     504.0000000 magnetization 
 augmentation part      504.0000000 magnetization 

 DIPCOR: dipole corrections for dipol
 direction  3 min pos     1,
 dipolmoment           0.000000      0.000000     -0.000001 electrons x Angstroem
 Tr[quadrupol]    -10202.502303

 energy correction for charged system         0.000000 eV
 dipol+quadrupol energy correction           -0.000000 eV
 added-field ion interaction          0.000000 eV  (added to PSCEN)


 Free energy of the ion-electron system (eV)
  ---------------------------------------------------
  alpha Z        PSCENC =       805.86936440
  Ewald energy   TEWEN  =    199456.92939288
  -Hartree energ DENC   =   -241868.27080408
  -exchange      EXHF   =         0.00000000
  -V(xc)+E(xc)   XCENC  =      -327.82175520
  PAW double counting   =     40340.05962942   -38292.62782345
  entropy T*S    EENTRO =        -0.12952129
  eigenvalues    EBANDS =     -1760.70103719
  atomic energy  EATOM  =     41659.78587232
  Solvation  Ediel_sol  =         0.00000000
  ---------------------------------------------------
  free energy    TOTEN  =        13.09331782 eV

  energy without entropy =       13.22283911  energy(sigma->0) =       13.15807846


--------------------------------------------------------------------------------------------------------




----------------------------------------- Iteration    1(   3)  ---------------------------------------


     EDDAV:  cpu time    8.2260: real time    8.2487
       DOS:  cpu time    0.0014: real time    0.0014
    --------------------------------------------
      LOOP:  cpu time    8.2282: real time    8.2540

 eigenvalue-minimisations  :  4164
 total energy-change (2. order) :-0.2154329E+03  (-0.2005867E+03)
 number of electron     504.0000000 magnetization 
 augmentation part      504.0000000 magnetization 

 DIPCOR: dipole corrections for dipol
 direction  3 min pos     1,
 dipolmoment           0.000000      0.000000     -0.000001 electrons x Angstroem
 Tr[quadrupol]    -10202.502303

 energy correction for charged system         0.000000 eV
 dipol+quadrupol energy correction           -0.000000 eV
 added-field ion interaction          0.000000 eV  (added to PSCEN)


 Free energy of the ion-electron system (eV)
  ---------------------------------------------------
  alpha Z        PSCENC =       805.86936440
  Ewald energy   TEWEN  =    199456.92939288
  -Hartree energ DENC   =   -241868.27080408
  -exchange      EXHF   =         0.00000000
  -V(xc)+E(xc)   XCENC  =      -327.82175520
  PAW double counting   =     40340.05962942   -38292.62782345
  entropy T*S    EENTRO =        -0.16353905
  eigenvalues    EBANDS =     -1976.09991610
  atomic energy  EATOM  =     41659.78587232
  Solvation  Ediel_sol  =         0.00000000
  ---------------------------------------------------
  free energy    TOTEN  =      -202.33957885 eV

  energy without entropy =     -202.17603980  energy(sigma->0) =     -202.25780932


--------------------------------------------------------------------------------------------------------




----------------------------------------- Iteration    1(   4)  ---------------------------------------


     EDDAV:  cpu time    8.3388: real time    8.3629
       DOS:  cpu time    0.0014: real time    0.0015
    --------------------------------------------
      LOOP:  cpu time    8.3412: real time    8.3697

 eigenvalue-minimisations  :  4224
 total energy-change (2. order) :-0.5706288E+01  (-0.5637169E+01)
 number of electron     504.0000000 magnetization 
 augmentation part      504.0000000 magnetization 

 DIPCOR: dipole corrections for dipol
 direction  3 min pos     1,
 dipolmoment           0.000000      0.000000     -0.000001 electrons x Angstroem
 Tr[quadrupol]    -10202.502303

 energy correction for charged system         0.000000 eV
 dipol+quadrupol energy correction           -0.000000 eV
 added-field ion interaction          0.000000 eV  (added to PSCEN)


 Free energy of the ion-electron system (eV)
  ---------------------------------------------------
  alpha Z        PSCENC =       805.86936440
  Ewald energy   TEWEN  =    199456.92939288
  -Hartree energ DENC   =   -241868.27080408
  -exchange      EXHF   =         0.00000000
  -V(xc)+E(xc)   XCENC  =      -327.82175520
  PAW double counting   =     40340.05962942   -38292.62782345
  entropy T*S    EENTRO =        -0.17241244
  eigenvalues    EBANDS =     -1981.79733038
  atomic energy  EATOM  =     41659.78587232
  Solvation  Ediel_sol  =         0.00000000
  ---------------------------------------------------
  free energy    TOTEN  =      -208.04586652 eV

  energy without entropy =     -207.87345408  energy(sigma->0) =     -207.95966030


--------------------------------------------------------------------------------------------------------




----------------------------------------- Iteration    1(   5)  ---------------------------------------


     EDDAV:  cpu time    8.5191: real time    8.6251
       DOS:  cpu time    0.0014: real time    0.0015
    CHARGE:  cpu time    0.2169: real time    0.2181
    MIXING:  cpu time    0.0021: real time    0.0023
    --------------------------------------------
      LOOP:  cpu time    8.7400: real time    8.8507

 eigenvalue-minimisations  :  4368
 total energy-change (2. order) :-0.1879561E+00  (-0.1874174E+00)
 number of electron     503.9998402 magnetization 
 augmentation part      191.1681125 magnetization 

 DIPCOR: dipole corrections for dipol
 direction  3 min pos     1,
 dipolmoment           0.000000      0.000000     -0.000001 electrons x Angstroem
 Tr[quadrupol]    -10202.502303

 energy correction for charged system         0.000000 eV
 dipol+quadrupol energy correction           -0.000000 eV
 added-field ion interaction          0.000000 eV  (added to PSCEN)


 Broyden mixing:
  rms(total) = 0.61874E+01    rms(broyden)= 0.61873E+01
  rms(prec ) = 0.63208E+01
  weight for this iteration     100.00

 Free energy of the ion-electron system (eV)
  ---------------------------------------------------
  alpha Z        PSCENC =       805.86936440
  Ewald energy   TEWEN  =    199456.92939288
  -Hartree energ DENC   =   -241868.27080408
  -exchange      EXHF   =         0.00000000
  -V(xc)+E(xc)   XCENC  =      -327.82175520
  PAW double counting   =     40340.05962942   -38292.62782345
  entropy T*S    EENTRO =        -0.17172821
  eigenvalues    EBANDS =     -1981.98597071
  atomic energy  EATOM  =     41659.78587232
  Solvation  Ediel_sol  =         0.00000000
  ---------------------------------------------------
  free energy    TOTEN  =      -208.23382261 eV

  energy without entropy =     -208.06209441  energy(sigma->0) =     -208.14795851


--------------------------------------------------------------------------------------------------------




----------------------------------------- Iteration    1(   6)  ---------------------------------------


    POTLOK:  cpu time    0.0403: real time    0.0412
    SETDIJ:  cpu time    0.0051: real time    0.0053
    EDDIAG:  cpu time    1.2830: real time    1.2862
  RMM-DIIS:  cpu time    3.4505: real time    3.4589
    ORTHCH:  cpu time    0.3555: real time    0.3564
       DOS:  cpu time    0.0014: real time    0.0014
    CHARGE:  cpu time    0.2175: real time    0.2180
    MIXING:  cpu time    0.0019: real time    0.0019
    --------------------------------------------
      LOOP:  cpu time    5.3558: real time    5.3719

 eigenvalue-minimisations  :  3676
 total energy-change (2. order) : 0.5110611E+01  (-0.1012384E+02)
 number of electron     503.9998425 magnetization 
 augmentation part      191.3100336 magnetization 

 DIPCOR: dipole corrections for dipol
 direction  3 min pos     1,
 dipolmoment           0.000000      0.000000     -0.338342 electrons x Angstroem
 Tr[quadrupol]    -10205.974201

 energy correction for charged system         0.000000 eV
 dipol+quadrupol energy correction           -0.004034 eV
 added-field ion interaction          0.053552 eV  (added to PSCEN)


 Broyden mixing:
  rms(total) = 0.54547E+01    rms(broyden)= 0.54545E+01
  rms(prec ) = 0.56932E+01
  weight for this iteration     100.00

 eigenvalues of (default mixing * dielectric matrix)
  average eigenvalue GAMMA=   0.7025
  0.7025

 Free energy of the ion-electron system (eV)
  ---------------------------------------------------
  alpha Z        PSCENC =       805.91888276
  Ewald energy   TEWEN  =    199456.92939288
  -Hartree energ DENC   =   -241687.65671713
  -exchange      EXHF   =         0.00000000
  -V(xc)+E(xc)   XCENC  =      -340.87647534
  PAW double counting   =     43883.61922580   -41895.94631998
  entropy T*S    EENTRO =        -0.25332993
  eigenvalues    EBANDS =     -2084.64374305
  atomic energy  EATOM  =     41659.78587232
  Solvation  Ediel_sol  =         0.00000000
  ---------------------------------------------------
  free energy    TOTEN  =      -203.12321167 eV

  energy without entropy =     -202.86988174  energy(sigma->0) =     -202.99654670


--------------------------------------------------------------------------------------------------------




----------------------------------------- Iteration    1(   7)  ---------------------------------------


    POTLOK:  cpu time    0.0404: real time    0.0405
    SETDIJ:  cpu time    0.0055: real time    0.0058
    EDDIAG:  cpu time    1.2847: real time    1.2878
  RMM-DIIS:  cpu time    3.4403: real time    3.4487
    ORTHCH:  cpu time    0.3523: real time    0.3532
       DOS:  cpu time    0.0014: real time    0.0014
    CHARGE:  cpu time    0.2164: real time    0.2170
    MIXING:  cpu time    0.0021: real time    0.0021
    --------------------------------------------
      LOOP:  cpu time    5.3438: real time    5.3591

 eigenvalue-minimisations  :  3683
 total energy-change (2. order) : 0.5138095E+00  (-0.6248802E+01)
 number of electron     503.9998364 magnetization 
 augmentation part      196.8118977 magnetization 

 DIPCOR: dipole corrections for dipol
 direction  3 min pos     1,
 dipolmoment           0.000000      0.000000      0.231343 electrons x Angstroem
 Tr[quadrupol]    -10202.336242

 energy correction for charged system         0.000000 eV
 dipol+quadrupol energy correction           -0.001886 eV
 added-field ion interaction         -0.036617 eV  (added to PSCEN)


 Broyden mixing:
  rms(total) = 0.39256E+01    rms(broyden)= 0.39254E+01
  rms(prec ) = 0.41471E+01
  weight for this iteration     100.00

 eigenvalues of (default mixing * dielectric matrix)
  average eigenvalue GAMMA=   0.9980
  1.6097  0.3864

 Free energy of the ion-electron system (eV)
  ---------------------------------------------------
  alpha Z        PSCENC =       805.83086169
  Ewald energy   TEWEN  =    199456.92939288
  -Hartree energ DENC   =   -241460.95737982
  -exchange      EXHF   =         0.00000000
  -V(xc)+E(xc)   XCENC  =      -342.80567476
  PAW double counting   =     45225.53518778   -43263.07808618
  entropy T*S    EENTRO =        -0.20730194
  eigenvalues    EBANDS =     -2283.64227419
  atomic energy  EATOM  =     41659.78587232
  Solvation  Ediel_sol  =         0.00000000
  ---------------------------------------------------
  free energy    TOTEN  =      -202.60940221 eV

  energy without entropy =     -202.40210027  energy(sigma->0) =     -202.50575124


--------------------------------------------------------------------------------------------------------




----------------------------------------- Iteration    1(   8)  ---------------------------------------


    POTLOK:  cpu time    0.0409: real time    0.0411
    SETDIJ:  cpu time    0.0060: real time    0.0060
    EDDIAG:  cpu time    1.2866: real time    1.2903
  RMM-DIIS:  cpu time    3.4371: real time    3.4462
    ORTHCH:  cpu time    0.3491: real time    0.3500
       DOS:  cpu time    0.0014: real time    0.0014
    CHARGE:  cpu time    0.2194: real time    0.2199
    MIXING:  cpu time    0.0021: real time    0.0021
    --------------------------------------------
      LOOP:  cpu time    5.3432: real time    5.3607

 eigenvalue-minimisations  :  3678
 total energy-change (2. order) :-0.1770587E+01  (-0.4974874E+01)
 number of electron     503.9998343 magnetization 
 augmentation part      198.2217345 magnetization 

 DIPCOR: dipole corrections for dipol
 direction  3 min pos     1,
 dipolmoment           0.000000      0.000000     -0.843283 electrons x Angstroem
 Tr[quadrupol]    -10204.786451

 energy correction for charged system         0.000000 eV
 dipol+quadrupol energy correction           -0.025058 eV
 added-field ion interaction          0.133473 eV  (added to PSCEN)


 Broyden mixing:
  rms(total) = 0.29026E+01    rms(broyden)= 0.29023E+01
  rms(prec ) = 0.33172E+01
  weight for this iteration     100.00

 eigenvalues of (default mixing * dielectric matrix)
  average eigenvalue GAMMA=   0.9805
  2.1012  0.4201  0.4201

 Free energy of the ion-electron system (eV)
  ---------------------------------------------------
  alpha Z        PSCENC =       805.97777962
  Ewald energy   TEWEN  =    199456.92939288
  -Hartree energ DENC   =   -241478.57104872
  -exchange      EXHF   =         0.00000000
  -V(xc)+E(xc)   XCENC  =      -344.91491283
  PAW double counting   =     47463.53728107   -45531.35945281
  entropy T*S    EENTRO =        -0.18742614
  eigenvalues    EBANDS =     -2235.57747472
  atomic energy  EATOM  =     41659.78587232
  Solvation  Ediel_sol  =         0.00000000
  ---------------------------------------------------
  free energy    TOTEN  =      -204.37998934 eV

  energy without entropy =     -204.19256319  energy(sigma->0) =     -204.28627627


--------------------------------------------------------------------------------------------------------




----------------------------------------- Iteration    1(   9)  ---------------------------------------


    POTLOK:  cpu time    0.0407: real time    0.0409
    SETDIJ:  cpu time    0.0060: real time    0.0061
    EDDIAG:  cpu time    1.2861: real time    1.2902
  RMM-DIIS:  cpu time    3.4944: real time    3.5028
    ORTHCH:  cpu time    0.3489: real time    0.3506
       DOS:  cpu time    0.0013: real time    0.0013
    CHARGE:  cpu time    0.2208: real time    0.2213
    MIXING:  cpu time    0.0021: real time    0.0021
    --------------------------------------------
      LOOP:  cpu time    5.4010: real time    5.4186

 eigenvalue-minimisations  :  3678
 total energy-change (2. order) : 0.2597440E+01  (-0.3067684E+01)
 number of electron     503.9998349 magnetization 
 augmentation part      197.4494778 magnetization 

 DIPCOR: dipole corrections for dipol
 direction  3 min pos     1,
 dipolmoment           0.000000      0.000000      1.048810 electrons x Angstroem
 Tr[quadrupol]    -10205.773613

 energy correction for charged system         0.000000 eV
 dipol+quadrupol energy correction           -0.038761 eV
 added-field ion interaction         -0.166004 eV  (added to PSCEN)


 Broyden mixing:
  rms(total) = 0.26650E+01    rms(broyden)= 0.26647E+01
  rms(prec ) = 0.32498E+01
  weight for this iteration     100.00

 eigenvalues of (default mixing * dielectric matrix)
  average eigenvalue GAMMA=   0.8570
  2.2353  0.4306  0.4306  0.3317

 Free energy of the ion-electron system (eV)
  ---------------------------------------------------
  alpha Z        PSCENC =       805.66459910
  Ewald energy   TEWEN  =    199456.92939288
  -Hartree energ DENC   =   -241510.00205922
  -exchange      EXHF   =         0.00000000
  -V(xc)+E(xc)   XCENC  =      -345.54532637
  PAW double counting   =     48640.25340085   -46721.53179430
  entropy T*S    EENTRO =        -0.21791801
  eigenvalues    EBANDS =     -2187.11871654
  atomic energy  EATOM  =     41659.78587232
  Solvation  Ediel_sol  =         0.00000000
  ---------------------------------------------------
  free energy    TOTEN  =      -201.78254929 eV

  energy without entropy =     -201.56463128  energy(sigma->0) =     -201.67359029


--------------------------------------------------------------------------------------------------------




----------------------------------------- Iteration    1(  10)  ---------------------------------------


    POTLOK:  cpu time    0.0396: real time    0.0406
    SETDIJ:  cpu time    0.0052: real time    0.0052
    EDDIAG:  cpu time    1.2728: real time    1.2758
  RMM-DIIS:  cpu time    3.4492: real time    3.4575
    ORTHCH:  cpu time    0.3492: real time    0.3500
       DOS:  cpu time    0.0014: real time    0.0014
    CHARGE:  cpu time    0.2146: real time    0.2151
    MIXING:  cpu time    0.0021: real time    0.0021
    --------------------------------------------
      LOOP:  cpu time    5.3347: real time    5.3519

 eigenvalue-minimisations  :  3681
 total energy-change (2. order) : 0.6691234E+01  (-0.1669741E+01)
 number of electron     503.9998349 magnetization 
 augmentation part      197.9081653 magnetization 

 DIPCOR: dipole corrections for dipol
 direction  3 min pos     1,
 dipolmoment           0.000000      0.000000     -0.334422 electrons x Angstroem
 Tr[quadrupol]    -10205.956141

 energy correction for charged system         0.000000 eV
 dipol+quadrupol energy correction           -0.003941 eV
 added-field ion interaction          0.052932 eV  (added to PSCEN)


 Broyden mixing:
  rms(total) = 0.17329E+01    rms(broyden)= 0.17326E+01
  rms(prec ) = 0.19957E+01
  weight for this iteration     100.00

 eigenvalues of (default mixing * dielectric matrix)
  average eigenvalue GAMMA=   0.7645
  2.2476  0.4602  0.4602  0.4179  0.2364

 Free energy of the ion-electron system (eV)
  ---------------------------------------------------
  alpha Z        PSCENC =       805.91835520
  Ewald energy   TEWEN  =    199456.92939288
  -Hartree energ DENC   =   -241522.36694815
  -exchange      EXHF   =         0.00000000
  -V(xc)+E(xc)   XCENC  =      -345.57625752
  PAW double counting   =     48984.10372255   -47068.92944137
  entropy T*S    EENTRO =        -0.21187869
  eigenvalues    EBANDS =     -2164.74413240
  atomic energy  EATOM  =     41659.78587232
  Solvation  Ediel_sol  =         0.00000000
  ---------------------------------------------------
  free energy    TOTEN  =      -195.09131519 eV

  energy without entropy =     -194.87943650  energy(sigma->0) =     -194.98537585


--------------------------------------------------------------------------------------------------------




----------------------------------------- Iteration    1(  11)  ---------------------------------------


    POTLOK:  cpu time    0.0396: real time    0.0397
    SETDIJ:  cpu time    0.0052: real time    0.0052
    EDDIAG:  cpu time    1.2786: real time    1.2818
  RMM-DIIS:  cpu time    3.4320: real time    3.4814
    ORTHCH:  cpu time    0.3440: real time    0.3698
       DOS:  cpu time    0.0014: real time    0.0015
    CHARGE:  cpu time    0.2098: real time    0.2151
    MIXING:  cpu time    0.0023: real time    0.0024
    --------------------------------------------
      LOOP:  cpu time    5.3136: real time    5.3993

 eigenvalue-minimisations  :  3681
 total energy-change (2. order) : 0.3678663E+01  (-0.5104983E+00)
 number of electron     503.9998349 magnetization 
 augmentation part      197.9011895 magnetization 

 DIPCOR: dipole corrections for dipol
 direction  3 min pos     1,
 dipolmoment           0.000000      0.000000      0.009012 electrons x Angstroem
 Tr[quadrupol]    -10205.831596

 energy correction for charged system         0.000000 eV
 dipol+quadrupol energy correction           -0.000003 eV
 added-field ion interaction         -0.001426 eV  (added to PSCEN)


 Broyden mixing:
  rms(total) = 0.10692E+01    rms(broyden)= 0.10690E+01
  rms(prec ) = 0.11573E+01
  weight for this iteration     100.00

 eigenvalues of (default mixing * dielectric matrix)
  average eigenvalue GAMMA=   0.7168
  2.2626  0.5253  0.4833  0.4833  0.2732  0.2732

 Free energy of the ion-electron system (eV)
  ---------------------------------------------------
  alpha Z        PSCENC =       805.86793502
  Ewald energy   TEWEN  =    199456.92939288
  -Hartree energ DENC   =   -241530.58893062
  -exchange      EXHF   =         0.00000000
  -V(xc)+E(xc)   XCENC  =      -345.21490410
  PAW double counting   =     49074.93232154   -47159.41755606
  entropy T*S    EENTRO =        -0.24962193
  eigenvalues    EBANDS =     -2153.45716159
  atomic energy  EATOM  =     41659.78587232
  Solvation  Ediel_sol  =         0.00000000
  ---------------------------------------------------
  free energy    TOTEN  =      -191.41265255 eV

  energy without entropy =     -191.16303061  energy(sigma->0) =     -191.28784158


--------------------------------------------------------------------------------------------------------




----------------------------------------- Iteration    1(  12)  ---------------------------------------


    POTLOK:  cpu time    0.0399: real time    0.0401
    SETDIJ:  cpu time    0.0051: real time    0.0051
    EDDIAG:  cpu time    1.2828: real time    1.2866
  RMM-DIIS:  cpu time    3.4634: real time    3.4717
    ORTHCH:  cpu time    0.3498: real time    0.3506
       DOS:  cpu time    0.0014: real time    0.0014
    CHARGE:  cpu time    0.2185: real time    0.2190
    MIXING:  cpu time    0.0024: real time    0.0025
    --------------------------------------------
      LOOP:  cpu time    5.3638: real time    5.3808

 eigenvalue-minimisations  :  3679
 total energy-change (2. order) : 0.9818079E+00  (-0.2660870E+00)
 number of electron     503.9998357 magnetization 
 augmentation part      197.4996685 magnetization 

 DIPCOR: dipole corrections for dipol
 direction  3 min pos     1,
 dipolmoment           0.000000      0.000000     -0.180926 electrons x Angstroem
 Tr[quadrupol]    -10206.073203

 energy correction for charged system         0.000000 eV
 dipol+quadrupol energy correction           -0.001153 eV
 added-field ion interaction          0.028637 eV  (added to PSCEN)


 Broyden mixing:
  rms(total) = 0.69510E+00    rms(broyden)= 0.69494E+00
  rms(prec ) = 0.84198E+00
  weight for this iteration     100.00

 eigenvalues of (default mixing * dielectric matrix)
  average eigenvalue GAMMA=   0.7115
  2.2369  0.6650  0.5879  0.5879  0.3412  0.3412  0.2202

 Free energy of the ion-electron system (eV)
  ---------------------------------------------------
  alpha Z        PSCENC =       805.89684749
  Ewald energy   TEWEN  =    199456.92939288
  -Hartree energ DENC   =   -241551.55753819
  -exchange      EXHF   =         0.00000000
  -V(xc)+E(xc)   XCENC  =      -344.88337877
  PAW double counting   =     49137.37032288   -47220.75971814
  entropy T*S    EENTRO =        -0.22448537
  eigenvalues    EBANDS =     -2132.98815973
  atomic energy  EATOM  =     41659.78587232
  Solvation  Ediel_sol  =         0.00000000
  ---------------------------------------------------
  free energy    TOTEN  =      -190.43084463 eV

  energy without entropy =     -190.20635926  energy(sigma->0) =     -190.31860194


--------------------------------------------------------------------------------------------------------




----------------------------------------- Iteration    1(  13)  ---------------------------------------


    POTLOK:  cpu time    0.0397: real time    0.0398
    SETDIJ:  cpu time    0.0051: real time    0.0052
    EDDIAG:  cpu time    1.2867: real time    1.2898
  RMM-DIIS:  cpu time    3.4536: real time    3.4674
    ORTHCH:  cpu time    0.3491: real time    0.3500
       DOS:  cpu time    0.0014: real time    0.0014
    CHARGE:  cpu time    0.2190: real time    0.2195
    MIXING:  cpu time    0.0026: real time    0.0026
    --------------------------------------------
      LOOP:  cpu time    5.3578: real time    5.3791

 eigenvalue-minimisations  :  3678
 total energy-change (2. order) : 0.4110238E+00  (-0.7528747E-01)
 number of electron     503.9998360 magnetization 
 augmentation part      197.0568422 magnetization 

 DIPCOR: dipole corrections for dipol
 direction  3 min pos     1,
 dipolmoment           0.000000      0.000000     -0.024149 electrons x Angstroem
 Tr[quadrupol]    -10206.468008

 energy correction for charged system         0.000000 eV
 dipol+quadrupol energy correction           -0.000021 eV
 added-field ion interaction          0.003822 eV  (added to PSCEN)


 Broyden mixing:
  rms(total) = 0.56424E+00    rms(broyden)= 0.56411E+00
  rms(prec ) = 0.60943E+00
  weight for this iteration     100.00

 eigenvalues of (default mixing * dielectric matrix)
  average eigenvalue GAMMA=   0.7110
  2.2323  0.7373  0.7373  0.7466  0.3643  0.3643  0.2967  0.2093

 Free energy of the ion-electron system (eV)
  ---------------------------------------------------
  alpha Z        PSCENC =       805.87316594
  Ewald energy   TEWEN  =    199456.92939288
  -Hartree energ DENC   =   -241578.55254012
  -exchange      EXHF   =         0.00000000
  -V(xc)+E(xc)   XCENC  =      -344.48383450
  PAW double counting   =     49164.07762167   -47245.58188694
  entropy T*S    EENTRO =        -0.27592759
  eigenvalues    EBANDS =     -2107.79168449
  atomic energy  EATOM  =     41659.78587232
  Solvation  Ediel_sol  =         0.00000000
  ---------------------------------------------------
  free energy    TOTEN  =      -190.01982083 eV

  energy without entropy =     -189.74389323  energy(sigma->0) =     -189.88185703


--------------------------------------------------------------------------------------------------------




----------------------------------------- Iteration    1(  14)  ---------------------------------------


    POTLOK:  cpu time    0.0403: real time    0.0406
    SETDIJ:  cpu time    0.0059: real time    0.0059
    EDDIAG:  cpu time    1.2745: real time    1.2785
  RMM-DIIS:  cpu time    3.4534: real time    3.4623
    ORTHCH:  cpu time    0.3488: real time    0.3497
       DOS:  cpu time    0.0014: real time    0.0014
    CHARGE:  cpu time    0.2141: real time    0.2146
    MIXING:  cpu time    0.0028: real time    0.0028
    --------------------------------------------
      LOOP:  cpu time    5.3419: real time    5.3607

 eigenvalue-minimisations  :  3679
 total energy-change (2. order) : 0.1854259E-01  (-0.3851266E-01)
 number of electron     503.9998360 magnetization 
 augmentation part      197.0288496 magnetization 

 DIPCOR: dipole corrections for dipol
 direction  3 min pos     1,
 dipolmoment           0.000000      0.000000      0.011314 electrons x Angstroem
 Tr[quadrupol]    -10206.591587

 energy correction for charged system         0.000000 eV
 dipol+quadrupol energy correction           -0.000005 eV
 added-field ion interaction         -0.001791 eV  (added to PSCEN)


 Broyden mixing:
  rms(total) = 0.49478E+00    rms(broyden)= 0.49469E+00
  rms(prec ) = 0.54549E+00
  weight for this iteration     100.00

 eigenvalues of (default mixing * dielectric matrix)
  average eigenvalue GAMMA=   0.7507
  2.2178  1.1075  1.1075  0.7497  0.4117  0.4117  0.2929  0.2527  0.2050

 Free energy of the ion-electron system (eV)
  ---------------------------------------------------
  alpha Z        PSCENC =       805.86756894
  Ewald energy   TEWEN  =    199456.92939288
  -Hartree energ DENC   =   -241586.67400313
  -exchange      EXHF   =         0.00000000
  -V(xc)+E(xc)   XCENC  =      -344.35851403
  PAW double counting   =     49176.84030188   -47257.71725570
  entropy T*S    EENTRO =        -0.25456307
  eigenvalues    EBANDS =     -2100.42007832
  atomic energy  EATOM  =     41659.78587232
  Solvation  Ediel_sol  =         0.00000000
  ---------------------------------------------------
  free energy    TOTEN  =      -190.00127824 eV

  energy without entropy =     -189.74671517  energy(sigma->0) =     -189.87399670


--------------------------------------------------------------------------------------------------------




----------------------------------------- Iteration    1(  15)  ---------------------------------------


    POTLOK:  cpu time    0.0400: real time    0.0401
    SETDIJ:  cpu time    0.0052: real time    0.0053
    EDDIAG:  cpu time    1.2750: real time    1.2788
  RMM-DIIS:  cpu time    3.4822: real time    3.4926
    ORTHCH:  cpu time    0.3534: real time    0.3543
       DOS:  cpu time    0.0014: real time    0.0014
    CHARGE:  cpu time    0.2147: real time    0.2152
    MIXING:  cpu time    0.0030: real time    0.0030
    --------------------------------------------
      LOOP:  cpu time    5.3755: real time    5.3928

 eigenvalue-minimisations  :  3679
 total energy-change (2. order) :-0.2849788E-01  (-0.4322589E-01)
 number of electron     503.9998360 magnetization 
 augmentation part      197.0519577 magnetization 

 DIPCOR: dipole corrections for dipol
 direction  3 min pos     1,
 dipolmoment           0.000000      0.000000     -0.040906 electrons x Angstroem
 Tr[quadrupol]    -10206.732964

 energy correction for charged system         0.000000 eV
 dipol+quadrupol energy correction           -0.000059 eV
 added-field ion interaction          0.006475 eV  (added to PSCEN)


 Broyden mixing:
  rms(total) = 0.43708E+00    rms(broyden)= 0.43694E+00
  rms(prec ) = 0.50454E+00
  weight for this iteration     100.00

 eigenvalues of (default mixing * dielectric matrix)
  average eigenvalue GAMMA=   0.7489
  2.2304  1.3372  1.3372  0.6643  0.4394  0.4394  0.3180  0.3180  0.2025  0.2025

 Free energy of the ion-electron system (eV)
  ---------------------------------------------------
  alpha Z        PSCENC =       805.87577992
  Ewald energy   TEWEN  =    199456.92939288
  -Hartree energ DENC   =   -241595.89585513
  -exchange      EXHF   =         0.00000000
  -V(xc)+E(xc)   XCENC  =      -344.16182823
  PAW double counting   =     49196.19556113   -47276.06823671
  entropy T*S    EENTRO =        -0.27028239
  eigenvalues    EBANDS =     -2092.42017990
  atomic energy  EATOM  =     41659.78587232
  Solvation  Ediel_sol  =         0.00000000
  ---------------------------------------------------
  free energy    TOTEN  =      -190.02977612 eV

  energy without entropy =     -189.75949373  energy(sigma->0) =     -189.89463493


--------------------------------------------------------------------------------------------------------




----------------------------------------- Iteration    1(  16)  ---------------------------------------


    POTLOK:  cpu time    0.0400: real time    0.0401
    SETDIJ:  cpu time    0.0052: real time    0.0052
    EDDIAG:  cpu time    1.2839: real time    1.2880
  RMM-DIIS:  cpu time    3.4678: real time    3.4799
    ORTHCH:  cpu time    0.3446: real time    0.3454
       DOS:  cpu time    0.0014: real time    0.0014
    CHARGE:  cpu time    0.2182: real time    0.2187
    MIXING:  cpu time    0.0029: real time    0.0029
    --------------------------------------------
      LOOP:  cpu time    5.3647: real time    5.3838

 eigenvalue-minimisations  :  3679
 total energy-change (2. order) : 0.1213176E+00  (-0.1507889E-01)
 number of electron     503.9998360 magnetization 
 augmentation part      197.0839661 magnetization 

 DIPCOR: dipole corrections for dipol
 direction  3 min pos     1,
 dipolmoment           0.000000      0.000000     -0.039166 electrons x Angstroem
 Tr[quadrupol]    -10207.011751

 energy correction for charged system         0.000000 eV
 dipol+quadrupol energy correction           -0.000054 eV
 added-field ion interaction          0.006199 eV  (added to PSCEN)


 Broyden mixing:
  rms(total) = 0.27758E+00    rms(broyden)= 0.27752E+00
  rms(prec ) = 0.33256E+00
  weight for this iteration     100.00

 eigenvalues of (default mixing * dielectric matrix)
  average eigenvalue GAMMA=   0.7299
  2.2121  1.4491  1.4491  0.5762  0.5762  0.3637  0.3637  0.3397  0.2766  0.2278
  0.1947

 Free energy of the ion-electron system (eV)
  ---------------------------------------------------
  alpha Z        PSCENC =       805.87550929
  Ewald energy   TEWEN  =    199456.92939288
  -Hartree energ DENC   =   -241607.74847609
  -exchange      EXHF   =         0.00000000
  -V(xc)+E(xc)   XCENC  =      -344.04973447
  PAW double counting   =     49217.68662565   -47296.91018436
  entropy T*S    EENTRO =        -0.26517444
  eigenvalues    EBANDS =     -2081.21228932
  atomic energy  EATOM  =     41659.78587232
  Solvation  Ediel_sol  =         0.00000000
  ---------------------------------------------------
  free energy    TOTEN  =      -189.90845855 eV

  energy without entropy =     -189.64328410  energy(sigma->0) =     -189.77587132


--------------------------------------------------------------------------------------------------------




----------------------------------------- Iteration    1(  17)  ---------------------------------------


    POTLOK:  cpu time    0.0403: real time    0.0405
    SETDIJ:  cpu time    0.0056: real time    0.0057
    EDDIAG:  cpu time    1.2869: real time    1.2900
  RMM-DIIS:  cpu time    3.4738: real time    3.4844
    ORTHCH:  cpu time    0.3429: real time    0.3438
       DOS:  cpu time    0.0014: real time    0.0014
    CHARGE:  cpu time    0.2181: real time    0.2186
    MIXING:  cpu time    0.0030: real time    0.0031
    --------------------------------------------
      LOOP:  cpu time    5.3727: real time    5.3907

 eigenvalue-minimisations  :  3679
 total energy-change (2. order) : 0.6096426E-01  (-0.4601890E-02)
 number of electron     503.9998360 magnetization 
 augmentation part      197.0633560 magnetization 

 DIPCOR: dipole corrections for dipol
 direction  3 min pos     1,
 dipolmoment           0.000000      0.000000     -0.044717 electrons x Angstroem
 Tr[quadrupol]    -10207.101920

 energy correction for charged system         0.000000 eV
 dipol+quadrupol energy correction           -0.000070 eV
 added-field ion interaction          0.007078 eV  (added to PSCEN)


 Broyden mixing:
  rms(total) = 0.17886E+00    rms(broyden)= 0.17884E+00
  rms(prec ) = 0.21635E+00
  weight for this iteration     100.00

 eigenvalues of (default mixing * dielectric matrix)
  average eigenvalue GAMMA=   0.7468
  2.2469  1.8815  1.3781  0.6370  0.6370  0.3876  0.3876  0.4227  0.3132  0.2711
  0.2078  0.1906

 Free energy of the ion-electron system (eV)
  ---------------------------------------------------
  alpha Z        PSCENC =       805.87637154
  Ewald energy   TEWEN  =    199456.92939288
  -Hartree energ DENC   =   -241612.37334239
  -exchange      EXHF   =         0.00000000
  -V(xc)+E(xc)   XCENC  =      -344.00893626
  PAW double counting   =     49223.06076414   -47302.00077573
  entropy T*S    EENTRO =        -0.27386643
  eigenvalues    EBANDS =     -2076.84297436
  atomic energy  EATOM  =     41659.78587232
  Solvation  Ediel_sol  =         0.00000000
  ---------------------------------------------------
  free energy    TOTEN  =      -189.84749428 eV

  energy without entropy =     -189.57362786  energy(sigma->0) =     -189.71056107


--------------------------------------------------------------------------------------------------------




----------------------------------------- Iteration    1(  18)  ---------------------------------------


    POTLOK:  cpu time    0.0398: real time    0.0399
    SETDIJ:  cpu time    0.0052: real time    0.0052
    EDDIAG:  cpu time    1.2709: real time    1.2740
  RMM-DIIS:  cpu time    3.4569: real time    3.4652
    ORTHCH:  cpu time    0.3518: real time    0.3526
       DOS:  cpu time    0.0014: real time    0.0014
    CHARGE:  cpu time    0.2140: real time    0.2145
    MIXING:  cpu time    0.0032: real time    0.0032
    --------------------------------------------
      LOOP:  cpu time    5.3438: real time    5.3585

 eigenvalue-minimisations  :  3680
 total energy-change (2. order) : 0.2467966E-01  (-0.1976440E-02)
 number of electron     503.9998360 magnetization 
 augmentation part      197.0347784 magnetization 

 DIPCOR: dipole corrections for dipol
 direction  3 min pos     1,
 dipolmoment           0.000000      0.000000     -0.025986 electrons x Angstroem
 Tr[quadrupol]    -10207.278582

 energy correction for charged system         0.000000 eV
 dipol+quadrupol energy correction           -0.000024 eV
 added-field ion interaction          0.004113 eV  (added to PSCEN)


 Broyden mixing:
  rms(total) = 0.10449E+00    rms(broyden)= 0.10446E+00
  rms(prec ) = 0.11823E+00
  weight for this iteration     100.00

 eigenvalues of (default mixing * dielectric matrix)
  average eigenvalue GAMMA=   0.7436
  2.1842  2.1842  1.2966  0.6948  0.6948  0.5497  0.3975  0.3975  0.3264  0.2908
  0.2477  0.2110  0.1911

 Free energy of the ion-electron system (eV)
  ---------------------------------------------------
  alpha Z        PSCENC =       805.87345344
  Ewald energy   TEWEN  =    199456.92939288
  -Hartree energ DENC   =   -241619.71547737
  -exchange      EXHF   =         0.00000000
  -V(xc)+E(xc)   XCENC  =      -343.98366311
  PAW double counting   =     49230.72181308   -47309.41536052
  entropy T*S    EENTRO =        -0.28055684
  eigenvalues    EBANDS =     -2069.73828851
  atomic energy  EATOM  =     41659.78587232
  Solvation  Ediel_sol  =         0.00000000
  ---------------------------------------------------
  free energy    TOTEN  =      -189.82281462 eV

  energy without entropy =     -189.54225778  energy(sigma->0) =     -189.68253620


--------------------------------------------------------------------------------------------------------




----------------------------------------- Iteration    1(  19)  ---------------------------------------


    POTLOK:  cpu time    0.0399: real time    0.0400
    SETDIJ:  cpu time    0.0051: real time    0.0051
    EDDIAG:  cpu time    1.2778: real time    1.2866
  RMM-DIIS:  cpu time    3.3987: real time    3.4806
    ORTHCH:  cpu time    0.3429: real time    0.3437
       DOS:  cpu time    0.0014: real time    0.0014
    CHARGE:  cpu time    0.2158: real time    0.2163
    MIXING:  cpu time    0.0033: real time    0.0033
    --------------------------------------------
      LOOP:  cpu time    5.2856: real time    5.3795

 eigenvalue-minimisations  :  3680
 total energy-change (2. order) : 0.6511434E-02  (-0.1118456E-02)
 number of electron     503.9998360 magnetization 
 augmentation part      197.0045848 magnetization 

 DIPCOR: dipole corrections for dipol
 direction  3 min pos     1,
 dipolmoment           0.000000      0.000000     -0.018715 electrons x Angstroem
 Tr[quadrupol]    -10207.353486

 energy correction for charged system         0.000000 eV
 dipol+quadrupol energy correction           -0.000012 eV
 added-field ion interaction          0.002962 eV  (added to PSCEN)


 Broyden mixing:
  rms(total) = 0.61795E-01    rms(broyden)= 0.61773E-01
  rms(prec ) = 0.69734E-01
  weight for this iteration     100.00

 eigenvalues of (default mixing * dielectric matrix)
  average eigenvalue GAMMA=   0.7435
  2.2515  2.2515  1.2486  0.8018  0.8018  0.6288  0.4112  0.4112  0.3444  0.3444
  0.2788  0.2374  0.2081  0.1892

 Free energy of the ion-electron system (eV)
  ---------------------------------------------------
  alpha Z        PSCENC =       805.87231409
  Ewald energy   TEWEN  =    199456.92939288
  -Hartree energ DENC   =   -241623.57626362
  -exchange      EXHF   =         0.00000000
  -V(xc)+E(xc)   XCENC  =      -343.95606933
  PAW double counting   =     49231.78320225   -47310.31932256
  entropy T*S    EENTRO =        -0.28227017
  eigenvalues    EBANDS =     -2066.05315905
  atomic energy  EATOM  =     41659.78587232
  Solvation  Ediel_sol  =         0.00000000
  ---------------------------------------------------
  free energy    TOTEN  =      -189.81630319 eV

  energy without entropy =     -189.53403302  energy(sigma->0) =     -189.67516811


--------------------------------------------------------------------------------------------------------




----------------------------------------- Iteration    1(  20)  ---------------------------------------


    POTLOK:  cpu time    0.0400: real time    0.0401
    SETDIJ:  cpu time    0.0051: real time    0.0052
    EDDIAG:  cpu time    1.2828: real time    1.2860
  RMM-DIIS:  cpu time    3.4705: real time    3.4789
    ORTHCH:  cpu time    0.3423: real time    0.3431
       DOS:  cpu time    0.0014: real time    0.0014
    CHARGE:  cpu time    0.2180: real time    0.2186
    MIXING:  cpu time    0.0035: real time    0.0035
    --------------------------------------------
      LOOP:  cpu time    5.3643: real time    5.3795

 eigenvalue-minimisations  :  3679
 total energy-change (2. order) : 0.2595068E-02  (-0.2549191E-03)
 number of electron     503.9998361 magnetization 
 augmentation part      196.9910739 magnetization 

 DIPCOR: dipole corrections for dipol
 direction  3 min pos     1,
 dipolmoment           0.000000      0.000000     -0.014540 electrons x Angstroem
 Tr[quadrupol]    -10207.439172

 energy correction for charged system         0.000000 eV
 dipol+quadrupol energy correction           -0.000007 eV
 added-field ion interaction          0.002301 eV  (added to PSCEN)


 Broyden mixing:
  rms(total) = 0.42322E-01    rms(broyden)= 0.42317E-01
  rms(prec ) = 0.46516E-01
  weight for this iteration     100.00

 eigenvalues of (default mixing * dielectric matrix)
  average eigenvalue GAMMA=   0.7694
  2.3953  2.3953  1.2112  1.2112  0.7497  0.7497  0.4250  0.4250  0.3819  0.3819
  0.2888  0.2888  0.2395  0.2088  0.1897

 Free energy of the ion-electron system (eV)
  ---------------------------------------------------
  alpha Z        PSCENC =       805.87165816
  Ewald energy   TEWEN  =    199456.92939288
  -Hartree energ DENC   =   -241627.27194647
  -exchange      EXHF   =         0.00000000
  -V(xc)+E(xc)   XCENC  =      -343.94253298
  PAW double counting   =     49233.38139295   -47311.88123475
  entropy T*S    EENTRO =        -0.28141861
  eigenvalues    EBANDS =     -2062.40489162
  atomic energy  EATOM  =     41659.78587232
  Solvation  Ediel_sol  =         0.00000000
  ---------------------------------------------------
  free energy    TOTEN  =      -189.81370812 eV

  energy without entropy =     -189.53228951  energy(sigma->0) =     -189.67299882


--------------------------------------------------------------------------------------------------------




----------------------------------------- Iteration    1(  21)  ---------------------------------------


    POTLOK:  cpu time    0.0400: real time    0.0401
    SETDIJ:  cpu time    0.0051: real time    0.0051
    EDDIAG:  cpu time    1.2824: real time    1.2855
  RMM-DIIS:  cpu time    3.4449: real time    3.4559
    ORTHCH:  cpu time    0.3447: real time    0.3455
       DOS:  cpu time    0.0014: real time    0.0014
    CHARGE:  cpu time    0.2179: real time    0.2185
    MIXING:  cpu time    0.0037: real time    0.0037
    --------------------------------------------
      LOOP:  cpu time    5.3406: real time    5.3592

 eigenvalue-minimisations  :  3681
 total energy-change (2. order) : 0.9620614E-03  (-0.2840655E-03)
 number of electron     503.9998361 magnetization 
 augmentation part      196.9745924 magnetization 

 DIPCOR: dipole corrections for dipol
 direction  3 min pos     1,
 dipolmoment           0.000000      0.000000     -0.016057 electrons x Angstroem
 Tr[quadrupol]    -10207.560626

 energy correction for charged system         0.000000 eV
 dipol+quadrupol energy correction           -0.000009 eV
 added-field ion interaction          0.002541 eV  (added to PSCEN)


 Broyden mixing:
  rms(total) = 0.30285E-01    rms(broyden)= 0.30278E-01
  rms(prec ) = 0.34355E-01
  weight for this iteration     100.00

 eigenvalues of (default mixing * dielectric matrix)
  average eigenvalue GAMMA=   0.7831
  2.6270  2.2612  1.4258  1.4258  0.7147  0.7147  0.5454  0.5454  0.3848  0.3848
  0.3064  0.3064  0.2640  0.1896  0.2087  0.2251

 Free energy of the ion-electron system (eV)
  ---------------------------------------------------
  alpha Z        PSCENC =       805.87189666
  Ewald energy   TEWEN  =    199456.92939288
  -Hartree energ DENC   =   -241632.77938862
  -exchange      EXHF   =         0.00000000
  -V(xc)+E(xc)   XCENC  =      -343.91952575
  PAW double counting   =     49234.48389648   -47312.95361053
  entropy T*S    EENTRO =        -0.28203612
  eigenvalues    EBANDS =     -2056.94924338
  atomic energy  EATOM  =     41659.78587232
  Solvation  Ediel_sol  =         0.00000000
  ---------------------------------------------------
  free energy    TOTEN  =      -189.81274606 eV

  energy without entropy =     -189.53070994  energy(sigma->0) =     -189.67172800


--------------------------------------------------------------------------------------------------------




----------------------------------------- Iteration    1(  22)  ---------------------------------------


    POTLOK:  cpu time    0.0404: real time    0.0405
    SETDIJ:  cpu time    0.0051: real time    0.0052
    EDDIAG:  cpu time    1.2755: real time    1.2792
  RMM-DIIS:  cpu time    3.4802: real time    3.4893
    ORTHCH:  cpu time    0.3427: real time    0.3436
       DOS:  cpu time    0.0014: real time    0.0014
    CHARGE:  cpu time    0.2150: real time    0.2155
    MIXING:  cpu time    0.0039: real time    0.0039
    --------------------------------------------
      LOOP:  cpu time    5.3647: real time    5.3809

 eigenvalue-minimisations  :  3679
 total energy-change (2. order) : 0.2530027E-03  (-0.1210060E-03)
 number of electron     503.9998361 magnetization 
 augmentation part      196.9803643 magnetization 

 DIPCOR: dipole corrections for dipol
 direction  3 min pos     1,
 dipolmoment           0.000000      0.000000     -0.016048 electrons x Angstroem
 Tr[quadrupol]    -10207.637686

 energy correction for charged system         0.000000 eV
 dipol+quadrupol energy correction           -0.000009 eV
 added-field ion interaction          0.002540 eV  (added to PSCEN)


 Broyden mixing:
  rms(total) = 0.21437E-01    rms(broyden)= 0.21431E-01
  rms(prec ) = 0.23802E-01
  weight for this iteration     100.00

 eigenvalues of (default mixing * dielectric matrix)
  average eigenvalue GAMMA=   0.7878
  2.6625  2.1179  1.9150  1.3940  0.7143  0.7143  0.7003  0.5858  0.3887  0.3887
  0.3316  0.3244  0.2877  0.1895  0.2085  0.2441  0.2255

 Free energy of the ion-electron system (eV)
  ---------------------------------------------------
  alpha Z        PSCENC =       805.87189534
  Ewald energy   TEWEN  =    199456.92939288
  -Hartree energ DENC   =   -241635.86443398
  -exchange      EXHF   =         0.00000000
  -V(xc)+E(xc)   XCENC  =      -343.91940615
  PAW double counting   =     49235.02066549   -47313.56642845
  entropy T*S    EENTRO =        -0.28160358
  eigenvalues    EBANDS =     -2053.78844691
  atomic energy  EATOM  =     41659.78587232
  Solvation  Ediel_sol  =         0.00000000
  ---------------------------------------------------
  free energy    TOTEN  =      -189.81249306 eV

  energy without entropy =     -189.53088947  energy(sigma->0) =     -189.67169127


--------------------------------------------------------------------------------------------------------




----------------------------------------- Iteration    1(  23)  ---------------------------------------


    POTLOK:  cpu time    0.0412: real time    0.0414
    SETDIJ:  cpu time    0.0057: real time    0.0058
    EDDIAG:  cpu time    1.2767: real time    1.2798
  RMM-DIIS:  cpu time    3.4695: real time    3.4781
[...]
    275       1.7999      0.00000
    276       1.8610      0.00000
    277       2.2043      0.00000
    278       2.2697      0.00000
    279       2.3634      0.00000
    280       2.4518      0.00000
    281       2.5404      0.00000
    282       2.6644      0.00000
    283       2.7248      0.00000
    284       2.9328      0.00000
    285       3.1141      0.00000
    286       3.1952      0.00000
    287       3.5534      0.00000
    288       3.6817      0.00000
    289       3.8200      0.00000
    290       4.0315      0.00000
    291       4.1156      0.00000
    292       4.2141      0.00000
    293       4.5022      0.00000
    294       4.5425      0.00000
    295       4.5939      0.00000
    296       4.6305      0.00000
    297       4.6428      0.00000
    298       4.8049      0.00000
    299       4.8766      0.00000
    300       4.9254      0.00000
    301       5.0250      0.00000
    302       5.0448      0.00000
    303       5.0741      0.00000
    304       5.0835      0.00000
    305       5.2109      0.00000
    306       5.2373      0.00000


--------------------------------------------------------------------------------------------------------


 soft charge-density along one line, spin component           1
         0         1         2         3         4         5         6         7         8         9
 total charge-density along one line
 
 pseudopotential strength for first ion, spin component:           1
 -8.056   0.001  -0.004  -0.003   0.001  -8.202   0.001  -0.003
  0.001  -7.984   0.000   0.003  -0.001   0.001  -8.132   0.000
 -0.004   0.000  -7.979   0.003  -0.002  -0.003   0.000  -8.127
 -0.003   0.003   0.003  -7.982   0.001  -0.003   0.003   0.002
  0.001  -0.001  -0.002   0.001  -8.056   0.001  -0.001  -0.002
 -8.202   0.001  -0.003  -0.003   0.001  -8.333   0.001  -0.003
  0.001  -8.132   0.000   0.003  -0.001   0.001  -8.264   0.000
 -0.003   0.000  -8.127   0.002  -0.002  -0.003   0.000  -8.259
 -0.003   0.003   0.002  -8.130   0.001  -0.003   0.002   0.002
  0.001  -0.001  -0.002   0.001  -8.202   0.001  -0.001  -0.002
 -0.002   0.001  -0.024  -0.000  -0.001  -0.002   0.001  -0.024
 -0.002   0.001  -0.035  -0.001  -0.002  -0.002   0.001  -0.035
 -0.005  -0.007   0.002  -0.000   0.003  -0.005  -0.007   0.002
 -0.000  -0.003  -0.010  -0.004  -0.000  -0.000  -0.003  -0.009
 -0.003  -0.000   0.003  -0.007  -0.005  -0.003  -0.000   0.003
 -0.006  -0.007   0.003  -0.000   0.004  -0.006  -0.007   0.003
 -0.000  -0.004  -0.011  -0.005   0.000  -0.000  -0.004  -0.010
 -0.004  -0.000   0.004  -0.007  -0.006  -0.004  -0.000   0.004
 total augmentation occupancy for first ion, spin component:           1
  4.686   0.012   0.097  -0.006   0.155  -2.856  -0.014  -0.103  -0.038  -0.137   0.105  -0.053   0.044  -0.006  -0.009  -0.007
  0.012   4.107   0.032   0.015   0.017  -0.013  -1.862  -0.026  -0.012  -0.047  -0.020   0.003  -0.134  -0.007  -0.005  -0.000
  0.097   0.032   4.477   0.088   0.057  -0.103  -0.026  -2.384  -0.064  -0.062   1.063  -0.199  -0.029  -0.216  -0.049   0.003
 -0.006   0.015   0.088   4.117   0.015  -0.037  -0.012  -0.064  -1.876  -0.014  -0.003  -0.004  -0.006  -0.016  -0.147   0.000
  0.155   0.017   0.057   0.015   4.568  -0.137  -0.048  -0.062  -0.014  -2.741   0.066  -0.026  -0.054  -0.006   0.046   0.005
 -2.856  -0.013  -0.103  -0.037  -0.137   2.911   0.014   0.107   0.071   0.123  -0.091   0.048  -0.036   0.006   0.010   0.003
 -0.014  -1.862  -0.026  -0.012  -0.048   0.014   1.585   0.022   0.009   0.071   0.019  -0.003   0.126   0.008   0.005  -0.004
 -0.103  -0.026  -2.384  -0.064  -0.062   0.107   0.022   2.233   0.046   0.064  -0.997   0.215   0.025   0.232   0.042  -0.001
 -0.038  -0.012  -0.064  -1.876  -0.014   0.071   0.009   0.046   1.603   0.013   0.006  -0.001   0.006   0.014   0.137  -0.000
 -0.137  -0.047  -0.062  -0.014  -2.741   0.123   0.071   0.064   0.013   2.799  -0.056   0.025   0.047   0.005  -0.038  -0.002
  0.105  -0.020   1.063  -0.003   0.066  -0.091   0.019  -0.997   0.006  -0.056   2.485  -0.535  -0.011   0.115  -0.022   0.000
 -0.053   0.003  -0.199  -0.004  -0.026   0.048  -0.003   0.215  -0.001   0.025  -0.535   0.155   0.013  -0.045   0.022  -0.000
  0.044  -0.134  -0.029  -0.006  -0.054  -0.036   0.126   0.025   0.006   0.047  -0.011   0.013   0.202   0.002  -0.002  -0.006
 -0.006  -0.007  -0.216  -0.016  -0.006   0.006   0.008   0.232   0.014   0.005   0.115  -0.045   0.002   0.096   0.002  -0.000
 -0.009  -0.005  -0.049  -0.147   0.046   0.010   0.005   0.042   0.137  -0.038  -0.022   0.022  -0.002   0.002   0.198   0.000
 -0.007  -0.000   0.003   0.000   0.005   0.003  -0.004  -0.001  -0.000  -0.002   0.000  -0.000  -0.006  -0.000   0.000   0.000
 -0.000  -0.003  -0.005  -0.005   0.000  -0.000   0.001  -0.004   0.001  -0.000  -0.008   0.002  -0.000  -0.003  -0.000   0.000
 -0.004  -0.000   0.005  -0.000  -0.007   0.001  -0.000  -0.002  -0.004   0.003   0.001  -0.001   0.000  -0.000  -0.006  -0.000


------------------------ aborting loop because EDIFF is reached ----------------------------------------


    CHARGE:  cpu time    0.2119: real time    0.2125
    FORLOC:  cpu time    0.0159: real time    0.0159
    FORNL :  cpu time    1.3328: real time    1.3361
    FORCOR:  cpu time    0.0562: real time    0.0563
    FORHAR:  cpu time    0.0241: real time    0.0241
    MIXING:  cpu time    0.0026: real time    0.0026
    OFIELD:  cpu time    0.0000: real time    0.0000

 VOLUME and BASIS-vectors are now :
 -----------------------------------------------------------------------------
  energy-cutoff  :      400.00
  volume of cell :     2567.68
      direct lattice vectors                 reciprocal lattice vectors
    11.002581515  0.000000000  0.000000000     0.090887761 -0.052474073  0.000000000
     5.501290758  9.528515099  0.000000000     0.000000000  0.104948147  0.000000000
     0.000000000  0.000000000 24.491785094     0.000000000  0.000000000  0.040830017

  length of vectors
    11.002581515 11.002581515 24.491785094     0.104948147  0.104948147  0.040830017


 FORCES acting on ions
    electron-ion (+dipol)            ewald-force                    non-local-force                 convergence-correction
 -----------------------------------------------------------------------------------------------
   -.199E+02 -.124E+02 0.221E+04   0.208E+02 0.129E+02 -.220E+04   -.502E+00 -.350E+00 -.590E+00   0.122E-01 0.126E-01 0.692E-02
   -.351E+01 0.120E+02 0.222E+04   0.416E+01 -.127E+02 -.222E+04   -.466E+00 0.439E+00 -.339E+00   -.419E-01 -.266E-01 -.574E-02
   -.870E+01 0.720E+01 0.221E+04   0.905E+01 -.754E+01 -.221E+04   -.202E+00 0.191E+00 -.265E+00   -.145E-01 0.164E-01 0.172E-02
   -.998E+01 -.245E+01 -.225E+04   0.105E+02 0.321E+01 0.225E+04   -.511E+00 -.761E+00 0.103E+00   0.273E-02 -.597E-02 0.129E-01
   0.104E+02 0.145E+02 0.221E+04   -.110E+02 -.147E+02 -.221E+04   0.446E+00 0.771E-01 0.202E+00   -.309E-01 -.312E-02 0.608E-02
   0.687E+01 -.108E+01 -.219E+04   -.739E+01 0.120E+01 0.219E+04   0.523E+00 -.125E+00 0.614E+00   0.170E-02 0.126E-01 -.120E-01
   0.139E+02 -.392E+01 -.223E+04   -.143E+02 0.384E+01 0.223E+04   0.406E+00 0.783E-01 0.652E+00   0.321E-03 -.110E-01 0.412E-02
   -.474E+01 -.397E+01 -.225E+04   0.512E+01 0.428E+01 0.225E+04   -.391E+00 -.314E+00 0.288E+00   0.721E-02 0.448E-02 -.603E-02
   0.809E+01 0.161E+02 -.226E+04   -.822E+01 -.169E+02 0.226E+04   0.133E+00 0.794E+00 0.269E+00   -.244E-01 -.809E-03 0.218E-01
   0.993E+01 0.579E+01 -.140E+02   -.104E+02 -.631E+01 0.140E+02   0.487E+00 0.527E+00 -.297E-01   -.190E-01 -.314E-02 0.849E-02
   -.200E+02 -.230E+01 -.225E+04   0.211E+02 0.188E+01 0.225E+04   -.109E+01 0.414E+00 0.154E+00   -.326E-02 0.981E-02 0.110E-01
   -.262E+01 -.297E+01 -.134E+02   0.295E+01 0.320E+01 0.140E+02   -.289E+00 -.249E+00 -.648E+00   -.454E-01 0.149E-01 0.241E-01
   -.623E+01 -.971E+01 -.223E+04   0.667E+01 0.103E+02 0.223E+04   -.442E+00 -.610E+00 0.308E+00   -.193E-02 0.191E-01 0.278E-02
   0.463E+00 -.136E+01 0.222E+04   -.180E+00 0.153E+01 -.222E+04   -.227E+00 -.116E+00 0.203E+00   0.112E-01 0.162E-01 0.102E-01
   0.634E+01 0.461E+01 -.153E+02   -.641E+01 -.374E+01 0.155E+02   0.548E-01 -.891E+00 -.196E+00   0.163E-01 0.322E-01 -.115E-01
   0.273E+00 0.358E+01 -.226E+04   -.433E+00 -.381E+01 0.226E+04   0.141E+00 0.218E+00 -.596E-01   0.213E-01 0.772E-02 0.206E-01
   0.142E+02 -.125E+02 0.221E+04   -.152E+02 0.128E+02 -.221E+04   0.593E+00 -.701E-01 -.669E+00   0.784E-02 -.127E-01 0.877E-02
   0.594E+01 -.151E+02 -.222E+04   -.617E+01 0.156E+02 0.222E+04   0.226E+00 -.465E+00 0.608E+00   -.769E-02 -.245E-01 -.561E-02
   -.642E+01 -.197E+02 0.222E+04   0.668E+01 0.207E+02 -.222E+04   -.160E+00 -.627E+00 -.196E+00   0.322E-01 -.940E-02 0.777E-02
   -.922E+01 -.498E+01 0.274E+02   0.846E+01 0.471E+01 -.273E+02   0.724E+00 0.292E+00 -.116E+00   0.392E-01 -.190E-01 0.253E-01
   0.385E+00 0.287E+01 0.194E+01   0.206E+00 -.322E+01 -.302E+01   -.624E+00 0.344E+00 0.106E+01   0.372E-01 0.302E-02 0.131E-01
   0.114E+02 0.102E+02 -.226E+04   -.121E+02 -.109E+02 0.226E+04   0.619E+00 0.730E+00 -.563E-02   0.550E-02 -.477E-02 0.268E-01
   0.148E+02 0.267E+01 0.221E+04   -.155E+02 -.260E+01 -.221E+04   0.477E+00 -.600E-01 -.559E+00   -.879E-02 -.393E-02 0.140E-01
   -.640E+01 0.106E+02 0.221E+04   0.642E+01 -.114E+02 -.221E+04   -.176E-01 0.555E+00 -.297E+00   0.120E-01 0.383E-01 -.394E-02
   0.122E+01 0.816E-01 -.172E+02   -.138E+01 0.132E-01 0.177E+02   0.176E+00 -.834E-01 -.417E+00   -.150E-01 -.923E-02 0.766E-02
   0.118E+02 0.191E+02 -.195E+04   -.122E+02 -.193E+02 0.195E+04   0.319E+00 0.226E+00 0.153E+01   0.598E-02 -.180E-02 0.150E-01
   -.583E+01 -.115E+01 -.359E+02   0.568E+01 0.141E+01 0.358E+02   0.149E+00 -.292E+00 0.407E-01   0.762E-03 0.312E-01 0.111E-01
   0.702E+01 0.660E+01 0.203E+04   -.738E+01 -.683E+01 -.202E+04   0.186E+00 0.789E-01 -.153E+01   0.322E-01 0.106E-01 -.303E-02
   0.765E+01 0.644E+00 0.351E+02   -.709E+01 -.900E+00 -.351E+02   -.547E+00 0.283E+00 0.551E-01   -.164E-01 -.270E-01 0.325E-02
   -.231E+00 -.231E+00 0.486E+02   0.713E+00 0.239E-01 -.483E+02   -.465E+00 0.221E+00 -.344E+00   -.160E-01 -.197E-01 0.261E-01
   0.796E+01 -.102E+02 0.203E+04   -.832E+01 0.104E+02 -.203E+04   0.218E+00 -.704E-01 -.180E+01   0.943E-02 -.260E-01 -.607E-02
   -.139E+02 -.137E+02 -.195E+04   0.141E+02 0.140E+02 0.195E+04   -.198E+00 -.275E+00 0.153E+01   0.101E-01 -.127E-01 -.156E-01
   -.286E+00 0.110E+01 -.197E+04   0.175E+00 -.136E+01 0.197E+04   0.109E+00 0.264E+00 0.185E+01   0.692E-02 0.560E-02 -.204E-02
   -.873E+01 -.478E+01 -.194E+04   0.871E+01 0.498E+01 0.194E+04   0.160E-01 -.203E+00 0.191E+01   -.293E-02 0.704E-03 -.178E-01
   -.134E+02 0.830E+01 -.198E+04   0.138E+02 -.845E+01 0.198E+04   -.381E+00 0.142E+00 0.157E+01   -.523E-02 0.936E-02 0.207E-01
   -.259E+01 -.224E+01 0.682E+01   0.299E+01 0.208E+01 -.772E+01   -.416E+00 0.165E+00 0.894E+00   0.964E-02 0.228E-02 0.110E-01
   0.135E+00 0.161E+01 0.435E+02   -.599E+00 -.157E+01 -.435E+02   0.448E+00 -.160E-01 -.138E-01   0.587E-02 -.261E-01 0.205E-01
   -.511E+01 -.123E+02 0.202E+04   0.527E+01 0.128E+02 -.202E+04   -.104E+00 -.329E+00 -.172E+01   -.335E-02 0.419E-02 0.802E-02
   -.203E+02 0.109E+02 0.202E+04   0.208E+02 -.112E+02 -.202E+04   -.215E+00 0.131E+00 -.174E+01   -.191E-01 0.136E-01 -.142E-01
   0.191E+02 -.191E+01 -.195E+04   -.195E+02 0.204E+01 0.195E+04   0.388E+00 -.136E+00 0.180E+01   0.102E-01 0.113E-01 -.425E-02
   0.312E+01 0.133E+02 0.202E+04   -.293E+01 -.137E+02 -.202E+04   -.198E+00 0.181E+00 -.177E+01   0.146E-01 -.137E-02 0.809E-02
   0.206E+01 0.356E+00 0.202E+04   -.227E+01 -.428E+00 -.202E+04   0.168E+00 0.642E-01 -.179E+01   -.100E-02 -.545E-02 0.398E-02
   -.114E+01 -.255E+01 0.127E+02   0.990E+00 0.270E+01 -.136E+02   0.154E+00 -.138E+00 0.898E+00   0.584E-02 -.889E-02 0.682E-02
   -.576E+01 -.145E+01 -.113E+02   0.584E+01 0.129E+01 0.118E+02   -.825E-01 0.144E+00 -.510E+00   0.106E-01 0.476E-02 -.631E-02
   0.104E+02 -.916E+01 0.202E+04   -.104E+02 0.940E+01 -.202E+04   0.202E-01 -.911E-01 -.192E+01   -.149E-01 -.205E-01 0.913E-02
   -.143E+01 0.368E+01 0.546E+01   0.172E+01 -.305E+01 -.543E+01   -.297E+00 -.617E+00 -.441E-01   0.452E-02 -.146E-02 0.185E-01
   0.724E+01 0.392E+01 -.362E+01   -.749E+01 -.371E+01 0.365E+01   0.250E+00 -.224E+00 -.403E-01   -.232E-02 0.957E-02 -.659E-04
   -.433E+01 -.744E+01 0.913E+01   0.396E+01 0.692E+01 -.963E+01   0.346E+00 0.499E+00 0.469E+00   0.191E-01 0.150E-01 0.334E-01
 -----------------------------------------------------------------------------------------------
   -.918E-02 0.434E-01 0.261E+00   -.302E-12 -.304E-12 -.153E-11   -.487E-01 -.542E-01 -.616E+00   0.588E-01 0.204E-01 0.315E+00
 
 
 POSITION                                       TOTAL-FORCE (eV/Angst)
 -----------------------------------------------------------------------------------
      1.37532      0.79404     10.00000         0.335252      0.197302     -0.009662
      5.50129      3.17617     10.00000         0.136898     -0.224437     -0.264933
      5.50129      7.94043     10.00000         0.133184     -0.132649     -0.114896
      2.76873      4.78057     14.95557         0.001579     -0.007651      0.001202
      4.12597      5.55830     10.00000        -0.184188     -0.148371     -0.289474
      1.36901      2.38749     14.89140         0.004300      0.002350      0.003295
     -0.02087     -0.00378     14.91595        -0.000684     -0.009441      0.005006
      2.75662      0.00158     14.96741        -0.007182     -0.002134      0.009719
      6.86831      7.11227     14.96263        -0.018273     -0.004182      0.006450
      4.10396      3.94370     12.45766         0.005003      0.004079      0.003499
      4.16780      2.37160     14.95519        -0.000849      0.004036     -0.002174
      5.51666      6.35883     12.46189        -0.009305     -0.007914     -0.005138
     12.38371      7.16395     14.93438        -0.001722      0.007223      0.002804
     11.00258      7.94043     10.00000         0.067317      0.069600     -0.297638
      9.62147      8.76109     12.45696         0.000083      0.013571     -0.002531
      9.61791      7.13068     14.99530         0.002438      0.003325      0.003492
      9.62726      0.79404     10.00000        -0.346688      0.162038     -0.102546
      8.23538      0.02991     14.88238        -0.008174     -0.008559      0.004544
     11.00258      3.17617     10.00000         0.133736      0.309600     -0.162126
      9.60440      3.95380     12.41081        -0.004449     -0.003093      0.003980
     11.01359      6.34163     12.42707         0.004318     -0.000887      0.001452
     10.97529      4.74514     14.98825        -0.004220     -0.008921     -0.002714
     13.75323      7.94043     10.00000        -0.213193     -0.000030     -0.073454
      8.25194      7.94043     10.00000         0.017673     -0.208489     -0.083708
     15.11765      8.75334     12.46107        -0.006693      0.001951      0.004141
      8.23318      4.74302     14.77227        -0.001388     -0.011319      0.001723
      6.86773      8.74555     12.48257        -0.001491      0.002156      0.001296
      9.62726      5.55830     10.00000        -0.149436     -0.136101      0.172289
      5.51751      1.58518     12.40021        -0.009165      0.000379      0.006605
      6.87984      3.95906     12.38610         0.000493     -0.005715      0.010295
      8.25194      3.17617     10.00000        -0.139184      0.105028      0.093556
      5.50588      0.00801     14.79709         0.007103     -0.001053      0.007345
      4.12289      7.14124     14.81207         0.006269      0.004866     -0.001033
      6.87764      2.39751     14.73660        -0.001243      0.000240     -0.004708
      5.51813      4.75155     14.80192        -0.002578      0.000224      0.006001
     12.37485      3.95951     12.43039        -0.007082      0.000643     -0.003128
      8.23373      1.57105     12.38660        -0.009883      0.000265      0.011628
      4.12597      0.79404     10.00000         0.061403      0.160840      0.215336
      6.87661      5.55830     10.00000         0.253437     -0.100571      0.161465
      9.60297      2.38712     14.77476        -0.008112      0.006543      0.004096
     12.37790      5.55830     10.00000         0.015716     -0.150555      0.224208
      2.75065      3.17617     10.00000        -0.044058     -0.014015      0.266676
      2.74094      1.58631     12.42415         0.008671     -0.003758      0.000809
     11.00718      1.57151     12.45479         0.002391     -0.002764      0.002205
      6.87661      0.79404     10.00000        -0.016026      0.136666      0.192474
     12.39321      8.75130     12.43429         0.002709      0.009228      0.004501
     13.74132      6.35782     12.44544         0.000933     -0.006363     -0.007688
      8.24349      6.34899     12.42918        -0.005643     -0.003184     -0.004540
 -----------------------------------------------------------------------------------
    total drift:                                0.000891      0.009603     -0.039534


--------------------------------------------------------------------------------------------------------



  FREE ENERGIE OF THE ION-ELECTRON SYSTEM (eV)
  ---------------------------------------------------
  free  energy   TOTEN  =      -193.00157594 eV

  energy  without entropy=     -192.74904527  energy(sigma->0) =     -192.87531060
 
 d Force = 0.3632797E-03[-0.452E-04, 0.772E-03]  d Energy = 0.3303560E-03 0.329E-04
 d Force = 0.4174056E+02[ 0.417E+02, 0.417E+02]  d Ewald  = 0.4174057E+02-0.459E-05


--------------------------------------------------------------------------------------------------------


    POTLOK:  cpu time    0.0469: real time    0.0470


--------------------------------------------------------------------------------------------------------


 stress matrix after NEB project (eV)
      0.00000      0.00000      0.00000
      0.00000      0.00000      0.00000
      0.00000      0.00000      0.00000
  FORCES: max atom, RMS     0.019824    0.008081
  FORCE total and by dimension    0.055987    0.018273
  Stress total and by dimension    0.000000    0.000000
 Conjugate gradient step on ions:
 trial-energy change:   -0.000330  1 .order   -0.000363   -0.000772    0.000045
  (g-gl).g = 0.257E-03      g.g   = 0.252E-03  gl.gl    = 0.514E-03
 g(Force)  = 0.252E-03   g(Stress)= 0.000E+00 ortho     = 0.802E-05
 gamma     =   0.49965
 trial     =   3.00940
 opt step  =   2.79477  (harmonic =   2.84297) maximal distance =0.00426552
 next E    =  -193.001578   (d E  =  -0.00033)


--------------------------------------------------------------------------------------------------------


  
 reached required accuracy - stopping structural energy minimisation
     LOOP+:  cpu time   45.8439: real time   46.1087
    4ORBIT:  cpu time    0.0000: real time    0.0000

 total amount of memory used by VASP on root node    84353. kBytes
========================================================================

   base      :      30000. kBytes
   nonlr-proj:       4285. kBytes
   fftplans  :       4447. kBytes
   grid      :       6721. kBytes
   one-center:        124. kBytes
   wavefun   :      38776. kBytes
 
  
  
 General timing and accounting informations for this job:
 ========================================================
  
                  Total CPU time used (sec):     1371.706
                            User time (sec):     1309.800
                          System time (sec):       61.907
                         Elapsed time (sec):     1379.995
  
                   Maximum memory used (kb):      758988.
                   Average memory used (kb):           0.
  
                          Minor page faults:       500808
                          Major page faults:            2
                 Voluntary context switches:         8080
