unknown system                          
           1
    11.002582    0.000000    0.000000
     5.501291    9.528515    0.000000
     0.000000    0.000000   24.491785
   Au   Pd
  24  24
Direct configuration=     1
   0.08333333  0.08333333  0.40830017
   0.33333333  0.33333333  0.40830017
   0.08333333  0.83333333  0.40830017
   0.00000000  0.50000000  0.59169983
   0.08333333  0.58333333  0.40830017
   0.00000000  0.25000000  0.59169983
   0.00000000  0.00000000  0.59169983
   0.25000000  0.00000000  0.59169983
   0.25000000  0.75000000  0.59169983
   0.16666667  0.41666667  0.50000000
   0.25000000  0.25000000  0.59169983
   0.16666667  0.66666667  0.50000000
   0.75000000  0.75000000  0.59169983
   0.58333333  0.83333333  0.40830017
   0.41666667  0.91666667  0.50000000
   0.50000000  0.75000000  0.59169983
   0.83333333  0.08333333  0.40830017
   0.75000000  0.00000000  0.59169983
   0.83333333  0.33333333  0.40830017
   0.66666667  0.41666667  0.50000000
   0.66666667  0.66666667  0.50000000
   0.75000000  0.50000000  0.59169983
   0.83333333  0.83333333  0.40830017
   0.33333333  0.83333333  0.40830017
   0.91666667  0.91666667  0.50000000
   0.50000000  0.50000000  0.59169983
   0.16666667  0.91666667  0.50000000
   0.58333333  0.58333333  0.40830017
   0.41666667  0.16666667  0.50000000
   0.41666667  0.41666667  0.50000000
   0.58333333  0.33333333  0.40830017
   0.50000000  0.00000000  0.59169983
   0.00000000  0.75000000  0.59169983
   0.50000000  0.25000000  0.59169983
   0.25000000  0.50000000  0.59169983
   0.91666667  0.41666667  0.50000000
   0.66666667  0.16666667  0.50000000
   0.33333333  0.08333333  0.40830017
   0.33333333  0.58333333  0.40830017
   0.75000000  0.25000000  0.59169983
   0.83333333  0.58333333  0.40830017
   0.08333333  0.33333333  0.40830017
   0.16666667  0.16666667  0.50000000
   0.91666667  0.16666667  0.50000000
   0.58333333  0.08333333  0.40830017
   0.66666667  0.91666667  0.50000000
   0.91666667  0.66666667  0.50000000
   0.41666667  0.66666667  0.50000000
Direct configuration=     2
   0.08333333  0.08333333  0.40830017
   0.33333333  0.33333333  0.40830017
   0.08333333  0.83333333  0.40830017
   0.00020577  0.50094429  0.59361097
   0.08333333  0.58333333  0.40830017
  -0.00070740  0.24998512  0.59328260
  -0.00079795  0.00005418  0.59321455
   0.25010257  0.00033150  0.59360062
   0.25030137  0.74873769  0.59354382
   0.16674666  0.41576314  0.49999072
   0.25182369  0.24949140  0.59359017
   0.16721388  0.66676614  0.50043666
   0.75036028  0.75105231  0.59357452
   0.58333333  0.83333333  0.40830017
   0.41586461  0.91874639  0.49991592
   0.49965297  0.74968962  0.59393671
   0.83333333  0.08333333  0.40830017
   0.74927810  0.00076370  0.59313075
   0.83333333  0.33333333  0.40830017
   0.66539570  0.41585785  0.49999151
   0.66789270  0.66590479  0.49925018
   0.74979973  0.49888074  0.59389757
   0.83333333  0.83333333  0.40830017
   0.33333333  0.83333333  0.40830017
   0.91604582  0.91710117  0.50026239
   0.49972658  0.49916604  0.59263369
   0.16605163  0.91716379  0.49995494
   0.58333333  0.58333333  0.40830017
   0.41813176  0.16612066  0.49998925
   0.41784733  0.41613706  0.50024159
   0.58333333  0.33333333  0.40830017
   0.50009596  0.00075697  0.59268623
   0.00013653  0.74967166  0.59271261
   0.49978314  0.25051743  0.59233487
   0.25090653  0.49976417  0.59276176
   0.91733801  0.41628637  0.49951838
   0.66585854  0.16672915  0.50001725
   0.33333333  0.08333333  0.40830017
   0.33333333  0.58333333  0.40830017
   0.74915017  0.25013686  0.59257797
   0.83333333  0.58333333  0.40830017
   0.08333333  0.33333333  0.40830017
   0.16642449  0.16685311  0.49950226
   0.91676653  0.16634782  0.50022330
   0.58333333  0.08333333  0.40830017
   0.66646135  0.91817350  0.50001638
   0.91608054  0.66718758  0.49997228
   0.41656565  0.66534734  0.49976954
Direct configuration=     3
   0.08333333  0.08333333  0.40830017
   0.33333333  0.33333333  0.40830017
   0.08333333  0.83333333  0.40830017
   0.00080759  0.50370612  0.59920060
   0.08333333  0.58333333  0.40830017
  -0.00277639  0.24994159  0.59791183
  -0.00313179  0.00021264  0.59764476
   0.25040257  0.00130106  0.59916000
   0.25118282  0.74504570  0.59893707
   0.16698064  0.41312054  0.49996357
   0.25715758  0.24800388  0.59911898
   0.16881435  0.66705709  0.50171381
   0.75141401  0.75413007  0.59905755
   0.58333333  0.83333333  0.40830017
   0.41351877  0.92482910  0.49967000
   0.49863799  0.74878184  0.60047908
   0.83333333  0.08333333  0.40830017
   0.74716672  0.00299734  0.59731587
   0.83333333  0.33333333  0.40830017
   0.66167839  0.41349223  0.49996666
   0.67147855  0.66367646  0.49705713
   0.74921400  0.49560714  0.60032545
   0.83333333  0.83333333  0.40830017
   0.33333333  0.83333333  0.40830017
   0.91422999  0.91837199  0.50102983
   0.49892688  0.49672691  0.59536502
   0.16425280  0.91861777  0.49982315
   0.58333333  0.58333333  0.40830017
   0.42241684  0.16452372  0.49995782
   0.42130052  0.41458808  0.50094817
   0.58333333  0.33333333  0.40830017
   0.50037663  0.00297094  0.59557124
   0.00053587  0.74871133  0.59567474
   0.49914886  0.25203078  0.59419220
   0.25355790  0.49907443  0.59586766
   0.91930155  0.41517409  0.49810976
   0.66349494  0.16691191  0.50006770
   0.33333333  0.08333333  0.40830017
   0.33333333  0.58333333  0.40830017
   0.74666463  0.25053713  0.59514631
   0.83333333  0.58333333  0.40830017
   0.08333333  0.33333333  0.40830017
   0.16571619  0.16739840  0.49804647
   0.91705860  0.16541527  0.50087640
   0.58333333  0.08333333  0.40830017
   0.66586086  0.92258065  0.50006429
   0.91436627  0.66871113  0.49989119
   0.41627022  0.66148860  0.49909550
Direct configuration=     4
   0.08333333  0.08333333  0.40830017
   0.33333333  0.33333333  0.40830017
   0.08333333  0.83333333  0.40830017
   0.00131696  0.50310056  0.60141389
   0.08333333  0.58333333  0.40830017
  -0.00227410  0.25032806  0.59972369
  -0.00287326 -0.00044933  0.59968181
   0.25020771  0.00124256  0.60135594
   0.25120094  0.74523751  0.60134326
   0.16756022  0.41261710  0.50178361
   0.25692581  0.24854420  0.60138214
   0.16866533  0.66668034  0.50312390
   0.75042057  0.75414362  0.60113851
   0.58333333  0.83333333  0.40830017
   0.41370532  0.92391060  0.50154542
   0.49947369  0.74827482  0.60269191
   0.83333333  0.08333333  0.40830017
   0.74653854  0.00405753  0.59937022
   0.83333333  0.33333333  0.40830017
   0.66332079  0.41327420  0.50128491
   0.67083093  0.66353818  0.49918140
   0.74846816  0.49628135  0.60266383
   0.83333333  0.83333333  0.40830017
   0.33333333  0.83333333  0.40830017
   0.91379421  0.91888188  0.50238684
   0.49911835  0.49637334  0.59680735
   0.16438357  0.91870902  0.50154842
   0.58333333  0.58333333  0.40830017
   0.42208184  0.16572671  0.50080971
   0.41975819  0.41416471  0.50164952
   0.58333333  0.33333333  0.40830017
   0.50078573  0.00241698  0.59687962
   0.00086664  0.74890840  0.59700089
   0.49934165  0.25238815  0.59536343
   0.25381542  0.49831398  0.59720015
   0.91893444  0.41489204  0.49957289
   0.66406234  0.16609026  0.50081403
   0.33333333  0.08333333  0.40830017
   0.33333333  0.58333333  0.40830017
   0.74585513  0.25048635  0.59635194
   0.83333333  0.58333333  0.40830017
   0.08333333  0.33333333  0.40830017
   0.16542104  0.16779302  0.49943590
   0.91684201  0.16547384  0.50224265
   0.58333333  0.08333333  0.40830017
   0.66624429  0.92239550  0.50128606
   0.91443449  0.66885933  0.50125256
   0.41657666  0.66257434  0.50033725
Direct configuration=     5
   0.08333333  0.08333333  0.40830017
   0.33333333  0.33333333  0.40830017
   0.08333333  0.83333333  0.40830017
   0.00284505  0.50128389  0.60805374
   0.08333333  0.58333333  0.40830017
  -0.00076725  0.25148746  0.60515928
  -0.00209769 -0.00243526  0.60579297
   0.24962311  0.00106705  0.60794374
   0.25125528  0.74581292  0.60856184
   0.16929898  0.41110676  0.50724372
   0.25623050  0.25016516  0.60817159
   0.16821826  0.66555010  0.50735418
   0.74744024  0.75418428  0.60738138
   0.58333333  0.83333333  0.40830017
   0.41426497  0.92115507  0.50717168
   0.50198078  0.74675374  0.60933039
   0.83333333  0.08333333  0.40830017
   0.74465398  0.00723809  0.60553327
   0.83333333  0.33333333  0.40830017
   0.66824797  0.41262010  0.50523963
   0.66888806  0.66312336  0.50555423
   0.74623064  0.49830399  0.60967898
   0.83333333  0.83333333  0.40830017
   0.33333333  0.83333333  0.40830017
   0.91248687  0.92041155  0.50645786
   0.49969275  0.49531263  0.60113434
   0.16477588  0.91898279  0.50672423
   0.58333333  0.58333333  0.40830017
   0.42107687  0.16933565  0.50336540
   0.41513120  0.41289460  0.50375357
   0.58333333  0.33333333  0.40830017
   0.50201302  0.00075512  0.60080475
   0.00185894  0.74949959  0.60097933
   0.49992004  0.25346026  0.59887713
   0.25458797  0.49603263  0.60119763
   0.91783311  0.41404587  0.50396225
   0.66576453  0.16362530  0.50305301
   0.33333333  0.08333333  0.40830017
   0.33333333  0.58333333  0.40830017
   0.74342665  0.25033403  0.59996880
   0.83333333  0.58333333  0.40830017
   0.08333333  0.33333333  0.40830017
   0.16453560  0.16897688  0.50360419
   0.91619222  0.16564955  0.50634142
   0.58333333  0.08333333  0.40830017
   0.66739456  0.92184007  0.50495136
   0.91463917  0.66930391  0.50533665
   0.41749600  0.66583155  0.50406250
Direct configuration=     6
   0.08333333  0.08333333  0.40830017
   0.33333333  0.33333333  0.40830017
   0.08333333  0.83333333  0.40830017
   0.00303767  0.50105488  0.60889073
   0.08333333  0.58333333  0.40830017
  -0.00057730  0.25163360  0.60584446
  -0.00199992 -0.00268560  0.60656331
   0.24954942  0.00104492  0.60877417
   0.25126213  0.74588545  0.60947178
   0.16951816  0.41091637  0.50793200
   0.25614286  0.25036949  0.60902744
   0.16816190  0.66540763  0.50788743
   0.74706456  0.75418941  0.60816833
   0.58333333  0.83333333  0.40830017
   0.41433552  0.92080772  0.50788090
   0.50229681  0.74656200  0.61016720
   0.83333333  0.08333333  0.40830017
   0.74441643  0.00763902  0.60631015
   0.83333333  0.33333333  0.40830017
   0.66886906  0.41253765  0.50573815
   0.66864315  0.66307107  0.50635756
   0.74594859  0.49855895  0.61056328
   0.83333333  0.83333333  0.40830017
   0.33333333  0.83333333  0.40830017
   0.91232207  0.92060437  0.50697103
   0.49976516  0.49517893  0.60167978
   0.16482533  0.91901729  0.50737667
   0.58333333  0.58333333  0.40830017
   0.42095018  0.16979058  0.50368756
   0.41454794  0.41273450  0.50401880
   0.58333333  0.33333333  0.40830017
   0.50216772  0.00054564  0.60129954
   0.00198403  0.74957411  0.60148084
   0.49999294  0.25359541  0.59932005
   0.25468536  0.49574505  0.60170153
   0.91769428  0.41393920  0.50451556
   0.66597909  0.16331458  0.50333525
   0.33333333  0.08333333  0.40830017
   0.33333333  0.58333333  0.40830017
   0.74312053  0.25031482  0.60042473
   0.83333333  0.58333333  0.40830017
   0.08333333  0.33333333  0.40830017
   0.16442398  0.16912611  0.50412962
   0.91611031  0.16567170  0.50685809
   0.58333333  0.08333333  0.40830017
   0.66753956  0.92177006  0.50541339
   0.91466497  0.66935996  0.50585147
   0.41761189  0.66624214  0.50453209
Direct configuration=     7
   0.08333333  0.08333333  0.40830017
   0.33333333  0.33333333  0.40830017
   0.08333333  0.83333333  0.40830017
   0.00066996  0.50237107  0.60996162
   0.08333333  0.58333333  0.40830017
  -0.00126133  0.25145550  0.60671375
  -0.00179427 -0.00078774  0.60773385
   0.25013528  0.00075919  0.60992657
   0.25263458  0.74560802  0.61058400
   0.16550859  0.41313999  0.50875393
   0.25609426  0.24807377  0.61033712
   0.16828561  0.66695105  0.50836739
   0.74990773  0.75268776  0.60908004
   0.58333333  0.83333333  0.40830017
   0.41478216  0.92069071  0.50879801
   0.49975440  0.74792704  0.61136528
   0.83333333  0.08333333  0.40830017
   0.74575743  0.00453307  0.60752116
   0.83333333  0.33333333  0.40830017
   0.66594025  0.41387802  0.50652532
   0.66874086  0.66500531  0.50771644
   0.74843146  0.49721415  0.61179576
   0.83333333  0.83333333  0.40830017
   0.33333333  0.83333333  0.40830017
   0.91427833  0.91951831  0.50801968
   0.49879831  0.49759695  0.60224831
   0.16501329  0.91827437  0.50878792
   0.58333333  0.58333333  0.40830017
   0.41952960  0.16658222  0.50491797
   0.41749757  0.41543004  0.50457253
   0.58333333  0.33333333  0.40830017
   0.50018956  0.00143930  0.60226013
   0.00012614  0.74933670  0.60270514
   0.49923955  0.25242603  0.60027829
   0.25361681  0.49786315  0.60310604
   0.91787626  0.41535841  0.50622135
   0.66633696  0.16495359  0.50416986
   0.33333333  0.08333333  0.40830017
   0.33333333  0.58333333  0.40830017
   0.74639763  0.25065007  0.60157459
   0.83333333  0.58333333  0.40830017
   0.08333333  0.33333333  0.40830017
   0.16571106  0.16729933  0.50579880
   0.91766066  0.16461161  0.50802847
   0.58333333  0.08333333  0.40830017
   0.66708771  0.91887875  0.50665447
   0.91479360  0.66772137  0.50721398
   0.41694951  0.66573477  0.50612872
Direct configuration=     8
   0.08333333  0.08333333  0.40830017
   0.33333333  0.33333333  0.40830017
   0.08333333  0.83333333  0.40830017
   0.00039333  0.50252484  0.61008673
   0.08333333  0.58333333  0.40830017
  -0.00134125  0.25143469  0.60681531
  -0.00177025 -0.00056601  0.60787060
   0.25020373  0.00072581  0.61006121
   0.25279493  0.74557561  0.61071395
   0.16504015  0.41339978  0.50884996
   0.25608859  0.24780556  0.61049013
   0.16830006  0.66713138  0.50842346
   0.75023991  0.75251232  0.60918656
   0.58333333  0.83333333  0.40830017
   0.41483434  0.92067703  0.50890516
   0.49945736  0.74808651  0.61150526
   0.83333333  0.08333333  0.40830017
   0.74591411  0.00417019  0.60766265
   0.83333333  0.33333333  0.40830017
   0.66559807  0.41403462  0.50661729
   0.66875228  0.66523130  0.50787520
   0.74872154  0.49705704  0.61193975
   0.83333333  0.83333333  0.40830017
   0.33333333  0.83333333  0.40830017
   0.91450688  0.91939142  0.50814220
   0.49868535  0.49787946  0.60231473
   0.16503525  0.91818757  0.50895280
   0.58333333  0.58333333  0.40830017
   0.41936363  0.16620738  0.50506172
   0.41784218  0.41574497  0.50463722
   0.58333333  0.33333333  0.40830017
   0.49995844  0.00154371  0.60237236
  -0.00009093  0.74930896  0.60284818
   0.49915153  0.25228941  0.60039024
   0.25349197  0.49811061  0.60327013
   0.91789753  0.41552422  0.50642064
   0.66637877  0.16514507  0.50426737
   0.33333333  0.08333333  0.40830017
   0.33333333  0.58333333  0.40830017
   0.74678050  0.25068924  0.60170893
   0.83333333  0.58333333  0.40830017
   0.08333333  0.33333333  0.40830017
   0.16586143  0.16708590  0.50599381
   0.91784179  0.16448775  0.50816521
   0.58333333  0.08333333  0.40830017
   0.66703492  0.91854095  0.50679947
   0.91480862  0.66752993  0.50737317
   0.41687212  0.66567550  0.50631526
Direct configuration=     9
   0.08333333  0.08333333  0.40830017
   0.33333333  0.33333333  0.40830017
   0.08333333  0.83333333  0.40830017
   0.00061075  0.50192560  0.61033796
   0.08333333  0.58333333  0.40830017
  -0.00078692  0.25096298  0.60703014
  -0.00144895 -0.00043826  0.60821491
   0.24999100  0.00062562  0.61035636
   0.25136957  0.74630371  0.61080082
   0.16554969  0.41416472  0.50889219
   0.25477410  0.24844304  0.61063679
   0.16814420  0.66737881  0.50841423
   0.74984421  0.75217946  0.60939283
   0.58333333  0.83333333  0.40830017
   0.41463516  0.91967525  0.50861637
   0.50010870  0.74840414  0.61177589
   0.83333333  0.08333333  0.40830017
   0.74662365  0.00332825  0.60767271
   0.83333333  0.33333333  0.40830017
   0.66547190  0.41518901  0.50658689
   0.66845740  0.66545459  0.50793619
   0.74867189  0.49765781  0.61208397
   0.83333333  0.83333333  0.40830017
   0.33333333  0.83333333  0.40830017
   0.91474963  0.91878428  0.50841124
   0.49929919  0.49806594  0.60248486
   0.16564557  0.91766708  0.50931314
   0.58333333  0.58333333  0.40830017
   0.41835876  0.16638427  0.50551607
   0.41781374  0.41605326  0.50494483
   0.58333333  0.33333333  0.40830017
   0.50016610  0.00101234  0.60298492
   0.00005678  0.74961181  0.60342587
   0.49922282  0.25181060  0.60055886
   0.25243255  0.49868662  0.60366754
   0.91678593  0.41581777  0.50695052
   0.66611047  0.16483679  0.50482972
   0.33333333  0.08333333  0.40830017
   0.33333333  0.58333333  0.40830017
   0.74768089  0.25047013  0.60227281
   0.83333333  0.58333333  0.40830017
   0.08333333  0.33333333  0.40830017
   0.16629207  0.16621662  0.50663752
   0.91845689  0.16468538  0.50827232
   0.58333333  0.08333333  0.40830017
   0.66746901  0.91802123  0.50720811
   0.91515786  0.66721720  0.50761795
   0.41647321  0.66622950  0.50682512
Direct configuration=    10
   0.08333333  0.08333333  0.40830017
   0.33333333  0.33333333  0.40830017
   0.08333333  0.83333333  0.40830017
   0.00068750  0.50171405  0.61042664
   0.08333333  0.58333333  0.40830017
  -0.00059124  0.25079646  0.60710597
  -0.00133553 -0.00039316  0.60833645
   0.24991591  0.00059025  0.61046056
   0.25086639  0.74656074  0.61083149
   0.16572956  0.41443475  0.50890709
   0.25431006  0.24866808  0.61068857
   0.16808917  0.66746616  0.50841097
   0.74970452  0.75206195  0.60946564
   0.58333333  0.83333333  0.40830017
   0.41456485  0.91932161  0.50851443
   0.50033863  0.74851626  0.61187143
   0.83333333  0.08333333  0.40830017
   0.74687412  0.00303103  0.60767627
   0.83333333  0.33333333  0.40830017
   0.66542736  0.41559653  0.50657615
   0.66835330  0.66553341  0.50795772
   0.74865436  0.49786989  0.61213488
   0.83333333  0.83333333  0.40830017
   0.33333333  0.83333333  0.40830017
   0.91483533  0.91856995  0.50850621
   0.49951589  0.49813177  0.60254491
   0.16586103  0.91748334  0.50944035
   0.58333333  0.58333333  0.40830017
   0.41800402  0.16644672  0.50567647
   0.41780370  0.41616210  0.50505342
   0.58333333  0.33333333  0.40830017
   0.50023940  0.00082475  0.60320116
   0.00010892  0.74971872  0.60362980
   0.49924799  0.25164158  0.60061839
   0.25205857  0.49888996  0.60380783
   0.91639352  0.41592140  0.50713758
   0.66601576  0.16472796  0.50502824
   0.33333333  0.08333333  0.40830017
   0.33333333  0.58333333  0.40830017
   0.74799874  0.25039278  0.60247187
   0.83333333  0.58333333  0.40830017
   0.08333333  0.33333333  0.40830017
   0.16644409  0.16590975  0.50686476
   0.91867403  0.16475514  0.50831014
   0.58333333  0.08333333  0.40830017
   0.66762224  0.91783776  0.50735237
   0.91528115  0.66710680  0.50770436
   0.41633239  0.66642507  0.50700511
Direct configuration=    11
   0.08333333  0.08333333  0.40830017
   0.33333333  0.33333333  0.40830017
   0.08333333  0.83333333  0.40830017
   0.00075316  0.50175279  0.61051553
   0.08333333  0.58333333  0.40830017
  -0.00069247  0.25082283  0.60729643
  -0.00162880 -0.00037127  0.60852921
   0.25040277  0.00018367  0.61065183
   0.25088718  0.74651076  0.61085272
   0.16607347  0.41408801  0.50877397
   0.25431168  0.24899093  0.61065757
   0.16798630  0.66741447  0.50841027
   0.74982198  0.75187698  0.60958745
   0.58333333  0.83333333  0.40830017
   0.41488089  0.91911406  0.50834199
   0.49999799  0.74869966  0.61202700
   0.83333333  0.08333333  0.40830017
   0.74709344  0.00311762  0.60758725
   0.83333333  0.33333333  0.40830017
   0.66562394  0.41525111  0.50654895
   0.66824288  0.66571913  0.50773137
   0.74865632  0.49792614  0.61217360
   0.83333333  0.83333333  0.40830017
   0.33333333  0.83333333  0.40830017
   0.91469565  0.91867377  0.50856174
   0.49956841  0.49800091  0.60266713
   0.16568481  0.91744525  0.50949286
   0.58333333  0.58333333  0.40830017
   0.41786977  0.16656349  0.50591117
   0.41768738  0.41581110  0.50526514
   0.58333333  0.33333333  0.40830017
   0.50007830  0.00090044  0.60347020
   0.00004936  0.74965588  0.60400026
   0.49925740  0.25165905  0.60072479
   0.25207503  0.49880887  0.60400160
   0.91669754  0.41567040  0.50729422
   0.66593069  0.16468232  0.50538186
   0.33333333  0.08333333  0.40830017
   0.33333333  0.58333333  0.40830017
   0.74782359  0.25036600  0.60267781
   0.83333333  0.58333333  0.40830017
   0.08333333  0.33333333  0.40830017
   0.16625427  0.16643106  0.50705185
   0.91847527  0.16489962  0.50825192
   0.58333333  0.08333333  0.40830017
   0.66744295  0.91821442  0.50748837
   0.91545934  0.66699545  0.50777392
   0.41612134  0.66656914  0.50721231
Direct configuration=    12
   0.08333333  0.08333333  0.40830017
   0.33333333  0.33333333  0.40830017
   0.08333333  0.83333333  0.40830017
   0.00079299  0.50177628  0.61056945
   0.08333333  0.58333333  0.40830017
  -0.00075388  0.25083883  0.60741198
  -0.00180672 -0.00035799  0.60864614
   0.25069812 -0.00006298  0.61076787
   0.25089978  0.74648043  0.61086560
   0.16628211  0.41387766  0.50869321
   0.25431267  0.24918680  0.61063877
   0.16792389  0.66738312  0.50840985
   0.74989323  0.75176476  0.60966134
   0.58333333  0.83333333  0.40830017
   0.41507261  0.91898815  0.50823738
   0.49979134  0.74881092  0.61212138
   0.83333333  0.08333333  0.40830017
   0.74722649  0.00317015  0.60753325
   0.83333333  0.33333333  0.40830017
   0.66574319  0.41504156  0.50653244
   0.66817589  0.66583180  0.50759406
   0.74865751  0.49796027  0.61219708
   0.83333333  0.83333333  0.40830017
   0.33333333  0.83333333  0.40830017
   0.91461092  0.91873675  0.50859542
   0.49960028  0.49792153  0.60274128
   0.16557791  0.91742215  0.50952472
   0.58333333  0.58333333  0.40830017
   0.41778833  0.16663433  0.50605355
   0.41761682  0.41559817  0.50539358
   0.58333333  0.33333333  0.40830017
   0.49998057  0.00094635  0.60363342
   0.00001323  0.74961775  0.60422499
   0.49926310  0.25166965  0.60078934
   0.25208502  0.49875968  0.60411916
   0.91688198  0.41551812  0.50738924
   0.66587909  0.16465463  0.50559639
   0.33333333  0.08333333  0.40830017
   0.33333333  0.58333333  0.40830017
   0.74771733  0.25034976  0.60280274
   0.83333333  0.58333333  0.40830017
   0.08333333  0.33333333  0.40830017
   0.16613912  0.16674732  0.50716534
   0.91835469  0.16498727  0.50821661
   0.58333333  0.08333333  0.40830017
   0.66733419  0.91844292  0.50757087
   0.91556744  0.66692789  0.50781612
   0.41599331  0.66665654  0.50733800
Direct configuration=    13
   0.08333333  0.08333333  0.40830017
   0.33333333  0.33333333  0.40830017
   0.08333333  0.83333333  0.40830017
   0.00083626  0.50185762  0.61062568
   0.08333333  0.58333333  0.40830017
  -0.00070129  0.25054684  0.60765028
  -0.00168462 -0.00032946  0.60882563
   0.25062765  0.00009045  0.61090450
   0.25093927  0.74627808  0.61088514
   0.16622345  0.41390381  0.50858246
   0.25440264  0.24908281  0.61063490
   0.16777526  0.66720592  0.50853732
   0.74974222  0.75188213  0.60973809
   0.58333333  0.83333333  0.40830017
   0.41487928  0.91949095  0.50824216
   0.49990684  0.74856659  0.61223784
   0.83333333  0.08333333  0.40830017
   0.74700756  0.00311937  0.60751015
   0.83333333  0.33333333  0.40830017
   0.66558471  0.41485423  0.50657263
   0.66843877  0.66557605  0.50740171
   0.74843541  0.49804034  0.61216403
   0.83333333  0.83333333  0.40830017
   0.33333333  0.83333333  0.40830017
   0.91456120  0.91878949  0.50862426
   0.49958321  0.49779790  0.60286079
   0.16526113  0.91784993  0.50957084
   0.58333333  0.58333333  0.40830017
   0.41803612  0.16635113  0.50620899
   0.41764725  0.41544787  0.50555700
   0.58333333  0.33333333  0.40830017
   0.50003787  0.00099614  0.60383958
   0.00006615  0.74947660  0.60450986
   0.49929876  0.25169307  0.60104729
   0.25221112  0.49884383  0.60424793
   0.91704498  0.41559251  0.50747640
   0.66585083  0.16480871  0.50576193
   0.33333333  0.08333333  0.40830017
   0.33333333  0.58333333  0.40830017
   0.74742190  0.25064061  0.60298648
   0.83333333  0.58333333  0.40830017
   0.08333333  0.33333333  0.40830017
   0.16615105  0.16659460  0.50727464
   0.91820687  0.16491368  0.50823849
   0.58333333  0.08333333  0.40830017
   0.66718638  0.91871896  0.50767897
   0.91560788  0.66691127  0.50791224
   0.41610144  0.66630572  0.50746748
Direct configuration=    14
   0.08333333  0.08333333  0.40830017
   0.33333333  0.33333333  0.40830017
   0.08333333  0.83333333  0.40830017
   0.00084091  0.50186636  0.61063173
   0.08333333  0.58333333  0.40830017
  -0.00069563  0.25051546  0.60767589
  -0.00167150 -0.00032640  0.60884492
   0.25062007  0.00010694  0.61091918
   0.25094351  0.74625633  0.61088724
   0.16621715  0.41390662  0.50857055
   0.25441231  0.24907164  0.61063449
   0.16775929  0.66718688  0.50855102
   0.74972598  0.75189474  0.60974634
   0.58333333  0.83333333  0.40830017
   0.41485850  0.91954499  0.50824268
   0.49991925  0.74854033  0.61225036
   0.83333333  0.08333333  0.40830017
   0.74698403  0.00311391  0.60750767
   0.83333333  0.33333333  0.40830017
   0.66556767  0.41483409  0.50657695
   0.66846702  0.66554856  0.50738104
   0.74841154  0.49804895  0.61216048
   0.83333333  0.83333333  0.40830017
   0.33333333  0.83333333  0.40830017
   0.91455586  0.91879516  0.50862736
   0.49958137  0.49778462  0.60287363
   0.16522708  0.91789590  0.50957580
   0.58333333  0.58333333  0.40830017
   0.41806275  0.16632069  0.50622569
   0.41765052  0.41543172  0.50557457
   0.58333333  0.33333333  0.40830017
   0.50004402  0.00100149  0.60386174
   0.00007183  0.74946143  0.60454048
   0.49930259  0.25169559  0.60107501
   0.25222467  0.49885288  0.60426177
   0.91706250  0.41560050  0.50748577
   0.66584779  0.16482527  0.50577972
   0.33333333  0.08333333  0.40830017
   0.33333333  0.58333333  0.40830017
   0.74739015  0.25067187  0.60300623
   0.83333333  0.58333333  0.40830017
   0.08333333  0.33333333  0.40830017
   0.16615233  0.16657819  0.50728638
   0.91819098  0.16490577  0.50824084
   0.58333333  0.08333333  0.40830017
   0.66717049  0.91874863  0.50769059
   0.91561223  0.66690949  0.50792258
   0.41611306  0.66626801  0.50748139
Direct configuration=    15
   0.08333333  0.08333333  0.40830017
   0.33333333  0.33333333  0.40830017
   0.08333333  0.83333333  0.40830017
   0.00082623  0.50171661  0.61064054
   0.08333333  0.58333333  0.40830017
  -0.00081253  0.25060743  0.60780795
  -0.00162344 -0.00040854  0.60891415
   0.25056198  0.00013445  0.61098274
   0.25093560  0.74635667  0.61089262
   0.16618770  0.41389634  0.50858832
   0.25436524  0.24903077  0.61063353
   0.16770303  0.66728185  0.50866656
   0.74957515  0.75195123  0.60975251
   0.58333333  0.83333333  0.40830017
   0.41473914  0.91956193  0.50837576
   0.50000470  0.74845443  0.61225457
   0.83333333  0.08333333  0.40830017
   0.74696781  0.00305766  0.60755818
   0.83333333  0.33333333  0.40830017
   0.66553384  0.41487150  0.50663354
   0.66843151  0.66547465  0.50737383
   0.74848381  0.49800533  0.61209120
   0.83333333  0.83333333  0.40830017
   0.33333333  0.83333333  0.40830017
   0.91465379  0.91866615  0.50868591
   0.49950428  0.49777390  0.60297562
   0.16524476  0.91792975  0.50961249
   0.58333333  0.58333333  0.40830017
   0.41818040  0.16635171  0.50624290
   0.41760525  0.41544416  0.50562539
   0.58333333  0.33333333  0.40830017
   0.50007396  0.00088229  0.60397829
   0.00005825  0.74952358  0.60463053
   0.49927054  0.25172272  0.60132125
   0.25227726  0.49875688  0.60429622
   0.91700521  0.41560104  0.50751808
   0.66587947  0.16489228  0.50575330
   0.33333333  0.08333333  0.40830017
   0.33333333  0.58333333  0.40830017
   0.74744585  0.25068243  0.60309777
   0.83333333  0.58333333  0.40830017
   0.08333333  0.33333333  0.40830017
   0.16606571  0.16643286  0.50729107
   0.91807878  0.16493752  0.50834289
   0.58333333  0.08333333  0.40830017
   0.66721277  0.91857947  0.50769615
   0.91544559  0.66712671  0.50801111
   0.41614304  0.66625580  0.50749185
Direct configuration=    16
   0.08333333  0.08333333  0.40830017
   0.33333333  0.33333333  0.40830017
   0.08333333  0.83333333  0.40830017
   0.00080510  0.50150115  0.61065323
   0.08333333  0.58333333  0.40830017
  -0.00098071  0.25073975  0.60799794
  -0.00155429 -0.00052672  0.60901373
   0.25047841  0.00017404  0.61107418
   0.25092423  0.74650102  0.61090038
   0.16614533  0.41388154  0.50861387
   0.25429753  0.24897198  0.61063216
   0.16762210  0.66741849  0.50883278
   0.74935815  0.75203248  0.60976139
   0.58333333  0.83333333  0.40830017
   0.41456742  0.91958629  0.50856722
   0.50012762  0.74833085  0.61226063
   0.83333333  0.08333333  0.40830017
   0.74694447  0.00297673  0.60763085
   0.83333333  0.33333333  0.40830017
   0.66548517  0.41492530  0.50671496
   0.66838041  0.66536831  0.50736345
   0.74858777  0.49794257  0.61199153
   0.83333333  0.83333333  0.40830017
   0.33333333  0.83333333  0.40830017
   0.91479469  0.91848056  0.50877015
   0.49939338  0.49775848  0.60312234
   0.16527019  0.91797845  0.50966527
   0.58333333  0.58333333  0.40830017
   0.41834967  0.16639633  0.50626765
   0.41754012  0.41546205  0.50569852
   0.58333333  0.33333333  0.40830017
   0.50011702  0.00071079  0.60414596
   0.00003871  0.74961301  0.60476007
   0.49922444  0.25176176  0.60167551
   0.25235292  0.49861876  0.60434577
   0.91692279  0.41560182  0.50756455
   0.66592504  0.16498868  0.50571530
   0.33333333  0.08333333  0.40830017
   0.33333333  0.58333333  0.40830017
   0.74752600  0.25069763  0.60322948
   0.83333333  0.58333333  0.40830017
   0.08333333  0.33333333  0.40830017
   0.16594109  0.16622376  0.50729782
   0.91791736  0.16498319  0.50848970
   0.58333333  0.08333333  0.40830017
   0.66727358  0.91833610  0.50770414
   0.91520586  0.66743921  0.50813849
   0.41618617  0.66623823  0.50750690
Direct configuration=    17
   0.08333333  0.08333333  0.40830017
   0.33333333  0.33333333  0.40830017
   0.08333333  0.83333333  0.40830017
   0.00081508  0.50160290  0.61064724