 vasp.5.4.1 24Jun15 (build Mar 14 2019 10:18:33) complex                        
  
 executed on INTEL-19.0.2+OPENMPI date 2022.07.15  22:23:22
 running on   36 total cores
 distrk:  each k-point on   36 cores,    1 groups
 distr:  one band on NCORES_PER_BAND=   6 cores,    6 groups


--------------------------------------------------------------------------------------------------------


 INCAR:
 POTCAR:    PAW_PBE Au 04Oct2007                  
 POTCAR:    PAW_PBE Pd 04Jan2005                  
 POTCAR:    PAW_PBE Au 04Oct2007                  
  local pseudopotential read in
  partial core-charges read in
  partial kinetic energy density read in
  atomic valenz-charges read in
  non local Contribution for L=           2  read in
    real space projection operators read in
  non local Contribution for L=           2  read in
    real space projection operators read in
  non local Contribution for L=           0  read in
    real space projection operators read in
  non local Contribution for L=           0  read in
    real space projection operators read in
  non local Contribution for L=           1  read in
    real space projection operators read in
  non local Contribution for L=           1  read in
    real space projection operators read in
    PAW grid and wavefunctions read in
 
   number of l-projection  operators is LMAX  =           6
   number of lm-projection operators is LMMAX =          18
 
 POTCAR:    PAW_PBE Pd 04Jan2005                  
  local pseudopotential read in
  partial core-charges read in
  partial kinetic energy density read in
  atomic valenz-charges read in
  non local Contribution for L=           2  read in
    real space projection operators read in
  non local Contribution for L=           2  read in
    real space projection operators read in
  non local Contribution for L=           0  read in
    real space projection operators read in
  non local Contribution for L=           0  read in
    real space projection operators read in
  non local Contribution for L=           1  read in
    real space projection operators read in
  non local Contribution for L=           1  read in
    real space projection operators read in
    PAW grid and wavefunctions read in
 
   number of l-projection  operators is LMAX  =           6
   number of lm-projection operators is LMMAX =          18
 
 Optimization of the real space projectors (new method)

 maximal supplied QI-value         = 15.12
 optimisation between [QCUT,QGAM] = [ 10.13, 20.41] = [ 28.73,116.64] Ry 
 Optimized for a Real-space Cutoff    1.51 Angstroem

   l    n(q)    QCUT    max X(q) W(low)/X(q) W(high)/X(q)  e(spline) 
   2      8    10.129    60.898    0.46E-03    0.46E-03    0.14E-06
   2      8    10.129    58.894    0.47E-03    0.47E-03    0.14E-06
   0      9    10.129   109.617    0.16E-03    0.11E-03    0.54E-07
   0      9    10.129    75.026    0.15E-03    0.11E-03    0.52E-07
   1      9    10.129    16.344    0.96E-04    0.15E-03    0.14E-06
   1      9    10.129    10.160    0.81E-04    0.12E-03    0.11E-06
 Optimization of the real space projectors (new method)

 maximal supplied QI-value         = 14.36
 optimisation between [QCUT,QGAM] = [ 10.20, 20.39] = [ 29.12,116.47] Ry 
 Optimized for a Real-space Cutoff    1.51 Angstroem

   l    n(q)    QCUT    max X(q) W(low)/X(q) W(high)/X(q)  e(spline) 
   2      8    10.197    59.108    0.26E-03    0.14E-03    0.96E-07
   2      8    10.197    58.101    0.27E-03    0.14E-03    0.98E-07
   0      9    10.197   102.235    0.54E-04    0.60E-05    0.72E-07
   0      9    10.197    58.388    0.52E-04    0.60E-05    0.68E-07
   1      9    10.197    22.191    0.18E-03    0.25E-03    0.79E-07
   1      9    10.197    15.590    0.15E-03    0.21E-03    0.69E-07
  PAW_PBE Au 04Oct2007                  :
 energy of atom  1       EATOM= -926.0867
 kinetic energy error for atom=    0.0062 (will be added to EATOM!!)
  PAW_PBE Pd 04Jan2005                  :
 energy of atom  2       EATOM= -809.7530
 kinetic energy error for atom=    0.0091 (will be added to EATOM!!)
 
 
 POSCAR: Au Pd                                   
  positions in cartesian coordinates
  No initial velocities read in
 exchange correlation table for  LEXCH =        8
   RHO(1)=    0.500       N(1)  =     2000
   RHO(2)=  100.500       N(2)  =     4000

 VTST: version 3.2, (02/03/18)

 CHAIN: initializing optimizer
 
 OPT: Using VASP Conjugate-Gradient optimizer
 CHAIN: Read ICHAIN            0
 
 POSCAR: Au Pd                                   
  positions in cartesian coordinates
  No initial velocities read in
 


--------------------------------------------------------------------------------------------------------


 ion  position               nearest neighbor table
   1  0.083  0.083  0.408-  45 2.75  25 2.75  33 2.75  42 2.75  20 2.75   6 2.75  39 2.75  41 2.75
                            28 2.75
   2  0.667  0.667  0.500-  36 2.75  30 2.75  31 2.75   4 2.75  26 2.75  29 2.75  40 2.75  35 2.75
                            47 2.75   7 2.75  27 2.75  48 2.75
   3  0.750  0.250  0.592-   4 2.75  28 2.75  24 2.75   8 2.75  30 2.75  34 2.75  19 2.75  37 2.75
                             5 2.75
   4  0.667  0.417  0.500-  10 2.75   3 2.75   8 2.75   2 2.75   5 2.75  28 2.75  35 2.75  29 2.75
                             9 2.75  36 2.75  25 2.75  30 2.75
   5  0.667  0.167  0.500-  13 2.75  34 2.75  37 2.75  21 2.75   9 2.75   4 2.75  40 2.75  28 2.75
                            12 2.75  10 2.75   6 2.75   3 2.75
   6  0.833  0.083  0.408-  28 2.75  20 2.75  25 2.75  10 2.75  32 2.75   1 2.75  13 2.75  21 2.75
                             5 2.75
   7  0.583  0.833  0.408-  40 2.75  27 2.75  36 2.75  39 2.75  13 2.75  32 2.75  42 2.75   2 2.75
                            26 2.75
   8  0.500  0.500  0.592-  35 2.75   4 2.75  16 2.75  31 2.75   3 2.75  37 2.75  30 2.75  43 2.75
                             9 2.75
   9  0.417  0.417  0.500-  18 2.75  37 2.75  43 2.75  35 2.75  12 2.75   5 2.75  44 2.75  15 2.75
                             4 2.75  14 2.75   8 2.75  10 2.75
  10  0.583  0.333  0.408-   4 2.75   6 2.75  13 2.75  14 2.75  36 2.75  25 2.75  18 2.75   5 2.75
                             9 2.75
  11  0.500  0.000  0.592-  12 2.75  40 2.75  37 2.75  31 2.75  46 2.75  48 2.75  17 2.75  34 2.75
                            26 2.75
  12  0.417  0.167  0.500-  39 2.75  11 2.75  46 2.75  26 2.75   9 2.75  40 2.75  15 2.75  45 2.75
                             5 2.75  18 2.75  13 2.75  37 2.75
  13  0.583  0.083  0.408-   5 2.75   7 2.75  10 2.75  18 2.75  32 2.75   6 2.75  39 2.75  40 2.75
                            12 2.75
  14  0.333  0.583  0.408-  35 2.75  18 2.75  20 2.75  10 2.75  42 2.75  36 2.75  23 2.75   9 2.75
                            44 2.75
  15  0.167  0.417  0.500-  33 2.75  46 2.75  38 2.75  44 2.75  45 2.75  12 2.75  47 2.75   9 2.75
                            29 2.75  23 2.75  18 2.75  43 2.75
  16  0.250  0.750  0.592-  41 2.75  35 2.75  24 2.75   8 2.75  17 2.75  43 2.75  31 2.75  22 2.75
                            44 2.75
  17  0.250  0.000  0.592-  45 2.75  26 2.75  16 2.75  31 2.75  19 2.75  46 2.75  11 2.75  24 2.75
                            41 2.75
  18  0.333  0.333  0.408-   9 2.75  13 2.75  14 2.75  23 2.75  39 2.75  33 2.75  10 2.75  12 2.75
                            15 2.75
  19  0.000  0.250  0.592-  29 2.75  45 2.75  17 2.75  30 2.75  38 2.75  24 2.75   3 2.75  46 2.75
                            28 2.75
  20  0.083  0.833  0.408-  41 2.75   6 2.75  14 2.75  23 2.75   1 2.75  32 2.75  42 2.75  44 2.75
                            21 2.75
  21  0.917  0.917  0.500-  32 2.75  22 2.75  34 2.75   5 2.75  28 2.75  44 2.75  47 2.75  40 2.75
                            41 2.75   6 2.75  24 2.75  20 2.75
  22  0.000  0.750  0.592-  21 2.75  44 2.75  34 2.75  38 2.75  43 2.75  24 2.75  16 2.75  48 2.75
                            47 2.75
  23  0.083  0.583  0.408-  44 2.75  20 2.75  32 2.75  33 2.75  18 2.75  27 2.75  14 2.75  15 2.75
                            47 2.75
  24  0.000  0.000  0.592-  28 2.75  41 2.75  19 2.75  22 2.75   3 2.75  16 2.75  34 2.75  17 2.75
                            21 2.75
  25  0.833  0.333  0.408-  29 2.75   6 2.75  27 2.75   1 2.75  36 2.75  33 2.75  10 2.75  28 2.75
                             4 2.75
  26  0.417  0.917  0.500-  42 2.75  31 2.75  17 2.75  12 2.75  35 2.75   2 2.75  45 2.75  40 2.75
                            41 2.75  39 2.75  11 2.75   7 2.75
  27  0.833  0.583  0.408-  47 2.75  25 2.75  32 2.75  33 2.75   7 2.75  36 2.75  23 2.75  29 2.75
                             2 2.75
  28  0.917  0.167  0.500-   6 2.75  24 2.75   3 2.75  21 2.75   4 2.75  29 2.75  41 2.75   5 2.75
                            45 2.75  25 2.75   1 2.75  19 2.75
  29  0.917  0.417  0.500-  25 2.75  19 2.75  30 2.75  28 2.75   2 2.75  45 2.75  47 2.75   4 2.75
                            15 2.75  27 2.75  33 2.75  38 2.75
  30  0.750  0.500  0.592-   2 2.75  29 2.75  19 2.75   3 2.75  31 2.75  48 2.75  38 2.75   8 2.75
                             4 2.75
  31  0.500  0.750  0.592-  26 2.75   2 2.75  11 2.75  17 2.75   8 2.75  30 2.75  16 2.75  48 2.75
                            35 2.75
  32  0.833  0.833  0.408-  21 2.75  13 2.75   6 2.75  23 2.75  27 2.75  20 2.75   7 2.75  47 2.75
                            40 2.75
  33  0.083  0.333  0.408-  15 2.75   1 2.75  23 2.75  27 2.75  39 2.75  18 2.75  25 2.75  45 2.75
                            29 2.75
  34  0.750  0.000  0.592-   5 2.75  21 2.75   3 2.75  22 2.75  37 2.75  48 2.75  11 2.75  24 2.75
                            40 2.75
  35  0.417  0.667  0.500-  14 2.75   8 2.75  16 2.75   4 2.75   9 2.75  26 2.75  41 2.75   2 2.75
                            44 2.75  42 2.75  36 2.75  31 2.75
  36  0.583  0.583  0.408-   2 2.75   7 2.75  10 2.75  25 2.75  42 2.75  27 2.75  14 2.75   4 2.75
                            35 2.75
  37  0.500  0.250  0.592-   9 2.75   5 2.75   8 2.75  11 2.75  34 2.75  43 2.75   3 2.75  46 2.75
                            12 2.75
  38  0.000  0.500  0.592-  47 2.75  15 2.75  22 2.75  46 2.75  19 2.75  48 2.75  43 2.75  30 2.75
                            29 2.75
  39  0.333  0.083  0.408-  12 2.75   7 2.75  18 2.75  33 2.75  42 2.75  13 2.75   1 2.75  26 2.75
                            45 2.75
  40  0.667  0.917  0.500-   7 2.75  48 2.75  11 2.75   5 2.75  12 2.75  47 2.75   2 2.75  21 2.75
                            26 2.75  13 2.75  32 2.75  34 2.75
  41  0.167  0.917  0.500-  20 2.75  16 2.75  24 2.75  28 2.75  35 2.75  44 2.75  45 2.75  21 2.75
                            26 2.75   1 2.75  17 2.75  42 2.75
  42  0.333  0.833  0.408-  26 2.75  14 2.75   1 2.75  36 2.75  39 2.75  20 2.75   7 2.75  35 2.75
                            41 2.75
  43  0.250  0.500  0.592-  44 2.75   9 2.75  22 2.75  37 2.75  16 2.75  46 2.75   8 2.75  38 2.75
                            15 2.75
  44  0.167  0.667  0.500-  23 2.75  43 2.75  22 2.75   9 2.75  15 2.75  41 2.75  21 2.75  35 2.75
                            47 2.75  20 2.75  14 2.75  16 2.75
  45  0.167  0.167  0.500-   1 2.75  17 2.75  19 2.75  15 2.75  26 2.75  29 2.75  41 2.75  12 2.75
                            28 2.75  33 2.75  39 2.75  46 2.75
  46  0.250  0.250  0.592-  15 2.75  12 2.75  11 2.75  17 2.75  38 2.75  43 2.75  19 2.75  37 2.75
                            45 2.75
  47  0.917  0.667  0.500-  27 2.75  38 2.75  48 2.75  29 2.75  21 2.75  40 2.75  15 2.75  44 2.75
                             2 2.75  32 2.75  23 2.75  22 2.75
  48  0.750  0.750  0.592-  40 2.75  47 2.75  34 2.75  38 2.75  11 2.75  30 2.75  22 2.75  31 2.75
                             2 2.75
 
  LATTYP: Found a hexagonal cell.
 ALAT       =    11.0025815153
 C/A-ratio  =     2.2260035120
  
  Lattice vectors:
  
 A1 = (   5.5012907576,  -9.5285150994,   0.0000000000)
 A2 = ( -11.0025815153,   0.0000000000,   0.0000000000)
 A3 = (   0.0000000000,   0.0000000000, -24.4917850943)


Analysis of symmetry for initial positions (statically):
=====================================================================
 Subroutine PRICEL returns:
 Original cell was already a primitive cell.
 

 Routine SETGRP: Setting up the symmetry group for a 
 hexagonal supercell.


 Subroutine GETGRP returns: Found  1 space group operations
 (whereof  1 operations were pure point group operations)
 out of a pool of 24 trial point group operations.


The static configuration has the point symmetry C_1 .


Analysis of symmetry for dynamics (positions and initial velocities):
=====================================================================
 Subroutine PRICEL returns:
 Original cell was already a primitive cell.
 

 Routine SETGRP: Setting up the symmetry group for a 
 hexagonal supercell.


 Subroutine GETGRP returns: Found  1 space group operations
 (whereof  1 operations were pure point group operations)
 out of a pool of 24 trial point group operations.


The dynamic configuration has the point symmetry C_1 .
 
 
 KPOINTS: Automatic mesh                          

Automatic generation of k-mesh.
Space group operators:
 irot       det(A)        alpha          n_x          n_y          n_z        tau_x        tau_y        tau_z
    1     1.000000     0.000000     1.000000     0.000000     0.000000     0.000000     0.000000     0.000000
 
 Subroutine IBZKPT returns following result:
 ===========================================
 
 Found      6 irreducible k-points:
 
 Following reciprocal coordinates:
            Coordinates               Weight
  0.250000  0.250000  0.000000     16.000000
  0.000000  0.250000  0.000000     16.000000
 -0.250000  0.000000  0.000000     16.000000
 -0.250000  0.250000  0.000000     16.000000
  0.500000 -0.250000  0.000000     16.000000
 -0.250000  0.500000  0.000000     16.000000
 
 Following cartesian coordinates:
            Coordinates               Weight
  0.022722  0.013119  0.000000     16.000000
  0.000000  0.026237  0.000000     16.000000
 -0.022722  0.013119  0.000000     16.000000
 -0.022722  0.039356  0.000000     16.000000
  0.045444 -0.052474  0.000000     16.000000
 -0.022722  0.065593  0.000000     16.000000
 


--------------------------------------------------------------------------------------------------------




 Dimension of arrays:
   k-points           NKPTS =      6   k-points in BZ     NKDIM =      6   number of bands    NBANDS=    306
   number of dos      NEDOS =    301   number of ions     NIONS =     48
   non local maximal  LDIM  =      6   non local SUM 2l+1 LMDIM =     18
   total plane-waves  NPLWV = 349920
   max r-space proj   IRMAX =   2009   max aug-charges    IRDMAX=   8532
   dimension x,y,z NGX =    54 NGY =   54 NGZ =  120
   dimension x,y,z NGXF=   108 NGYF=  108 NGZF=  240
   support grid    NGXF=   108 NGYF=  108 NGZF=  240
   ions per type =              24  24
 NGX,Y,Z   is equivalent  to a cutoff of   8.16,  8.16,  8.15 a.u.
 NGXF,Y,Z  is equivalent  to a cutoff of  16.32, 16.32, 16.29 a.u.


 I would recommend the setting:
   dimension x,y,z NGX =    54 NGY =   54 NGZ =  120
 SYSTEM =  unknown system                          
 POSCAR =  Au Pd                                   

 Startparameter for this run:
   NWRITE =      1    write-flag & timer
   PREC   = normal    normal or accurate (medium, high low for compatibility)
   ISTART =      0    job   : 0-new  1-cont  2-samecut
   ICHARG =      2    charge: 1-file 2-atom 10-const
   ISPIN  =      1    spin polarized calculation?
   LNONCOLLINEAR =      F non collinear calculations
   LSORBIT =      F    spin-orbit coupling
   INIWAV =      1    electr: 0-lowe 1-rand  2-diag
   LASPH  =      F    aspherical Exc in radial PAW
   METAGGA=      F    non-selfconsistent MetaGGA calc.

 Electronic Relaxation 1
   ENCUT  =  400.0 eV  29.40 Ry    5.42 a.u.  17.94 17.94 39.94*2*pi/ulx,y,z
   ENINI  =  400.0     initial cutoff
   ENAUG  =  416.2 eV  augmentation charge cutoff
   NELM   =    500;   NELMIN=  2; NELMDL= -5     # of ELM steps 
   EDIFF  = 0.1E-05   stopping-criterion for ELM
   LREAL  =      T    real-space projection
   NLSPLINE    = F    spline interpolate recip. space projectors
   LCOMPAT=      F    compatible to vasp.4.4
   GGA_COMPAT  = T    GGA compatible to vasp.4.4-vasp.4.6
   LMAXPAW     = -100 max onsite density
   LMAXMIX     =    2 max onsite mixed and CHGCAR
   VOSKOWN=      1    Vosko Wilk Nusair interpolation
   ROPT   =   -0.00050  -0.00050
 Ionic relaxation
   EDIFFG = -.2E-01   stopping-criterion for IOM
   NSW    =    500    number of steps for IOM
   NBLOCK =      1;   KBLOCK =    500    inner block; outer block 
   IBRION =      2    ionic relax: 0-MD 1-quasi-New 2-CG
   NFREE  =      2    steps in history (QN), initial steepest desc. (CG)
   ISIF   =      0    stress and relaxation
   IWAVPR =     11    prediction:  0-non 1-charg 2-wave 3-comb
   ISYM   =      2    0-nonsym 1-usesym 2-fastsym
   LCORR  =      T    Harris-Foulkes like correction to forces

   POTIM  = 0.3500    time-step for ionic-motion
   TEIN   =    0.0    initial temperature
   TEBEG  =    0.0;   TEEND  =   0.0 temperature during run
   SMASS  =  -3.00    Nose mass-parameter (am)
   estimated Nose-frequenzy (Omega)   =  0.10E-29 period in steps =****** mass=  -0.277E-26a.u.
   SCALEE = 1.0000    scale energy and forces
   NPACO  =    256;   APACO  = 16.0  distance and # of slots for P.C.
   PSTRESS=    0.0 pullay stress

  Mass of Ions in am
   POMASS = 196.97106.42
  Ionic Valenz
   ZVAL   =  11.00 10.00
  Atomic Wigner-Seitz radii
   RWIGS  =  -1.00 -1.00
  virtual crystal weights 
   VCA    =   1.00  1.00
   NELECT =     504.0000    total number of electrons
   NUPDOWN=      -1.0000    fix difference up-down

 DOS related values:
   EMIN   =  10.00;   EMAX   =-10.00  energy-range for DOS
   EFERMI =   0.00
   ISMEAR =     0;   SIGMA  =   0.10  broadening in eV -4-tet -1-fermi 0-gaus

 Electronic relaxation 2 (details)
   IALGO  =     68    algorithm
   LDIAG  =      T    sub-space diagonalisation (order eigenvalues)
   LSUBROT=      F    optimize rotation matrix (better conditioning)
   TURBO    =      0    0=normal 1=particle mesh
   IRESTART =      0    0=no restart 2=restart with 2 vectors
   NREBOOT  =      0    no. of reboots
   NMIN     =      0    reboot dimension
   EREF     =   0.00    reference energy to select bands
   IMIX   =      4    mixing-type and parameters
     AMIX     =   0.40;   BMIX     =  1.00
     AMIX_MAG =   1.60;   BMIX_MAG =  1.00
     AMIN     =   0.10
     WC   =   100.;   INIMIX=   1;  MIXPRE=   1;  MAXMIX= -45

 Intra band minimization:
   WEIMIN = 0.0010     energy-eigenvalue tresh-hold
   EBREAK =  0.82E-09  absolut break condition
   DEPER  =   0.30     relativ break condition  

   TIME   =   0.40     timestep for ELM

  volume/ion in A,a.u.               =      53.49       360.99
  Fermi-wavevector in a.u.,A,eV,Ry     =   0.951418  1.797920 12.315955  0.905197
  Thomas-Fermi vector in A             =   2.079887
 
 Write flags
   LWAVE  =      F    write WAVECAR
   LCHARG =      F    write CHGCAR
   LVTOT  =      F    write LOCPOT, total local potential
   LVHAR  =      F    write LOCPOT, Hartree potential only
   LELF   =      F    write electronic localiz. function (ELF)
   LORBIT =      0    0 simple, 1 ext, 2 COOP (PROOUT)


 Dipole corrections
   LMONO  =      F    monopole corrections only (constant potential shift)
   LDIPOL =      T    correct potential (dipole corrections)
   IDIPOL =      3    1-x, 2-y, 3-z, 4-all directions 
   EPSILON=  1.0000000 bulk dielectric constant

 Exchange correlation treatment:
   GGA     =    PE    GGA type
   LEXCH   =     8    internal setting for exchange type
   VOSKOWN=      1    Vosko Wilk Nusair interpolation
   LHFCALC =     F    Hartree Fock is set to
   LHFONE  =     F    Hartree Fock one center treatment
   AEXX    =    0.0000 exact exchange contribution

 Linear response parameters
   LEPSILON=     F    determine dielectric tensor
   LRPA    =     F    only Hartree local field effects (RPA)
   LNABLA  =     F    use nabla operator in PAW spheres
   LVEL    =     F    velocity operator in full k-point grid
   LINTERFAST=   F  fast interpolation
   KINTER  =     0    interpolate to denser k-point grid
   CSHIFT  =0.1000    complex shift for real part using Kramers Kronig
   OMEGAMAX=  -1.0    maximum frequency
   DEG_THRESHOLD= 0.2000000E-02 threshold for treating states as degnerate
   RTIME   =    0.100 relaxation time in fs

 Orbital magnetization related:
   ORBITALMAG=     F  switch on orbital magnetization
   LCHIMAG   =     F  perturbation theory with respect to B field
   DQ        =  0.001000  dq finite difference perturbation B field



--------------------------------------------------------------------------------------------------------


 conjugate gradient relaxation of ions
 charge density and potential will be updated during run
 non-spin polarized calculation
 RMM-DIIS sequential band-by-band and
  variant of blocked Davidson during initial phase
 perform sub-space diagonalisation
    before iterative eigenvector-optimisation
 modified Broyden-mixing scheme, WC =      100.0
 initial mixing is a Kerker type mixing with AMIX =  0.4000 and BMIX =      1.0000
 Hartree-type preconditioning will be used
 using additional bands           54
 real space projection scheme for non local part
 use partial core corrections
 calculate Harris-corrections to forces 
   (improved forces if not selfconsistent)
 use gradient corrections 
 use of overlap-Matrix (Vanderbilt PP)
 Gauss-broadening in eV      SIGMA  =   0.10


--------------------------------------------------------------------------------------------------------


  energy-cutoff  :      400.00
  volume of cell :     2567.68
      direct lattice vectors                 reciprocal lattice vectors
    11.002581515  0.000000000  0.000000000     0.090887761 -0.052474073  0.000000000
     5.501290758  9.528515099  0.000000000     0.000000000  0.104948147  0.000000000
     0.000000000  0.000000000 24.491785094     0.000000000  0.000000000  0.040830017

  length of vectors
    11.002581515 11.002581515 24.491785094     0.104948147  0.104948147  0.040830017


 
 k-points in units of 2pi/SCALE and weight: Automatic mesh                          
   0.02272194  0.01311852  0.00000000       0.167
   0.00000000  0.02623704  0.00000000       0.167
  -0.02272194  0.01311852  0.00000000       0.167
  -0.02272194  0.03935555  0.00000000       0.167
   0.04544388 -0.05247407  0.00000000       0.167
  -0.02272194  0.06559259  0.00000000       0.167
 
 k-points in reciprocal lattice and weights: Automatic mesh                          
   0.25000000  0.25000000  0.00000000       0.167
   0.00000000  0.25000000  0.00000000       0.167
  -0.25000000  0.00000000  0.00000000       0.167
  -0.25000000  0.25000000  0.00000000       0.167
   0.50000000 -0.25000000  0.00000000       0.167
  -0.25000000  0.50000000  0.00000000       0.167
 
 position of ions in fractional coordinates (direct lattice) 
   0.08333333  0.08333333  0.40830017
   0.66666667  0.66666667  0.50000000
   0.75000000  0.25000000  0.59169983
   0.66666667  0.41666667  0.50000000
   0.66666667  0.16666667  0.50000000
   0.83333333  0.08333333  0.40830017
   0.58333333  0.83333333  0.40830017
   0.50000000  0.50000000  0.59169983
   0.41666667  0.41666667  0.50000000
   0.58333333  0.33333333  0.40830017
   0.50000000  0.00000000  0.59169983
   0.41666667  0.16666667  0.50000000
   0.58333333  0.08333333  0.40830017
   0.33333333  0.58333333  0.40830017
   0.16666667  0.41666667  0.50000000
   0.25000000  0.75000000  0.59169983
   0.25000000  0.00000000  0.59169983
   0.33333333  0.33333333  0.40830017
   0.00000000  0.25000000  0.59169983
   0.08333333  0.83333333  0.40830017
   0.91666667  0.91666667  0.50000000
   0.00000000  0.75000000  0.59169983
   0.08333333  0.58333333  0.40830017
   0.00000000  0.00000000  0.59169983
   0.83333333  0.33333333  0.40830017
   0.41666667  0.91666667  0.50000000
   0.83333333  0.58333333  0.40830017
   0.91666667  0.16666667  0.50000000
   0.91666667  0.41666667  0.50000000
   0.75000000  0.50000000  0.59169983
   0.50000000  0.75000000  0.59169983
   0.83333333  0.83333333  0.40830017
   0.08333333  0.33333333  0.40830017
   0.75000000  0.00000000  0.59169983
   0.41666667  0.66666667  0.50000000
   0.58333333  0.58333333  0.40830017
   0.50000000  0.25000000  0.59169983
   0.00000000  0.50000000  0.59169983
   0.33333333  0.08333333  0.40830017
   0.66666667  0.91666667  0.50000000
   0.16666667  0.91666667  0.50000000
   0.33333333  0.83333333  0.40830017
   0.25000000  0.50000000  0.59169983
   0.16666667  0.66666667  0.50000000
   0.16666667  0.16666667  0.50000000
   0.25000000  0.25000000  0.59169983
   0.91666667  0.66666667  0.50000000
   0.75000000  0.75000000  0.59169983
 
 position of ions in cartesian coordinates  (Angst):
   1.37532269  0.79404292 10.00000000
  11.00258152  6.35234340 12.24589255
   9.62725883  2.38212877 14.49178509
   9.62725883  3.97021462 12.24589255
   8.25193614  1.58808585 12.24589255
   9.62725883  0.79404292 10.00000000
  11.00258152  7.94042925 10.00000000
   8.25193614  4.76425755 14.49178509
   6.87661345  3.97021462 12.24589255
   8.25193614  3.17617170 10.00000000
   5.50129076  0.00000000 14.49178509
   5.50129076  1.58808585 12.24589255
   6.87661345  0.79404292 10.00000000
   6.87661345  5.55830047 10.00000000
   4.12596807  3.97021462 12.24589255
   6.87661345  7.14638632 14.49178509
   2.75064538  0.00000000 14.49178509
   5.50129076  3.17617170 10.00000000
   1.37532269  2.38212877 14.49178509
   5.50129076  7.94042925 10.00000000
  15.12854958  8.73447217 12.24589255
   4.12596807  7.14638632 14.49178509
   4.12596807  5.55830047 10.00000000
   0.00000000  0.00000000 14.49178509
  11.00258152  3.17617170 10.00000000
   9.62725883  8.73447217 12.24589255
  12.37790420  5.55830047 10.00000000
  11.00258152  1.58808585 12.24589255
  12.37790420  3.97021462 12.24589255
  11.00258152  4.76425755 14.49178509
   9.62725883  7.14638632 14.49178509
  13.75322689  7.94042925 10.00000000
   2.75064538  3.17617170 10.00000000
   8.25193614  0.00000000 14.49178509
   8.25193614  6.35234340 12.24589255
   9.62725883  5.55830047 10.00000000
   6.87661345  2.38212877 14.49178509
   2.75064538  4.76425755 14.49178509
   4.12596807  0.79404292 10.00000000
  12.37790420  8.73447217 12.24589255
   6.87661345  8.73447217 12.24589255
   8.25193614  7.94042925 10.00000000
   5.50129076  4.76425755 14.49178509
   5.50129076  6.35234340 12.24589255
   2.75064538  1.58808585 12.24589255
   4.12596807  2.38212877 14.49178509
  13.75322689  6.35234340 12.24589255
  12.37790420  7.14638632 14.49178509
 


--------------------------------------------------------------------------------------------------------


 k-point  1 :   0.2500 0.2500 0.0000  plane waves:   46635
 k-point  2 :   0.0000 0.2500 0.0000  plane waves:   46635
 k-point  3 :  -0.2500 0.0000 0.0000  plane waves:   46635
 k-point  4 :  -0.2500 0.2500 0.0000  plane waves:   46644
 k-point  5 :   0.5000-0.2500 0.0000  plane waves:   46644
 k-point  6 :  -0.2500 0.5000 0.0000  plane waves:   46644

 maximum and minimum number of plane-waves per node :      7818     7732

 maximum number of plane-waves:     46644
 maximum index in each direction: 
   IXMAX=   18   IYMAX=   18   IZMAX=   39
   IXMIN=  -18   IYMIN=  -18   IZMIN=  -39

 WARNING: aliasing errors must be expected set NGX to  74 to avoid them
 WARNING: aliasing errors must be expected set NGY to  74 to avoid them
 WARNING: aliasing errors must be expected set NGZ to 158 to avoid them
 aliasing errors are usually negligible using standard VASP settings
 and one can safely disregard these warnings

 real space projection operators:
  total allocation   :      12803.06 KBytes
  max/ min on nodes  :       2145.66       2127.94


 parallel 3D FFT for wavefunctions:
    minimum data exchange during FFTs selected (reduces bandwidth)
 parallel 3D FFT for charge:
    minimum data exchange during FFTs selected (reduces bandwidth)


 total amount of memory used by VASP on root node    84353. kBytes
========================================================================

   base      :      30000. kBytes
   nonlr-proj:       4285. kBytes
   fftplans  :       4447. kBytes
   grid      :       6721. kBytes
   one-center:        124. kBytes
   wavefun   :      38776. kBytes
 
     INWAV:  cpu time    0.0000: real time    0.0001
 Broyden mixing: mesh for mixing (old mesh)
   NGX = 35   NGY = 35   NGZ = 79
  (NGX  =108   NGY  =108   NGZ  =240)
  gives a total of  96775 points

 initial charge density was supplied:
 charge density of overlapping atoms calculated
 number of electron     504.0000000 magnetization 
 keeping initial charge density in first step


--------------------------------------------------------------------------------------------------------


 Maximum index for non-local projection operator          355
 Maximum index for augmentation-charges          437 (set IRDMAX)


--------------------------------------------------------------------------------------------------------


 First call to EWALD:  gamma=   0.129
 Maximum number of real-space cells 4x 4x 2
 Maximum number of reciprocal cells 2x 2x 5

 FEWALD executed in parallel
    FEWALD:  cpu time    0.0022: real time    0.0022


----------------------------------------- Iteration    1(   1)  ---------------------------------------


    POTLOK:  cpu time    0.0453: real time    0.0461
    SETDIJ:  cpu time    0.0058: real time    0.0058
     EDDAV:  cpu time    7.1998: real time    7.2240
       DOS:  cpu time    0.0013: real time    0.0013
    --------------------------------------------
      LOOP:  cpu time    7.2549: real time    7.2831

 eigenvalue-minimisations  :  3672
 total energy-change (2. order) : 0.3201188E+04  (-0.1898397E+05)
 number of electron     504.0000000 magnetization 
 augmentation part      504.0000000 magnetization 

 DIPCOR: dipole corrections for dipol
 direction  3 min pos     1,
 dipolmoment           0.000000      0.000000      0.000001 electrons x Angstroem
 Tr[quadrupol]    -10268.915399

 energy correction for charged system         0.000000 eV
 dipol+quadrupol energy correction           -0.000000 eV
 added-field ion interaction          0.000000 eV  (added to PSCEN)


 Free energy of the ion-electron system (eV)
  ---------------------------------------------------
  alpha Z        PSCENC =       805.86936440
  Ewald energy   TEWEN  =    199932.18369101
  -Hartree energ DENC   =   -242345.61733852
  -exchange      EXHF   =         0.00000000
  -V(xc)+E(xc)   XCENC  =      -327.69439254
  PAW double counting   =     40340.05962942   -38292.62782345
  entropy T*S    EENTRO =        -0.15100515
  eigenvalues    EBANDS =      1429.37955527
  atomic energy  EATOM  =     41659.78587232
  Solvation  Ediel_sol  =         0.00000000
  ---------------------------------------------------
  free energy    TOTEN  =      3201.18755276 eV

  energy without entropy =     3201.33855791  energy(sigma->0) =     3201.26305534


--------------------------------------------------------------------------------------------------------




----------------------------------------- Iteration    1(   2)  ---------------------------------------


     EDDAV:  cpu time    9.7387: real time    9.7719
       DOS:  cpu time    0.0014: real time    0.0014
    --------------------------------------------
      LOOP:  cpu time    9.7413: real time    9.7763

 eigenvalue-minimisations  :  4380
 total energy-change (2. order) :-0.3187177E+04  (-0.2933202E+04)
 number of electron     504.0000000 magnetization 
 augmentation part      504.0000000 magnetization 

 DIPCOR: dipole corrections for dipol
 direction  3 min pos     1,
 dipolmoment           0.000000      0.000000      0.000001 electrons x Angstroem
 Tr[quadrupol]    -10268.915399

 energy correction for charged system         0.000000 eV
 dipol+quadrupol energy correction           -0.000000 eV
 added-field ion interaction          0.000000 eV  (added to PSCEN)


 Free energy of the ion-electron system (eV)
  ---------------------------------------------------
  alpha Z        PSCENC =       805.86936440
  Ewald energy   TEWEN  =    199932.18369101
  -Hartree energ DENC   =   -242345.61733852
  -exchange      EXHF   =         0.00000000
  -V(xc)+E(xc)   XCENC  =      -327.69439254
  PAW double counting   =     40340.05962942   -38292.62782345
  entropy T*S    EENTRO =        -0.12356671
  eigenvalues    EBANDS =     -1757.82520504
  atomic energy  EATOM  =     41659.78587232
  Solvation  Ediel_sol  =         0.00000000
  ---------------------------------------------------
  free energy    TOTEN  =        14.01023089 eV

  energy without entropy =       14.13379760  energy(sigma->0) =       14.07201424


--------------------------------------------------------------------------------------------------------




----------------------------------------- Iteration    1(   3)  ---------------------------------------


     EDDAV:  cpu time    8.3448: real time    8.3713
       DOS:  cpu time    0.0015: real time    0.0015
    --------------------------------------------
      LOOP:  cpu time    8.3475: real time    8.4323

 eigenvalue-minimisations  :  4152
 total energy-change (2. order) :-0.2153041E+03  (-0.2002916E+03)
 number of electron     504.0000000 magnetization 
 augmentation part      504.0000000 magnetization 

 DIPCOR: dipole corrections for dipol
 direction  3 min pos     1,
 dipolmoment           0.000000      0.000000      0.000001 electrons x Angstroem
 Tr[quadrupol]    -10268.915399

 energy correction for charged system         0.000000 eV
 dipol+quadrupol energy correction           -0.000000 eV
 added-field ion interaction          0.000000 eV  (added to PSCEN)


 Free energy of the ion-electron system (eV)
  ---------------------------------------------------
  alpha Z        PSCENC =       805.86936440
  Ewald energy   TEWEN  =    199932.18369101
  -Hartree energ DENC   =   -242345.61733852
  -exchange      EXHF   =         0.00000000
  -V(xc)+E(xc)   XCENC  =      -327.69439254
  PAW double counting   =     40340.05962942   -38292.62782345
  entropy T*S    EENTRO =        -0.18879493
  eigenvalues    EBANDS =     -1973.06411805
  atomic energy  EATOM  =     41659.78587232
  Solvation  Ediel_sol  =         0.00000000
  ---------------------------------------------------
  free energy    TOTEN  =      -201.29391034 eV

  energy without entropy =     -201.10511540  energy(sigma->0) =     -201.19951287


--------------------------------------------------------------------------------------------------------




----------------------------------------- Iteration    1(   4)  ---------------------------------------


     EDDAV:  cpu time    8.5647: real time    8.6122
       DOS:  cpu time    0.0014: real time    0.0014
    --------------------------------------------
      LOOP:  cpu time    8.5670: real time    8.6185

 eigenvalue-minimisations  :  4260
 total energy-change (2. order) :-0.5785838E+01  (-0.5713148E+01)
 number of electron     504.0000000 magnetization 
 augmentation part      504.0000000 magnetization 

 DIPCOR: dipole corrections for dipol
 direction  3 min pos     1,
 dipolmoment           0.000000      0.000000      0.000001 electrons x Angstroem
 Tr[quadrupol]    -10268.915399

 energy correction for charged system         0.000000 eV
 dipol+quadrupol energy correction           -0.000000 eV
 added-field ion interaction          0.000000 eV  (added to PSCEN)


 Free energy of the ion-electron system (eV)
  ---------------------------------------------------
  alpha Z        PSCENC =       805.86936440
  Ewald energy   TEWEN  =    199932.18369101
  -Hartree energ DENC   =   -242345.61733852
  -exchange      EXHF   =         0.00000000
  -V(xc)+E(xc)   XCENC  =      -327.69439254
  PAW double counting   =     40340.05962942   -38292.62782345
  entropy T*S    EENTRO =        -0.19808074
  eigenvalues    EBANDS =     -1978.84067018
  atomic energy  EATOM  =     41659.78587232
  Solvation  Ediel_sol  =         0.00000000
  ---------------------------------------------------
  free energy    TOTEN  =      -207.07974827 eV

  energy without entropy =     -206.88166753  energy(sigma->0) =     -206.98070790


--------------------------------------------------------------------------------------------------------




----------------------------------------- Iteration    1(   5)  ---------------------------------------


     EDDAV:  cpu time    8.6967: real time    8.7222
       DOS:  cpu time    0.0015: real time    0.0015
    CHARGE:  cpu time    0.2240: real time    0.2246
    MIXING:  cpu time    0.0021: real time    0.0022
    --------------------------------------------
      LOOP:  cpu time    8.9255: real time    8.9605

 eigenvalue-minimisations  :  4368
 total energy-change (2. order) :-0.1874202E+00  (-0.1867812E+00)
 number of electron     503.9998404 magnetization 
 augmentation part      191.2507364 magnetization 

 DIPCOR: dipole corrections for dipol
 direction  3 min pos     1,
 dipolmoment           0.000000      0.000000      0.000001 electrons x Angstroem
 Tr[quadrupol]    -10268.915399

 energy correction for charged system         0.000000 eV
 dipol+quadrupol energy correction           -0.000000 eV
 added-field ion interaction          0.000000 eV  (added to PSCEN)


 Broyden mixing:
  rms(total) = 0.62209E+01    rms(broyden)= 0.62208E+01
  rms(prec ) = 0.63543E+01
  weight for this iteration     100.00

 Free energy of the ion-electron system (eV)
  ---------------------------------------------------
  alpha Z        PSCENC =       805.86936440
  Ewald energy   TEWEN  =    199932.18369101
  -Hartree energ DENC   =   -242345.61733852
  -exchange      EXHF   =         0.00000000
  -V(xc)+E(xc)   XCENC  =      -327.69439254
  PAW double counting   =     40340.05962942   -38292.62782345
  entropy T*S    EENTRO =        -0.19780471
  eigenvalues    EBANDS =     -1979.02836636
  atomic energy  EATOM  =     41659.78587232
  Solvation  Ediel_sol  =         0.00000000
  ---------------------------------------------------
  free energy    TOTEN  =      -207.26716842 eV

  energy without entropy =     -207.06936371  energy(sigma->0) =     -207.16826607


--------------------------------------------------------------------------------------------------------




----------------------------------------- Iteration    1(   6)  ---------------------------------------


    POTLOK:  cpu time    0.0413: real time    0.0415
    SETDIJ:  cpu time    0.0060: real time    0.0061
    EDDIAG:  cpu time    1.3124: real time    1.3163
  RMM-DIIS:  cpu time    3.4919: real time    3.5004
    ORTHCH:  cpu time    0.3643: real time    0.3653
       DOS:  cpu time    0.0015: real time    0.0015
    CHARGE:  cpu time    0.2223: real time    0.2228
    MIXING:  cpu time    0.0020: real time    0.0021
    --------------------------------------------
      LOOP:  cpu time    5.4425: real time    5.4598

 eigenvalue-minimisations  :  3678
 total energy-change (2. order) : 0.6539704E+01  (-0.9804197E+01)
 number of electron     503.9998424 magnetization 
 augmentation part      191.7126145 magnetization 

 DIPCOR: dipole corrections for dipol
 direction  3 min pos     1,
 dipolmoment           0.000000      0.000000      0.332771 electrons x Angstroem
 Tr[quadrupol]    -10271.000174

 energy correction for charged system         0.000000 eV
 dipol+quadrupol energy correction           -0.003902 eV
 added-field ion interaction          0.052670 eV  (added to PSCEN)


 Broyden mixing:
  rms(total) = 0.53980E+01    rms(broyden)= 0.53978E+01
  rms(prec ) = 0.55840E+01
  weight for this iteration     100.00

 eigenvalues of (default mixing * dielectric matrix)
  average eigenvalue GAMMA=   0.7502
  0.7502

 Free energy of the ion-electron system (eV)
  ---------------------------------------------------
  alpha Z        PSCENC =       805.91813267
  Ewald energy   TEWEN  =    199932.18369101
  -Hartree energ DENC   =   -242117.83092017
  -exchange      EXHF   =         0.00000000
  -V(xc)+E(xc)   XCENC  =      -340.41417516
  PAW double counting   =     43908.83566160   -41920.88315077
  entropy T*S    EENTRO =        -0.26098216
  eigenvalues    EBANDS =     -2128.06159375
  atomic energy  EATOM  =     41659.78587232
  Solvation  Ediel_sol  =         0.00000000
  ---------------------------------------------------
  free energy    TOTEN  =      -200.72746439 eV

  energy without entropy =     -200.46648224  energy(sigma->0) =     -200.59697332


--------------------------------------------------------------------------------------------------------




----------------------------------------- Iteration    1(   7)  ---------------------------------------


    POTLOK:  cpu time    0.0533: real time    0.0544
    SETDIJ:  cpu time    0.0060: real time    0.0060
    EDDIAG:  cpu time    1.3104: real time    1.3145
  RMM-DIIS:  cpu time    3.6621: real time    3.6707
    ORTHCH:  cpu time    0.3620: real time    0.3628
       DOS:  cpu time    0.0014: real time    0.0014
    CHARGE:  cpu time    0.2265: real time    0.2271
    MIXING:  cpu time    0.0019: real time    0.0019
    --------------------------------------------
      LOOP:  cpu time    5.6247: real time    5.7001

 eigenvalue-minimisations  :  3681
 total energy-change (2. order) : 0.1625169E+00  (-0.5345401E+01)
 number of electron     503.9998364 magnetization 
 augmentation part      197.0666413 magnetization 

 DIPCOR: dipole corrections for dipol
 direction  3 min pos     1,
 dipolmoment           0.000000      0.000000     -0.440838 electrons x Angstroem
 Tr[quadrupol]    -10268.651177

 energy correction for charged system         0.000000 eV
 dipol+quadrupol energy correction           -0.006848 eV
 added-field ion interaction         -0.069775 eV  (added to PSCEN)


 Broyden mixing:
  rms(total) = 0.37514E+01    rms(broyden)= 0.37511E+01
  rms(prec ) = 0.40125E+01
  weight for this iteration     100.00

 eigenvalues of (default mixing * dielectric matrix)
  average eigenvalue GAMMA=   1.0635
  1.7107  0.4163

 Free energy of the ion-electron system (eV)
  ---------------------------------------------------
  alpha Z        PSCENC =       805.79274120
  Ewald energy   TEWEN  =    199932.18369101
  -Hartree energ DENC   =   -241931.89488451
  -exchange      EXHF   =         0.00000000
  -V(xc)+E(xc)   XCENC  =      -342.61479398
  PAW double counting   =     45380.03451810   -43418.54366394
  entropy T*S    EENTRO =        -0.16847047
  eigenvalues    EBANDS =     -2285.13995720
  atomic energy  EATOM  =     41659.78587232
  Solvation  Ediel_sol  =         0.00000000
  ---------------------------------------------------
  free energy    TOTEN  =      -200.56494746 eV

  energy without entropy =     -200.39647699  energy(sigma->0) =     -200.48071223


--------------------------------------------------------------------------------------------------------




----------------------------------------- Iteration    1(   8)  ---------------------------------------


    POTLOK:  cpu time    0.0407: real time    0.0410
    SETDIJ:  cpu time    0.0060: real time    0.0060
    EDDIAG:  cpu time    1.3060: real time    1.3098
  RMM-DIIS:  cpu time    3.5963: real time    3.6058
    ORTHCH:  cpu time    0.3625: real time    0.3633
       DOS:  cpu time    0.0015: real time    0.0015
    CHARGE:  cpu time    0.2228: real time    0.2233
    MIXING:  cpu time    0.0021: real time    0.0021
    --------------------------------------------
      LOOP:  cpu time    5.5387: real time    5.5555

 eigenvalue-minimisations  :  3678
 total energy-change (2. order) :-0.1237766E+02  (-0.6158007E+01)
 number of electron     503.9998359 magnetization 
 augmentation part      196.5188392 magnetization 

 DIPCOR: dipole corrections for dipol
 direction  3 min pos     1,
 dipolmoment           0.000000      0.000000      1.478483 electrons x Angstroem
 Tr[quadrupol]    -10271.531401

 energy correction for charged system         0.000000 eV
 dipol+quadrupol energy correction           -0.077026 eV
 added-field ion interaction          0.234012 eV  (added to PSCEN)


 Broyden mixing:
  rms(total) = 0.36186E+01    rms(broyden)= 0.36183E+01
  rms(prec ) = 0.44056E+01
  weight for this iteration     100.00

 eigenvalues of (default mixing * dielectric matrix)
  average eigenvalue GAMMA=   0.9859
  2.1542  0.4599  0.3437

 Free energy of the ion-electron system (eV)
  ---------------------------------------------------
  alpha Z        PSCENC =       806.02635064
  Ewald energy   TEWEN  =    199932.18369101
  -Hartree energ DENC   =   -241971.35108851
  -exchange      EXHF   =         0.00000000
  -V(xc)+E(xc)   XCENC  =      -344.70410834
  PAW double counting   =     47684.93877748   -45753.45920635
  entropy T*S    EENTRO =        -0.26626739
  eigenvalues    EBANDS =     -2226.09662777
  atomic energy  EATOM  =     41659.78587232
  Solvation  Ediel_sol  =         0.00000000
  ---------------------------------------------------
  free energy    TOTEN  =      -212.94260691 eV

  energy without entropy =     -212.67633952  energy(sigma->0) =     -212.80947321


--------------------------------------------------------------------------------------------------------




----------------------------------------- Iteration    1(   9)  ---------------------------------------


    POTLOK:  cpu time    0.0401: real time    0.0402
    SETDIJ:  cpu time    0.0052: real time    0.0052
    EDDIAG:  cpu time    1.3080: real time    1.3119
  RMM-DIIS:  cpu time    3.6584: real time    3.6670
    ORTHCH:  cpu time    0.3625: real time    0.3634
       DOS:  cpu time    0.0014: real time    0.0014
    CHARGE:  cpu time    0.2263: real time    0.2268
    MIXING:  cpu time    0.0021: real time    0.0021
    --------------------------------------------
      LOOP:  cpu time    5.6046: real time    5.6212

 eigenvalue-minimisations  :  3678
 total energy-change (2. order) : 0.7943634E+01  (-0.3761858E+01)
 number of electron     503.9998351 magnetization 
 augmentation part      197.5965194 magnetization 

 DIPCOR: dipole corrections for dipol
 direction  3 min pos     1,
 dipolmoment           0.000000      0.000000     -0.994477 electrons x Angstroem
 Tr[quadrupol]    -10272.481348

 energy correction for charged system         0.000000 eV
 dipol+quadrupol energy correction           -0.034849 eV
 added-field ion interaction         -0.157404 eV  (added to PSCEN)


 Broyden mixing:
  rms(total) = 0.28652E+01    rms(broyden)= 0.28648E+01
  rms(prec ) = 0.33232E+01
  weight for this iteration     100.00

 eigenvalues of (default mixing * dielectric matrix)
  average eigenvalue GAMMA=   0.8538
  2.2673  0.4988  0.3245  0.3245

 Free energy of the ion-electron system (eV)
  ---------------------------------------------------
  alpha Z        PSCENC =       805.67711074
  Ewald energy   TEWEN  =    199932.18369101
  -Hartree energ DENC   =   -241986.04221785
  -exchange      EXHF   =         0.00000000
  -V(xc)+E(xc)   XCENC  =      -345.69397721
  PAW double counting   =     48751.41500051   -46834.57490622
  entropy T*S    EENTRO =        -0.20477843
  eigenvalues    EBANDS =     -2187.54476791
  atomic energy  EATOM  =     41659.78587232
  Solvation  Ediel_sol  =         0.00000000
  ---------------------------------------------------
  free energy    TOTEN  =      -204.99897304 eV

  energy without entropy =     -204.79419461  energy(sigma->0) =     -204.89658382


--------------------------------------------------------------------------------------------------------




----------------------------------------- Iteration    1(  10)  ---------------------------------------


    POTLOK:  cpu time    0.0406: real time    0.0408
    SETDIJ:  cpu time    0.0051: real time    0.0051
    EDDIAG:  cpu time    1.2985: real time    1.3237
  RMM-DIIS:  cpu time    3.9592: real time    3.9728
    ORTHCH:  cpu time    0.5632: real time    0.5645
       DOS:  cpu time    0.0014: real time    0.0014
    CHARGE:  cpu time    0.4095: real time    0.4104
    MIXING:  cpu time    0.0040: real time    0.0040
    --------------------------------------------
      LOOP:  cpu time    6.2821: real time    6.3283

 eigenvalue-minimisations  :  3680
 total energy-change (2. order) : 0.1277478E+02  (-0.1470409E+01)
 number of electron     503.9998341 magnetization 
 augmentation part      198.7993314 magnetization 

 DIPCOR: dipole corrections for dipol
 direction  3 min pos     1,
 dipolmoment           0.000000      0.000000      0.128654 electrons x Angstroem
 Tr[quadrupol]    -10271.422908

 energy correction for charged system         0.000000 eV
 dipol+quadrupol energy correction           -0.000583 eV
 added-field ion interaction          0.020363 eV  (added to PSCEN)


 Broyden mixing:
  rms(total) = 0.13019E+01    rms(broyden)= 0.13016E+01
  rms(prec ) = 0.15190E+01
  weight for this iteration     100.00

 eigenvalues of (default mixing * dielectric matrix)
  average eigenvalue GAMMA=   0.7885
  2.2545  0.5486  0.5486  0.2954  0.2954

 Free energy of the ion-electron system (eV)
  ---------------------------------------------------
  alpha Z        PSCENC =       805.88914426
  Ewald energy   TEWEN  =    199932.18369101
  -Hartree energ DENC   =   -241958.83889552
  -exchange      EXHF   =         0.00000000
  -V(xc)+E(xc)   XCENC  =      -345.49998959
  PAW double counting   =     49116.58242501   -47203.57410038
  entropy T*S    EENTRO =        -0.21186360
  eigenvalues    EBANDS =     -2198.54047610
  atomic energy  EATOM  =     41659.78587232
  Solvation  Ediel_sol  =         0.00000000
  ---------------------------------------------------
  free energy    TOTEN  =      -192.22419258 eV

  energy without entropy =     -192.01232898  energy(sigma->0) =     -192.11826078


--------------------------------------------------------------------------------------------------------




----------------------------------------- Iteration    1(  11)  ---------------------------------------


    POTLOK:  cpu time    0.0627: real time    0.0629
    SETDIJ:  cpu time    0.0087: real time    0.0087
    EDDIAG:  cpu time    2.1130: real time    2.1191
  RMM-DIIS:  cpu time    3.8098: real time    3.8217
    ORTHCH:  cpu time    0.3594: real time    0.3603
       DOS:  cpu time    0.0014: real time    0.0014
    CHARGE:  cpu time    0.2247: real time    0.2252
    MIXING:  cpu time    0.0024: real time    0.0024
    --------------------------------------------
      LOOP:  cpu time    6.5828: real time    6.6073

 eigenvalue-minimisations  :  3680
 total energy-change (2. order) : 0.2248231E+01  (-0.5534863E+00)
 number of electron     503.9998352 magnetization 
 augmentation part      198.0214120 magnetization 

 DIPCOR: dipole corrections for dipol
 direction  3 min pos     1,
 dipolmoment           0.000000      0.000000     -0.170688 electrons x Angstroem
 Tr[quadrupol]    -10271.663628

 energy correction for charged system         0.000000 eV
 dipol+quadrupol energy correction           -0.001027 eV
 added-field ion interaction         -0.027016 eV  (added to PSCEN)


 Broyden mixing:
  rms(total) = 0.88099E+00    rms(broyden)= 0.88075E+00
  rms(prec ) = 0.10058E+01
  weight for this iteration     100.00

 eigenvalues of (default mixing * dielectric matrix)
  average eigenvalue GAMMA=   0.7371
  2.2669  0.5693  0.5693  0.3898  0.3898  0.2375

 Free energy of the ion-electron system (eV)
  ---------------------------------------------------
  alpha Z        PSCENC =       805.84132137
  Ewald energy   TEWEN  =    199932.18369101
  -Hartree energ DENC   =   -241987.33351523
  -exchange      EXHF   =         0.00000000
  -V(xc)+E(xc)   XCENC  =      -344.91333342
  PAW double counting   =     49180.11742235   -47264.89172716
  entropy T*S    EENTRO =        -0.25704798
  eigenvalues    EBANDS =     -2170.50864494
  atomic energy  EATOM  =     41659.78587232
  Solvation  Ediel_sol  =         0.00000000
  ---------------------------------------------------
  free energy    TOTEN  =      -189.97596168 eV

  energy without entropy =     -189.71891370  energy(sigma->0) =     -189.84743769


--------------------------------------------------------------------------------------------------------




----------------------------------------- Iteration    1(  12)  ---------------------------------------


    POTLOK:  cpu time    0.0407: real time    0.0408
    SETDIJ:  cpu time    0.0054: real time    0.0054
    EDDIAG:  cpu time    1.3056: real time    1.3106
  RMM-DIIS:  cpu time    3.6035: real time    3.6130
    ORTHCH:  cpu time    0.3584: real time    0.3593
       DOS:  cpu time    0.0015: real time    0.0015
    CHARGE:  cpu time    0.2270: real time    0.2276
    MIXING:  cpu time    0.0026: real time    0.0026
    --------------------------------------------
      LOOP:  cpu time    5.5454: real time    5.5648

 eigenvalue-minimisations  :  3679
 total energy-change (2. order) : 0.7913253E+00  (-0.1708976E+00)
 number of electron     503.9998361 magnetization 
 augmentation part      197.3142753 magnetization 

 DIPCOR: dipole corrections for dipol
 direction  3 min pos     1,
 dipolmoment           0.000000      0.000000      0.048062 electrons x Angstroem
 Tr[quadrupol]    -10272.273534

 energy correction for charged system         0.000000 eV
 dipol+quadrupol energy correction           -0.000081 eV
 added-field ion interaction          0.007607 eV  (added to PSCEN)


 Broyden mixing:
  rms(total) = 0.50285E+00    rms(broyden)= 0.50269E+00
  rms(prec ) = 0.54714E+00
  weight for this iteration     100.00

 eigenvalues of (default mixing * dielectric matrix)
  average eigenvalue GAMMA=   0.7417
  2.2445  0.7973  0.6362  0.6362  0.3257  0.3257  0.2264

 Free energy of the ion-electron system (eV)
  ---------------------------------------------------
  alpha Z        PSCENC =       805.87689002
  Ewald energy   TEWEN  =    199932.18369101
  -Hartree energ DENC   =   -242026.96016799
  -exchange      EXHF   =         0.00000000
  -V(xc)+E(xc)   XCENC  =      -344.44782171
  PAW double counting   =     49254.50893007   -47337.36117548
  entropy T*S    EENTRO =        -0.26159639
  eigenvalues    EBANDS =     -2132.50925823
  atomic energy  EATOM  =     41659.78587232
  Solvation  Ediel_sol  =         0.00000000
  ---------------------------------------------------
  free energy    TOTEN  =      -189.18463638 eV

  energy without entropy =     -188.92303999  energy(sigma->0) =     -189.05383819


--------------------------------------------------------------------------------------------------------




----------------------------------------- Iteration    1(  13)  ---------------------------------------


    POTLOK:  cpu time    0.0401: real time    0.0403
    SETDIJ:  cpu time    0.0056: real time    0.0056
    EDDIAG:  cpu time    1.2986: real time    1.3027
  RMM-DIIS:  cpu time    3.5678: real time    3.5762
    ORTHCH:  cpu time    0.3538: real time    0.3547
       DOS:  cpu time    0.0014: real time    0.0014
    CHARGE:  cpu time    0.2210: real time    0.2215
    MIXING:  cpu time    0.0027: real time    0.0027
    --------------------------------------------
      LOOP:  cpu time    5.4918: real time    5.5086

 eigenvalue-minimisations  :  3680
 total energy-change (2. order) : 0.6721461E-02  (-0.5546532E-01)
 number of electron     503.9998361 magnetization 
 augmentation part      197.1363690 magnetization 

 DIPCOR: dipole corrections for dipol
 direction  3 min pos     1,
 dipolmoment           0.000000      0.000000      0.016187 electrons x Angstroem
 Tr[quadrupol]    -10272.408418

 energy correction for charged system         0.000000 eV
 dipol+quadrupol energy correction           -0.000009 eV
 added-field ion interaction          0.002562 eV  (added to PSCEN)


 Broyden mixing:
  rms(total) = 0.52134E+00    rms(broyden)= 0.52125E+00
  rms(prec ) = 0.56274E+00
  weight for this iteration     100.00

 eigenvalues of (default mixing * dielectric matrix)
  average eigenvalue GAMMA=   0.7501
  2.2442  0.8495  0.8495  0.8738  0.3356  0.3356  0.2866  0.2261

 Free energy of the ion-electron system (eV)
  ---------------------------------------------------
  alpha Z        PSCENC =       805.87191711
  Ewald energy   TEWEN  =    199932.18369101
  -Hartree energ DENC   =   -242039.35132060
  -exchange      EXHF   =         0.00000000
  -V(xc)+E(xc)   XCENC  =      -344.18338179
  PAW double counting   =     49266.61788763   -47348.20077601
  entropy T*S    EENTRO =        -0.26174915
  eigenvalues    EBANDS =     -2121.64005545
  atomic energy  EATOM  =     41659.78587232
  Solvation  Ediel_sol  =         0.00000000
  ---------------------------------------------------
  free energy    TOTEN  =      -189.17791492 eV

  energy without entropy =     -188.91616577  energy(sigma->0) =     -189.04704035


--------------------------------------------------------------------------------------------------------




----------------------------------------- Iteration    1(  14)  ---------------------------------------


    POTLOK:  cpu time    0.0402: real time    0.0404
    SETDIJ:  cpu time    0.0052: real time    0.0052
    EDDIAG:  cpu time    1.2990: real time    1.3020
  RMM-DIIS:  cpu time    3.6143: real time    3.6390
    ORTHCH:  cpu time    0.3568: real time    0.3576
       DOS:  cpu time    0.0014: real time    0.0014
    CHARGE:  cpu time    0.2197: real time    0.2202
    MIXING:  cpu time    0.0026: real time    0.0026
    --------------------------------------------
      LOOP:  cpu time    5.5398: real time    5.5731

 eigenvalue-minimisations  :  3678
 total energy-change (2. order) : 0.6131642E-01  (-0.3559268E-01)
 number of electron     503.9998361 magnetization 
 augmentation part      197.1839707 magnetization 

 DIPCOR: dipole corrections for dipol
 direction  3 min pos     1,
 dipolmoment           0.000000      0.000000      0.017906 electrons x Angstroem
 Tr[quadrupol]    -10272.648775

 energy correction for charged system         0.000000 eV
 dipol+quadrupol energy correction           -0.000011 eV
 added-field ion interaction          0.002834 eV  (added to PSCEN)


 Broyden mixing:
  rms(total) = 0.40648E+00    rms(broyden)= 0.40635E+00
  rms(prec ) = 0.45542E+00
  weight for this iteration     100.00

 eigenvalues of (default mixing * dielectric matrix)
  average eigenvalue GAMMA=   0.7455
  2.2403  1.0585  1.0585  0.8072  0.3925  0.3496  0.3496  0.2434  0.2096

 Free energy of the ion-electron system (eV)
  ---------------------------------------------------
  alpha Z        PSCENC =       805.87218708
  Ewald energy   TEWEN  =    199932.18369101
  -Hartree energ DENC   =   -242050.88085187
  -exchange      EXHF   =         0.00000000
  -V(xc)+E(xc)   XCENC  =      -344.02064392
  PAW double counting   =     49286.37359228   -47367.09327249
  entropy T*S    EENTRO =        -0.26375611
  eigenvalues    EBANDS =     -2111.07341680
  atomic energy  EATOM  =     41659.78587232
  Solvation  Ediel_sol  =         0.00000000
  ---------------------------------------------------
  free energy    TOTEN  =      -189.11659850 eV

  energy without entropy =     -188.85284239  energy(sigma->0) =     -188.98472045


--------------------------------------------------------------------------------------------------------




----------------------------------------- Iteration    1(  15)  ---------------------------------------


    POTLOK:  cpu time    0.0397: real time    0.0399
    SETDIJ:  cpu time    0.0051: real time    0.0051
    EDDIAG:  cpu time    1.2925: real time    1.2956
  RMM-DIIS:  cpu time    3.6623: real time    3.6711
    ORTHCH:  cpu time    0.3536: real time    0.3545
       DOS:  cpu time    0.0014: real time    0.0014
    CHARGE:  cpu time    0.2247: real time    0.2253
    MIXING:  cpu time    0.0029: real time    0.0029
    --------------------------------------------
      LOOP:  cpu time    5.5829: real time    5.5980

 eigenvalue-minimisations  :  3680
 total energy-change (2. order) : 0.6749706E-01  (-0.2318626E-01)
 number of electron     503.9998361 magnetization 
 augmentation part      197.2112640 magnetization 

 DIPCOR: dipole corrections for dipol
 direction  3 min pos     1,
 dipolmoment           0.000000      0.000000      0.027730 electrons x Angstroem
 Tr[quadrupol]    -10272.837932

 energy correction for charged system         0.000000 eV
 dipol+quadrupol energy correction           -0.000027 eV
 added-field ion interaction          0.004389 eV  (added to PSCEN)


 Broyden mixing:
  rms(total) = 0.25629E+00    rms(broyden)= 0.25620E+00
  rms(prec ) = 0.29497E+00
  weight for this iteration     100.00

 eigenvalues of (default mixing * dielectric matrix)
  average eigenvalue GAMMA=   0.7610
  2.2152  1.3499  1.3499  0.6416  0.6416  0.3460  0.3460  0.2928  0.2253  0.2016

 Free energy of the ion-electron system (eV)
  ---------------------------------------------------
  alpha Z        PSCENC =       805.87372630
  Ewald energy   TEWEN  =    199932.18369101
  -Hartree energ DENC   =   -242060.18032826
  -exchange      EXHF   =         0.00000000
  -V(xc)+E(xc)   XCENC  =      -343.90272477
  PAW double counting   =     49300.20585011   -47380.17977452
  entropy T*S    EENTRO =        -0.27923821
  eigenvalues    EBANDS =     -2102.55617543
  atomic energy  EATOM  =     41659.78587232
  Solvation  Ediel_sol  =         0.00000000
  ---------------------------------------------------
  free energy    TOTEN  =      -189.04910145 eV

  energy without entropy =     -188.76986324  energy(sigma->0) =     -188.90948234


--------------------------------------------------------------------------------------------------------




----------------------------------------- Iteration    1(  16)  ---------------------------------------


    POTLOK:  cpu time    0.0407: real time    0.0408
    SETDIJ:  cpu time    0.0053: real time    0.0053
    EDDIAG:  cpu time    1.2946: real time    1.2976
  RMM-DIIS:  cpu time    3.6199: real time    3.6284
    ORTHCH:  cpu time    0.3543: real time    0.3576
       DOS:  cpu time    0.0014: real time    0.0014
    CHARGE:  cpu time    0.2185: real time    0.2236
    MIXING:  cpu time    0.0030: real time    0.0030
    --------------------------------------------
      LOOP:  cpu time    5.5383: real time    5.5616

 eigenvalue-minimisations  :  3679
 total energy-change (2. order) : 0.5168470E-01  (-0.7427311E-02)
 number of electron     503.9998361 magnetization 
 augmentation part      197.1458317 magnetization 

 DIPCOR: dipole corrections for dipol
 direction  3 min pos     1,
 dipolmoment           0.000000      0.000000      0.006522 electrons x Angstroem
 Tr[quadrupol]    -10273.050371

 energy correction for charged system         0.000000 eV
 dipol+quadrupol energy correction           -0.000001 eV
 added-field ion interaction          0.001032 eV  (added to PSCEN)


 Broyden mixing:
  rms(total) = 0.17422E+00    rms(broyden)= 0.17418E+00
  rms(prec ) = 0.19280E+00
  weight for this iteration     100.00

 eigenvalues of (default mixing * dielectric matrix)
  average eigenvalue GAMMA=   0.7670
  2.2114  1.8180  1.3846  0.6705  0.6705  0.3453  0.3453  0.2848  0.2848  0.2226
  0.1991

 Free energy of the ion-electron system (eV)
  ---------------------------------------------------
  alpha Z        PSCENC =       805.87039506
  Ewald energy   TEWEN  =    199932.18369101
  -Hartree energ DENC   =   -242070.61973538
  -exchange      EXHF   =         0.00000000
  -V(xc)+E(xc)   XCENC  =      -343.78667829
  PAW double counting   =     49310.41068990   -47389.56978952
  entropy T*S    EENTRO =        -0.27883994
  eigenvalues    EBANDS =     -2092.99302191
  atomic energy  EATOM  =     41659.78587232
  Solvation  Ediel_sol  =         0.00000000
  ---------------------------------------------------
  free energy    TOTEN  =      -188.99741675 eV

  energy without entropy =     -188.71857680  energy(sigma->0) =     -188.85799677


--------------------------------------------------------------------------------------------------------




----------------------------------------- Iteration    1(  17)  ---------------------------------------


    POTLOK:  cpu time    0.0407: real time    0.0431
    SETDIJ:  cpu time    0.0051: real time    0.0051
    EDDIAG:  cpu time    1.2891: real time    1.3027
  RMM-DIIS:  cpu time    3.6468: real time    3.6562
    ORTHCH:  cpu time    0.3545: real time    0.3553
       DOS:  cpu time    0.0014: real time    0.0014
    CHARGE:  cpu time    0.2219: real time    0.2225
    MIXING:  cpu time    0.0032: real time    0.0032
    --------------------------------------------
      LOOP:  cpu time    5.5636: real time    5.5932

 eigenvalue-minimisations  :  3680
 total energy-change (2. order) : 0.3109549E-01  (-0.3614174E-02)
 number of electron     503.9998362 magnetization 
 augmentation part      197.0923859 magnetization 

 DIPCOR: dipole corrections for dipol
 direction  3 min pos     1,
 dipolmoment           0.000000      0.000000      0.000349 electrons x Angstroem
 Tr[quadrupol]    -10273.281668

 energy correction for charged system         0.000000 eV
 dipol+quadrupol energy correction           -0.000000 eV
 added-field ion interaction          0.000055 eV  (added to PSCEN)


 Broyden mixing:
  rms(total) = 0.74994E-01    rms(broyden)= 0.74964E-01
  rms(prec ) = 0.82816E-01
  weight for this iteration     100.00

 eigenvalues of (default mixing * dielectric matrix)
  average eigenvalue GAMMA=   0.7557
  2.1546  1.9883  1.3435  0.6540  0.6540  0.5962  0.3401  0.3401  0.3285  0.2533
  0.2200  0.1952

 Free energy of the ion-electron system (eV)
  ---------------------------------------------------
  alpha Z        PSCENC =       805.86941958
  Ewald energy   TEWEN  =    199932.18369101
  -Hartree energ DENC   =   -242080.71499375
  -exchange      EXHF   =         0.00000000
  -V(xc)+E(xc)   XCENC  =      -343.71382321
  PAW double counting   =     49321.48021999   -47400.09277927
  entropy T*S    EENTRO =        -0.28123261
  eigenvalues    EBANDS =     -2083.48269532
  atomic energy  EATOM  =     41659.78587232
  Solvation  Ediel_sol  =         0.00000000
  ---------------------------------------------------
  free energy    TOTEN  =      -188.96632125 eV

  energy without entropy =     -188.68508864  energy(sigma->0) =     -188.82570495


--------------------------------------------------------------------------------------------------------




----------------------------------------- Iteration    1(  18)  ---------------------------------------


    POTLOK:  cpu time    0.0402: real time    0.0403
    SETDIJ:  cpu time    0.0052: real time    0.0052
    EDDIAG:  cpu time    1.2959: real time    1.2993
  RMM-DIIS:  cpu time    3.6123: real time    3.6209
    ORTHCH:  cpu time    0.3537: real time    0.3545
       DOS:  cpu time    0.0014: real time    0.0014
    CHARGE:  cpu time    0.2200: real time    0.2206
    MIXING:  cpu time    0.0034: real time    0.0034
    --------------------------------------------
      LOOP:  cpu time    5.5327: real time    5.5492

 eigenvalue-minimisations  :  3680
 total energy-change (2. order) :-0.1024165E-02  (-0.1169623E-02)
 number of electron     503.9998362 magnetization 
 augmentation part      197.0850403 magnetization 

 DIPCOR: dipole corrections for dipol
 direction  3 min pos     1,
 dipolmoment           0.000000      0.000000      0.010311 electrons x Angstroem
 Tr[quadrupol]    -10273.357963

 energy correction for charged system         0.000000 eV
 dipol+quadrupol energy correction           -0.000004 eV
 added-field ion interaction          0.001632 eV  (added to PSCEN)


 Broyden mixing:
  rms(total) = 0.71303E-01    rms(broyden)= 0.71289E-01
  rms(prec ) = 0.81558E-01
  weight for this iteration     100.00

 eigenvalues of (default mixing * dielectric matrix)
  average eigenvalue GAMMA=   0.7536
  2.1610  2.1610  1.3300  0.7377  0.7377  0.7414  0.3452  0.3452  0.3182  0.2762
  0.2256  0.2256  0.1917

 Free energy of the ion-electron system (eV)
  ---------------------------------------------------
  alpha Z        PSCENC =       805.87099249
  Ewald energy   TEWEN  =    199932.18369101
  -Hartree energ DENC   =   -242084.07469817
  -exchange      EXHF   =         0.00000000
  -V(xc)+E(xc)   XCENC  =      -343.69086044
  PAW double counting   =     49323.29660398   -47401.80006613
  entropy T*S    EENTRO =        -0.28228875
  eigenvalues    EBANDS =     -2080.25659173
  atomic energy  EATOM  =     41659.78587232
  Solvation  Ediel_sol  =         0.00000000
  ---------------------------------------------------
  free energy    TOTEN  =      -188.96734542 eV

  energy without entropy =     -188.68505666  energy(sigma->0) =     -188.82620104


--------------------------------------------------------------------------------------------------------




----------------------------------------- Iteration    1(  19)  ---------------------------------------


    POTLOK:  cpu time    0.0403: real time    0.0413
    SETDIJ:  cpu time    0.0051: real time    0.0051
    EDDIAG:  cpu time    1.2944: real time    1.2990
  RMM-DIIS:  cpu time    3.5795: real time    3.5881
    ORTHCH:  cpu time    0.3528: real time    0.3545
       DOS:  cpu time    0.0013: real time    0.0013
    CHARGE:  cpu time    0.2261: real time    0.2267
    MIXING:  cpu time    0.0035: real time    0.0035
    --------------------------------------------
      LOOP:  cpu time    5.5038: real time    5.5256

 eigenvalue-minimisations  :  3681
 total energy-change (2. order) : 0.4775470E-02  (-0.3104931E-03)
 number of electron     503.9998362 magnetization 
 augmentation part      197.0607866 magnetization 

 DIPCOR: dipole corrections for dipol
 direction  3 min pos     1,
 dipolmoment           0.000000      0.000000      0.008865 electrons x Angstroem
 Tr[quadrupol]    -10273.474464

 energy correction for charged system         0.000000 eV
 dipol+quadrupol energy correction           -0.000003 eV
 added-field ion interaction          0.001403 eV  (added to PSCEN)


 Broyden mixing:
  rms(total) = 0.42607E-01    rms(broyden)= 0.42599E-01
  rms(prec ) = 0.47334E-01
  weight for this iteration     100.00

 eigenvalues of (default mixing * dielectric matrix)
  average eigenvalue GAMMA=   0.7552
  2.2351  2.2351  1.2902  0.9441  0.7758  0.7758  0.3930  0.3487  0.3487  0.2988
  0.2896  0.2300  0.2142  0.1932

 Free energy of the ion-electron system (eV)
  ---------------------------------------------------
  alpha Z        PSCENC =       805.87076468
  Ewald energy   TEWEN  =    199932.18369101
  -Hartree energ DENC   =   -242088.99884782
  -exchange      EXHF   =         0.00000000
  -V(xc)+E(xc)   XCENC  =      -343.66430148
  PAW double counting   =     49326.38196334   -47404.75484162
  entropy T*S    EENTRO =        -0.28194093
  eigenvalues    EBANDS =     -2075.48492946
  atomic energy  EATOM  =     41659.78587232
  Solvation  Ediel_sol  =         0.00000000
  ---------------------------------------------------
  free energy    TOTEN  =      -188.96256995 eV

  energy without entropy =     -188.68062902  energy(sigma->0) =     -188.82159948


--------------------------------------------------------------------------------------------------------




----------------------------------------- Iteration    1(  20)  ---------------------------------------


    POTLOK:  cpu time    0.0411: real time    0.0413
    SETDIJ:  cpu time    0.0053: real time    0.0053
    EDDIAG:  cpu time    1.2972: real time    1.3022
  RMM-DIIS:  cpu time    3.5805: real time    3.5918
    ORTHCH:  cpu time    0.3550: real time    0.3558
       DOS:  cpu time    0.0014: real time    0.0014
    CHARGE:  cpu time    0.2199: real time    0.2204
    MIXING:  cpu time    0.0037: real time    0.0037
    --------------------------------------------
      LOOP:  cpu time    5.5046: real time    5.5252

 eigenvalue-minimisations  :  3679
 total energy-change (2. order) : 0.1152839E-02  (-0.2517445E-03)
 number of electron     503.9998362 magnetization 
 augmentation part      197.0424935 magnetization 

 DIPCOR: dipole corrections for dipol
 direction  3 min pos     1,
 dipolmoment           0.000000      0.000000      0.009476 electrons x Angstroem
 Tr[quadrupol]    -10273.575741

 energy correction for charged system         0.000000 eV
 dipol+quadrupol energy correction           -0.000003 eV
 added-field ion interaction          0.001500 eV  (added to PSCEN)


 Broyden mixing:
  rms(total) = 0.34113E-01    rms(broyden)= 0.34104E-01
  rms(prec ) = 0.38775E-01
  weight for this iteration     100.00

 eigenvalues of (default mixing * dielectric matrix)
  average eigenvalue GAMMA=   0.7739
  2.3189  2.1735  1.6056  1.1448  0.7351  0.7351  0.7112  0.3410  0.3410  0.3378
  0.2992  0.2515  0.2202  0.2049  0.1892

 Free energy of the ion-electron system (eV)
  ---------------------------------------------------
  alpha Z        PSCENC =       805.87086099
  Ewald energy   TEWEN  =    199932.18369101
  -Hartree energ DENC   =   -242093.41275346
  -exchange      EXHF   =         0.00000000
  -V(xc)+E(xc)   XCENC  =      -343.63946201
  PAW double counting   =     49328.18397038   -47406.47260602
  entropy T*S    EENTRO =        -0.28109133
  eigenvalues    EBANDS =     -2071.17989899
  atomic energy  EATOM  =     41659.78587232
  Solvation  Ediel_sol  =         0.00000000
  ---------------------------------------------------
  free energy    TOTEN  =      -188.96141711 eV

  energy without entropy =     -188.68032578  energy(sigma->0) =     -188.82087144


--------------------------------------------------------------------------------------------------------




----------------------------------------- Iteration    1(  21)  ---------------------------------------


    POTLOK:  cpu time    0.0490: real time    0.0498
    SETDIJ:  cpu time    0.0055: real time    0.0055
    EDDIAG:  cpu time    1.2988: real time    1.3053
  RMM-DIIS:  cpu time    4.8840: real time    4.9007
    ORTHCH:  cpu time    0.3636: real time    0.3659
       DOS:  cpu time    0.0014: real time    0.0014
    CHARGE:  cpu time    0.2223: real time    0.2228
    MIXING:  cpu time    0.0038: real time    0.0038
    --------------------------------------------
      LOOP:  cpu time    6.8292: real time    6.8868

 eigenvalue-minimisations  :  3678
 total energy-change (2. order) : 0.5625518E-03  (-0.1360410E-03)
 number of electron     503.9998362 magnetization 
 augmentation part      197.0355851 magnetization 

 DIPCOR: dipole corrections for dipol
 direction  3 min pos     1,
 dipolmoment           0.000000      0.000000      0.006998 electrons x Angstroem
 Tr[quadrupol]    -10273.694428

 energy correction for charged system         0.000000 eV
 dipol+quadrupol energy correction           -0.000002 eV
 added-field ion interaction          0.001108 eV  (added to PSCEN)


 Broyden mixing:
  rms(total) = 0.21382E-01    rms(broyden)= 0.21373E-01
  rms(prec ) = 0.24078E-01
  weight for this iteration     100.00

 eigenvalues of (default mixing * dielectric matrix)
  average eigenvalue GAMMA=   0.7841
  2.4173  2.0683  2.0683  1.2361  0.7997  0.7186  0.7186  0.3970  0.3425  0.3425
  0.3088  0.2822  0.2411  0.2215  0.1965  0.1864

 Free energy of the ion-electron system (eV)
  ---------------------------------------------------
  alpha Z        PSCENC =       805.87047020
  Ewald energy   TEWEN  =    199932.18369101
  -Hartree energ DENC   =   -242098.18975338
  -exchange      EXHF   =         0.00000000
  -V(xc)+E(xc)   XCENC  =      -343.62186724
  PAW double counting   =     49329.96612154   -47408.24644687
  entropy T*S    EENTRO =        -0.28171749
  eigenvalues    EBANDS =     -2066.42722465
  atomic energy  EATOM  =     41659.78587232
  Solvation  Ediel_sol  =         0.00000000
  ---------------------------------------------------
  free energy    TOTEN  =      -188.96085456 eV

  energy without entropy =     -188.67913707  energy(sigma->0) =     -188.81999581


--------------------------------------------------------------------------------------------------------




----------------------------------------- Iteration    1(  22)  ---------------------------------------


    POTLOK:  cpu time    0.0408: real time    0.0409
    SETDIJ:  cpu time    0.0053: real time    0.0053
    EDDIAG:  cpu time    1.2935: real time    1.2983
  RMM-DIIS:  cpu time    3.6040: real time    3.6145
    ORTHCH:  cpu time    0.3526: real time    0.3534
       DOS:  cpu time    0.0014: real time    0.0014
    CHARGE:  cpu time    0.2204: real time    0.2209
    MIXING:  cpu time    0.0038: real time    0.0038
    --------------------------------------------
      LOOP:  cpu time    5.5223: real time    5.5409

 eigenvalue-minimisations  :  3679
 total energy-change (2. order) : 0.2139471E-03  (-0.6733417E-04)
 number of electron     503.9998362 magnetization 
 augmentation part      197.0328823 magnetization 

 DIPCOR: dipole corrections for dipol
 direction  3 min pos     1,
 dipolmoment           0.000000      0.000000      0.005137 electrons x Angstroem
 Tr[quadrupol]    -10273.773005

 energy correction for charged system         0.000000 eV
 dipol+quadrupol energy correction           -0.000001 eV
 added-field ion interaction          0.000813 eV  (added to PSCEN)


 Broyden mixing:
  rms(total) = 0.90003E-02    rms(broyden)= 0.89932E-02
  rms(prec ) = 0.10687E-01
  weight for this iteration     100.00

 eigenvalues of (default mixing * dielectric matrix)
  average eigenvalue GAMMA=   0.8130
  2.4545  2.3491  2.3491  1.2719  0.7400  0.7400  0.7328  0.7328  0.3426  0.3426
  0.3484  0.3015  0.2768  0.2336  0.2225  0.1968  0.1864

 Free energy of the ion-electron system (eV)
  ---------------------------------------------------
  alpha Z        PSCENC =       805.87017648
  Ewald energy   TEWEN  =    199932.18369101
  -Hartree energ DENC   =   -242101.35549953
  -exchange      EXHF   =         0.00000000
  -V(xc)+E(xc)   XCENC  =      -343.61116643
  PAW double counting   =     49330.11919158   -47408.41521158
  entropy T*S    EENTRO =        -0.28171165
  eigenvalues    EBANDS =     -2063.25598282
  atomic energy  EATOM  =     41659.78587232
  Solvation  Ediel_sol  =         0.00000000
  ---------------------------------------------------
  free energy    TOTEN  =      -188.96064061 eV

  energy without entropy =     -188.67892896  energy(sigma->0) =     -188.81978479


--------------------------------------------------------------------------------------------------------




----------------------------------------- Iteration    1(  23)  ---------------------------------------


    POTLOK:  cpu time    0.0404: real time    0.0406
    SETDIJ:  cpu time    0.0051: real time    0.0051
    EDDIAG:  cpu time    1.3018: real time    1.3052
  RMM-DIIS:  cpu time    3.5849: real time    3.5934
    ORTHCH:  cpu time    0.3489: real time    0.3558
       DOS:  cpu time    0.0014: real time    0.0014
    CHARGE:  cpu time    0.2237: real time    0.2308
    MIXING:  cpu time    0.0039: real time    0.0039
    --------------------------------------------
      LOOP:  cpu time    5.5107: real time    5.5386

 eigenvalue-minimisations  :  3680
 total energy-change (2. order) :-0.3231575E-03  (-0.2532811E-04)
 number of electron     503.9998362 magnetization 
 augmentation part      197.0310881 magnetization 

 DIPCOR: dipole corrections for dipol
 direction  3 min pos     1,
 dipolmoment           0.000000      0.000000      0.004505 electrons x Angstroem
 Tr[quadrupol]    -10273.863540

 energy correction for charged system         0.000000 eV
 dipol+quadrupol energy correction           -0.000001 eV
[...]
    275       1.7098      0.00000
    276       1.8144      0.00000
    277       2.0623      0.00000
    278       2.2421      0.00000
    279       2.2761      0.00000
    280       2.4254      0.00000
    281       2.4652      0.00000
    282       2.6517      0.00000
    283       2.7104      0.00000
    284       2.8805      0.00000
    285       3.1719      0.00000
    286       3.2408      0.00000
    287       3.5114      0.00000
    288       3.6309      0.00000
    289       3.7780      0.00000
    290       4.0215      0.00000
    291       4.0934      0.00000
    292       4.1678      0.00000
    293       4.4727      0.00000
    294       4.5188      0.00000
    295       4.5663      0.00000
    296       4.6329      0.00000
    297       4.6711      0.00000
    298       4.8198      0.00000
    299       4.8889      0.00000
    300       4.9156      0.00000
    301       4.9561      0.00000
    302       5.0376      0.00000
    303       5.0719      0.00000
    304       5.0975      0.00000
    305       5.1488      0.00000
    306       5.2513      0.00000


--------------------------------------------------------------------------------------------------------


 soft charge-density along one line, spin component           1
         0         1         2         3         4         5         6         7         8         9
 total charge-density along one line
 
 pseudopotential strength for first ion, spin component:           1
 -8.026  -0.007   0.003  -0.005   0.001  -8.173  -0.006   0.003
 -0.007  -7.952  -0.001  -0.004  -0.001  -0.006  -8.101  -0.001
  0.003  -0.001  -7.950  -0.001   0.001   0.003  -0.001  -8.099
 -0.005  -0.004  -0.001  -7.957  -0.007  -0.005  -0.003  -0.001
  0.001  -0.001   0.001  -0.007  -8.028   0.001  -0.001   0.001
 -8.173  -0.006   0.003  -0.005   0.001  -8.304  -0.006   0.003
 -0.006  -8.101  -0.001  -0.003  -0.001  -0.006  -8.234  -0.001
  0.003  -0.001  -8.099  -0.001   0.001   0.003  -0.001  -8.231
 -0.005  -0.003  -0.001  -8.105  -0.007  -0.005  -0.003  -0.001
  0.001  -0.001   0.001  -0.007  -8.175   0.001  -0.001   0.001
  0.002   0.001  -0.023   0.004   0.001   0.002   0.001  -0.023
  0.003   0.002  -0.033   0.005   0.001   0.003   0.002  -0.033
 -0.004  -0.007   0.002   0.000   0.003  -0.004  -0.007   0.002
  0.000  -0.003  -0.010  -0.004  -0.000   0.000  -0.003  -0.009
 -0.003   0.000   0.003  -0.007  -0.004  -0.003   0.000   0.003
 -0.005  -0.008   0.002  -0.000   0.004  -0.005  -0.007   0.002
 -0.000  -0.003  -0.011  -0.005  -0.000  -0.000  -0.003  -0.010
 -0.003  -0.000   0.003  -0.008  -0.005  -0.003  -0.000   0.003
 total augmentation occupancy for first ion, spin component:           1
  4.274  -0.029  -0.121  -0.028  -0.089  -2.443  -0.000   0.122  -0.027   0.095  -0.118   0.050   0.032   0.004  -0.012  -0.006
 -0.029   4.156   0.011  -0.033  -0.017  -0.000  -1.893  -0.008   0.014  -0.017  -0.043   0.009  -0.152  -0.009   0.010  -0.001
 -0.121   0.011   4.368   0.016  -0.095   0.122  -0.008  -2.272   0.000   0.087   0.920  -0.132  -0.016  -0.219  -0.031   0.003
 -0.028  -0.033   0.016   4.087  -0.020  -0.026   0.014   0.000  -1.862  -0.016  -0.125   0.025   0.010  -0.006  -0.131   0.000
 -0.089  -0.017  -0.095  -0.020   4.341   0.095  -0.018   0.087  -0.016  -2.531  -0.063   0.029  -0.042   0.008   0.029   0.005
 -2.443  -0.000   0.122  -0.026   0.095   2.497   0.022  -0.123   0.068  -0.099   0.109  -0.047  -0.022  -0.005   0.016   0.002
 -0.000  -1.893  -0.008   0.014  -0.018   0.022   1.599   0.006   0.002   0.045   0.038  -0.008   0.144   0.011  -0.009  -0.004
  0.122  -0.008  -2.272   0.000   0.087  -0.123   0.006   2.117  -0.012  -0.081  -0.862   0.147   0.012   0.235   0.024  -0.001
 -0.027   0.014   0.000  -1.862  -0.016   0.068   0.002  -0.012   1.600   0.042   0.107  -0.022  -0.009   0.008   0.124   0.000
  0.095  -0.017   0.087  -0.016  -2.531  -0.099   0.045  -0.081   0.042   2.600   0.061  -0.028   0.034  -0.008  -0.021  -0.002
 -0.118  -0.043   0.920  -0.125  -0.063   0.109   0.038  -0.862   0.107   0.061   2.403  -0.478  -0.001   0.120  -0.007   0.000
  0.050   0.009  -0.132   0.025   0.029  -0.047  -0.008   0.147  -0.022  -0.028  -0.478   0.130   0.011  -0.047   0.020  -0.000
  0.032  -0.152  -0.016   0.010  -0.042  -0.022   0.144   0.012  -0.009   0.034  -0.001   0.011   0.190   0.002   0.004  -0.006
  0.004  -0.009  -0.219  -0.006   0.008  -0.005   0.011   0.235   0.008  -0.008   0.120  -0.047   0.002   0.098   0.006  -0.000
 -0.012   0.010  -0.031  -0.131   0.029   0.016  -0.009   0.024   0.124  -0.021  -0.007   0.020   0.004   0.006   0.196  -0.000
 -0.006  -0.001   0.003   0.000   0.005   0.002  -0.004  -0.001   0.000  -0.002   0.000  -0.000  -0.006  -0.000  -0.000   0.000
  0.000  -0.003  -0.005  -0.005  -0.000   0.000   0.000  -0.005   0.001   0.000  -0.008   0.002  -0.000  -0.003  -0.000   0.000
 -0.003   0.000   0.004  -0.001  -0.006   0.000   0.000  -0.002  -0.004   0.002   0.000  -0.001  -0.000  -0.000  -0.006   0.000


------------------------ aborting loop because EDIFF is reached ----------------------------------------


    CHARGE:  cpu time    0.2187: real time    0.2193
    FORLOC:  cpu time    0.0160: real time    0.0160
    FORNL :  cpu time    1.3421: real time    1.3452
    FORCOR:  cpu time    0.0553: real time    0.0565
    FORHAR:  cpu time    0.0238: real time    0.0239
    MIXING:  cpu time    0.0030: real time    0.0030
    OFIELD:  cpu time    0.0000: real time    0.0000

 VOLUME and BASIS-vectors are now :
 -----------------------------------------------------------------------------
  energy-cutoff  :      400.00
  volume of cell :     2567.68
      direct lattice vectors                 reciprocal lattice vectors
    11.002581515  0.000000000  0.000000000     0.090887761 -0.052474073  0.000000000
     5.501290758  9.528515099  0.000000000     0.000000000  0.104948147  0.000000000
     0.000000000  0.000000000 24.491785094     0.000000000  0.000000000  0.040830017

  length of vectors
    11.002581515 11.002581515 24.491785094     0.104948147  0.104948147  0.040830017


 FORCES acting on ions
    electron-ion (+dipol)            ewald-force                    non-local-force                 convergence-correction
 -----------------------------------------------------------------------------------------------
   -.105E+02 -.213E+01 0.218E+04   0.115E+02 0.276E+01 -.218E+04   -.946E+00 -.624E+00 -.679E+00   0.306E-02 -.398E-02 0.184E-02
   0.253E+01 -.523E+01 0.424E+01   -.224E+01 0.547E+01 -.363E+01   -.287E+00 -.254E+00 -.601E+00   -.563E-02 0.271E-02 0.102E-03
   0.136E+02 0.269E+01 -.228E+04   -.139E+02 -.270E+01 0.228E+04   0.321E+00 0.188E-01 -.129E+00   -.124E-02 -.673E-03 0.183E-02
   0.146E+02 0.102E+02 -.236E+02   -.138E+02 -.101E+02 0.228E+02   -.854E+00 -.737E-01 0.771E+00   -.559E-02 0.175E-02 0.341E-02
   -.338E+01 -.594E+01 0.418E+02   0.338E+01 0.541E+01 -.406E+02   -.162E-01 0.529E+00 -.118E+01   -.231E-02 -.377E-03 0.467E-02
   -.227E+02 0.277E+01 0.227E+04   0.226E+02 -.248E+01 -.227E+04   0.108E+00 -.286E+00 0.205E+00   -.599E-03 -.148E-02 0.757E-03
   0.144E+02 0.134E+02 0.226E+04   -.145E+02 -.136E+02 -.226E+04   0.812E-01 0.142E+00 -.374E+00   -.250E-02 0.253E-02 0.719E-03
   0.678E+01 0.392E+01 -.229E+04   -.666E+01 -.361E+01 0.229E+04   -.118E+00 -.308E+00 -.410E-01   -.329E-02 0.110E-02 0.788E-03
   -.390E+01 0.247E+01 0.385E+02   0.366E+01 -.173E+01 -.374E+02   0.231E+00 -.739E+00 -.115E+01   -.117E-02 0.225E-02 0.384E-02
   -.227E+02 -.137E+02 0.230E+04   0.234E+02 0.141E+02 -.230E+04   -.653E+00 -.414E+00 0.200E+00   -.283E-02 0.789E-03 0.230E-02
   -.141E+02 -.349E+01 -.226E+04   0.146E+02 0.311E+01 0.226E+04   -.534E+00 0.373E+00 0.335E+00   -.156E-02 0.261E-02 0.904E-03
   -.986E+01 -.167E+01 0.347E+02   0.922E+01 0.950E+00 -.343E+02   0.655E+00 0.728E+00 -.401E+00   -.903E-03 0.100E-03 0.450E-02
   0.675E+01 0.162E+02 0.228E+04   -.704E+01 -.168E+02 -.228E+04   0.286E+00 0.596E+00 0.403E-01   -.149E-02 0.108E-02 0.428E-02
   -.101E+02 -.209E+02 0.222E+04   0.112E+02 0.214E+02 -.222E+04   -.103E+01 -.587E+00 -.315E+00   -.362E-03 0.165E-02 0.559E-02
   -.128E+02 -.163E+01 0.315E+02   0.120E+02 0.195E+01 -.306E+02   0.831E+00 -.305E+00 -.982E+00   0.526E-02 -.408E-03 0.340E-02
   0.323E+01 0.842E+01 -.223E+04   -.284E+01 -.894E+01 0.223E+04   -.398E+00 0.523E+00 0.545E+00   -.104E-03 -.158E-03 -.507E-02
   -.113E+02 -.163E+01 -.226E+04   0.118E+02 0.174E+01 0.226E+04   -.470E+00 -.983E-01 0.557E+00   -.731E-03 -.926E-03 -.294E-02
   0.196E+02 0.114E+01 0.234E+04   -.203E+02 -.163E+01 -.234E+04   0.666E+00 0.489E+00 0.287E+00   0.636E-03 -.124E-03 0.954E-03
   -.899E+01 -.119E+02 -.226E+04   0.963E+01 0.129E+02 0.226E+04   -.640E+00 -.102E+01 0.666E+00   0.809E-03 -.313E-02 0.140E-02
   -.121E+02 -.668E+01 0.221E+04   0.122E+02 0.637E+01 -.221E+04   -.122E+00 0.314E+00 -.399E+00   0.275E-02 -.124E-02 0.372E-02
   -.116E+02 -.263E+01 0.282E+00   0.113E+02 0.232E+01 -.324E+00   0.295E+00 0.314E+00 0.308E-01   0.324E-02 -.133E-02 0.402E-02
   0.124E+02 0.764E+01 -.227E+04   -.133E+02 -.842E+01 0.227E+04   0.878E+00 0.776E+00 0.273E+00   0.459E-02 0.108E-03 0.178E-02
   0.147E+02 -.633E+01 0.225E+04   -.159E+02 0.646E+01 -.224E+04   0.119E+01 -.124E+00 -.288E+00   0.350E-02 0.166E-03 0.303E-02
   0.101E+02 0.391E+01 -.224E+04   -.105E+02 -.373E+01 0.224E+04   0.374E+00 -.183E+00 0.574E+00   0.203E-02 -.137E-02 -.275E-02
   -.161E+02 -.612E+01 0.195E+04   0.165E+02 0.642E+01 -.194E+04   -.410E+00 -.302E+00 -.173E+01   -.117E-02 -.134E-02 0.973E-04
   -.227E+01 -.175E+01 -.331E+02   0.168E+01 0.169E+01 0.326E+02   0.586E+00 0.659E-01 0.434E+00   -.351E-02 0.223E-03 0.207E-02
   0.715E+01 0.864E+01 0.198E+04   -.711E+01 -.887E+01 -.198E+04   -.513E-01 0.226E+00 -.170E+01   0.716E-03 0.197E-02 -.209E-03
   0.327E+01 0.785E+01 -.345E+02   -.271E+01 -.756E+01 0.340E+02   -.552E+00 -.286E+00 0.433E+00   0.184E-03 -.494E-02 0.394E-02
   0.266E+01 0.419E+01 -.324E+02   -.247E+01 -.438E+01 0.320E+02   -.197E+00 0.196E+00 0.353E+00   0.160E-02 -.154E-02 0.338E-02
   -.786E+01 -.103E+02 -.201E+04   0.834E+01 0.106E+02 0.200E+04   -.476E+00 -.314E+00 0.152E+01   -.221E-02 -.348E-03 0.288E-02
   -.102E+02 0.165E+01 -.199E+04   0.105E+02 -.179E+01 0.199E+04   -.333E+00 0.137E+00 0.180E+01   -.364E-02 0.125E-02 -.492E-03
   0.522E+01 0.123E+02 0.197E+04   -.538E+01 -.126E+02 -.197E+04   0.169E+00 0.322E+00 -.158E+01   0.919E-03 0.903E-03 0.158E-02
   0.209E+02 0.825E+01 0.196E+04   -.213E+02 -.821E+01 -.196E+04   0.338E+00 -.395E-01 -.170E+01   0.356E-02 -.217E-02 0.303E-03
   0.145E+02 0.218E+01 -.197E+04   -.150E+02 -.225E+01 0.196E+04   0.420E+00 0.634E-01 0.132E+01   0.759E-03 0.160E-02 0.106E-02
   0.719E+01 0.417E+01 -.324E+02   -.729E+01 -.341E+01 0.320E+02   0.111E+00 -.761E+00 0.422E+00   -.407E-02 0.247E-02 0.212E-02
   -.935E+01 -.748E+01 0.197E+04   0.950E+01 0.757E+01 -.197E+04   -.146E+00 -.925E-01 -.135E+01   -.361E-02 0.282E-02 0.189E-02
   0.933E+01 0.195E+01 -.197E+04   -.966E+01 -.205E+01 0.197E+04   0.327E+00 0.974E-01 0.124E+01   -.128E-02 0.118E-02 0.682E-03
   -.287E+01 -.569E+01 -.199E+04   0.266E+01 0.579E+01 0.199E+04   0.210E+00 -.937E-01 0.176E+01   0.368E-02 -.137E-02 0.317E-02
   0.251E+02 0.110E+02 0.195E+04   -.254E+02 -.110E+02 -.195E+04   0.258E+00 0.547E-01 -.175E+01   -.622E-04 -.992E-03 0.279E-02
   0.315E+01 -.840E+01 0.291E+02   -.294E+01 0.793E+01 -.286E+02   -.194E+00 0.469E+00 -.425E+00   -.158E-02 0.255E-02 0.216E-02
   0.757E+01 -.338E+01 -.391E+02   -.700E+01 0.320E+01 0.386E+02   -.578E+00 0.188E+00 0.457E+00   0.101E-02 -.348E-02 0.280E-02
   -.509E+01 -.625E+01 0.192E+04   0.527E+01 0.622E+01 -.192E+04   -.187E+00 0.282E-01 -.183E+01   -.103E-02 0.283E-04 0.445E-02
   0.487E+01 0.110E+02 -.198E+04   -.523E+01 -.112E+02 0.198E+04   0.352E+00 0.251E+00 0.165E+01   0.161E-02 0.277E-03 -.376E-03
   -.671E+00 -.338E+01 -.503E+01   0.902E+00 0.340E+01 0.546E+01   -.237E+00 -.210E-01 -.428E+00   0.430E-02 0.144E-02 0.308E-02
   0.620E+01 0.600E+01 -.378E+02   -.630E+01 -.610E+01 0.373E+02   0.950E-01 0.100E+00 0.459E+00   0.207E-02 -.458E-02 0.331E-02
   -.140E+02 -.827E+01 -.199E+04   0.140E+02 0.870E+01 0.199E+04   0.186E-01 -.421E+00 0.145E+01   0.124E-02 -.446E-03 0.593E-03
   -.922E+01 -.380E+01 0.952E+00   0.887E+01 0.378E+01 -.977E+00   0.358E+00 0.201E-01 0.151E-01   0.420E-02 0.146E-02 0.248E-02
   -.404E+01 -.305E+01 -.198E+04   0.398E+01 0.287E+01 0.197E+04   0.557E-01 0.188E+00 0.172E+01   -.267E-03 0.146E-02 0.184E-02
 -----------------------------------------------------------------------------------------------
   0.207E+00 0.156E+00 -.574E+00   0.373E-13 0.178E-12 0.227E-11   -.213E+00 -.139E+00 0.479E+00   -.101E-02 0.919E-04 0.887E-01
 
 
 POSITION                                       TOTAL-FORCE (eV/Angst)
 -----------------------------------------------------------------------------------
      1.40910      0.82221      9.85215        -0.000880      0.000274     -0.002792
     11.00378      6.36388     12.24681        -0.005240     -0.014483      0.011258
      9.61466      2.38359     14.80585        -0.002714      0.001008      0.002833
      9.63723      3.96994     12.26701         0.013909      0.010603      0.003328
      8.25078      1.57231     12.21343        -0.010278     -0.003798      0.004182
      9.64874      0.81362      9.68194         0.000071     -0.003629     -0.000393
     10.99473      7.93091      9.73699        -0.002574      0.001222      0.002690
      8.25292      4.76252     14.80619         0.002171      0.000290     -0.004515
      6.86643      3.99181     12.22109        -0.009816      0.001434      0.006076
      8.28012      3.19732      9.61856        -0.003862     -0.002938     -0.000638
      5.52926     -0.01008     14.73864         0.003842      0.000806     -0.000772
      5.47121      1.56616     12.21877         0.008455      0.009789      0.002614
      6.87478      0.78036      9.63750        -0.004347      0.001091     -0.010397
      6.90759      5.58025      9.74992        -0.002061      0.000423     -0.006119
      4.09773      3.97745     12.22481         0.005756      0.008471      0.005861
      6.87968      7.12267     14.73499        -0.007010     -0.001436      0.006919
      2.77920      0.00014     14.76813        -0.006828      0.003762      0.000673
      5.47508      3.17002      9.54912         0.000805     -0.000694      0.015001
      1.39164      2.41379     14.76901         0.001844     -0.007595     -0.001583
      5.52062      7.94935      9.78469        -0.001334     -0.003670     -0.004287
     15.11837      8.71611     12.24647         0.000292     -0.001551     -0.007389
      4.09185      7.11444     14.76382         0.001949     -0.000856     -0.010959
      4.09769      5.56967      9.73212         0.002432      0.004156     -0.005050
     -0.00796     -0.00293     14.75358        -0.002357     -0.004330      0.008545
     11.02559      3.20515      9.91681         0.001417      0.000505     -0.004455
      9.60401      8.73624     12.28857        -0.003464      0.004527     -0.002973
     12.37674      5.54662      9.88958        -0.006861      0.000378     -0.000872
     11.01164      1.58305     12.29053         0.010855     -0.002093     -0.001589
     12.38339      3.94349     12.28606        -0.002007     -0.003023      0.000580
     11.02220      4.78921     14.65650         0.001811     -0.003929     -0.000922
      9.65227      7.13295     14.63977        -0.007688     -0.001752      0.002879
     13.75040      7.93702      9.85787         0.003017     -0.000514      0.004626
      2.74472      3.18768      9.89149        -0.004234     -0.002482      0.002001
      8.24035     -0.01113     14.60487         0.000320     -0.003147     -0.002671
      8.23154      6.36939     12.28497         0.006988     -0.000507      0.002128
      9.64086      5.56498      9.88489        -0.003832     -0.002762      0.003082
      6.86809      2.37926     14.59907        -0.002902     -0.000158     -0.003020
      2.75175      4.76213     14.62384        -0.001818      0.005300     -0.004411
      4.12897      0.79845      9.88684        -0.006745     -0.006977     -0.006957
     12.35191      8.72009     12.21270         0.015912      0.004391     -0.000808
      6.88529      8.72735     12.29525         0.002900      0.005655      0.002075
      8.27233      7.95043      9.95128        -0.003733      0.004920     -0.005924
      5.48458      4.74160     14.61232        -0.003151     -0.002274      0.003362
      5.49645      6.36508     12.25607        -0.001552     -0.001269      0.002636
      2.71954      1.56800     12.29213        -0.000524     -0.005144      0.001098
      4.13777      2.40144     14.62029         0.009435      0.000989     -0.005209
     13.74642      6.34476     12.24242         0.011046      0.005501     -0.007276
     12.37315      7.12855     14.59715         0.002584      0.005516      0.007534
 -----------------------------------------------------------------------------------
    total drift:                               -0.007026      0.017045     -0.006675


--------------------------------------------------------------------------------------------------------



  FREE ENERGIE OF THE ION-ELECTRON SYSTEM (eV)
  ---------------------------------------------------
  free  energy   TOTEN  =      -192.57868351 eV

  energy  without entropy=     -192.30934485  energy(sigma->0) =     -192.44401418
 
 d Force = 0.5473948E-03[ 0.151E-03, 0.943E-03]  d Energy = 0.5451564E-03 0.224E-05
 d Force = 0.3779712E+02[ 0.378E+02, 0.378E+02]  d Ewald  = 0.3779713E+02-0.591E-05


--------------------------------------------------------------------------------------------------------


    POTLOK:  cpu time    0.0468: real time    0.0469


--------------------------------------------------------------------------------------------------------


 stress matrix after NEB project (eV)
      0.00000      0.00000      0.00000
      0.00000      0.00000      0.00000
      0.00000      0.00000      0.00000
  FORCES: max atom, RMS     0.019078    0.009074
  FORCE total and by dimension    0.062866    0.015912
  Stress total and by dimension    0.000000    0.000000
 Conjugate gradient step on ions:
 trial-energy change:   -0.000545  1 .order   -0.000547   -0.000943   -0.000151
  (g-gl).g = 0.243E-03      g.g   = 0.293E-03  gl.gl    = 0.545E-03
 g(Force)  = 0.293E-03   g(Stress)= 0.000E+00 ortho     = 0.390E-04
 gamma     =   0.44552
 trial     =   3.04039
 opt step  =   3.62118  (harmonic =   3.62118) maximal distance =0.00386865
 next E    =  -192.578700   (d E  =  -0.00056)


--------------------------------------------------------------------------------------------------------


  
 reached required accuracy - stopping structural energy minimisation
     LOOP+:  cpu time   65.1207: real time   65.3476
    4ORBIT:  cpu time    0.0000: real time    0.0000

 total amount of memory used by VASP on root node    84353. kBytes
========================================================================

   base      :      30000. kBytes
   nonlr-proj:       4285. kBytes
   fftplans  :       4447. kBytes
   grid      :       6721. kBytes
   one-center:        124. kBytes
   wavefun   :      38776. kBytes
 
  
  
 General timing and accounting informations for this job:
 ========================================================
  
                  Total CPU time used (sec):     1975.620
                            User time (sec):     1897.138
                          System time (sec):       78.482
                         Elapsed time (sec):     1989.368
  
                   Maximum memory used (kb):      963492.
                   Average memory used (kb):           0.
  
                          Minor page faults:       812441
                          Major page faults:            0
                 Voluntary context switches:        11658
