unknown system                          
           1
    11.002582    0.000000    0.000000
     5.501291    9.528515    0.000000
     0.000000    0.000000   24.491785
   Au   Pd
  24  24
Direct configuration=     1
   0.08333333  0.08333333  0.40830017
   0.66666667  0.66666667  0.50000000
   0.75000000  0.25000000  0.59169983
   0.66666667  0.41666667  0.50000000
   0.66666667  0.16666667  0.50000000
   0.83333333  0.08333333  0.40830017
   0.58333333  0.83333333  0.40830017
   0.50000000  0.50000000  0.59169983
   0.41666667  0.41666667  0.50000000
   0.58333333  0.33333333  0.40830017
   0.50000000  0.00000000  0.59169983
   0.41666667  0.16666667  0.50000000
   0.58333333  0.08333333  0.40830017
   0.33333333  0.58333333  0.40830017
   0.16666667  0.41666667  0.50000000
   0.25000000  0.75000000  0.59169983
   0.25000000  0.00000000  0.59169983
   0.33333333  0.33333333  0.40830017
   0.00000000  0.25000000  0.59169983
   0.08333333  0.83333333  0.40830017
   0.91666667  0.91666667  0.50000000
   0.00000000  0.75000000  0.59169983
   0.08333333  0.58333333  0.40830017
   0.00000000  0.00000000  0.59169983
   0.83333333  0.33333333  0.40830017
   0.41666667  0.91666667  0.50000000
   0.83333333  0.58333333  0.40830017
   0.91666667  0.16666667  0.50000000
   0.91666667  0.41666667  0.50000000
   0.75000000  0.50000000  0.59169983
   0.50000000  0.75000000  0.59169983
   0.83333333  0.83333333  0.40830017
   0.08333333  0.33333333  0.40830017
   0.75000000  0.00000000  0.59169983
   0.41666667  0.66666667  0.50000000
   0.58333333  0.58333333  0.40830017
   0.50000000  0.25000000  0.59169983
   0.00000000  0.50000000  0.59169983
   0.33333333  0.08333333  0.40830017
   0.66666667  0.91666667  0.50000000
   0.16666667  0.91666667  0.50000000
   0.33333333  0.83333333  0.40830017
   0.25000000  0.50000000  0.59169983
   0.16666667  0.66666667  0.50000000
   0.16666667  0.16666667  0.50000000
   0.25000000  0.25000000  0.59169983
   0.91666667  0.66666667  0.50000000
   0.75000000  0.75000000  0.59169983
Direct configuration=     2
   0.08406631  0.08418709  0.40684867
   0.66711739  0.66685168  0.50030826
   0.74978517  0.24981595  0.59391785
   0.66839245  0.41762450  0.49964671
   0.66733602  0.16520840  0.50078186
   0.83368682  0.08364562  0.40606318
   0.58314600  0.83304520  0.40649801
   0.49957506  0.50056643  0.59386418
   0.41523201  0.41817224  0.50085391
   0.58414535  0.33416270  0.40571789
   0.50092988 -0.00046364  0.59352559
   0.41581243  0.16527128  0.50046698
   0.58357243  0.08190025  0.40602747
   0.33385391  0.58478892  0.40636439
   0.16447632  0.41715292  0.50073574
   0.25084441  0.74921455  0.59327302
   0.25074333 -0.00002043  0.59326904
   0.33245646  0.33258412  0.40568356
   0.00004280  0.25136923  0.59327530
   0.08398975  0.83301192  0.40646568
   0.91625379  0.91569597  0.50005831
  -0.00054058  0.74873984  0.59353771
   0.08144047  0.58387094  0.40641298
  -0.00037342  0.00024365  0.59359205
   0.83373530  0.33425958  0.40733557
   0.41575104  0.91650375  0.49981329
   0.83372026  0.58270090  0.40734741
   0.91749946  0.16739977  0.49979597
   0.91728717  0.41637918  0.49978178
   0.75041519  0.50097983  0.59277623
   0.50076470  0.74975196  0.59263682
   0.83335318  0.83250661  0.40727816
   0.08242196  0.33341506  0.40740244
   0.74939008 -0.00021691  0.59289242
   0.41588980  0.66841744  0.49980098
   0.58347037  0.58355395  0.40715209
   0.49964487  0.24992237  0.59307720
  -0.00016704  0.50006985  0.59253687
   0.33281531  0.08302124  0.40732383
   0.66756334  0.91531220  0.50027023
   0.16812561  0.91635615  0.49972989
   0.33377324  0.83329670  0.40757648
   0.24967131  0.49937922  0.59285263
   0.16683958  0.66678336  0.50027777
   0.16649704  0.16654893  0.49974355
   0.24963109  0.25095709  0.59280956
   0.91589504  0.66652892  0.50006538
   0.75002755  0.74953352  0.59253511
Direct configuration=     3
   0.08626525  0.08674835  0.40249417
   0.66846957  0.66740671  0.50123304
   0.74914069  0.24926381  0.60057191
   0.67356978  0.42049800  0.49858683
   0.66934407  0.16083360  0.50312746
   0.83474727  0.08458246  0.39935222
   0.58258401  0.83218080  0.40109153
   0.49830024  0.50226572  0.60035722
   0.41092806  0.42268895  0.50341562
   0.58658142  0.33665080  0.39797105
   0.50371951 -0.00185454  0.59900288
   0.41324973  0.16108513  0.50186792
   0.58428971  0.07760101  0.39920936
   0.33541565  0.58915569  0.40055706
   0.15790528  0.41861168  0.50294297
   0.25337763  0.74685821  0.59799259
   0.25297332 -0.00008172  0.59797668
   0.32982586  0.33033648  0.39783375
   0.00017119  0.25547690  0.59800171
   0.08595898  0.83204769  0.40096221
   0.91501517  0.91278390  0.50023324
  -0.00216231  0.74495936  0.59905136
   0.07576188  0.58548376  0.40075143
  -0.00149368  0.00097458  0.59926870
   0.83494118  0.33703830  0.40444176
   0.41300416  0.91601499  0.49925317
   0.83488106  0.58080360  0.40448913
   0.91999783  0.16959909  0.49918390
   0.91914867  0.41551673  0.49912711
   0.75166076  0.50391932  0.59600544
   0.50305880  0.74900785  0.59544779
   0.83341272  0.83002643  0.40421213
   0.07968784  0.33366023  0.40470925
   0.74756032 -0.00086764  0.59647017
   0.41355919  0.67366974  0.49920390
   0.58388147  0.58421581  0.40370784
   0.49857948  0.24968948  0.59720930
  -0.00066814  0.50027941  0.59504797
   0.33126124  0.08208498  0.40439480
   0.67025335  0.91124880  0.50108094
   0.17250243  0.91542462  0.49891955
   0.33509294  0.83318679  0.40540541
   0.24868524  0.49751689  0.59631104
   0.16735832  0.66713343  0.50111107
   0.16598816  0.16619574  0.49897421
   0.24852435  0.25382835  0.59613873
   0.91358017  0.66611568  0.50026151
   0.75011019  0.74813408  0.59504096
Direct configuration=     4
   0.08536433  0.08584072  0.40107206
   0.66693457  0.66887309  0.50062482
   0.74868976  0.25085328  0.60195312
   0.67044371  0.41874557  0.49903553
   0.66742402  0.16422834  0.50230518
   0.83458815  0.08456336  0.39818597
   0.58304542  0.83107858  0.39984535
   0.50042040  0.50094387  0.60176569
   0.41365342  0.42040981  0.50248418
   0.58534014  0.33567503  0.39689264
   0.50318935 -0.00191861  0.60056358
   0.41451564  0.16227323  0.50135247
   0.58407883  0.07949767  0.39809345
   0.33540940  0.58631665  0.39944374
   0.16061778  0.41858152  0.50176901
   0.25170592  0.74806035  0.59915165
   0.25259182  0.00046106  0.59911518
   0.33029938  0.33146629  0.39667023
  -0.00007556  0.25470409  0.59918945
   0.08479105  0.83318016  0.39991231
   0.91793856  0.91294922  0.50011481
  -0.00185883  0.74580730  0.60050537
   0.07843167  0.58407353  0.39967479
  -0.00071375  0.00012631  0.60008376
   0.83489570  0.33680801  0.40322337
   0.41483128  0.91600421  0.49956540
   0.83318858  0.58139569  0.40363319
   0.91999324  0.16750173  0.49949215
   0.91927424  0.41513911  0.49937273
   0.75121327  0.50325736  0.59701408
   0.50319133  0.74904482  0.59625528
   0.83299541  0.83094575  0.40344636
   0.08046042  0.33445652  0.40384788
   0.74882627 -0.00185566  0.59784822
   0.41487483  0.67118625  0.49952496
   0.58465838  0.58489265  0.40282000
   0.49823638  0.24999493  0.59822453
  -0.00159231  0.50080981  0.59647584
   0.33236469  0.08214276  0.40352835
   0.66747844  0.91237412  0.50063717
   0.16923414  0.91651343  0.49930419
   0.33511038  0.83412630  0.40422073
   0.24837001  0.49783166  0.59778870
   0.16577142  0.66829423  0.50079997
   0.16540196  0.16555482  0.49943671
   0.24929142  0.25285191  0.59739617
   0.91500676  0.66578393  0.50006225
   0.75009857  0.74815521  0.59627743
Direct configuration=     5
   0.08486886  0.08534156  0.40028997
   0.66609039  0.66967954  0.50029033
   0.74844177  0.25172742  0.60271271
   0.66872453  0.41778183  0.49928230
   0.66636809  0.16609528  0.50185298
   0.83450064  0.08455286  0.39754458
   0.58329917  0.83047240  0.39916000
   0.50158639  0.50021691  0.60254028
   0.41515223  0.41915639  0.50197193
   0.58465750  0.33513841  0.39629957
   0.50289779 -0.00195384  0.60142189
   0.41521182  0.16292663  0.50106900
   0.58396285  0.08054073  0.39747976
   0.33540596  0.58475532  0.39883147
   0.16210952  0.41856493  0.50112339
   0.25078656  0.74872148  0.59978908
   0.25238201  0.00075956  0.59974130
   0.33055980  0.33208762  0.39603036
  -0.00021125  0.25427909  0.59984265
   0.08414874  0.83380296  0.39933492
   0.91954628  0.91304014  0.50004968
  -0.00169194  0.74627363  0.60130500
   0.07989993  0.58329798  0.39908269
  -0.00028483 -0.00034020  0.60053201
   0.83487069  0.33668136  0.40255332
   0.41583611  0.91599828  0.49973711
   0.83225780  0.58172131  0.40316246
   0.91999072  0.16634828  0.49966168
   0.91934330  0.41493145  0.49950780
   0.75096718  0.50289332  0.59756878
   0.50326422  0.74906515  0.59669936
   0.83276592  0.83145133  0.40302523
   0.08088530  0.33489445  0.40337417
   0.74952248 -0.00239901  0.59860607
   0.41559837  0.66982045  0.49970152
   0.58508564  0.58526488  0.40233173
   0.49804769  0.25016292  0.59878286
  -0.00210056  0.50110151  0.59726109
   0.33297153  0.08217454  0.40305184
   0.66595237  0.91299299  0.50039312
   0.16743675  0.91711223  0.49951573
   0.33511997  0.83464299  0.40356921
   0.24819666  0.49800477  0.59860134
   0.16489869  0.66893261  0.50062888
   0.16507958  0.16520234  0.49969106
   0.24971328  0.25231491  0.59808770
   0.91579132  0.66560149  0.49995266
   0.75009217  0.74816682  0.59695743
Direct configuration=     6
   0.08480204  0.08553832  0.39986270
   0.66666204  0.66794282  0.50014207
   0.74902490  0.25098814  0.60317402
   0.66859586  0.41734133  0.49936610
   0.66750386  0.16508229  0.50152289
   0.83375192  0.08486352  0.39722960
   0.58339264  0.83158514  0.39852443
   0.50077109  0.50075107  0.60298172
   0.41462347  0.41938636  0.50162460
   0.58455635  0.33474876  0.39593353
   0.50271603 -0.00147838  0.60196650
   0.41513572  0.16398105  0.50082804
   0.58390604  0.08114277  0.39716288
   0.33515036  0.58465325  0.39866075
   0.16400336  0.41795364  0.50084320
   0.25128041  0.74822089  0.60003347
   0.25219807  0.00067191  0.60008672
   0.33122022  0.33202507  0.39556005
  -0.00029228  0.25364967  0.60023778
   0.08443347  0.83328057  0.39896509
   0.91735006  0.91483449  0.50009413
  -0.00159789  0.74667285  0.60184564
   0.08027643  0.58370006  0.39873195
  -0.00073662  0.00014383  0.60082763
   0.83437639  0.33629466  0.40236819
   0.41506841  0.91656938  0.49997859
   0.83267637  0.58192471  0.40294937
   0.91875509  0.16632111  0.49983537
   0.91846557  0.41482125  0.49978932
   0.75070831  0.50279146  0.59768718
   0.50271565  0.74900031  0.59694537
   0.83289882  0.83184384  0.40296002
   0.08152839  0.33451435  0.40317943
   0.74976702 -0.00192090  0.59859930
   0.41488779  0.66912076  0.49987510
   0.58468532  0.58434454  0.40217636
   0.49835135  0.24998986  0.59897938
  -0.00171008  0.50084101  0.59759566
   0.33324028  0.08267366  0.40293716
   0.66613431  0.91486802  0.50023703
   0.16795404  0.91671206  0.49969289
   0.33455181  0.83436615  0.40339114
   0.24864140  0.49809794  0.59878687
   0.16606801  0.66791319  0.50048726
   0.16542200  0.16490558  0.49992633
   0.24978563  0.25223223  0.59825202
   0.91610665  0.66594016  0.49990971
   0.75019390  0.74815526  0.59725547
Direct configuration=     7
   0.08478884  0.08557719  0.39977829
   0.66677498  0.66759973  0.50011278
   0.74914010  0.25084209  0.60326515
   0.66857044  0.41725431  0.49938266
   0.66772823  0.16488218  0.50145768
   0.83360401  0.08492489  0.39716738
   0.58341110  0.83180496  0.39839888
   0.50061002  0.50085660  0.60306892
   0.41451902  0.41943179  0.50155599
   0.58453637  0.33467178  0.39586122
   0.50268012 -0.00138446  0.60207409
   0.41512069  0.16418935  0.50078044
   0.58389481  0.08126170  0.39710028
   0.33509986  0.58463308  0.39862702
   0.16437749  0.41783288  0.50078785
   0.25137797  0.74812200  0.60008175
   0.25216174  0.00065459  0.60015496
   0.33135068  0.33201271  0.39546714
  -0.00030829  0.25352533  0.60031584
   0.08448972  0.83317737  0.39889203
   0.91691620  0.91518897  0.50010291
  -0.00157931  0.74675172  0.60195245
   0.08035081  0.58377949  0.39866266
  -0.00082588  0.00023945  0.60088603
   0.83427874  0.33621827  0.40233162
   0.41491675  0.91668220  0.50002630
   0.83275906  0.58196489  0.40290727
   0.91851099  0.16631574  0.49986968
   0.91829218  0.41479948  0.49984494
   0.75065717  0.50277134  0.59771057
   0.50260728  0.74898750  0.59699397
   0.83292507  0.83192139  0.40294713
   0.08165543  0.33443926  0.40314096
   0.74981533 -0.00182645  0.59859797
   0.41474741  0.66898254  0.49990939
   0.58460623  0.58416272  0.40214566
   0.49841134  0.24995568  0.59901820
  -0.00163295  0.50078955  0.59766175
   0.33329337  0.08277226  0.40291450
   0.66617025  0.91523844  0.50020619
   0.16805623  0.91663301  0.49972789
   0.33443957  0.83431146  0.40335596
   0.24872927  0.49811635  0.59882352
   0.16629901  0.66771181  0.50045929
   0.16548965  0.16484695  0.49997281
   0.24979992  0.25221589  0.59828448
   0.91616895  0.66600707  0.49990122
   0.75021400  0.74815298  0.59731434
Direct configuration=     8
   0.08481651  0.08576677  0.39973560
   0.66684618  0.66776062  0.50004891
   0.74891742  0.25070164  0.60353148
   0.66850442  0.41693436  0.49944379
   0.66755086  0.16507662  0.50138108
   0.83373307  0.08481430  0.39693964
   0.58324358  0.83216853  0.39818189
   0.50033593  0.50072424  0.60324534
   0.41487134  0.41925642  0.50149063
   0.58452915  0.33474996  0.39561837
   0.50282771 -0.00127407  0.60222011
   0.41519297  0.16428567  0.50073207
   0.58387362  0.08135192  0.39685749
   0.33510390  0.58487455  0.39855324
   0.16387251  0.41767757  0.50076554
   0.25140279  0.74807283  0.60017000
   0.25214850  0.00042885  0.60035189
   0.33153041  0.33193817  0.39503714
  -0.00023479  0.25348832  0.60049586
   0.08445144  0.83325301  0.39881666
   0.91678521  0.91497815  0.50014061
  -0.00148728  0.74682868  0.60213911
   0.08007126  0.58403518  0.39850527
  -0.00071023  0.00013701  0.60104074
   0.83413288  0.33607595  0.40242780
   0.41491838  0.91663375  0.50014036
   0.83326907  0.58193296  0.40290847
   0.91831827  0.16655132  0.49990777
   0.91870186  0.41445160  0.50002221
   0.75052124  0.50274420  0.59770735
   0.50243871  0.74910911  0.59699759
   0.83317093  0.83201409  0.40297776
   0.08181094  0.33427202  0.40323541
   0.74959835 -0.00145891  0.59845989
   0.41438985  0.66906254  0.49997345
   0.58425461  0.58393403  0.40217890
   0.49879449  0.24992166  0.59891322
  -0.00105914  0.50043601  0.59757538
   0.33322374  0.08298094  0.40299710
   0.66610194  0.91526447  0.50019740
   0.16832238  0.91626426  0.49979005
   0.33442659  0.83402392  0.40348510
   0.24896613  0.49804945  0.59873733
   0.16612528  0.66798745  0.50045815
   0.16527071  0.16502595  0.50008461
   0.24965677  0.25239204  0.59820129
   0.91637358  0.66604472  0.49997099
   0.75009595  0.74825719  0.59721000
Direct configuration=     9
   0.08483949  0.08592423  0.39970014
   0.66690532  0.66789425  0.49999586
   0.74873245  0.25058499  0.60375270
   0.66844958  0.41666860  0.49949457
   0.66740354  0.16523812  0.50131746
   0.83384026  0.08472244  0.39675047
   0.58310443  0.83247051  0.39800165
   0.50010826  0.50061430  0.60339187
   0.41516398  0.41911076  0.50143635
   0.58452316  0.33481489  0.39541665
   0.50295030 -0.00118238  0.60234139
   0.41525300  0.16436568  0.50069189
   0.58385602  0.08142686  0.39665583
   0.33510726  0.58507511  0.39849195
   0.16345306  0.41754857  0.50074701
   0.25142340  0.74803199  0.60024330
   0.25213751  0.00024135  0.60051547
   0.33167969  0.33187626  0.39467997
  -0.00017374  0.25345759  0.60064539
   0.08441965  0.83331583  0.39875406
   0.91667641  0.91480304  0.50017193
  -0.00141084  0.74689260  0.60229416
   0.07983906  0.58424756  0.39837454
  -0.00061417  0.00005193  0.60116923
   0.83401173  0.33595775  0.40250768
   0.41491974  0.91659350  0.50023509
   0.83369269  0.58190643  0.40290946
   0.91815819  0.16674700  0.49993940
   0.91904215  0.41416265  0.50016945
   0.75040833  0.50272166  0.59770468
   0.50229870  0.74921011  0.59700060
   0.83337514  0.83209109  0.40300320
   0.08194011  0.33413310  0.40331386
   0.74941812 -0.00115362  0.59834520
   0.41409286  0.66912900  0.50002665
   0.58396255  0.58374408  0.40220650
   0.49911274  0.24989340  0.59882602
  -0.00058254  0.50014235  0.59750363
   0.33316590  0.08315427  0.40306570
   0.66604520  0.91528608  0.50019010
   0.16854344  0.91595798  0.49984168
   0.33441581  0.83378508  0.40359238
   0.24916287  0.49799388  0.59866573
   0.16598098  0.66821639  0.50045721
   0.16508886  0.16517464  0.50017747
   0.24953786  0.25253835  0.59813220
   0.91654356  0.66607599  0.50002893
   0.74999790  0.74834376  0.59712334
Direct configuration=    10
   0.08496338  0.08590952  0.39975910
   0.66690932  0.66788504  0.49983802
   0.74870932  0.25057291  0.60410125
   0.66850050  0.41686483  0.49961439
   0.66736704  0.16520950  0.50115200
   0.83407951  0.08459668  0.39645403
   0.58305109  0.83234396  0.39782621
   0.50005247  0.50051072  0.60360700
   0.41485164  0.41918617  0.50131625
   0.58452745  0.33480021  0.39506047
   0.50285826 -0.00098511  0.60246318
   0.41515719  0.16436465  0.50062741
   0.58396327  0.08146255  0.39631622
   0.33487196  0.58515325  0.39840032
   0.16334336  0.41765369  0.50063583
   0.25137367  0.74797673  0.60038176
   0.25224063  0.00018819  0.60077307
   0.33156532  0.33220767  0.39408014
  -0.00029782  0.25342011  0.60090862
   0.08433739  0.83363986  0.39870025
   0.91678619  0.91475061  0.50023329
  -0.00146152  0.74689474  0.60250396
   0.07999186  0.58414216  0.39821245
  -0.00057059  0.00001438  0.60130634
   0.83394086  0.33601328  0.40273069
   0.41497948  0.91659948  0.50035876
   0.83375371  0.58188486  0.40301327
   0.91829733  0.16657099  0.50000428
   0.91889671  0.41410206  0.50035491
   0.75027824  0.50269561  0.59764919
   0.50233869  0.74919625  0.59695256
   0.83333964  0.83229971  0.40304542
   0.08201232  0.33415111  0.40345375
   0.74940199 -0.00104587  0.59815398
   0.41415161  0.66908224  0.50014979
   0.58401230  0.58385035  0.40235459
   0.49921412  0.24987892  0.59865230
  -0.00025974  0.50009218  0.59741558
   0.33307418  0.08322481  0.40324463
   0.66579074  0.91514490  0.50013867
   0.16840316  0.91597950  0.49992256
   0.33453284  0.83382125  0.40381913
   0.24936026  0.49788739  0.59844240
   0.16578844  0.66817125  0.50047402
   0.16507115  0.16488305  0.50033613
   0.24972689  0.25242992  0.59799258
   0.91666397  0.66599357  0.50015149
   0.75006022  0.74833018  0.59691777
Direct configuration=    11
   0.08515472  0.08588680  0.39985015
   0.66691551  0.66787082  0.49959426
   0.74867358  0.25055427  0.60463953
   0.66857914  0.41716787  0.49979944
   0.66731067  0.16516531  0.50089647
   0.83444900  0.08440246  0.39599622
   0.58296873  0.83214853  0.39755525
   0.49996631  0.50035074  0.60393924
   0.41436926  0.41930263  0.50113078
   0.58453408  0.33477754  0.39451039
   0.50271613 -0.00068044  0.60265127
   0.41500923  0.16436306  0.50052782
   0.58412891  0.08151767  0.39579175
   0.33450858  0.58527393  0.39825881
   0.16317395  0.41781603  0.50046413
   0.25129686  0.74789137  0.60059560
   0.25239989  0.00010610  0.60117089
   0.33138870  0.33271949  0.39315378
  -0.00048945  0.25336221  0.60131513
   0.08421034  0.83414026  0.39861714
   0.91695572  0.91466963  0.50032804
  -0.00153980  0.74689804  0.60282796
   0.08022784  0.58397939  0.39796213
  -0.00050329 -0.00004359  0.60151808
   0.83383141  0.33609904  0.40307511
   0.41507175  0.91660870  0.50054975
   0.83384794  0.58185155  0.40317358
   0.91851222  0.16629916  0.50010448
   0.91867209  0.41400850  0.50064134
   0.75007734  0.50265537  0.59756350
   0.50240045  0.74917485  0.59687836
   0.83328482  0.83262189  0.40311061
   0.08212383  0.33417891  0.40366979
   0.74937707 -0.00087947  0.59785867
   0.41424235  0.66901002  0.50033995
   0.58408913  0.58401447  0.40258330
   0.49937068  0.24985655  0.59838401
   0.00023879  0.50001469  0.59727960
   0.33293252  0.08333376  0.40352095
   0.66539776  0.91492687  0.50005925
   0.16818650  0.91601274  0.50004748
   0.33471358  0.83387711  0.40416932
   0.24966509  0.49772295  0.59809751
   0.16549108  0.66810153  0.50049999
   0.16504380  0.16443274  0.50058116
   0.25001882  0.25226245  0.59777695
   0.91684994  0.66586629  0.50034076
   0.75015646  0.74830920  0.59660031
Direct configuration=    12
   0.08512245  0.08600018  0.40002012
   0.66682688  0.66787733  0.49949953
   0.74883163  0.25060032  0.60484813
   0.66817725  0.41693088  0.49996127
   0.66741822  0.16525898  0.50059916
   0.83424075  0.08482009  0.39577311
   0.58320581  0.83214257  0.39744949
   0.50017264  0.50041968  0.60410916
   0.41442866  0.41933863  0.50081911
   0.58459345  0.33494393  0.39423064
   0.50278424 -0.00083631  0.60268877
   0.41489109  0.16442803  0.50032199
   0.58389570  0.08155845  0.39550576
   0.33461286  0.58531830  0.39825467
   0.16356766  0.41754088  0.50016524
   0.25126836  0.74788203  0.60070453
   0.25239215  0.00023850  0.60140349
   0.33146659  0.33251870  0.39257962
  -0.00047680  0.25342789  0.60156042
   0.08442891  0.83393216  0.39863992
   0.91678414  0.91491030  0.50033676
  -0.00157468  0.74688719  0.60299431
   0.08005706  0.58424121  0.39785838
  -0.00055399  0.00002702  0.60159990
   0.83391272  0.33616751  0.40333543
   0.41498257  0.91660514  0.50070659
   0.83374089  0.58189714  0.40333768
   0.91834679  0.16605106  0.50025154
   0.91863603  0.41400482  0.50079405
   0.75018466  0.50274310  0.59757093
   0.50261196  0.74900640  0.59684009
   0.83319153  0.83247826  0.40319542
   0.08206051  0.33429446  0.40381597
   0.74955050 -0.00115924  0.59769035
   0.41431524  0.66875792  0.50048267
   0.58418757  0.58397305  0.40270986
   0.49928431  0.24980455  0.59817254
  -0.00007105  0.50003177  0.59732264
   0.33327940  0.08341353  0.40369367
   0.66531986  0.91504853  0.49987651
   0.16809229  0.91602304  0.50021911
   0.33473978  0.83408143  0.40446848
   0.24954694  0.49777991  0.59790374
   0.16553516  0.66805452  0.50048138
   0.16512433  0.16426999  0.50081249
   0.25008546  0.25205744  0.59765157
   0.91658524  0.66598271  0.50031825
   0.75019627  0.74822600  0.59642556
Direct configuration=    13
   0.08509940  0.08608115  0.40014150
   0.66676358  0.66788197  0.49943187
   0.74894451  0.25063321  0.60499710
   0.66789024  0.41676163  0.50007684
   0.66749502  0.16532587  0.50038684
   0.83409203  0.08511835  0.39561377
   0.58337513  0.83213832  0.39737396
   0.50032000  0.50046892  0.60423052
   0.41447109  0.41936434  0.50059653
   0.58463585  0.33506276  0.39403086
   0.50283289 -0.00094763  0.60271555
   0.41480671  0.16447444  0.50017499
   0.58372916  0.08158758  0.39530152
   0.33468733  0.58534999  0.39825172
   0.16384884  0.41734438  0.49995179
   0.25124801  0.74787536  0.60078232
   0.25238662  0.00033306  0.60156960
   0.33152222  0.33237531  0.39216958
  -0.00046776  0.25347479  0.60173559
   0.08458501  0.83378354  0.39865619
   0.91666160  0.91508218  0.50034300
  -0.00159958  0.74687944  0.60311310
   0.07993510  0.58442819  0.39778428
  -0.00059020  0.00007745  0.60165833
   0.83397079  0.33621641  0.40352134
   0.41491888  0.91660260  0.50081859
   0.83366444  0.58192970  0.40345487
   0.91822865  0.16587387  0.50035656
   0.91861028  0.41400220  0.50090312
   0.75026130  0.50280574  0.59757623
   0.50276302  0.74888611  0.59681277
   0.83312491  0.83237569  0.40325599
   0.08201530  0.33437697  0.40392037
   0.74967435 -0.00135904  0.59757014
   0.41436729  0.66857788  0.50058458
   0.58425788  0.58394346  0.40280025
   0.49922262  0.24976742  0.59802152
  -0.00029231  0.50004396  0.59735337
   0.33352712  0.08347050  0.40381702
   0.66526422  0.91513542  0.49974600
   0.16802501  0.91603039  0.50034168
   0.33475850  0.83422734  0.40468213
   0.24946256  0.49782059  0.59776535
   0.16556665  0.66802095  0.50046808
   0.16518184  0.16415376  0.50097769
   0.25013304  0.25191103  0.59756203
   0.91639619  0.66606586  0.50030218
   0.75022469  0.74816658  0.59630077
Direct configuration=    14
   0.08513556  0.08610428  0.40044427
   0.66647404  0.66775026  0.49946896
   0.74880895  0.25060656  0.60500483
   0.66791021  0.41655079  0.50026264
   0.66722776  0.16521368  0.50011972
   0.83398217  0.08512365  0.39549528
   0.58341695  0.83213994  0.39732185
   0.50042275  0.50039020  0.60434842
   0.41459753  0.41911374  0.50030636
   0.58458303  0.33531240  0.39378078
   0.50310366 -0.00121850  0.60262145
   0.41525178  0.16442493  0.50000176
   0.58386759  0.08169728  0.39505369
   0.33501842  0.58526437  0.39827293
   0.16383323  0.41744650  0.49974430
   0.25131434  0.74792584  0.60084539
   0.25236975  0.00019797  0.60177190
   0.33138365  0.33244001  0.39167019
  -0.00032403  0.25351063  0.60192839
   0.08443960  0.83394551  0.39879443
   0.91667552  0.91489890  0.50024602
  -0.00147370  0.74675371  0.60316059
   0.07989427  0.58443406  0.39773745
  -0.00059611  0.00006700  0.60171757
   0.83407698  0.33630655  0.40380817
   0.41486198  0.91653165  0.50101904
   0.83372908  0.58184405  0.40354716
   0.91804752  0.16603685  0.50056363
   0.91867684  0.41377726  0.50105355
   0.75042750  0.50283165  0.59762780
   0.50275640  0.74887332  0.59684937
   0.83314375  0.83249942  0.40328481
   0.08202822  0.33448377  0.40396854
   0.74966515 -0.00138594  0.59739776
   0.41423199  0.66853871  0.50075023
   0.58420269  0.58392417  0.40288430
   0.49930807  0.24977143  0.59769974
  -0.00034153  0.50003263  0.59735029
   0.33360827  0.08346146  0.40385968
   0.66511306  0.91559524  0.49952705
   0.16801612  0.91590475  0.50058823
   0.33476104  0.83440065  0.40500766
   0.24928375  0.49776237  0.59754315
   0.16540612  0.66817291  0.50045567
   0.16491891  0.16428058  0.50119914
   0.24995396  0.25208126  0.59744567
   0.91659720  0.66597850  0.50024643
   0.75021001  0.74820303  0.59620378
Direct configuration=    15
   0.08515004  0.08611355  0.40056552
   0.66635808  0.66769751  0.49948382
   0.74875467  0.25059589  0.60500792
   0.66791821  0.41646636  0.50033706
   0.66712073  0.16516876  0.50001274
   0.83393818  0.08512577  0.39544783
   0.58343370  0.83214059  0.39730098
   0.50046390  0.50035867  0.60439563
   0.41464818  0.41901338  0.50019015
   0.58456188  0.33541238  0.39368063
   0.50321210 -0.00132699  0.60258377
   0.41543003  0.16440510  0.49993238
   0.58392303  0.08174122  0.39495443
   0.33515101  0.58523008  0.39828143
   0.16382698  0.41748740  0.49966120
   0.25134090  0.74794606  0.60087065
   0.25236299  0.00014387  0.60185292
   0.33132815  0.33246592  0.39147020
  -0.00026647  0.25352498  0.60200560
   0.08438136  0.83401038  0.39884979
   0.91668109  0.91482550  0.50020719
  -0.00142329  0.74670336  0.60317961
   0.07987792  0.58443641  0.39771869
  -0.00059847  0.00006281  0.60174129
   0.83411951  0.33634265  0.40392303
   0.41483920  0.91650324  0.50109932
   0.83375497  0.58180975  0.40358412
   0.91797498  0.16610213  0.50064656
   0.91870350  0.41368717  0.50111380
   0.75049407  0.50284202  0.59764845
   0.50275375  0.74886820  0.59686403
   0.83315129  0.83254898  0.40329636
   0.08203339  0.33452654  0.40398783
   0.74966147 -0.00139671  0.59732872
   0.41417780  0.66852302  0.50081656
   0.58418058  0.58391644  0.40291796
   0.49934229  0.24977303  0.59757087
  -0.00036124  0.50002810  0.59734905
   0.33364077  0.08345783  0.40387676
   0.66505253  0.91577939  0.49943936
   0.16801257  0.91585444  0.50068698
   0.33476205  0.83447005  0.40513804
   0.24921214  0.49773906  0.59745416
   0.16534182  0.66823377  0.50045070
   0.16481362  0.16433137  0.50128782
   0.24988223  0.25214943  0.59739906
   0.91667771  0.66594351  0.50022410
   0.75020413  0.74821763  0.59616494
Direct configuration=    16
   0.08513345  0.08612431  0.40093743
   0.66631560  0.66772209  0.49957008
   0.74869695  0.25046035  0.60491221
   0.66796756  0.41636131  0.50050142
   0.66724476  0.16504608  0.49975718
   0.83399612  0.08514940  0.39539590
   0.58337733  0.83216496  0.39731463
   0.50032387  0.50027422  0.60447012
   0.41454033  0.41900892  0.49992600
   0.58466182  0.33543293  0.39344858
   0.50323132 -0.00131590  0.60241945
   0.41529902  0.16439842  0.49977814
   0.58399882  0.08189502  0.39469369
   0.33506911  0.58542115  0.39829658
   0.16379622  0.41752870  0.49954461
   0.25144752  0.74778186  0.60095083
   0.25245222  0.00006334  0.60204738
   0.33120497  0.33259022  0.39104040
  -0.00025479  0.25345074  0.60220689
   0.08439118  0.83411835  0.39901245
   0.91667611  0.91478828  0.50013720
  -0.00133443  0.74666388  0.60315682
   0.08003506  0.58441559  0.39766968
  -0.00068312  0.00005226  0.60179285
   0.83412268  0.33634843  0.40417283
   0.41474763  0.91668837  0.50128675
   0.83375965  0.58183178  0.40364346
   0.91779182  0.16614005  0.50088855
   0.91872144  0.41368483  0.50125840
   0.75056659  0.50280532  0.59775583
   0.50272258  0.74884136  0.59699211
   0.83319982  0.83266842  0.40322643
   0.08216463  0.33446778  0.40397601
   0.74970536 -0.00133249  0.59714136
   0.41399984  0.66841047  0.50098142
   0.58417247  0.58399036  0.40300861
   0.49930220  0.24983174  0.59724766
  -0.00024740  0.50007231  0.59729727
   0.33358276  0.08349855  0.40388785
   0.66505844  0.91558721  0.49924421
   0.16787619  0.91588125  0.50095337
   0.33472454  0.83448986  0.40544420
   0.24925778  0.49764389  0.59720920
   0.16539758  0.66817817  0.50044381
   0.16487261  0.16439161  0.50144845
   0.24991401  0.25222522  0.59726194
   0.91670513  0.66580606  0.50018265
   0.75029465  0.74825297  0.59606714
Direct configuration=    17
   0.08511738  0.08613473  0.40129767
   0.66627446  0.66774590  0.49965363
   0.74864105  0.25032906  0.60481950
   0.66801536  0.41625956  0.50066062