unknown system                          
           1
    11.002582    0.000000    0.000000
     5.501291    9.528515    0.000000
     0.000000    0.000000   24.491785
   Au   Pd
  24  24
Direct configuration=     1
   0.08333333  0.08333333  0.40830017
   0.91666667  0.41666667  0.50000000
   0.25000000  0.00000000  0.59169983
   0.08333333  0.33333333  0.40830017
   0.00000000  0.00000000  0.59169983
   0.91666667  0.91666667  0.50000000
   0.91666667  0.66666667  0.50000000
   0.00000000  0.75000000  0.59169983
   0.25000000  0.75000000  0.59169983
   0.33333333  0.33333333  0.40830017
   0.16666667  0.41666667  0.50000000
   0.25000000  0.25000000  0.59169983
   0.00000000  0.25000000  0.59169983
   0.25000000  0.50000000  0.59169983
   0.41666667  0.16666667  0.50000000
   0.58333333  0.33333333  0.40830017
   0.50000000  0.25000000  0.59169983
   0.66666667  0.16666667  0.50000000
   0.75000000  0.00000000  0.59169983
   0.83333333  0.33333333  0.40830017
   0.75000000  0.25000000  0.59169983
   0.83333333  0.58333333  0.40830017
   0.83333333  0.83333333  0.40830017
   0.33333333  0.58333333  0.40830017
   0.00000000  0.50000000  0.59169983
   0.50000000  0.00000000  0.59169983
   0.08333333  0.83333333  0.40830017
   0.58333333  0.08333333  0.40830017
   0.33333333  0.08333333  0.40830017
   0.16666667  0.91666667  0.50000000
   0.33333333  0.83333333  0.40830017
   0.16666667  0.66666667  0.50000000
   0.41666667  0.41666667  0.50000000
   0.66666667  0.91666667  0.50000000
   0.58333333  0.58333333  0.40830017
   0.91666667  0.16666667  0.50000000
   0.41666667  0.66666667  0.50000000
   0.41666667  0.91666667  0.50000000
   0.08333333  0.58333333  0.40830017
   0.75000000  0.50000000  0.59169983
   0.66666667  0.66666667  0.50000000
   0.66666667  0.41666667  0.50000000
   0.83333333  0.08333333  0.40830017
   0.50000000  0.75000000  0.59169983
   0.16666667  0.16666667  0.50000000
   0.58333333  0.83333333  0.40830017
   0.50000000  0.50000000  0.59169983
   0.75000000  0.75000000  0.59169983
Direct configuration=     2
   0.08333333  0.08333333  0.40830017
   0.91515908  0.41681316  0.50077802
   0.25164313 -0.00086045  0.59323781
   0.08333333  0.33333333  0.40830017
   0.00030926  0.00029100  0.59363112
   0.91790628  0.91699926  0.49913817
   0.91596419  0.66687708  0.50036658
  -0.00028147  0.74903041  0.59392893
   0.25170850  0.74910614  0.59323297
   0.33333333  0.33333333  0.40830017
   0.16636206  0.41784927  0.49996482
   0.24977174  0.24967385  0.59390705
  -0.00057630  0.25095313  0.59354707
   0.25032985  0.50039338  0.59361450
   0.41752384  0.16398886  0.49954496
   0.58333333  0.33333333  0.40830017
   0.49978586  0.25057435  0.59394221
   0.66698522  0.16686659  0.49925842
   0.74895936 -0.00110449  0.59396062
   0.83333333  0.33333333  0.40830017
   0.74941927  0.25193863  0.59359176
   0.83333333  0.58333333  0.40830017
   0.83333333  0.83333333  0.40830017
   0.33333333  0.58333333  0.40830017
  -0.00095555  0.50044051  0.59307323
   0.50055071 -0.00150720  0.59263281
   0.08333333  0.83333333  0.40830017
   0.58333333  0.08333333  0.40830017
   0.33333333  0.08333333  0.40830017
   0.16781928  0.91614080  0.49940723
   0.33333333  0.83333333  0.40830017
   0.16766658  0.66691446  0.49951600
   0.41698998  0.41826686  0.50013612
   0.66507538  0.91598506  0.49995149
   0.58333333  0.58333333  0.40830017
   0.91694650  0.16638405  0.49974358
   0.41748117  0.66661933  0.49995970
   0.41732336  0.91563206  0.49974056
   0.08333333  0.58333333  0.40830017
   0.74908519  0.50116042  0.59254188
   0.66451267  0.66776191  0.50030952
   0.66541037  0.41849346  0.50027816
   0.83333333  0.08333333  0.40830017
   0.50091682  0.74967532  0.59223298
   0.16752290  0.16491134  0.49977926
   0.58333333  0.83333333  0.40830017
   0.50035999  0.50074183  0.59239191
   0.74900369  0.74982151  0.59259745
Direct configuration=     3
   0.08333333  0.08333333  0.40830017
   0.91141828  0.41717667  0.50270853
   0.25572027 -0.00299548  0.59705402
   0.08333333  0.33333333  0.40830017
   0.00107662  0.00101307  0.59842326
   0.92098216  0.91782453  0.49699970
   0.91422112  0.66739918  0.50127618
  -0.00097987  0.74662455  0.59946002
   0.25594781  0.74688820  0.59703717
   0.33333333  0.33333333  0.40830017
   0.16560624  0.42078367  0.49987752
   0.24920535  0.24886457  0.59938384
  -0.00200627  0.25331814  0.59813063
   0.25114830  0.50136947  0.59836539
   0.41965077  0.15734439  0.49841588
   0.58333333  0.33333333  0.40830017
   0.49925451  0.25199951  0.59950624
   0.66777564  0.16736267  0.49741831
   0.74637722 -0.00384507  0.59957034
   0.83333333  0.33333333  0.40830017
   0.74797831  0.25674897  0.59828622
   0.83333333  0.58333333  0.40830017
   0.83333333  0.83333333  0.40830017
   0.33333333  0.58333333  0.40830017
  -0.00332657  0.50153357  0.59648106
   0.50191718 -0.00524703  0.59494781
   0.08333333  0.83333333  0.40830017
   0.58333333  0.08333333  0.40830017
   0.33333333  0.08333333  0.40830017
   0.17067927  0.91483595  0.49793639
   0.33333333  0.83333333  0.40830017
   0.17014768  0.66752933  0.49831503
   0.41779223  0.42223744  0.50047386
   0.66112691  0.91429378  0.49983113
   0.58333333  0.58333333  0.40830017
   0.91764086  0.16568278  0.49910732
   0.41950220  0.66650186  0.49985969
   0.41895283  0.91306488  0.49909681
   0.08333333  0.58333333  0.40830017
   0.74681525  0.50403980  0.59463126
   0.65916793  0.67047956  0.50107755
   0.66229311  0.42302630  0.50096838
   0.83333333  0.08333333  0.40830017
   0.50319173  0.74886970  0.59355590
   0.16964748  0.16055583  0.49923154
   0.58333333  0.83333333  0.40830017
   0.50125325  0.50258255  0.59410917
   0.74653154  0.74937864  0.59482473
Direct configuration=     4
   0.08333333  0.08333333  0.40830017
   0.91141763  0.41669495  0.50441324
   0.25629673 -0.00361562  0.59908492
   0.08333333  0.33333333  0.40830017
   0.00082114  0.00050583  0.60062304
   0.92132557  0.91735513  0.49936144
   0.91343625  0.66885109  0.50310459
  -0.00127814  0.74720368  0.60213665
   0.25598746  0.74735896  0.59900675
   0.33333333  0.33333333  0.40830017
   0.16665156  0.41980570  0.50208324
   0.24952919  0.24911641  0.60187582
  -0.00166509  0.25322482  0.60068814
   0.25100326  0.50115370  0.60084732
   0.41879083  0.15877676  0.50045589
   0.58333333  0.33333333  0.40830017
   0.49961845  0.25147518  0.60193560
   0.66762416  0.16701588  0.49990215
   0.74638959 -0.00374830  0.60198548
   0.83333333  0.33333333  0.40830017
   0.74742825  0.25663606  0.60053794
   0.83333333  0.58333333  0.40830017
   0.83333333  0.83333333  0.40830017
   0.33333333  0.58333333  0.40830017
  -0.00352468  0.50155809  0.59843964
   0.50160715 -0.00525151  0.59632638
   0.08333333  0.83333333  0.40830017
   0.58333333  0.08333333  0.40830017
   0.33333333  0.08333333  0.40830017
   0.17251059  0.91385589  0.49928196
   0.33333333  0.83333333  0.40830017
   0.17031265  0.66863355  0.49989757
   0.41791209  0.42159916  0.50222758
   0.66261678  0.91321923  0.50088804
   0.58333333  0.58333333  0.40830017
   0.91770613  0.16600789  0.50095657
   0.41853647  0.66767332  0.50057979
   0.41787050  0.91184182  0.49973357
   0.08333333  0.58333333  0.40830017
   0.74593034  0.50569471  0.59645198
   0.65853324  0.67075514  0.50163905
   0.66199780  0.42332117  0.50203359
   0.83333333  0.08333333  0.40830017
   0.50370381  0.74862221  0.59482126
   0.16993466  0.16031145  0.50097739
   0.58333333  0.83333333  0.40830017
   0.50147861  0.50317613  0.59543252
   0.74630356  0.74862924  0.59637379
Direct configuration=     5
   0.08333333  0.08333333  0.40830017
   0.91141565  0.41524978  0.50952736
   0.25802614 -0.00547606  0.60517760
   0.08333333  0.33333333  0.40830017
   0.00005471 -0.00101590  0.60722237
   0.92235582  0.91594692  0.50644665
   0.91108163  0.67320682  0.50858983
  -0.00217294  0.74894109  0.61016654
   0.25610642  0.74877124  0.60491548
   0.33333333  0.33333333  0.40830017
   0.16978752  0.41687179  0.50870041
   0.25050071  0.24987192  0.60935173
  -0.00064156  0.25294485  0.60836067
   0.25056814  0.50050641  0.60829311
   0.41621102  0.16307388  0.50657594
   0.58333333  0.33333333  0.40830017
   0.50071025  0.24990222  0.60922370
   0.66716972  0.16597552  0.50735366
   0.74642669 -0.00345802  0.60923092
   0.83333333  0.33333333  0.40830017
   0.74577806  0.25629734  0.60729311
   0.83333333  0.58333333  0.40830017
   0.83333333  0.83333333  0.40830017
   0.33333333  0.58333333  0.40830017
  -0.00411900  0.50163166  0.60431536
   0.50067707 -0.00526496  0.60046210
   0.08333333  0.83333333  0.40830017
   0.58333333  0.08333333  0.40830017
   0.33333333  0.08333333  0.40830017
   0.17800453  0.91091570  0.50331869
   0.33333333  0.83333333  0.40830017
   0.17080756  0.67194621  0.50464520
   0.41827167  0.41968435  0.50748872
   0.66708639  0.90999561  0.50405878
   0.58333333  0.58333333  0.40830017
   0.91790193  0.16698321  0.50650434
   0.41563928  0.67118769  0.50274007
   0.41462353  0.90817261  0.50164387
   0.08333333  0.58333333  0.40830017
   0.74327561  0.51065943  0.60191415
   0.65662916  0.67158189  0.50332356
   0.66111188  0.42420577  0.50522922
   0.83333333  0.08333333  0.40830017
   0.50524006  0.74787977  0.59861733
   0.17079621  0.15957833  0.50621496
   0.58333333  0.83333333  0.40830017
   0.50215468  0.50495688  0.59940258
   0.74561961  0.74638106  0.60102098
Direct configuration=     6
   0.08333333  0.08333333  0.40830017
   0.91382266  0.41659292  0.51059956
   0.25510871 -0.00302323  0.60701651
   0.08333333  0.33333333  0.40830017
  -0.00002061  0.00027598  0.60914703
   0.92162906  0.91802309  0.50809865
   0.91681620  0.66714769  0.50961752
  -0.00133782  0.74837210  0.61257472
   0.25437877  0.74822682  0.60672231
   0.33333333  0.33333333  0.40830017
   0.16639805  0.41943610  0.51012331
   0.25053195  0.24909005  0.61169942
  -0.00082936  0.25137030  0.61054224
   0.25039091  0.50191025  0.61047673
   0.41823515  0.16130737  0.50784848
   0.58333333  0.33333333  0.40830017
   0.50018466  0.25012857  0.61142255
   0.66762264  0.16526467  0.50891664
   0.74674931 -0.00361180  0.61127987
   0.83333333  0.33333333  0.40830017
   0.74774696  0.25568309  0.60912508
   0.83333333  0.58333333  0.40830017
   0.83333333  0.83333333  0.40830017
   0.33333333  0.58333333  0.40830017
  -0.00291157  0.50156081  0.60622032
   0.50110034 -0.00390522  0.60153720
   0.08333333  0.83333333  0.40830017
   0.58333333  0.08333333  0.40830017
   0.33333333  0.08333333  0.40830017
   0.17116728  0.91528248  0.50538502
   0.33333333  0.83333333  0.40830017
   0.16996387  0.66864001  0.50676538
   0.41750103  0.41917723  0.50893343
   0.66365626  0.91546416  0.50554240
   0.58333333  0.58333333  0.40830017
   0.91813271  0.16561642  0.50844435
   0.41629613  0.66580008  0.50415214
   0.41637494  0.91442833  0.50312747
   0.08333333  0.58333333  0.40830017
   0.74593014  0.50600090  0.60393508
   0.66107801  0.66870691  0.50399256
   0.66220572  0.42146493  0.50644184
   0.83333333  0.08333333  0.40830017
   0.50279262  0.74949828  0.60005221
   0.16914488  0.16179731  0.50818678
   0.58333333  0.83333333  0.40830017
   0.50075020  0.50393508  0.60100574
   0.74681968  0.74899961  0.60309861
Direct configuration=     7
   0.08333333  0.08333333  0.40830017
   0.91375864  0.41655720  0.51057105
   0.25518630 -0.00308847  0.60696760
   0.08333333  0.33333333  0.40830017
  -0.00001860  0.00024162  0.60909584
   0.92164839  0.91796787  0.50805471
   0.91666368  0.66730884  0.50959019
  -0.00136003  0.74838723  0.61251067
   0.25442472  0.74824130  0.60667426
   0.33333333  0.33333333  0.40830017
   0.16648820  0.41936790  0.51008547
   0.25053112  0.24911084  0.61163698
  -0.00082437  0.25141218  0.61048422
   0.25039563  0.50187291  0.61041865
   0.41818132  0.16135436  0.50781464
   0.58333333  0.33333333  0.40830017
   0.50019864  0.25012255  0.61136407
   0.66761060  0.16528357  0.50887507
   0.74674073 -0.00360771  0.61122537
   0.83333333  0.33333333  0.40830017
   0.74769459  0.25569943  0.60907636
   0.83333333  0.58333333  0.40830017
   0.83333333  0.83333333  0.40830017
   0.33333333  0.58333333  0.40830017
  -0.00294368  0.50156269  0.60616965
   0.50108908 -0.00394139  0.60150861
   0.08333333  0.83333333  0.40830017
   0.58333333  0.08333333  0.40830017
   0.33333333  0.08333333  0.40830017
   0.17134913  0.91516634  0.50533007
   0.33333333  0.83333333  0.40830017
   0.16998630  0.66872794  0.50670899
   0.41752152  0.41919072  0.50889500
   0.66374749  0.91531871  0.50550294
   0.58333333  0.58333333  0.40830017
   0.91812657  0.16565277  0.50839276
   0.41627866  0.66594337  0.50411458
   0.41632836  0.91426195  0.50308801
   0.08333333  0.58333333  0.40830017
   0.74585954  0.50612480  0.60388133
   0.66095969  0.66878338  0.50397477
   0.66217663  0.42153783  0.50640959
   0.83333333  0.08333333  0.40830017
   0.50285771  0.74945524  0.60001405
   0.16918880  0.16173829  0.50813434
   0.58333333  0.83333333  0.40830017
   0.50078756  0.50396226  0.60096310
   0.74678777  0.74892997  0.60304335
Direct configuration=     8
   0.08333333  0.08333333  0.40830017
   0.91422387  0.41577620  0.51050885
   0.25413175 -0.00235053  0.60725137
   0.08333333  0.33333333  0.40830017
  -0.00010818  0.00028269  0.60978394
   0.92049810  0.91680438  0.50766555
   0.91644681  0.66855035  0.50928262
  -0.00123582  0.74853335  0.61301791
   0.25343128  0.74881687  0.60691943
   0.33333333  0.33333333  0.40830017
   0.16760406  0.41795000  0.50981408
   0.25019762  0.24933519  0.61217266
  -0.00090501  0.25179055  0.61084445
   0.25068408  0.50132466  0.61095927
   0.41690865  0.16376017  0.50732397
   0.58333333  0.33333333  0.40830017
   0.49985357  0.25085012  0.61187810
   0.66765189  0.16617506  0.50846327
   0.74747609 -0.00314746  0.61166285
   0.83333333  0.33333333  0.40830017
   0.74784134  0.25527826  0.60941382
   0.83333333  0.58333333  0.40830017
   0.83333333  0.83333333  0.40830017
   0.33333333  0.58333333  0.40830017
  -0.00209407  0.50093513  0.60708970
   0.50094903 -0.00330284  0.60213722
   0.08333333  0.83333333  0.40830017
   0.58333333  0.08333333  0.40830017
   0.33333333  0.08333333  0.40830017
   0.17011148  0.91616792  0.50596048
   0.33333333  0.83333333  0.40830017
   0.16916905  0.66768901  0.50714792
   0.41677176  0.41775557  0.50887818
   0.66557931  0.91473573  0.50592248
   0.58333333  0.58333333  0.40830017
   0.91759961  0.16686069  0.50854032
   0.41621796  0.66628832  0.50473298
   0.41675656  0.91469358  0.50377968
   0.08333333  0.58333333  0.40830017
   0.74701180  0.50427150  0.60421652
   0.66232729  0.66852316  0.50470991
   0.66443445  0.41905507  0.50682419
   0.83333333  0.08333333  0.40830017
   0.50216861  0.74985299  0.59998264
   0.16807776  0.16363970  0.50849803
   0.58333333  0.83333333  0.40830017
   0.50072229  0.50269521  0.60171289
   0.74735560  0.74944933  0.60338878
Direct configuration=     9
   0.08333333  0.08333333  0.40830017
   0.91425304  0.41572724  0.51050496
   0.25406563 -0.00230426  0.60726916
   0.08333333  0.33333333  0.40830017
  -0.00011379  0.00028527  0.60982708
   0.92042598  0.91673143  0.50764115
   0.91643322  0.66862819  0.50926333
  -0.00122803  0.74854251  0.61304971
   0.25336899  0.74885296  0.60693480
   0.33333333  0.33333333  0.40830017
   0.16767402  0.41786111  0.50979706
   0.25017671  0.24934926  0.61220624
  -0.00091007  0.25181427  0.61086703
   0.25070217  0.50129029  0.61099316
   0.41682886  0.16391100  0.50729321
   0.58333333  0.33333333  0.40830017
   0.49983194  0.25089573  0.61191033
   0.66765448  0.16623096  0.50843745
   0.74752220 -0.00311860  0.61169028
   0.83333333  0.33333333  0.40830017
   0.74785055  0.25525186  0.60943497
   0.83333333  0.58333333  0.40830017
   0.83333333  0.83333333  0.40830017
   0.33333333  0.58333333  0.40830017
  -0.00204080  0.50089579  0.60714738
   0.50094025 -0.00326280  0.60217663
   0.08333333  0.83333333  0.40830017
   0.58333333  0.08333333  0.40830017
   0.33333333  0.08333333  0.40830017
   0.17003388  0.91623071  0.50600001
   0.33333333  0.83333333  0.40830017
   0.16911781  0.66762387  0.50717544
   0.41672475  0.41766559  0.50887713
   0.66569416  0.91469918  0.50594879
   0.58333333  0.58333333  0.40830017
   0.91756657  0.16693642  0.50854957
   0.41621416  0.66630994  0.50477175
   0.41678340  0.91472064  0.50382305
   0.08333333  0.58333333  0.40830017
   0.74708404  0.50415531  0.60423753
   0.66241303  0.66850684  0.50475600
   0.66457601  0.41889941  0.50685018
   0.83333333  0.08333333  0.40830017
   0.50212540  0.74987793  0.59998067
   0.16800810  0.16375891  0.50852083
   0.58333333  0.83333333  0.40830017
   0.50071820  0.50261577  0.60175990
   0.74739120  0.74948189  0.60341044
Direct configuration=    10
   0.08333333  0.08333333  0.40830017
   0.91447232  0.41632166  0.51046508
   0.25399415 -0.00209650  0.60730664
   0.08333333  0.33333333  0.40830017
  -0.00041365  0.00031417  0.61006051
   0.92015360  0.91705606  0.50723892
   0.91646972  0.66792106  0.50920484
  -0.00114283  0.74837369  0.61320851
   0.25330310  0.74884677  0.60691000
   0.33333333  0.33333333  0.40830017
   0.16694764  0.41796225  0.50964131
   0.25029025  0.24942295  0.61242116
  -0.00095566  0.25211567  0.61101437
   0.25055286  0.50109471  0.61122966
   0.41727426  0.16350587  0.50699726
   0.58333333  0.33333333  0.40830017
   0.49998221  0.25068239  0.61208430
   0.66776095  0.16630600  0.50799354
   0.74752887 -0.00233230  0.61181845
   0.83333333  0.33333333  0.40830017
   0.74779008  0.25462976  0.60959407
   0.83333333  0.58333333  0.40830017
   0.83333333  0.83333333  0.40830017
   0.33333333  0.58333333  0.40830017
  -0.00185212  0.50097825  0.60737327
   0.50076234 -0.00261538  0.60238648
   0.08333333  0.83333333  0.40830017
   0.58333333  0.08333333  0.40830017
   0.33333333  0.08333333  0.40830017
   0.16988406  0.91627833  0.50619159
   0.33333333  0.83333333  0.40830017
   0.16919050  0.66747053  0.50728277
   0.41693359  0.41775686  0.50879308
   0.66573523  0.91500951  0.50619787
   0.58333333  0.58333333  0.40830017
   0.91765554  0.16644666  0.50849587
   0.41637868  0.66661078  0.50506674
   0.41671262  0.91470604  0.50415992
   0.08333333  0.58333333  0.40830017
   0.74714909  0.50431335  0.60426147
   0.66257556  0.66836859  0.50525769
   0.66461394  0.41878465  0.50711588
   0.83333333  0.08333333  0.40830017
   0.50240459  0.74950589  0.59986782
   0.16792508  0.16399062  0.50854436
   0.58333333  0.83333333  0.40830017
   0.50070900  0.50240882  0.60204636
   0.74768230  0.74904760  0.60347879
Direct configuration=    11
   0.08333333  0.08333333  0.40830017
   0.91450274  0.41640412  0.51045955
   0.25398423 -0.00206769  0.60731184
   0.08333333  0.33333333  0.40830017
  -0.00045524  0.00031818  0.61009289
   0.92011582  0.91710109  0.50718312
   0.91647478  0.66782297  0.50919672
  -0.00113101  0.74835027  0.61323054
   0.25329397  0.74884591  0.60690656
   0.33333333  0.33333333  0.40830017
   0.16684688  0.41797628  0.50961971
   0.25030600  0.24943317  0.61245097
  -0.00096198  0.25215747  0.61103480
   0.25053215  0.50106758  0.61126247
   0.41733604  0.16344967  0.50695621
   0.58333333  0.33333333  0.40830017
   0.50000306  0.25065280  0.61210844
   0.66777572  0.16631641  0.50793197
   0.74752980 -0.00222324  0.61183623
   0.83333333  0.33333333  0.40830017
   0.74778169  0.25454347  0.60961613
   0.83333333  0.58333333  0.40830017
   0.83333333  0.83333333  0.40830017
   0.33333333  0.58333333  0.40830017
  -0.00182595  0.50098969  0.60740461
   0.50073766 -0.00252558  0.60241559
   0.08333333  0.83333333  0.40830017
   0.58333333  0.08333333  0.40830017
   0.33333333  0.08333333  0.40830017
   0.16986328  0.91628493  0.50621816
   0.33333333  0.83333333  0.40830017
   0.16920058  0.66744926  0.50729765
   0.41696256  0.41776952  0.50878142
   0.66574093  0.91505255  0.50623242
   0.58333333  0.58333333  0.40830017
   0.91766788  0.16637873  0.50848842
   0.41640150  0.66665251  0.50510766
   0.41670280  0.91470402  0.50420665
   0.08333333  0.58333333  0.40830017
   0.74715811  0.50433527  0.60426479
   0.66259811  0.66834941  0.50532728
   0.66461920  0.41876874  0.50715274
   0.83333333  0.08333333  0.40830017
   0.50244332  0.74945428  0.59985216
   0.16791356  0.16402276  0.50854763
   0.58333333  0.83333333  0.40830017
   0.50070773  0.50238011  0.60208609
   0.74772268  0.74898736  0.60348827
Direct configuration=    12
   0.08333333  0.08333333  0.40830017
   0.91427373  0.41622356  0.51048674
   0.25407544 -0.00210491  0.60731539
   0.08333333  0.33333333  0.40830017
  -0.00039686  0.00030168  0.61018238
   0.92035611  0.91689655  0.50698346
   0.91630688  0.66807103  0.50923890
  -0.00135842  0.74850589  0.61326477
   0.25339532  0.74874899  0.60687150
   0.33333333  0.33333333  0.40830017
   0.16711850  0.41789558  0.50959858
   0.25039854  0.24951953  0.61254200
  -0.00118933  0.25229493  0.61106924
   0.25055945  0.50093554  0.61135897
   0.41753535  0.16310728  0.50686823
   0.58333333  0.33333333  0.40830017
   0.49986904  0.25065137  0.61213981
   0.66759343  0.16643252  0.50766458
   0.74755544 -0.00234426  0.61187076
   0.83333333  0.33333333  0.40830017
   0.74783470  0.25457315  0.60968086
   0.83333333  0.58333333  0.40830017
   0.83333333  0.83333333  0.40830017
   0.33333333  0.58333333  0.40830017
  -0.00179373  0.50105451  0.60748381
   0.50086584 -0.00239997  0.60250179
   0.08333333  0.83333333  0.40830017
   0.58333333  0.08333333  0.40830017
   0.33333333  0.08333333  0.40830017
   0.16998752  0.91611542  0.50627175
   0.33333333  0.83333333  0.40830017
   0.16930654  0.66751022  0.50733494
   0.41696512  0.41812373  0.50880197
   0.66572181  0.91503559  0.50641377
   0.58333333  0.58333333  0.40830017
   0.91791191  0.16631110  0.50848833
   0.41650764  0.66670792  0.50518093
   0.41661299  0.91466943  0.50433120
   0.08333333  0.58333333  0.40830017
   0.74713629  0.50428292  0.60430114
   0.66241884  0.66843770  0.50547561
   0.66454398  0.41908263  0.50733112
   0.83333333  0.08333333  0.40830017
   0.50251275  0.74943465  0.59992968
   0.16809374  0.16372744  0.50854249
   0.58333333  0.83333333  0.40830017
   0.50072619  0.50228175  0.60224540
   0.74781099  0.74909351  0.60354991
Direct configuration=    13
   0.08333333  0.08333333  0.40830017
   0.91423050  0.41618948  0.51049187
   0.25409266 -0.00211194  0.60731606
   0.08333333  0.33333333  0.40830017
  -0.00038583  0.00029856  0.61019927
   0.92040146  0.91685795  0.50694578
   0.91627520  0.66811784  0.50924686
  -0.00140134  0.74853526  0.61327124
   0.25341445  0.74873069  0.60686489
   0.33333333  0.33333333  0.40830017
   0.16716976  0.41788035  0.50959460
   0.25041600  0.24953583  0.61255918
  -0.00123223  0.25232087  0.61107574
   0.25056461  0.50091062  0.61137718
   0.41757297  0.16304265  0.50685162
   0.58333333  0.33333333  0.40830017
   0.49984374  0.25065110  0.61214573
   0.66755903  0.16645443  0.50761411
   0.74756028 -0.00236710  0.61187728
   0.83333333  0.33333333  0.40830017
   0.74784470  0.25457876  0.60969307
   0.83333333  0.58333333  0.40830017
   0.83333333  0.83333333  0.40830017
   0.33333333  0.58333333  0.40830017
  -0.00178765  0.50106674  0.60749876
   0.50089003 -0.00237626  0.60251806
   0.08333333  0.83333333  0.40830017
   0.58333333  0.08333333  0.40830017
   0.33333333  0.08333333  0.40830017
   0.17001097  0.91608343  0.50628187
   0.33333333  0.83333333  0.40830017
   0.16932653  0.66752173  0.50734197
   0.41696561  0.41819059  0.50880585
   0.66571820  0.91503239  0.50644799
   0.58333333  0.58333333  0.40830017
   0.91795797  0.16629834  0.50848831
   0.41652767  0.66671838  0.50519475
   0.41659604  0.91466290  0.50435471
   0.08333333  0.58333333  0.40830017
   0.74713217  0.50427304  0.60430800
   0.66238501  0.66845436  0.50550361
   0.66452978  0.41914187  0.50736478
   0.83333333  0.08333333  0.40830017
   0.50252585  0.74943094  0.59994430
   0.16812775  0.16367170  0.50854152
   0.58333333  0.83333333  0.40830017
   0.50072967  0.50226318  0.60227547
   0.74782766  0.74911354  0.60356154
Direct configuration=    14
   0.08333333  0.08333333  0.40830017
   0.91431437  0.41609345  0.51053832
   0.25415409 -0.00205339  0.60733345
   0.08333333  0.33333333  0.40830017
  -0.00028114  0.00024667  0.61022469
   0.92049330  0.91689477  0.50690510
   0.91634502  0.66802444  0.50930745
  -0.00139094  0.74862810  0.61327470
   0.25344852  0.74861349  0.60686291
   0.33333333  0.33333333  0.40830017
   0.16726778  0.41784824  0.50963602
   0.25027962  0.24950120  0.61259809
  -0.00117478  0.25230331  0.61108945
   0.25048953  0.50104895  0.61143494
   0.41752794  0.16305247  0.50687147
   0.58333333  0.33333333  0.40830017
   0.49997513  0.25060471  0.61211072
   0.66760383  0.16652449  0.50751627
   0.74757127 -0.00232663  0.61186297
   0.83333333  0.33333333  0.40830017
   0.74778138  0.25453480  0.60969953
   0.83333333  0.58333333  0.40830017
   0.83333333  0.83333333  0.40830017
   0.33333333  0.58333333  0.40830017
  -0.00182658  0.50106739  0.60748333
   0.50091942 -0.00240448  0.60259205
   0.08333333  0.83333333  0.40830017
   0.58333333  0.08333333  0.40830017
   0.33333333  0.08333333  0.40830017
   0.17012588  0.91597069  0.50628275
   0.33333333  0.83333333  0.40830017
   0.16939870  0.66751242  0.50736193
   0.41699333  0.41835854  0.50886335
   0.66572208  0.91493737  0.50654228
   0.58333333  0.58333333  0.40830017
   0.91800408  0.16619628  0.50852695
   0.41658214  0.66672205  0.50518642
   0.41666398  0.91455110  0.50437943
   0.08333333  0.58333333  0.40830017
   0.74710627  0.50434464  0.60439575
   0.66232798  0.66860711  0.50551264
   0.66441947  0.41927633  0.50744388
   0.83333333  0.08333333  0.40830017
   0.50258545  0.74949306  0.60009486
   0.16822235  0.16359000  0.50853753
   0.58333333  0.83333333  0.40830017
   0.50071277  0.50221975  0.60240787
   0.74780744  0.74917388  0.60366408
Direct configuration=    15
   0.08333333  0.08333333  0.40830017
   0.91437443  0.41602468  0.51057158
   0.25419807 -0.00201146  0.60734590
   0.08333333  0.33333333  0.40830017
  -0.00020618  0.00020950  0.61024288
   0.92055906  0.91692114  0.50687598
   0.91639501  0.66795755  0.50935084
  -0.00138349  0.74869458  0.61327719
   0.25347292  0.74852957  0.60686149
   0.33333333  0.33333333  0.40830017
   0.16733797  0.41782525  0.50966569
   0.25018196  0.24947641  0.61262595
  -0.00113364  0.25229073  0.61109926
   0.25043577  0.50114801  0.61147630
   0.41749569  0.16305949  0.50688569
   0.58333333  0.33333333  0.40830017
   0.50006921  0.25057149  0.61208565
   0.66763591  0.16657466  0.50744621
   0.74757914 -0.00229766  0.61185273
   0.83333333  0.33333333  0.40830017
   0.74773604  0.25450332  0.60970416
   0.83333333  0.58333333  0.40830017
   0.83333333  0.83333333  0.40830017
   0.33333333  0.58333333  0.40830017
  -0.00185445  0.50106785  0.60747228
   0.50094047 -0.00242469  0.60264503
   0.08333333  0.83333333  0.40830017
   0.58333333  0.08333333  0.40830017
   0.33333333  0.08333333  0.40830017
   0.17020816  0.91588997  0.50628338
   0.33333333  0.83333333  0.40830017
   0.16945038  0.66750575  0.50737621
   0.41701318  0.41847880  0.50890452
   0.66572485  0.91486934  0.50660980
   0.58333333  0.58333333  0.40830017
   0.91803710  0.16612320  0.50855462
   0.41662115  0.66672468  0.50518045
   0.41671263  0.91447104  0.50439714
   0.08333333  0.58333333  0.40830017
   0.74708773  0.50439591  0.60445858
   0.66228714  0.66871649  0.50551910
   0.66434048  0.41937262  0.50750052
   0.83333333  0.08333333  0.40830017
   0.50262813  0.74953754  0.60020266
   0.16829008  0.16353150  0.50853467
   0.58333333  0.83333333  0.40830017
   0.50070067  0.50218865  0.60250267
   0.74779296  0.74921708  0.60373750
Direct configuration=    16
   0.08333333  0.08333333  0.40830017
   0.91441911  0.41596938  0.51061724
   0.25424112 -0.00210041  0.60737594
   0.08333333  0.33333333  0.40830017
  -0.00012202  0.00022357  0.61025990
   0.92057816  0.91690244  0.50687303
   0.91649268  0.66788741  0.50940673
  -0.00138526  0.74874389  0.61327789
   0.25357434  0.74855233  0.60686454
   0.33333333  0.33333333  0.40830017
   0.16743079  0.41778894  0.50972263
   0.25020129  0.24952025  0.61266308
  -0.00116995  0.25223744  0.61111664
   0.25039996  0.50110483  0.61154944
   0.41753596  0.16311100  0.50694192
   0.58333333  0.33333333  0.40830017
   0.49999390  0.25058240  0.61202015
   0.66765561  0.16657316  0.50740370
   0.74764539 -0.00226201  0.61181511
   0.83333333  0.33333333  0.40830017
   0.74781758  0.25445499  0.60969950
   0.83333333  0.58333333  0.40830017
   0.83333333  0.83333333  0.40830017
   0.33333333  0.58333333  0.40830017
  -0.00189578  0.50111775  0.60746253
   0.50092132 -0.00237605  0.60272955
   0.08333333  0.83333333  0.40830017
   0.58333333  0.08333333  0.40830017
   0.33333333  0.08333333  0.40830017
   0.17032878  0.91583040  0.50627909
   0.33333333  0.83333333  0.40830017
   0.16946735  0.66748986  0.50738187
   0.41705950  0.41851318  0.50897661
   0.66577448  0.91485288  0.50667593
   0.58333333  0.58333333  0.40830017
   0.91804579  0.16611769  0.50860370
   0.41669508  0.66672344  0.50519673
   0.41680180  0.91440380  0.50441570
   0.08333333  0.58333333  0.40830017
   0.74706726  0.50445257  0.60455614
   0.66236589  0.66872844  0.50554133
   0.66436263  0.41944859  0.50757585
   0.83333333  0.08333333  0.40830017
   0.50264058  0.74955311  0.60036366
   0.16833445  0.16348400  0.50851959
   0.58333333  0.83333333  0.40830017
   0.50071530  0.50223591  0.60264791
   0.74780241  0.74924058  0.60387312
Direct configuration=    17
   0.08333333  0.08333333  0.40830017
   0.91443975  0.41594384  0.51063832
   0.25426100 -0.00214148  0.60738982
   0.08333333  0.33333333  0.40830017