unknown system                          
           1
    11.002582    0.000000    0.000000
     5.501291    9.528515    0.000000
     0.000000    0.000000   24.491785
   Au   Pd
  24  24
Direct configuration=     1
   0.75000000  0.75000000  0.59169983
   0.58333333  0.83333333  0.40830017
   0.58333333  0.33333333  0.40830017
   0.50000000  0.00000000  0.59169983
   0.41666667  0.16666667  0.50000000
   0.58333333  0.08333333  0.40830017
   0.66666667  0.91666667  0.50000000
   0.41666667  0.91666667  0.50000000
   0.33333333  0.83333333  0.40830017
   0.25000000  0.50000000  0.59169983
   0.16666667  0.66666667  0.50000000
   0.50000000  0.75000000  0.59169983
   0.25000000  0.25000000  0.59169983
   0.50000000  0.25000000  0.59169983
   0.33333333  0.33333333  0.40830017
   0.91666667  0.91666667  0.50000000
   0.08333333  0.83333333  0.40830017
   0.75000000  0.25000000  0.59169983
   0.66666667  0.66666667  0.50000000
   0.91666667  0.41666667  0.50000000
   0.08333333  0.33333333  0.40830017
   0.83333333  0.83333333  0.40830017
   0.91666667  0.16666667  0.50000000
   0.66666667  0.16666667  0.50000000
   0.75000000  0.00000000  0.59169983
   0.83333333  0.08333333  0.40830017
   0.83333333  0.33333333  0.40830017
   0.66666667  0.41666667  0.50000000
   0.83333333  0.58333333  0.40830017
   0.75000000  0.50000000  0.59169983
   0.50000000  0.50000000  0.59169983
   0.08333333  0.08333333  0.40830017
   0.58333333  0.58333333  0.40830017
   0.41666667  0.41666667  0.50000000
   0.16666667  0.91666667  0.50000000
   0.33333333  0.58333333  0.40830017
   0.16666667  0.41666667  0.50000000
   0.25000000  0.00000000  0.59169983
   0.16666667  0.16666667  0.50000000
   0.33333333  0.08333333  0.40830017
   0.00000000  0.75000000  0.59169983
   0.00000000  0.50000000  0.59169983
   0.91666667  0.66666667  0.50000000
   0.08333333  0.58333333  0.40830017
   0.00000000  0.25000000  0.59169983
   0.00000000  0.00000000  0.59169983
   0.41666667  0.66666667  0.50000000
   0.25000000  0.75000000  0.59169983
Direct configuration=     2
   0.75208219  0.74899600  0.59394250
   0.58338611  0.83246150  0.40581413
   0.58375851  0.33466237  0.40645911
   0.49988676 -0.00002209  0.59434005
   0.41436632  0.16801415  0.49966250
   0.58337912  0.08339445  0.40566643
   0.66818100  0.91607924  0.50036589
   0.41337371  0.91777457  0.49995610
   0.33295202  0.83311096  0.40641579
   0.24946702  0.50105174  0.59352404
   0.16755338  0.66572923  0.50012786
   0.49888345  0.74895201  0.59386930
   0.24796176  0.25036217  0.59361592
   0.50043258  0.25074968  0.59393740
   0.33222355  0.33463755  0.40644161
   0.91752502  0.91635715  0.50073624
   0.08365304  0.83359761  0.40614144
   0.75037158  0.25061708  0.59387735
   0.66767141  0.66381356  0.49968185
   0.91690227  0.41697649  0.50026011
   0.08313658  0.33310118  0.40650047
   0.83441296  0.83196314  0.40600051
   0.91829404  0.16636777  0.49967921
   0.66719488  0.16739204  0.50004531
   0.75089144 -0.00049623  0.59311677
   0.83387505  0.08393528  0.40684526
   0.83306934  0.33335076  0.40715024
   0.66530399  0.41812724  0.49996826
   0.83358751  0.58306505  0.40712588
   0.75034011  0.49939415  0.59283266
   0.50020250  0.50037571  0.59250867
   0.08307088  0.08359455  0.40732805
   0.58340336  0.58272043  0.40735533
   0.41650809  0.41833436  0.49990444
   0.16714999  0.91710976  0.50056024
   0.33372175  0.58312322  0.40738480
   0.16579413  0.41746476  0.49997611
   0.24883288  0.00007177  0.59264846
   0.16640653  0.16605149  0.50007480
   0.33237905  0.08357323  0.40706871
  -0.00019980  0.75028594  0.59282684
  -0.00034658  0.49995069  0.59263909
   0.91784415  0.66540652  0.50004597
   0.08325891  0.58314098  0.40731016
   0.00041445  0.24989524  0.59278350
   0.00092383 -0.00063650  0.59282697
   0.41665026  0.66545490  0.50008252
   0.24986893  0.75056714  0.59257515
Direct configuration=     3
   0.75832877  0.74598401  0.60067052
   0.58354444  0.82984600  0.39835603
   0.58503405  0.33864949  0.40093595
   0.49954703 -0.00008834  0.60226069
   0.40746526  0.17205659  0.49864998
   0.58351647  0.08357781  0.39776521
   0.67272401  0.91431697  0.50146356
   0.40349483  0.92109829  0.49982439
   0.33180808  0.83244382  0.40076267
   0.24786807  0.50420697  0.59899665
   0.17021352  0.66291691  0.50051146
   0.49553380  0.74580804  0.60037771
   0.24184704  0.25144868  0.59936419
   0.50173032  0.25299870  0.60065009
   0.32889421  0.33855020  0.40086594
   0.92010006  0.91542860  0.50294495
   0.08461214  0.83439046  0.39966524
   0.75148632  0.25246830  0.60040990
   0.67068564  0.65525423  0.49872741
   0.91760909  0.41790596  0.50104043
   0.08254631  0.33240473  0.40110137
   0.83765184  0.82785255  0.39910155
   0.92317616  0.16547109  0.49871685
   0.66877952  0.16956815  0.50018124
   0.75356576 -0.00198492  0.59736758
   0.83550020  0.08574113  0.40248051
   0.83227736  0.33340303  0.40370045
   0.66121594  0.42250894  0.49987302
   0.83435006  0.58226019  0.40360303
   0.75136043  0.49757659  0.59623114
   0.50080999  0.50150284  0.59493519
   0.08228352  0.08437819  0.40441168
   0.58361343  0.58088170  0.40452083
   0.41603234  0.42333745  0.49961774
   0.16859995  0.91843905  0.50224096
   0.33488702  0.58249289  0.40463868
   0.16317651  0.41985906  0.49990446
   0.24533152  0.00028706  0.59549435
   0.16562614  0.16420598  0.50029919
   0.32951620  0.08429293  0.40337432
  -0.00079921  0.75114377  0.59620788
  -0.00138631  0.49980277  0.59545685
   0.92137662  0.66162610  0.50018387
   0.08303565  0.58256394  0.40434015
   0.00165782  0.24958096  0.59603453
   0.00369530 -0.00254600  0.59620838
   0.41660106  0.66181959  0.50033009
   0.24947572  0.75226856  0.59520113
Direct configuration=     4
   0.75601136  0.74614752  0.60235678
   0.58326214  0.83034269  0.39698316
   0.58485746  0.33671747  0.39933195
   0.49949154 -0.00061539  0.60389909
   0.41005743  0.17170247  0.49892732
   0.58377448  0.08360658  0.39606057
   0.66963108  0.91392377  0.50127698
   0.41060883  0.91736588  0.49984419
   0.33233250  0.83215088  0.39910076
   0.24803251  0.50357427  0.60074133
   0.16851521  0.66510918  0.50025175
   0.49723640  0.74703419  0.60186666
   0.24386894  0.25133289  0.60093707
   0.50076466  0.25267600  0.60202858
   0.33022824  0.33782039  0.39930094
   0.92150353  0.91466742  0.50211564
   0.08393597  0.83434779  0.39825827
   0.75294543  0.25134604  0.60203221
   0.66731956  0.66231334  0.49911465
   0.91954127  0.41502978  0.50071231
   0.08162957  0.33256334  0.39963568
   0.83714489  0.82916546  0.39753269
   0.92035753  0.16692925  0.49898952
   0.66725733  0.17040740  0.50010407
   0.75284745 -0.00063232  0.59873998
   0.83526716  0.08497270  0.40156073
   0.83295411  0.33381898  0.40282849
   0.66297858  0.41823852  0.50005265
   0.83454275  0.58140153  0.40245161
   0.75130119  0.49841549  0.59746874
   0.50083121  0.50061212  0.59593453
   0.08250094  0.08407204  0.40323530
   0.58338923  0.58227747  0.40322920
   0.41683069  0.41952023  0.49968316
   0.16717004  0.91579271  0.50161846
   0.33404706  0.58333126  0.40351699
   0.16472370  0.41830865  0.50000962
   0.24607369  0.00035273  0.59707951
   0.16423248  0.16774447  0.50020039
   0.33032173  0.08380064  0.40215508
   0.00049539  0.75071157  0.59745916
  -0.00098870  0.49955075  0.59660895
   0.91967756  0.66396252  0.50003485
   0.08311814  0.58302825  0.40342300
  -0.00003307  0.24940822  0.59714958
   0.00284629 -0.00155862  0.59763116
   0.41609631  0.66515958  0.50025878
   0.24846822  0.75205189  0.59626790
Direct configuration=     5
   0.75526910  0.74619989  0.60289689
   0.58317172  0.83050177  0.39654343
   0.58480090  0.33609865  0.39881820
   0.49947376 -0.00078420  0.60442386
   0.41088770  0.17158905  0.49901615
   0.58385712  0.08361580  0.39551458
   0.66864043  0.91379782  0.50121721
   0.41288742  0.91617040  0.49985053
   0.33250047  0.83205705  0.39856845
   0.24808518  0.50337162  0.60130015
   0.16797124  0.66581136  0.50016857
   0.49778173  0.74742692  0.60234357
   0.24451655  0.25129581  0.60144086
   0.50045536  0.25257264  0.60247011
   0.33065553  0.33758664  0.39879968
   0.92195305  0.91442362  0.50185001
   0.08371940  0.83433413  0.39780762
   0.75341277  0.25098658  0.60255183
   0.66624142  0.66457436  0.49923868
   0.92016014  0.41410854  0.50060721
   0.08133594  0.33261414  0.39916622
   0.83698251  0.82958599  0.39703019
   0.91945473  0.16739629  0.49907685
   0.66676978  0.17067621  0.50007936
   0.75261738 -0.00019908  0.59917956
   0.83519251  0.08472657  0.40126613
   0.83317088  0.33395220  0.40254920
   0.66354315  0.41687072  0.50011018
   0.83460447  0.58112651  0.40208282
   0.75128221  0.49868419  0.59786514
   0.50083801  0.50032683  0.59625461
   0.08257058  0.08397398  0.40285851
   0.58331741  0.58272454  0.40281550
   0.41708640  0.41829759  0.49970411
   0.16671204  0.91494510  0.50141908
   0.33377802  0.58359978  0.40315771
   0.16521926  0.41781205  0.50004331
   0.24631140  0.00037376  0.59758724
   0.16378609  0.16887784  0.50016874
   0.33057974  0.08364296  0.40176456
   0.00091004  0.75057313  0.59785994
  -0.00086134  0.49947003  0.59697796
   0.91913336  0.66471086  0.49998712
   0.08314457  0.58317696  0.40312924
  -0.00057466  0.24935289  0.59750673
   0.00257435 -0.00124237  0.59808687
   0.41593464  0.66622937  0.50023594
   0.24814552  0.75198249  0.59660958
Direct configuration=     6
   0.75407897  0.74704209  0.60338298
   0.58343631  0.83136016  0.39608360
   0.58470106  0.33538762  0.39830087
   0.49945943 -0.00064852  0.60499861
   0.41313070  0.16966432  0.49919592
   0.58404195  0.08317114  0.39499679
   0.66758336  0.91560958  0.50112524
   0.41330162  0.91713539  0.49993636
   0.33251590  0.83255831  0.39803722
   0.24833501  0.50287191  0.60184574
   0.16867222  0.66455526  0.50001386
   0.49837065  0.74796169  0.60279527
   0.24598016  0.25076360  0.60190657
   0.50033194  0.25172092  0.60282904
   0.33129546  0.33655051  0.39832156
   0.91908225  0.91564422  0.50128365
   0.08338524  0.83432277  0.39729351
   0.75307768  0.25038937  0.60314165
   0.66667107  0.66458265  0.49955133
   0.91798665  0.41649681  0.50041492
   0.08181578  0.33272024  0.39861425
   0.83579537  0.83070619  0.39663476
   0.91835176  0.16666411  0.49931074
   0.66655039  0.16826716  0.50012841
   0.75199847  0.00018606  0.59926021
   0.83481551  0.08427756  0.40117446
   0.83298890  0.33408692  0.40229301
   0.66420798  0.41739891  0.50015550
   0.83421015  0.58134357  0.40194215
   0.75105761  0.49927267  0.59798269
   0.50082713  0.50014957  0.59642327
   0.08287908  0.08344819  0.40260575
   0.58351654  0.58273178  0.40264497
   0.41641018  0.41796463  0.49972703
   0.16786341  0.91540976  0.50084532
   0.33362112  0.58373753  0.40295002
   0.16618367  0.41771308  0.50009334
   0.24707087  0.00034468  0.59778296
   0.16608895  0.16728714  0.50017076
   0.33138853  0.08345798  0.40165939
   0.00055954  0.75065023  0.59822462
  -0.00069463  0.49947778  0.59727102
   0.91761078  0.66574572  0.49995866
   0.08325986  0.58321195  0.40298415
  -0.00050772  0.24924430  0.59792981
   0.00190493 -0.00066699  0.59853901
   0.41631784  0.66642827  0.50023491
   0.24847037  0.75160118  0.59700418
Direct configuration=     7
   0.75385784  0.74719857  0.60347329
   0.58348547  0.83151966  0.39599816
   0.58468252  0.33525551  0.39820475
   0.49945677 -0.00062330  0.60510540
   0.41354745  0.16930670  0.49922932
   0.58407629  0.08308852  0.39490058
   0.66738696  0.91594621  0.50110815
   0.41337858  0.91731469  0.49995230
   0.33251877  0.83265144  0.39793852
   0.24838143  0.50277907  0.60194711
   0.16880246  0.66432188  0.49998511
   0.49848007  0.74806105  0.60287919
   0.24625210  0.25066472  0.60199310
   0.50030901  0.25156266  0.60289573
   0.33141436  0.33635800  0.39823273
   0.91854885  0.91587100  0.50117842
   0.08332316  0.83432066  0.39719798
   0.75301542  0.25027841  0.60325124
   0.66675090  0.66458419  0.49960942
   0.91758281  0.41694055  0.50037920
   0.08190494  0.33273996  0.39851169
   0.83557480  0.83091433  0.39656129
   0.91814682  0.16652807  0.49935420
   0.66650962  0.16781955  0.50013752
   0.75188347  0.00025762  0.59927519
   0.83474546  0.08419413  0.40115742
   0.83295509  0.33411195  0.40224541
   0.66433150  0.41749704  0.50016391
   0.83413689  0.58138390  0.40191602
   0.75101587  0.49938201  0.59800452
   0.50082511  0.50011663  0.59645461
   0.08293640  0.08335050  0.40255878
   0.58355353  0.58273313  0.40261328
   0.41628454  0.41790277  0.49973128
   0.16807734  0.91549609  0.50073871
   0.33359197  0.58376312  0.40291144
   0.16636286  0.41769469  0.50010263
   0.24721199  0.00033928  0.59781933
   0.16651683  0.16699159  0.50017114
   0.33153880  0.08342361  0.40163985
   0.00049442  0.75066456  0.59829237
  -0.00066366  0.49947921  0.59732547
   0.91732788  0.66593800  0.49995337
   0.08328128  0.58321846  0.40295720
  -0.00049528  0.24922413  0.59800842
   0.00178055 -0.00056009  0.59862302
   0.41638904  0.66646523  0.50023472
   0.24853072  0.75153033  0.59707750
Direct configuration=     8
   0.75383221  0.74770266  0.60367448
   0.58362759  0.83161920  0.39579877
   0.58467576  0.33529474  0.39814532
   0.49955098 -0.00054775  0.60556057
   0.41378386  0.16902359  0.49930498
   0.58398557  0.08308440  0.39452141
   0.66721651  0.91596410  0.50108859
   0.41310033  0.91759938  0.50000672
   0.33271880  0.83281395  0.39774516
   0.24842938  0.50277019  0.60214755
   0.16846637  0.66466238  0.50005295
   0.49827625  0.74805678  0.60304421
   0.24631195  0.25049564  0.60211961
   0.50050578  0.25132683  0.60304994
   0.33159705  0.33588565  0.39811633
   0.91862983  0.91531982  0.50099344
   0.08323199  0.83419685  0.39699865
   0.75230479  0.25049786  0.60347717
   0.66660527  0.66465782  0.49973468
   0.91774294  0.41699170  0.50031478
   0.08228807  0.33264012  0.39841457
   0.83536962  0.83086786  0.39638861
   0.91855918  0.16644290  0.49951585
   0.66595543  0.16818508  0.50016189
   0.75177326 -0.00003795  0.59920774
   0.83460711  0.08427458  0.40117267
   0.83296537  0.33375507  0.40224754
   0.66398160  0.41768621  0.50014590
   0.83387299  0.58184547  0.40194126
   0.75098498  0.49926731  0.59797424
   0.50089637  0.50009367  0.59636748
   0.08285049  0.08342731  0.40261960
   0.58357891  0.58262411  0.40274554
   0.41664384  0.41785423  0.49970067
   0.16828758  0.91588267  0.50049243
   0.33381292  0.58359007  0.40294452
   0.16642492  0.41728955  0.50014741
   0.24735682  0.00020371  0.59768980
   0.16653550  0.16689788  0.50022953
   0.33180936  0.08345128  0.40171493
  -0.00001131  0.75096169  0.59817334
  -0.00059536  0.49948273  0.59727077
   0.91688576  0.66645502  0.50000017
   0.08315968  0.58325496  0.40302037
   0.00000231  0.24934654  0.59794789
   0.00183392 -0.00078057  0.59853943
   0.41679859  0.66609114  0.50026825
   0.24877889  0.75153158  0.59706231
Direct configuration=     9
   0.75380975  0.74814422  0.60385071
   0.58375208  0.83170639  0.39562411
   0.58466984  0.33532910  0.39809326
   0.49963350 -0.00048156  0.60595928
   0.41399094  0.16877560  0.49937125
   0.58390609  0.08308080  0.39418926
   0.66706721  0.91597977  0.50107146
   0.41285660  0.91784875  0.50005438
   0.33289402  0.83295631  0.39757578
   0.24847139  0.50276241  0.60232313
   0.16817196  0.66496065  0.50011238
   0.49809771  0.74805303  0.60318876
   0.24636438  0.25034753  0.60223043
   0.50067814  0.25112024  0.60318502
   0.33175708  0.33547189  0.39801438
   0.91870076  0.91483700  0.50083140
   0.08315213  0.83408840  0.39682404
   0.75168231  0.25069009  0.60367508
   0.66647770  0.66472233  0.49984441
   0.91788320  0.41703649  0.50025836
   0.08262367  0.33255267  0.39832949
   0.83518989  0.83082715  0.39623736
   0.91892038  0.16636829  0.49965746
   0.66546998  0.16850526  0.50018323
   0.75167671 -0.00029686  0.59914865
   0.83448593  0.08434506  0.40118602
   0.83297438  0.33344246  0.40224940
   0.66367511  0.41785191  0.50013012
   0.83364184  0.58224978  0.40196338
   0.75095792  0.49916684  0.59794772
   0.50095879  0.50007356  0.59629116
   0.08277523  0.08349459  0.40267288
   0.58360113  0.58252861  0.40286140
   0.41695856  0.41781171  0.49967385
   0.16847175  0.91622129  0.50027669
   0.33400645  0.58343848  0.40297349
   0.16647929  0.41693466  0.50018664
   0.24748368  0.00008496  0.59757634
   0.16655186  0.16681580  0.50028068
   0.33204636  0.08347552  0.40178069
  -0.00045431  0.75122196  0.59806908
  -0.00053554  0.49948580  0.59722285
   0.91649849  0.66690790  0.50004116
   0.08305316  0.58328693  0.40307570
   0.00043818  0.24945376  0.59789487
   0.00188068 -0.00097370  0.59846620
   0.41715734  0.66576346  0.50029761
   0.24899627  0.75153267  0.59704901
Direct configuration=    10
   0.75370803  0.74815474  0.60412323
   0.58370659  0.83163465  0.39538895
   0.58465336  0.33529638  0.39802904
   0.49963110 -0.00049932  0.60665127
   0.41378723  0.16891236  0.49950749
   0.58398603  0.08315679  0.39359734
   0.66672656  0.91594255  0.50103027
   0.41295841  0.91764619  0.50011330
   0.33302671  0.83296800  0.39736549
   0.24845659  0.50288503  0.60250818
   0.16829263  0.66500034  0.50023052
   0.49810931  0.74807671  0.60340050
   0.24654685  0.25027200  0.60239332
   0.50054294  0.25111022  0.60342192
   0.33186349  0.33540641  0.39794915
   0.91879424  0.91505918  0.50056330
   0.08329551  0.83392122  0.39656490
   0.75164073  0.25069896  0.60392120
   0.66624389  0.66494230  0.50002269
   0.91804909  0.41700301  0.50009874
   0.08259404  0.33259632  0.39827142
   0.83516975  0.83081638  0.39595259
   0.91875454  0.16639111  0.49992580
   0.66574317  0.16870175  0.50018551
   0.75165020 -0.00034668  0.59899958
   0.83438913  0.08434308  0.40129878
   0.83321951  0.33321755  0.40234340
   0.66388833  0.41755277  0.50010239
   0.83354845  0.58224624  0.40205732
   0.75105013  0.49908045  0.59786841
   0.50085192  0.50007780  0.59617841
   0.08270315  0.08360772  0.40276338
   0.58368206  0.58255427  0.40307204
   0.41672604  0.41803978  0.49962949
   0.16853062  0.91608110  0.49995195
   0.33405352  0.58334193  0.40309483
   0.16664707  0.41672679  0.50025376
   0.24757559 -0.00009696  0.59739068
   0.16636578  0.16717205  0.50033336
   0.33225237  0.08337738  0.40189590
  -0.00054785  0.75135273  0.59788793
  -0.00059143  0.49968273  0.59709743
   0.91629854  0.66685143  0.50010114
   0.08308721  0.58315380  0.40325599
   0.00045381  0.24956861  0.59778318
   0.00184861 -0.00107134  0.59820098
   0.41704558  0.66583369  0.50031780
   0.24899087  0.75155980  0.59690576
Direct configuration=    11
   0.75355515  0.74817054  0.60453276
   0.58363821  0.83152683  0.39503555
   0.58462861  0.33524721  0.39793255
   0.49962748 -0.00052601  0.60769115
   0.41348112  0.16911789  0.49971221
   0.58410616  0.08327100  0.39270783
   0.66621464  0.91588661  0.50096838
   0.41311141  0.91734180  0.50020183
   0.33322612  0.83298556  0.39704949
   0.24843435  0.50306929  0.60278628
   0.16847396  0.66505998  0.50040805
   0.49812675  0.74811228  0.60371869
   0.24682106  0.25015849  0.60263810
   0.50033977  0.25109515  0.60377793
   0.33202340  0.33530802  0.39785112
   0.91893471  0.91539305  0.50016041
   0.08351096  0.83366999  0.39617549
   0.75157824  0.25071230  0.60429106
   0.66589253  0.66527286  0.50029060
   0.91829837  0.41695268  0.49985887
   0.08254952  0.33266191  0.39818416
   0.83513948  0.83080020  0.39552464
   0.91850533  0.16642539  0.50032906
   0.66615369  0.16899702  0.50018895
   0.75161035 -0.00042154  0.59877556
   0.83424365  0.08434012  0.40146822
   0.83358787  0.33287958  0.40248467
   0.66420875  0.41710325  0.50006072
   0.83340812  0.58224093  0.40219849
   0.75118870  0.49895061  0.59774924
   0.50069132  0.50008416  0.59600897
   0.08259485  0.08377774  0.40289938
   0.58380367  0.58259283  0.40338858
   0.41637662  0.41838252  0.49956283
   0.16861909  0.91587042  0.49946393
   0.33412424  0.58319683  0.40327718
   0.16689920  0.41641441  0.50035463
   0.24771371 -0.00037034  0.59711168
   0.16608615  0.16770739  0.50041253
   0.33256197  0.08322990  0.40206902
  -0.00068841  0.75154923  0.59761571
  -0.00067542  0.49997866  0.59690896
   0.91599807  0.66676656  0.50019128
   0.08313838  0.58295375  0.40352691
   0.00047729  0.24974121  0.59761533
   0.00180042 -0.00121805  0.59780242
   0.41687764  0.66593922  0.50034813
   0.24898274  0.75160058  0.59669048
Direct configuration=    12
   0.75341662  0.74789953  0.60482543
   0.58370067  0.83149691  0.39481391
   0.58475799  0.33523880  0.39788343
   0.49960702 -0.00070911  0.60844777
   0.41405484  0.16905249  0.49988790
   0.58421083  0.08316483  0.39203945
   0.66619862  0.91658023  0.50088614
   0.41300194  0.91746166  0.50025568
   0.33307563  0.83280790  0.39683468
   0.24828064  0.50319426  0.60294844
   0.16826847  0.66479874  0.50045033
   0.49839609  0.74799143  0.60399092
   0.24671440  0.25028063  0.60283933
   0.50027757  0.25118277  0.60398748
   0.33200319  0.33541121  0.39787614
   0.91850833  0.91536541  0.49976815
   0.08376014  0.83354399  0.39587781
   0.75200150  0.25056638  0.60457002
   0.66601797  0.66489507  0.50052723
   0.91782828  0.41718100  0.49972275
   0.08252184  0.33264044  0.39814389
   0.83530768  0.83069593  0.39516708
   0.91857056  0.16666758  0.50049007
   0.66571450  0.16854006  0.50021998
   0.75139674 -0.00014580  0.59847759
   0.83444334  0.08413132  0.40156606
   0.83358764  0.33293441  0.40261730
   0.66448904  0.41726152  0.50010079
   0.83349217  0.58197115  0.40234067
   0.75129924  0.49890659  0.59763151
   0.50069722  0.49998963  0.59587191
   0.08271636  0.08364173  0.40302237
   0.58392938  0.58253695  0.40365791
   0.41622432  0.41812983  0.49959612
   0.16855960  0.91572976  0.49907800
   0.33398648  0.58338491  0.40340602
   0.16689872  0.41703821  0.50049116
   0.24759731 -0.00024120  0.59690715
   0.16621608  0.16753225  0.50038116
   0.33258594  0.08323144  0.40226918
  -0.00050564  0.75144850  0.59738442
  -0.00061351  0.50003230  0.59677987
   0.91606628  0.66694028  0.50019796
   0.08321614  0.58290260  0.40382686
   0.00016776  0.24984780  0.59758142
   0.00182687 -0.00112481  0.59750079
   0.41672266  0.66622090  0.50035664
   0.24880455  0.75175162  0.59650314
Direct configuration=    13
   0.75341935  0.74790486  0.60481967
   0.58369944  0.83149750  0.39481828
   0.58475545  0.33523896  0.39788439
   0.49960743 -0.00070551  0.60843289
   0.41404356  0.16905378  0.49988444
   0.58420877  0.08316692  0.39205260
   0.66619893  0.91656659  0.50088776
   0.41300409  0.91745930  0.50025462
   0.33307859  0.83281140  0.39683891
   0.24828366  0.50319180  0.60294525
   0.16827251  0.66480388  0.50044950
   0.49839079  0.74799381  0.60398557
   0.24671650  0.25027822  0.60283538
   0.50027879  0.25118104  0.60398336
   0.33200359  0.33540918  0.39787564
   0.91851671  0.91536595  0.49977587
   0.08375523  0.83354647  0.39588366
   0.75199318  0.25056925  0.60456453
   0.66601550  0.66490250  0.50052257
   0.91783752  0.41717651  0.49972543
   0.08252239  0.33264086  0.39814469
   0.83530437  0.83069798  0.39517411
   0.91856928  0.16666281  0.50048690
   0.66572314  0.16854905  0.50021937
   0.75140095 -0.00015122  0.59848345
   0.83443941  0.08413542  0.40156413
   0.83358764  0.33293333  0.40261469
   0.66448352  0.41725840  0.50010000
   0.83349052  0.58197645  0.40233787
   0.75129706  0.49890745  0.59763383
   0.50069710  0.49999149  0.59587461
   0.08271397  0.08364441  0.40301995
   0.58392690  0.58253804  0.40365261
   0.41622732  0.41813480  0.49959546
   0.16856077  0.91573253  0.49908560
   0.33398919  0.58338121  0.40340348
   0.16689873  0.41702594  0.50048847
   0.24759960 -0.00024374  0.59691118
   0.16621353  0.16753569  0.50038178
   0.33258547  0.08323141  0.40226525
  -0.00050924  0.75145048  0.59738897
  -0.00061473  0.50003124  0.59678241
   0.91606494  0.66693687  0.50019783
   0.08321461  0.58290361  0.40382096
   0.00017385  0.24984570  0.59758208
   0.00182635 -0.00112664  0.59750672
   0.41672571  0.66621536  0.50035647
   0.24880805  0.75174865  0.59650682
Direct configuration=    14
   0.75350538  0.74788113  0.60490291
   0.58381996  0.83144822  0.39481652
   0.58488327  0.33517750  0.39793847
   0.49952686 -0.00082457  0.60876892
   0.41406615  0.16902021  0.49998828
   0.58418297  0.08307310  0.39174911
   0.66627646  0.91643171  0.50080397
   0.41324047  0.91760070  0.50026852
   0.33313413  0.83264746  0.39675771
   0.24830253  0.50312305  0.60300543
   0.16811352  0.66486915  0.50038805
   0.49838714  0.74790500  0.60411701
   0.24649780  0.25034515  0.60291396
   0.50037366  0.25125543  0.60406132
   0.33203107  0.33539735  0.39797917
   0.91841047  0.91519911  0.49955958
   0.08372344  0.83351711  0.39572499
   0.75212794  0.25051339  0.60467483
   0.66605607  0.66533241  0.50061677
   0.91794756  0.41722487  0.49976502
   0.08267130  0.33250730  0.39817527
   0.83546249  0.83053210  0.39494234
   0.91847173  0.16665520  0.50040346
   0.66541611  0.16869019  0.50020480
   0.75124956 -0.00007169  0.59831586
   0.83466361  0.08402057  0.40157297
   0.83346388  0.33292291  0.40263647
   0.66422623  0.41720987  0.50018314
   0.83359673  0.58195781  0.40239771
   0.75132720  0.49884810  0.59764577
   0.50085048  0.49987769  0.59579528
   0.08282592  0.08350953  0.40304113
   0.58385360  0.58259866  0.40375721
   0.41653859  0.41783271  0.49967497
   0.16830787  0.91562654  0.49892319
   0.33396408  0.58348370  0.40347028
   0.16676026  0.41716979  0.50058680
   0.24755091 -0.00006166  0.59683130
   0.16649309  0.16753351  0.50034321
   0.33254230  0.08327463  0.40240858
  -0.00062482  0.75150830  0.59728548
  -0.00056026  0.49986397  0.59674152
   0.91579348  0.66731375  0.50016445
   0.08320151  0.58299015  0.40393355
   0.00007670  0.24994531  0.59763857
   0.00186667 -0.00110939  0.59734836
   0.41662445  0.66633100  0.50037491
   0.24877948  0.75190195  0.59640287
Direct configuration=    15
   0.75351645  0.74787807  0.60491363
   0.58383547  0.83144188  0.39481630
   0.58489972  0.33516959  0.39794543
   0.49951649 -0.00083989  0.60881216
   0.41406906  0.16901589  0.50000164
   0.58417965  0.08306103  0.39171006
   0.66628644  0.91641436  0.50079319
   0.41327088  0.91761890  0.50027031
   0.33314127  0.83262636  0.39674726
   0.24830496  0.50311420  0.60301317
   0.16809307  0.66487755  0.50038014
   0.49838667  0.74789357  0.60413392
   0.24646966  0.25035376  0.60292407
   0.50038587  0.25126500  0.60407136
   0.33203460  0.33539583  0.39799249
   0.91839680  0.91517764  0.49953175
   0.08371935  0.83351334  0.39570457
   0.75214528  0.25050620  0.60468902
   0.66606130  0.66538773  0.50062889
   0.91796172  0.41723109  0.49977011
   0.08269046  0.33249012  0.39817921
   0.83548283  0.83051075  0.39491251
   0.91845918  0.16665423  0.50039272
   0.66537660  0.16870835  0.50020293
   0.75123008 -0.00006146  0.59829430
   0.83469246  0.08400580  0.40157410
   0.83344795  0.33292156  0.40263927
   0.66419312  0.41720363  0.50019384
   0.83361040  0.58195542  0.40240541
   0.75133108  0.49884046  0.59764730
   0.50087021  0.49986305  0.59578507
   0.08284032  0.08349218  0.40304386
   0.58384417  0.58260646  0.40377067
   0.41657864  0.41779384  0.49968520
   0.16827533  0.91561291  0.49890229
   0.33396085  0.58349689  0.40347887
   0.16674244  0.41718830  0.50059945
   0.24754465 -0.00003823  0.59682103
   0.16652907  0.16753322  0.50033825
   0.33253675  0.08328019  0.40242703
  -0.00063970  0.75151574  0.59727216
  -0.00055325  0.49984245  0.59673626
   0.91575855  0.66736225  0.50016015
   0.08319983  0.58300129  0.40394804
   0.00006420  0.24995813  0.59764584
   0.00187186 -0.00110717  0.59732798
   0.41661142  0.66634588  0.50037728
   0.24877580  0.75192168  0.59638950
Direct configuration=    16
   0.75359574  0.74797207  0.60492618
   0.58387899  0.83141455  0.39488436
   0.58488608  0.33506327  0.39801520
   0.49945639 -0.00076405  0.60896359
   0.41392614  0.16905057  0.50010015
   0.58424319  0.08301957  0.39156098
   0.66623071  0.91642333  0.50070623
   0.41323178  0.91760429  0.50029723
   0.33329815  0.83260045  0.39672946
   0.24835037  0.50313093  0.60301142
   0.16824453  0.66479799  0.50034224
   0.49827315  0.74789730  0.60418762
   0.24652478  0.25029102  0.60296643
   0.50041947  0.25118179  0.60411315
   0.33214456  0.33535938  0.39813245
   0.91829605  0.91532733  0.49942287
   0.08368213  0.83350700  0.39556652
   0.75217623  0.25042450  0.60472472
   0.66598618  0.66548954  0.50067062
   0.91800893  0.41719966  0.49984383
   0.08269237  0.33247445  0.39824083
   0.83544936  0.83052516  0.39470806
   0.91835347  0.16664972  0.50027544
   0.66550629  0.16868958  0.50015311
   0.75114839 -0.00008157  0.59819369
   0.83465753  0.08400410  0.40151154
   0.83343737  0.33293661  0.40263868
   0.66412529  0.41727390  0.50025764
   0.83368164  0.58193846  0.40243869
   0.75129630  0.49884867  0.59769774
   0.50092482  0.49986288  0.59577711
   0.08292617  0.08343319  0.40300564
   0.58381479  0.58265195  0.40382764
   0.41652394  0.41794222  0.49974343
   0.16831722  0.91563065  0.49887851
   0.33403833  0.58338996  0.40351417
   0.16674169  0.41708383  0.50067016
   0.24754352  0.00002640  0.59676417
   0.16649289  0.16758611  0.50033714
   0.33259980  0.08319586  0.40249890
  -0.00074534  0.75158419  0.59721627
  -0.00062606  0.49983633  0.59675754
   0.91564415  0.66736889  0.50013387
   0.08321535  0.58296838  0.40393986
   0.00005606  0.24995794  0.59768755
   0.00189905 -0.00115448  0.59722247
   0.41663133  0.66643761  0.50040759
   0.24880073  0.75194854  0.59633731
Direct configuration=    17
   0.75364654  0.74803230  0.60493423
   0.58390687  0.83139704  0.39492798
   0.58487734  0.33499515  0.39805990
   0.49941788 -0.00071546  0.60906061