unknown system                          
           1
    11.002582    0.000000    0.000000
     5.501291    9.528515    0.000000
     0.000000    0.000000   26.191785
   Au   O    Pd
  24   8  24
Direct configuration=     1
   0.08333333  0.08333333  0.38179910
   0.08333333  0.83333333  0.38179910
   0.91930663  0.16696020  0.47196268
   0.74416155  0.51210203  0.56457829
   0.74304234  0.25238395  0.56516741
   0.08333333  0.33333333  0.38179910
   0.66530540  0.41776741  0.47489631
   0.99770192  0.24756239  0.56233135
   0.66578051  0.16263818  0.47357041
   0.51317052  0.76076414  0.61168915
   0.42584784  0.91144763  0.51577055
   0.33333333  0.83333333  0.38179910
   0.58333333  0.83333333  0.38179910
   0.97962096  0.77041867  0.56061132
   0.58333333  0.58333333  0.38179910
   0.33333333  0.08333333  0.38179910
   0.58333333  0.33333333  0.38179910
   0.51479697  0.98817560  0.62695963
   0.33333333  0.33333333  0.38179910
   0.41951315  0.15521817  0.47569359
   0.26302469  0.23636792  0.56398827
   0.25152372  0.74280630  0.56855794
   0.33333333  0.58333333  0.38179910
   0.17559332  0.91560740  0.47832528
   0.30399172  0.09897373  0.63954697
   0.07740465  0.59348221  0.60785546
   0.05979753  0.35074847  0.61403898
   0.74121091  0.80095285  0.63476538
   0.30633860  0.82564621  0.63383876
   0.57549592  0.54720941  0.61888711
   0.57878242  0.13929850  0.62947812
   0.86026275  0.07830818  0.61762299
   0.41939214  0.66872606  0.47782576
   0.50491367  0.24687720  0.56506564
   0.21343644  0.01313467  0.60116711
   0.17370328  0.15993372  0.47445431
   0.91182900  0.91783951  0.47235921
   0.16403175  0.41650815  0.47347100
   0.58333333  0.08333333  0.38179910
   0.72430309  0.76604507  0.56189593
   0.16661697  0.66775273  0.47487525
   0.49225142  0.49607691  0.56355245
   0.24778134  0.49780966  0.56317772
   0.91465160  0.66813878  0.47220915
   0.83333333  0.08333333  0.38179910
   0.08333333  0.58333333  0.38179910
   0.77547189  0.95886057  0.62200220
   0.83333333  0.33333333  0.38179910
   0.91645590  0.42167133  0.47308284
   0.83333333  0.58333333  0.38179910
   0.66201344  0.67318667  0.47357345
   0.99928703  0.00155110  0.56180792
   0.83333333  0.83333333  0.38179910
   0.66740432  0.91299213  0.47202106
   0.41293023  0.41578291  0.47782338
   0.98660630  0.51237920  0.56422213
Direct configuration=     2
   0.08333333  0.08333333  0.38179910
   0.08333333  0.83333333  0.38179910
   0.91919406  0.16676749  0.47197644
   0.74416053  0.51128815  0.56459202
   0.74305712  0.25255380  0.56534747
   0.08333333  0.33333333  0.38179910
   0.66539497  0.41819593  0.47477115
   0.99795179  0.24827641  0.56260269
   0.66555913  0.16233707  0.47361390
   0.51307990  0.75974166  0.61192697
   0.42570356  0.91172658  0.51561279
   0.33333333  0.83333333  0.38179910
   0.58333333  0.83333333  0.38179910
   0.97936532  0.77160705  0.56003526
   0.58333333  0.58333333  0.38179910
   0.33333333  0.08333333  0.38179910
   0.58333333  0.33333333  0.38179910
   0.51264791  0.98765608  0.62740321
   0.33333333  0.33333333  0.38179910
   0.41994294  0.15534385  0.47579493
   0.26295491  0.23665437  0.56419528
   0.25117861  0.74338039  0.56846728
   0.33333333  0.58333333  0.38179910
   0.17552069  0.91525164  0.47857319
   0.30583502  0.09855173  0.63931355
   0.07855262  0.59214860  0.60821321
   0.05931445  0.35052417  0.61353291
   0.73922135  0.80332377  0.63504580
   0.30632326  0.82555362  0.63398146
   0.57564211  0.54741843  0.61893831
   0.57897183  0.13958427  0.62965607
   0.85883966  0.07852267  0.61794496
   0.41918381  0.66902064  0.47768937
   0.50438742  0.24621299  0.56515625
   0.21409749  0.01294478  0.60121906
   0.17347695  0.16013268  0.47449670
   0.91261776  0.91734187  0.47253062
   0.16445664  0.41637720  0.47351753
   0.58333333  0.08333333  0.38179910
   0.72446127  0.76578473  0.56135613
   0.16671154  0.66765981  0.47488475
   0.49190594  0.49586999  0.56349760
   0.24806927  0.49755870  0.56310583
   0.91454900  0.66811168  0.47215303
   0.83333333  0.08333333  0.38179910
   0.08333333  0.58333333  0.38179910
   0.77777735  0.96035182  0.62172893
   0.83333333  0.33333333  0.38179910
   0.91585033  0.42209416  0.47317825
   0.83333333  0.58333333  0.38179910
   0.66237934  0.67299124  0.47352167
   0.99981900  0.00042113  0.56142980
   0.83333333  0.83333333  0.38179910
   0.66709233  0.91322907  0.47208157
   0.41277994  0.41576017  0.47798086
   0.98660919  0.51200597  0.56424370
Direct configuration=     3
   0.08333333  0.08333333  0.38179910
   0.08333333  0.83333333  0.38179910
   0.91911703  0.16663561  0.47198586
   0.74415984  0.51073117  0.56460142
   0.74306723  0.25267003  0.56547069
   0.08333333  0.33333333  0.38179910
   0.66545626  0.41848919  0.47468549
   0.99812278  0.24876505  0.56278838
   0.66540763  0.16213100  0.47364367
   0.51301788  0.75904193  0.61208972
   0.42560482  0.91191747  0.51550483
   0.33333333  0.83333333  0.38179910
   0.58333333  0.83333333  0.38179910
   0.97919038  0.77242031  0.55964103
   0.58333333  0.58333333  0.38179910
   0.33333333  0.08333333  0.38179910
   0.58333333  0.33333333  0.38179910
   0.51117721  0.98730055  0.62770678
   0.33333333  0.33333333  0.38179910
   0.42023706  0.15542986  0.47586428
   0.26290716  0.23685041  0.56433695
   0.25094244  0.74377327  0.56840525
   0.33333333  0.58333333  0.38179910
   0.17547099  0.91500818  0.47874285
   0.30709647  0.09826293  0.63915381
   0.07933822  0.59123596  0.60845804
   0.05898386  0.35037066  0.61318659
   0.73785981  0.80494630  0.63523770
   0.30631275  0.82549026  0.63407912
   0.57574215  0.54756148  0.61897335
   0.57910145  0.13977984  0.62977784
   0.85786578  0.07866946  0.61816530
   0.41904124  0.66922223  0.47759603
   0.50402728  0.24575845  0.56521826
   0.21454987  0.01281483  0.60125460
   0.17332206  0.16026884  0.47452572
   0.91315755  0.91700131  0.47264793
   0.16474741  0.41628759  0.47354938
   0.58333333  0.08333333  0.38179910
   0.72456952  0.76560656  0.56098671
   0.16677625  0.66759623  0.47489125
   0.49166951  0.49572838  0.56346006
   0.24826632  0.49738695  0.56305664
   0.91447879  0.66809313  0.47211462
   0.83333333  0.08333333  0.38179910
   0.08333333  0.58333333  0.38179910
   0.77935507  0.96137235  0.62154192
   0.83333333  0.33333333  0.38179910
   0.91543591  0.42238353  0.47324355
   0.83333333  0.58333333  0.38179910
   0.66262974  0.67285751  0.47348624
   0.00018305 -0.00035217  0.56117103
   0.83333333  0.83333333  0.38179910
   0.66687882  0.91339122  0.47212298
   0.41267709  0.41574460  0.47808862
   0.98661118  0.51175055  0.56425846
Direct configuration=     4
   0.08333333  0.08333333  0.38179910
   0.08333333  0.83333333  0.38179910
   0.91894276  0.16654007  0.47205423
   0.74408692  0.50995144  0.56462788
   0.74304001  0.25276391  0.56565407
   0.08333333  0.33333333  0.38179910
   0.66545478  0.41881544  0.47455593
   0.99818080  0.24861939  0.56289790
   0.66538696  0.16185891  0.47372357
   0.51293264  0.75800811  0.61236625
   0.42546443  0.91218902  0.51531479
   0.33333333  0.83333333  0.38179910
   0.58333333  0.83333333  0.38179910
   0.97934400  0.77224730  0.55922562
   0.58333333  0.58333333  0.38179910
   0.33333333  0.08333333  0.38179910
   0.58333333  0.33333333  0.38179910
   0.51192556  0.98476572  0.62831499
   0.33333333  0.33333333  0.38179910
   0.42042448  0.15562795  0.47598084
   0.26295283  0.23716513  0.56450618
   0.25069908  0.74424486  0.56832253
   0.33333333  0.58333333  0.38179910
   0.17545672  0.91474892  0.47895175
   0.30759233  0.09892521  0.63896711
   0.08041217  0.59007138  0.60859413
   0.05866081  0.35021882  0.61289762
   0.73431894  0.80968529  0.63510432
   0.30628084  0.82523515  0.63428224
   0.57592077  0.54743641  0.61898199
   0.57929657  0.13953557  0.62996321
   0.85761032  0.08011217  0.61829492
   0.41890173  0.66949521  0.47743157
   0.50385753  0.24487141  0.56537091
   0.21513990  0.01265079  0.60123968
   0.17308613  0.16049365  0.47459717
   0.91374728  0.91668553  0.47267814
   0.16510325  0.41614665  0.47359119
   0.58333333  0.08333333  0.38179910
   0.72477831  0.76549064  0.56075300
   0.16697466  0.66734693  0.47487402
   0.49135664  0.49551331  0.56343854
   0.24824867  0.49734397  0.56304911
   0.91442671  0.66801742  0.47204258
   0.83333333  0.08333333  0.38179910
   0.08333333  0.58333333  0.38179910
   0.78066000  0.96127375  0.62135474
   0.83333333  0.33333333  0.38179910
   0.91490726  0.42276848  0.47334815
   0.83333333  0.58333333  0.38179910
   0.66294003  0.67272547  0.47340581
   0.00017730 -0.00041756  0.56101423
   0.83333333  0.83333333  0.38179910
   0.66660927  0.91357927  0.47214742
   0.41263017  0.41570362  0.47825397
   0.98649418  0.51216059  0.56425834
Direct configuration=     5
   0.08333333  0.08333333  0.38179910
   0.08333333  0.83333333  0.38179910
   0.91841995  0.16625343  0.47225934
   0.74386818  0.50761223  0.56470724
   0.74295835  0.25304556  0.56620421
   0.08333333  0.33333333  0.38179910
   0.66545034  0.41979421  0.47416723
   0.99835487  0.24818242  0.56322647
   0.66532495  0.16104261  0.47396326
   0.51267690  0.75490668  0.61319586
   0.42504324  0.91300367  0.51474469
   0.33333333  0.83333333  0.38179910
   0.58333333  0.83333333  0.38179910
   0.97980486  0.77172829  0.55797938
   0.58333333  0.58333333  0.38179910
   0.33333333  0.08333333  0.38179910
   0.58333333  0.33333333  0.38179910
   0.51417062  0.97716125  0.63013963
   0.33333333  0.33333333  0.38179910
   0.42098676  0.15622223  0.47633053
   0.26308987  0.23810932  0.56501389
   0.24996902  0.74565964  0.56807436
   0.33333333  0.58333333  0.38179910
   0.17541390  0.91397113  0.47957846
   0.30907991  0.10091206  0.63840702
   0.08363400  0.58657765  0.60900240
   0.05769169  0.34976328  0.61203072
   0.72369634  0.82390227  0.63470418
   0.30618512  0.82446981  0.63489162
   0.57645661  0.54706120  0.61900792
   0.57988192  0.13880279  0.63051930
   0.85684393  0.08444029  0.61868378
   0.41848320  0.67031415  0.47693817
   0.50334827  0.24221031  0.56582887
   0.21690999  0.01215867  0.60119491
   0.17237832  0.16116810  0.47481154
   0.91551649  0.91573817  0.47276877
   0.16617077  0.41572384  0.47371664
   0.58333333  0.08333333  0.38179910
   0.72540466  0.76514287  0.56005187
   0.16756988  0.66659905  0.47482233
   0.49041801  0.49486809  0.56337395
   0.24819574  0.49721501  0.56302652
   0.91427047  0.66779026  0.47182647
   0.83333333  0.08333333  0.38179910
   0.08333333  0.58333333  0.38179910
   0.78457479  0.96097793  0.62079321
   0.83333333  0.33333333  0.38179910
   0.91332130  0.42392334  0.47366195
   0.83333333  0.58333333  0.38179910
   0.66387090  0.67232935  0.47316453
   0.00016007 -0.00061373  0.56054383
   0.83333333  0.83333333  0.38179910
   0.66580060  0.91414341  0.47222073
   0.41248939  0.41558070  0.47874999
   0.98614321  0.51339072  0.56425796
Direct configuration=     6
   0.08333333  0.08333333  0.38179910
   0.08333333  0.83333333  0.38179910
   0.91812001  0.16651757  0.47232219
   0.74388169  0.50756101  0.56471905
   0.74200872  0.25318699  0.56632283
   0.08333333  0.33333333  0.38179910
   0.66502608  0.41957434  0.47412415
   0.99810898  0.24634421  0.56287037
   0.66590935  0.16109539  0.47413383
   0.51282213  0.75311623  0.61336099
   0.42500250  0.91308573  0.51454026
   0.33333333  0.83333333  0.38179910
   0.58333333  0.83333333  0.38179910
   0.98095276  0.76909711  0.55809793
   0.58333333  0.58333333  0.38179910
   0.33333333  0.08333333  0.38179910
   0.58333333  0.33333333  0.38179910
   0.51462548  0.97577834  0.63145118
   0.33333333  0.33333333  0.38179910
   0.42031032  0.15652430  0.47639898
   0.26325145  0.23815164  0.56532293
   0.25009927  0.74573604  0.56809706
   0.33333333  0.58333333  0.38179910
   0.17551709  0.91431836  0.47951854
   0.30962926  0.10216097  0.63783102
   0.08414614  0.58613168  0.60888199
   0.05757758  0.35038131  0.61224252
   0.71876474  0.83040070  0.63400804
   0.30568042  0.82448068  0.63515452
   0.57682384  0.54500686  0.61893538
   0.58016248  0.13703001  0.63061710
   0.85834532  0.08621863  0.61846340
   0.41874902  0.67025650  0.47677386
   0.50470600  0.24079426  0.56625087
   0.21760718  0.01176778  0.60113812
   0.17220743  0.16136666  0.47493484
   0.91527441  0.91607792  0.47235364
   0.16607085  0.41553122  0.47373535
   0.58333333  0.08333333  0.38179910
   0.72528875  0.76487413  0.56024964
   0.16806004  0.66598262  0.47467013
   0.49028363  0.49456149  0.56342162
   0.24825531  0.49720239  0.56306404
   0.91439044  0.66764602  0.47165459
   0.83333333  0.08333333  0.38179910
   0.08333333  0.58333333  0.38179910
   0.78546380  0.96215766  0.62067696
   0.83333333  0.33333333  0.38179910
   0.91347766  0.42384165  0.47379936
   0.83333333  0.58333333  0.38179910
   0.66382169  0.67254626  0.47310696
  -0.00082403  0.00116217  0.56104861
   0.83333333  0.83333333  0.38179910
   0.66582693  0.91403761  0.47213567
   0.41289063  0.41536920  0.47887369
   0.98548064  0.51453769  0.56424979
Direct configuration=     7
   0.08333333  0.08333333  0.38179910
   0.08333333  0.83333333  0.38179910
   0.91796084  0.16665774  0.47235555
   0.74388886  0.50753384  0.56472532
   0.74150479  0.25326204  0.56638578
   0.08333333  0.33333333  0.38179910
   0.66480094  0.41945767  0.47410129
   0.99797850  0.24536874  0.56268140
   0.66621947  0.16112339  0.47422435
   0.51289919  0.75216610  0.61344863
   0.42498088  0.91312928  0.51443179
   0.33333333  0.83333333  0.38179910
   0.58333333  0.83333333  0.38179910
   0.98156190  0.76770085  0.55816085
   0.58333333  0.58333333  0.38179910
   0.33333333  0.08333333  0.38179910
   0.58333333  0.33333333  0.38179910
   0.51486685  0.97504449  0.63214716
   0.33333333  0.33333333  0.38179910
   0.41995136  0.15668459  0.47643530
   0.26333720  0.23817410  0.56548693
   0.25016839  0.74577658  0.56810910
   0.33333333  0.58333333  0.38179910
   0.17557185  0.91450262  0.47948675
   0.30992077  0.10282372  0.63752535
   0.08441791  0.58589502  0.60881809
   0.05751703  0.35070927  0.61235492
   0.71614774  0.83384915  0.63363863
   0.30541260  0.82448645  0.63529404
   0.57701871  0.54391671  0.61889689
   0.58031136  0.13608927  0.63066901
   0.85914205  0.08716232  0.61834646
   0.41889008  0.67022591  0.47668667
   0.50542648  0.24004282  0.56647481
   0.21797716  0.01156035  0.60110799
   0.17211675  0.16147203  0.47500028
   0.91514595  0.91625822  0.47213335
   0.16601783  0.41542901  0.47374528
   0.58333333  0.08333333  0.38179910
   0.72522724  0.76473151  0.56035459
   0.16832015  0.66565550  0.47458935
   0.49021232  0.49439879  0.56344691
   0.24828693  0.49719569  0.56308396
   0.91445410  0.66756947  0.47156339
   0.83333333  0.08333333  0.38179910
   0.08333333  0.58333333  0.38179910
   0.78593556  0.96278369  0.62061528
   0.83333333  0.33333333  0.38179910
   0.91356063  0.42379830  0.47387228
   0.83333333  0.58333333  0.38179910
   0.66379558  0.67266136  0.47307641
  -0.00134626  0.00210457  0.56131648
   0.83333333  0.83333333  0.38179910
   0.66584090  0.91398147  0.47209054
   0.41310355  0.41525697  0.47893934
   0.98512905  0.51514635  0.56424545
Direct configuration=     8
   0.08333333  0.08333333  0.38179910
   0.08333333  0.83333333  0.38179910
   0.91781757  0.16698038  0.47224301
   0.74424812  0.50795085  0.56468348
   0.73972359  0.25405724  0.56628899
   0.08333333  0.33333333  0.38179910
   0.66433189  0.41904035  0.47418909
   0.99817709  0.24490731  0.56253615
   0.66659349  0.16128729  0.47438282
   0.51293882  0.75117902  0.61356166
   0.42513641  0.91289322  0.51431881
   0.33333333  0.83333333  0.38179910
   0.58333333  0.83333333  0.38179910
   0.98264731  0.76623474  0.55841392
   0.58333333  0.58333333  0.38179910
   0.33333333  0.08333333  0.38179910
   0.58333333  0.33333333  0.38179910
   0.51026352  0.97774085  0.63322202
   0.33333333  0.33333333  0.38179910
   0.41928736  0.15689539  0.47646096
   0.26323947  0.23823309  0.56588990
   0.25027562  0.74582327  0.56814508
   0.33333333  0.58333333  0.38179910
   0.17546944  0.91513558  0.47933680
   0.31047098  0.10376257  0.63688052
   0.08410850  0.58621156  0.60882925
   0.05695606  0.35131271  0.61229483
   0.71629586  0.83593553  0.63307770
   0.30472507  0.82475086  0.63551392
   0.57764258  0.54083762  0.61896650
   0.58088820  0.13384716  0.63085527
   0.86101211  0.08810064  0.61842971
   0.41924843  0.66994920  0.47663873
   0.50691699  0.23893593  0.56678585
   0.21877968  0.01102680  0.60103944
   0.17204955  0.16156483  0.47509606
   0.91480202  0.91645039  0.47188563
   0.16564828  0.41527581  0.47379703
   0.58333333  0.08333333  0.38179910
   0.72442472  0.76471208  0.56063949
   0.16879665  0.66523004  0.47438824
   0.49012676  0.49388464  0.56336940
   0.24906292  0.49666153  0.56300738
   0.91462725  0.66751977  0.47138034
   0.83333333  0.08333333  0.38179910
   0.08333333  0.58333333  0.38179910
   0.78626535  0.96574098  0.62046465
   0.83333333  0.33333333  0.38179910
   0.91410893  0.42336813  0.47399428
   0.83333333  0.58333333  0.38179910
   0.66358149  0.67290542  0.47312285
  -0.00146558  0.00217803  0.56170977
   0.83333333  0.83333333  0.38179910
   0.66601798  0.91387526  0.47197169
   0.41361425  0.41478050  0.47895395
   0.98451151  0.51492714  0.56434452
Direct configuration=     9
   0.08333333  0.08333333  0.38179910
   0.08333333  0.83333333  0.38179910
   0.91782265  0.16696894  0.47224700
   0.74423537  0.50793606  0.56468496
   0.73978676  0.25402904  0.56629242
   0.08333333  0.33333333  0.38179910
   0.66434853  0.41905515  0.47418598
   0.99817004  0.24492368  0.56254130
   0.66658023  0.16128147  0.47437720
   0.51293741  0.75121402  0.61355765
   0.42513090  0.91290159  0.51432282
   0.33333333  0.83333333  0.38179910
   0.58333333  0.83333333  0.38179910
   0.98260881  0.76628674  0.55840494
   0.58333333  0.58333333  0.38179910
   0.33333333  0.08333333  0.38179910
   0.58333333  0.33333333  0.38179910
   0.51042678  0.97764522  0.63318390
   0.33333333  0.33333333  0.38179910
   0.41931091  0.15688791  0.47646005
   0.26324293  0.23823100  0.56587561
   0.25027182  0.74582162  0.56814381
   0.33333333  0.58333333  0.38179910
   0.17547307  0.91511313  0.47934212
   0.31045147  0.10372927  0.63690339
   0.08411948  0.58620034  0.60882886
   0.05697595  0.35129131  0.61229696
   0.71629061  0.83586153  0.63309759
   0.30474945  0.82474148  0.63550612
   0.57762046  0.54094682  0.61896403
   0.58086775  0.13392668  0.63084866
   0.86094579  0.08806736  0.61842676
   0.41923572  0.66995901  0.47664043
   0.50686413  0.23897518  0.56677481
   0.21875121  0.01104573  0.60104187
   0.17205194  0.16156154  0.47509266
   0.91481421  0.91644358  0.47189442
   0.16566139  0.41528124  0.47379519
   0.58333333  0.08333333  0.38179910
   0.72445319  0.76471277  0.56062939
   0.16877975  0.66524513  0.47439537
   0.49012980  0.49390288  0.56337215
   0.24903540  0.49668047  0.56301009
   0.91462111  0.66752154  0.47138683
   0.83333333  0.08333333  0.38179910
   0.08333333  0.58333333  0.38179910
   0.78625365  0.96563610  0.62046999
   0.83333333  0.33333333  0.38179910
   0.91408948  0.42338339  0.47398995
   0.83333333  0.58333333  0.38179910
   0.66358908  0.67289676  0.47312121
  -0.00146135  0.00217543  0.56169582
   0.83333333  0.83333333  0.38179910
   0.66601170  0.91387903  0.47197591
   0.41359614  0.41479740  0.47895343
   0.98453341  0.51493492  0.56434101
Direct configuration=    10
   0.08333333  0.08333333  0.38179910
   0.08333333  0.83333333  0.38179910
   0.91788521  0.16710597  0.47211383
   0.74445365  0.50835719  0.56466262
   0.73874833  0.25479722  0.56613094
   0.08333333  0.33333333  0.38179910
   0.66416883  0.41885670  0.47429900
   0.99841428  0.24542738  0.56257206
   0.66655943  0.16123769  0.47444675
   0.51261891  0.75115364  0.61372382
   0.42540378  0.91250647  0.51428544
   0.33333333  0.83333333  0.38179910
   0.58333333  0.83333333  0.38179910
   0.98303726  0.76643007  0.55853297
   0.58333333  0.58333333  0.38179910
   0.33333333  0.08333333  0.38179910
   0.58333333  0.33333333  0.38179910
   0.51068083  0.97729223  0.63357928
   0.33333333  0.33333333  0.38179910
   0.41909989  0.15693758  0.47650796
   0.26314552  0.23860892  0.56606735
   0.25036196  0.74586729  0.56813678
   0.33333333  0.58333333  0.38179910
   0.17525343  0.91549707  0.47924496
   0.30759725  0.10617029  0.63668211
   0.08363822  0.58655826  0.60887207
   0.05625143  0.35152844  0.61215383
   0.71699850  0.83697041  0.63281143
   0.30432841  0.82472936  0.63570007
   0.57828075  0.53868253  0.61912428
   0.58137019  0.13226993  0.63112050
   0.86232442  0.08917697  0.61883660
   0.41936204  0.66974757  0.47669346
   0.50744937  0.23826910  0.56687597
   0.21917344  0.01065089  0.60084710
   0.17206809  0.16158186  0.47514915
   0.91477894  0.91625339  0.47197384
   0.16534985  0.41524792  0.47388882
   0.58333333  0.08333333  0.38179910
   0.72329038  0.76522905  0.56088605
   0.16906932  0.66514669  0.47424067
   0.49000312  0.49353699  0.56321204
   0.24972208  0.49604061  0.56293090
   0.91476564  0.66754427  0.47129114
   0.83333333  0.08333333  0.38179910
   0.08333333  0.58333333  0.38179910
   0.78581042  0.96780140  0.62030618
   0.83333333  0.33333333  0.38179910
   0.91447173  0.42299227  0.47403527
   0.83333333  0.58333333  0.38179910
   0.66349023  0.67292512  0.47322735
  -0.00068208  0.00092280  0.56170196
   0.83333333  0.83333333  0.38179910
   0.66615586  0.91391208  0.47190450
   0.41385992  0.41421659  0.47887018
   0.98427892  0.51420116  0.56445804
Direct configuration=    11
   0.08333333  0.08333333  0.38179910
   0.08333333  0.83333333  0.38179910
   0.91791310  0.16716707  0.47205446
   0.74455096  0.50854494  0.56465265
   0.73828538  0.25513970  0.56605894
   0.08333333  0.33333333  0.38179910
   0.66408871  0.41876823  0.47434939
   0.99852317  0.24565194  0.56258577
   0.66655016  0.16121818  0.47447776
   0.51247691  0.75112672  0.61379790
   0.42552544  0.91233032  0.51426878
   0.33333333  0.83333333  0.38179910
   0.58333333  0.83333333  0.38179910
   0.98322827  0.76649397  0.55859004
   0.58333333  0.58333333  0.38179910
   0.33333333  0.08333333  0.38179910
   0.58333333  0.33333333  0.38179910
   0.51079409  0.97713486  0.63375555
   0.33333333  0.33333333  0.38179910
   0.41900581  0.15695972  0.47652931
   0.26310209  0.23877741  0.56615284
   0.25040215  0.74588766  0.56813364
   0.33333333  0.58333333  0.38179910
   0.17515551  0.91566824  0.47920165
   0.30632476  0.10725856  0.63658346
   0.08342366  0.58671783  0.60889133
   0.05592841  0.35163415  0.61209002
   0.71731409  0.83746477  0.63268386
   0.30414069  0.82472395  0.63578654
   0.57857512  0.53767305  0.61919573
   0.58159419  0.13153131  0.63124169
   0.86293905  0.08967166  0.61901932
   0.41941836  0.66965331  0.47671711
   0.50771029  0.23795430  0.56692106
   0.21936168  0.01047486  0.60076026
   0.17207529  0.16159092  0.47517434
   0.91476322  0.91616859  0.47200925
   0.16521096  0.41523306  0.47393057
   0.58333333  0.08333333  0.38179910
   0.72277197  0.76545922  0.56100047
   0.16919842  0.66510281  0.47417170
   0.48994665  0.49337386  0.56314065
   0.25002822  0.49575535  0.56289560
   0.91483008  0.66755440  0.47124847
   0.83333333  0.08333333  0.38179910
   0.08333333  0.58333333  0.38179910
   0.78561282  0.96876676  0.62023315
   0.83333333  0.33333333  0.38179910
   0.91464215  0.42281790  0.47405547
   0.83333333  0.58333333  0.38179910
   0.66344616  0.67293776  0.47327467
  -0.00033466  0.00036434  0.56170469
   0.83333333  0.83333333  0.38179910
   0.66622013  0.91392682  0.47187266
   0.41397753  0.41395764  0.47883306
   0.98416547  0.51387403  0.56451021
Direct configuration=    12
   0.08333333  0.08333333  0.38179910
   0.08333333  0.83333333  0.38179910
   0.91802758  0.16706562  0.47207904
   0.74410499  0.50889091  0.56473777
   0.73906797  0.25495526  0.56601470
   0.08333333  0.33333333  0.38179910
   0.66422648  0.41883633  0.47438387
   0.99829015  0.24551207  0.56248895
   0.66647279  0.16089607  0.47446693
   0.51224728  0.75040867  0.61400796
   0.42580801  0.91194828  0.51427898
   0.33333333  0.83333333  0.38179910
   0.58333333  0.83333333  0.38179910
   0.98303357  0.76679085  0.55865547
   0.58333333  0.58333333  0.38179910
   0.33333333  0.08333333  0.38179910
   0.58333333  0.33333333  0.38179910
   0.51018129  0.97762016  0.63372323
   0.33333333  0.33333333  0.38179910
   0.41911799  0.15681540  0.47659909
   0.26345491  0.23908741  0.56617920
   0.25079484  0.74568426  0.56810825
   0.33333333  0.58333333  0.38179910
   0.17510616  0.91557549  0.47912344
   0.30534853  0.10797617  0.63663188
   0.08317896  0.58678431  0.60873520
   0.05527762  0.35176119  0.61228434
   0.71803496  0.83806400  0.63269867
   0.30389263  0.82461595  0.63594790
   0.57889353  0.53694843  0.61922837
   0.58153211  0.13110379  0.63150808
   0.86361202  0.09091449  0.61929379
   0.41928146  0.66959690  0.47680535
   0.50758177  0.23713802  0.56701453
   0.21954591  0.01009792  0.60049780
   0.17219419  0.16154107  0.47521095
   0.91493942  0.91591430  0.47223912
   0.16506581  0.41530711  0.47406438
   0.58333333  0.08333333  0.38179910
   0.72178069  0.76609344  0.56104213
   0.16933157  0.66514049  0.47411296
   0.48992167  0.49339865  0.56308374
   0.24979943  0.49566002  0.56293615
   0.91491899  0.66755661  0.47129696
   0.83333333  0.08333333  0.38179910
   0.08333333  0.58333333  0.38179910
   0.78583718  0.96999579  0.62003854
   0.83333333  0.33333333  0.38179910
   0.91464721  0.42267050  0.47397825
   0.83333333  0.58333333  0.38179910
   0.66360388  0.67274924  0.47340105
  -0.00010547  0.00014735  0.56161828
   0.83333333  0.83333333  0.38179910
   0.66628275  0.91396123  0.47186572
   0.41393201  0.41344689  0.47868470
   0.98421453  0.51419470  0.56452892
Direct configuration=    13
   0.08333333  0.08333333  0.38179910
   0.08333333  0.83333333  0.38179910
   0.91814485  0.16696171  0.47210422
   0.74364816  0.50924529  0.56482497
   0.73986961  0.25476633  0.56596938
   0.08333333  0.33333333  0.38179910
   0.66436759  0.41890608  0.47441919
   0.99805146  0.24536879  0.56238977
   0.66639353  0.16056613  0.47445584
   0.51201207  0.74967316  0.61422313
   0.42609747  0.91155695  0.51428943
   0.33333333  0.83333333  0.38179910
   0.58333333  0.83333333  0.38179910
   0.98283413  0.76709496  0.55872248
   0.58333333  0.58333333  0.38179910
   0.33333333  0.08333333  0.38179910
   0.58333333  0.33333333  0.38179910
   0.50955357  0.97811728  0.63369013
   0.33333333  0.33333333  0.38179910
   0.41923290  0.15666758  0.47667057
   0.26381632  0.23940496  0.56620621
   0.25119708  0.74547592  0.56808224
   0.33333333  0.58333333  0.38179910
   0.17505560  0.91548049  0.47904333
   0.30434854  0.10871124  0.63668148
   0.08292830  0.58685241  0.60857526
   0.05461100  0.35189132  0.61248339
   0.71877338  0.83867782  0.63271385
   0.30363854  0.82450531  0.63611319
   0.57921969  0.53620619  0.61926181
   0.58146852  0.13066586  0.63178095
   0.86430137  0.09218756  0.61957493
   0.41914123  0.66953911  0.47689573
   0.50745011  0.23630188  0.56711027
   0.21973463  0.00971180  0.60022895
   0.17231598  0.16149001  0.47524846
   0.91511991  0.91565382  0.47247458
   0.16491713  0.41538297  0.47420144
   0.58333333  0.08333333  0.38179910
   0.72076529  0.76674309  0.56108480
   0.16946796  0.66517909  0.47405280
   0.48989608  0.49342404  0.56302545
   0.24956507  0.49556236  0.56297769
   0.91501007  0.66755886  0.47134664
   0.83333333  0.08333333  0.38179910
   0.08333333  0.58333333  0.38179910
   0.78606700  0.97125474  0.61983919
   0.83333333  0.33333333  0.38179910
   0.91465239  0.42251951  0.47389915
   0.83333333  0.58333333  0.38179910
   0.66376545  0.67255613  0.47353052
   0.00012930 -0.00007492  0.56152977
   0.83333333  0.83333333  0.38179910
   0.66634689  0.91399647  0.47185861
   0.41388538  0.41292370  0.47853273
   0.98426478  0.51452317  0.56454808
Direct configuration=    14
   0.08333333  0.08333333  0.38179910
   0.08333333  0.83333333  0.38179910
   0.91812334  0.16668195  0.47210234
   0.74334481  0.50964603  0.56493946
   0.74051902  0.25438569  0.56588933
   0.08333333  0.33333333  0.38179910
   0.66449459  0.41886743  0.47441197
   0.99824017  0.24550936  0.56236867
   0.66655989  0.16033617  0.47446094
   0.51170661  0.74975874  0.61460507
   0.42639872  0.91113261  0.51434283
   0.33333333  0.83333333  0.38179910
   0.58333333  0.83333333  0.38179910
   0.98236025  0.76737049  0.55878365
   0.58333333  0.58333333  0.38179910
   0.33333333  0.08333333  0.38179910
   0.58333333  0.33333333  0.38179910
   0.50961488  0.97764957  0.63344828
   0.33333333  0.33333333  0.38179910
   0.41934523  0.15626678  0.47669112
   0.26344705  0.23969792  0.56634712
   0.25161729  0.74516494  0.56804982
   0.33333333  0.58333333  0.38179910
   0.17520661  0.91516098  0.47893753
   0.30438813  0.10810611  0.63670027
   0.08273462  0.58702825  0.60851305
   0.05359917  0.35208473  0.61255191
   0.71834264  0.84027563  0.63259783
   0.30319584  0.82446692  0.63624670
   0.57936384  0.53587814  0.61933895
   0.58103804  0.13110354  0.63205415
   0.86485185  0.09326915  0.61971272
   0.41908005  0.66939472  0.47696259
   0.50808121  0.23552405  0.56725736
   0.22026532  0.00939046  0.60000367
   0.17257058  0.16131527  0.47530011
   0.91524487  0.91552770  0.47267479
   0.16482527  0.41544330  0.47432734
   0.58333333  0.08333333  0.38179910
   0.71979538  0.76755039  0.56121142
   0.16956090  0.66508414  0.47407623
   0.49002521  0.49278623  0.56294111
   0.24939696  0.49578938  0.56297835
   0.91501975  0.66752899  0.47145096
   0.83333333  0.08333333  0.38179910