  48  48   0   0
  0.5349325E+02  0.1100258E-08  0.1100258E-08  0.2449179E-08  0.3500000E-15
  1.000000000000000E-004
  CAR 
 unknown system                          
      6.38036370     -9.73535499  301     -1.09129573      1.00000000
     -9.735  0.0000E+00  0.0000E+00
     -9.682  0.0000E+00  0.0000E+00
     -9.628  0.0000E+00  0.0000E+00
     -9.574  0.0000E+00  0.0000E+00
     -9.520  0.0000E+00  0.0000E+00
     -9.467  0.0000E+00  0.0000E+00
     -9.413  0.0000E+00  0.0000E+00
     -9.359  0.0000E+00  0.0000E+00
     -9.306  0.1033E-16  0.5551E-18
     -9.252  0.3842E-14  0.2069E-15
     -9.198  0.8430E-12  0.4549E-13
     -9.144  0.1050E-09  0.5686E-11
     -9.091  0.7437E-08  0.4052E-09
     -9.037  0.3002E-06  0.1653E-07
     -8.983  0.6918E-05  0.3882E-06
     -8.930  0.9127E-04  0.5291E-05
     -8.876  0.6909E-03  0.4241E-04
     -8.822  0.3009E-02  0.2040E-03
     -8.768  0.7557E-02  0.6100E-03
     -8.715  0.1105E-01  0.1204E-02
     -8.661  0.1003E-01  0.1742E-02
     -8.607  0.7970E-02  0.2171E-02
     -8.554  0.9420E-02  0.2677E-02
     -8.500  0.1113E-01  0.3275E-02
     -8.446  0.8506E-02  0.3732E-02
     -8.392  0.3840E-02  0.3938E-02
     -8.339  0.1143E-02  0.3999E-02
     -8.285  0.1040E-02  0.4055E-02
     -8.231  0.3300E-02  0.4233E-02
     -8.178  0.7321E-02  0.4626E-02
     -8.124  0.1019E-01  0.5173E-02
     -8.070  0.9710E-02  0.5695E-02
     -8.016  0.8323E-02  0.6142E-02
     -7.963  0.9862E-02  0.6672E-02
     -7.909  0.1491E-01  0.7473E-02
     -7.855  0.2009E-01  0.8552E-02
     -7.801  0.2116E-01  0.9688E-02
     -7.748  0.1792E-01  0.1065E-01
     -7.694  0.1332E-01  0.1137E-01
     -7.640  0.1017E-01  0.1191E-01
     -7.587  0.1100E-01  0.1250E-01
     -7.533  0.1534E-01  0.1333E-01
     -7.479  0.1871E-01  0.1433E-01
     -7.425  0.1969E-01  0.1539E-01
     -7.372  0.2119E-01  0.1653E-01
     -7.318  0.2366E-01  0.1780E-01
     -7.264  0.2556E-01  0.1917E-01
     -7.211  0.2701E-01  0.2062E-01
     -7.157  0.2889E-01  0.2218E-01
     -7.103  0.3238E-01  0.2391E-01
     -7.049  0.3774E-01  0.2594E-01
     -6.996  0.4351E-01  0.2828E-01
     -6.942  0.4792E-01  0.3085E-01
     -6.888  0.5181E-01  0.3364E-01
     -6.835  0.6019E-01  0.3687E-01
     -6.781  0.7493E-01  0.4090E-01
     -6.727  0.8915E-01  0.4568E-01
     -6.673  0.9676E-01  0.5088E-01
     -6.620  0.9969E-01  0.5624E-01
     -6.566  0.1020E+00  0.6172E-01
     -6.512  0.1056E+00  0.6739E-01
     -6.458  0.1099E+00  0.7329E-01
     -6.405  0.1135E+00  0.7939E-01
     -6.351  0.1200E+00  0.8584E-01
     -6.297  0.1351E+00  0.9309E-01
     -6.244  0.1534E+00  0.1013E+00
     -6.190  0.1626E+00  0.1101E+00
     -6.136  0.1597E+00  0.1186E+00
     -6.082  0.1530E+00  0.1269E+00
     -6.029  0.1498E+00  0.1349E+00
     -5.975  0.1502E+00  0.1430E+00
     -5.921  0.1507E+00  0.1511E+00
     -5.868  0.1498E+00  0.1591E+00
     -5.814  0.1474E+00  0.1670E+00
     -5.760  0.1428E+00  0.1747E+00
     -5.706  0.1372E+00  0.1821E+00
     -5.653  0.1320E+00  0.1892E+00
     -5.599  0.1267E+00  0.1960E+00
     -5.545  0.1246E+00  0.2027E+00
     -5.492  0.1295E+00  0.2096E+00
     -5.438  0.1395E+00  0.2171E+00
     -5.384  0.1499E+00  0.2252E+00
     -5.330  0.1587E+00  0.2337E+00
     -5.277  0.1650E+00  0.2426E+00
     -5.223  0.1696E+00  0.2517E+00
     -5.169  0.1735E+00  0.2610E+00
     -5.116  0.1765E+00  0.2705E+00
     -5.062  0.1775E+00  0.2800E+00
     -5.008  0.1771E+00  0.2895E+00
     -4.954  0.1779E+00  0.2991E+00
     -4.901  0.1791E+00  0.3087E+00
     -4.847  0.1770E+00  0.3182E+00
     -4.793  0.1718E+00  0.3274E+00
     -4.739  0.1672E+00  0.3364E+00
     -4.686  0.1663E+00  0.3453E+00
     -4.632  0.1672E+00  0.3543E+00
     -4.578  0.1661E+00  0.3633E+00
     -4.525  0.1654E+00  0.3721E+00
     -4.471  0.1697E+00  0.3813E+00
     -4.417  0.1770E+00  0.3908E+00
     -4.363  0.1831E+00  0.4006E+00
     -4.310  0.1868E+00  0.4106E+00
     -4.256  0.1891E+00  0.4208E+00
     -4.202  0.1915E+00  0.4311E+00
     -4.149  0.1940E+00  0.4415E+00
     -4.095  0.1939E+00  0.4519E+00
     -4.041  0.1896E+00  0.4621E+00
     -3.987  0.1842E+00  0.4720E+00
     -3.934  0.1815E+00  0.4818E+00
     -3.880  0.1824E+00  0.4916E+00
     -3.826  0.1825E+00  0.5014E+00
     -3.773  0.1789E+00  0.5110E+00
     -3.719  0.1764E+00  0.5204E+00
     -3.665  0.1785E+00  0.5300E+00
     -3.611  0.1839E+00  0.5399E+00
     -3.558  0.1911E+00  0.5502E+00
     -3.504  0.1968E+00  0.5607E+00
     -3.450  0.1981E+00  0.5714E+00
     -3.397  0.1978E+00  0.5820E+00
     -3.343  0.1995E+00  0.5927E+00
     -3.289  0.2005E+00  0.6035E+00
     -3.235  0.1985E+00  0.6142E+00
     -3.182  0.1972E+00  0.6247E+00
     -3.128  0.1975E+00  0.6354E+00
     -3.074  0.1954E+00  0.6459E+00
     -3.020  0.1899E+00  0.6561E+00
     -2.967  0.1839E+00  0.6659E+00
     -2.913  0.1802E+00  0.6756E+00
     -2.859  0.1791E+00  0.6852E+00
     -2.806  0.1792E+00  0.6949E+00
     -2.752  0.1790E+00  0.7045E+00
     -2.698  0.1777E+00  0.7140E+00
     -2.644  0.1774E+00  0.7236E+00
     -2.591  0.1807E+00  0.7333E+00
     -2.537  0.1855E+00  0.7432E+00
     -2.483  0.1889E+00  0.7534E+00
     -2.430  0.1922E+00  0.7637E+00
     -2.376  0.1966E+00  0.7743E+00
     -2.322  0.2010E+00  0.7851E+00
     -2.268  0.2010E+00  0.7959E+00
     -2.215  0.1949E+00  0.8063E+00
     -2.161  0.1892E+00  0.8165E+00
     -2.107  0.1889E+00  0.8266E+00
     -2.054  0.1892E+00  0.8368E+00
     -2.000  0.1861E+00  0.8468E+00
     -1.946  0.1831E+00  0.8566E+00
     -1.892  0.1835E+00  0.8665E+00
     -1.839  0.1853E+00  0.8764E+00
     -1.785  0.1870E+00  0.8865E+00
     -1.731  0.1908E+00  0.8967E+00
     -1.677  0.1967E+00  0.9073E+00
     -1.624  0.2005E+00  0.9181E+00
     -1.570  0.1992E+00  0.9288E+00
     -1.516  0.1951E+00  0.9393E+00
     -1.463  0.1918E+00  0.9496E+00
     -1.409  0.1900E+00  0.9598E+00
     -1.355  0.1866E+00  0.9698E+00
     -1.301  0.1780E+00  0.9794E+00
     -1.248  0.1648E+00  0.9882E+00
     -1.194  0.1473E+00  0.9961E+00
     -1.140  0.1261E+00  0.1003E+01
     -1.087  0.1032E+00  0.1008E+01
     -1.033  0.8131E-01  0.1013E+01
     -0.979  0.6087E-01  0.1016E+01
     -0.925  0.4228E-01  0.1018E+01
     -0.872  0.2843E-01  0.1020E+01
     -0.818  0.2067E-01  0.1021E+01
     -0.764  0.1739E-01  0.1022E+01
     -0.711  0.1745E-01  0.1023E+01
     -0.657  0.1992E-01  0.1024E+01
     -0.603  0.2542E-01  0.1025E+01
     -0.549  0.3505E-01  0.1027E+01
     -0.496  0.4392E-01  0.1030E+01
     -0.442  0.4502E-01  0.1032E+01
     -0.388  0.3903E-01  0.1034E+01
     -0.335  0.3286E-01  0.1036E+01
     -0.281  0.3288E-01  0.1038E+01
     -0.227  0.3836E-01  0.1040E+01
     -0.173  0.4100E-01  0.1042E+01
     -0.120  0.3709E-01  0.1044E+01
     -0.066  0.3183E-01  0.1046E+01
     -0.012  0.2832E-01  0.1047E+01
      0.042  0.2466E-01  0.1048E+01
      0.095  0.2236E-01  0.1050E+01
      0.149  0.2520E-01  0.1051E+01
      0.203  0.3052E-01  0.1053E+01
      0.256  0.3266E-01  0.1054E+01
      0.310  0.3269E-01  0.1056E+01
      0.364  0.3530E-01  0.1058E+01
      0.418  0.3974E-01  0.1060E+01
      0.471  0.4171E-01  0.1062E+01
      0.525  0.4065E-01  0.1065E+01
      0.579  0.4037E-01  0.1067E+01
      0.632  0.4322E-01  0.1069E+01
      0.686  0.4637E-01  0.1072E+01
      0.740  0.4584E-01  0.1074E+01
      0.794  0.4013E-01  0.1076E+01
      0.847  0.3192E-01  0.1078E+01
      0.901  0.2601E-01  0.1079E+01
      0.955  0.2232E-01  0.1080E+01
      1.008  0.1796E-01  0.1081E+01
      1.062  0.1446E-01  0.1082E+01
      1.116  0.1586E-01  0.1083E+01
      1.170  0.2082E-01  0.1084E+01
      1.223  0.2209E-01  0.1085E+01
      1.277  0.1723E-01  0.1086E+01
      1.331  0.1282E-01  0.1087E+01
      1.384  0.1375E-01  0.1088E+01
      1.438  0.1854E-01  0.1089E+01
      1.492  0.2617E-01  0.1090E+01
      1.546  0.3373E-01  0.1092E+01
      1.599  0.3499E-01  0.1094E+01
      1.653  0.3015E-01  0.1095E+01
      1.707  0.2612E-01  0.1097E+01
      1.761  0.2830E-01  0.1098E+01
      1.814  0.3464E-01  0.1100E+01
      1.868  0.3703E-01  0.1102E+01
      1.922  0.3179E-01  0.1104E+01
      1.975  0.2367E-01  0.1105E+01
      2.029  0.1792E-01  0.1106E+01
      2.083  0.1626E-01  0.1107E+01
      2.137  0.1899E-01  0.1108E+01
      2.190  0.2679E-01  0.1109E+01
      2.244  0.3811E-01  0.1112E+01
      2.298  0.4809E-01  0.1114E+01
      2.351  0.5290E-01  0.1117E+01
      2.405  0.5195E-01  0.1120E+01
      2.459  0.4675E-01  0.1122E+01
      2.513  0.4148E-01  0.1124E+01
      2.566  0.4046E-01  0.1127E+01
      2.620  0.4244E-01  0.1129E+01
      2.674  0.4337E-01  0.1131E+01
      2.727  0.4113E-01  0.1133E+01
      2.781  0.3520E-01  0.1135E+01
      2.835  0.2685E-01  0.1137E+01
      2.889  0.1915E-01  0.1138E+01
      2.942  0.1486E-01  0.1139E+01
      2.996  0.1291E-01  0.1139E+01
      3.050  0.1109E-01  0.1140E+01
      3.104  0.1123E-01  0.1141E+01
      3.157  0.1518E-01  0.1141E+01
      3.211  0.2106E-01  0.1142E+01
      3.265  0.2544E-01  0.1144E+01
      3.318  0.2502E-01  0.1145E+01
      3.372  0.2133E-01  0.1146E+01
      3.426  0.1949E-01  0.1147E+01
      3.480  0.2118E-01  0.1149E+01
      3.533  0.2597E-01  0.1150E+01
      3.587  0.3232E-01  0.1152E+01
      3.641  0.3711E-01  0.1154E+01
      3.694  0.3871E-01  0.1156E+01
      3.748  0.3684E-01  0.1158E+01
      3.802  0.3093E-01  0.1159E+01
      3.856  0.2377E-01  0.1161E+01
      3.909  0.2089E-01  0.1162E+01
      3.963  0.2415E-01  0.1163E+01
      4.017  0.2918E-01  0.1165E+01
      4.070  0.2983E-01  0.1166E+01
      4.124  0.2675E-01  0.1168E+01
      4.178  0.2514E-01  0.1169E+01
      4.232  0.2386E-01  0.1170E+01
      4.285  0.1953E-01  0.1171E+01
      4.339  0.1613E-01  0.1172E+01
      4.393  0.1952E-01  0.1173E+01
      4.446  0.2739E-01  0.1175E+01
      4.500  0.3446E-01  0.1177E+01
      4.554  0.4143E-01  0.1179E+01
      4.608  0.4929E-01  0.1181E+01
      4.661  0.5370E-01  0.1184E+01
      4.715  0.5210E-01  0.1187E+01
      4.769  0.4801E-01  0.1190E+01
      4.823  0.4544E-01  0.1192E+01
      4.876  0.4592E-01  0.1195E+01
      4.930  0.4887E-01  0.1197E+01
      4.984  0.5551E-01  0.1200E+01
      5.037  0.6672E-01  0.1204E+01
      5.091  0.7483E-01  0.1208E+01
      5.145  0.7244E-01  0.1212E+01
      5.199  0.6383E-01  0.1215E+01
      5.252  0.5493E-01  0.1218E+01
      5.306  0.4508E-01  0.1221E+01
      5.360  0.3280E-01  0.1222E+01
      5.413  0.1966E-01  0.1223E+01
      5.467  0.8864E-02  0.1224E+01
      5.521  0.2726E-02  0.1224E+01
      5.575  0.5311E-03  0.1224E+01
      5.628  0.6270E-04  0.1224E+01
      5.682  0.4382E-05  0.1224E+01
      5.736  0.1790E-06  0.1224E+01
      5.789  0.4241E-08  0.1224E+01
      5.843  0.5795E-10  0.1224E+01
      5.897  0.4547E-12  0.1224E+01
      5.951  0.2042E-14  0.1224E+01
      6.004  0.5511E-17  0.1224E+01
      6.058  0.0000E+00  0.1224E+01
      6.112  0.0000E+00  0.1224E+01
      6.165  0.0000E+00  0.1224E+01
      6.219  0.0000E+00  0.1224E+01
      6.273  0.0000E+00  0.1224E+01
      6.327  0.0000E+00  0.1224E+01
      6.380  0.0000E+00  0.1224E+01
