  56  56   0   0
  0.4903395E+02  0.1100258E-08  0.1100258E-08  0.2619179E-08  0.3500000E-15
  1.000000000000000E-004
  CAR 
 unknown system                          
      6.48191597    -21.67474640  301     -1.34502307      1.00000000
    -21.675  0.0000E+00  0.0000E+00
    -21.581  0.0000E+00  0.0000E+00
    -21.487  0.0000E+00  0.0000E+00
    -21.393  0.0000E+00  0.0000E+00
    -21.299  0.0000E+00  0.0000E+00
    -21.205  0.0000E+00  0.0000E+00
    -21.112  0.0000E+00  0.0000E+00
    -21.018  0.0000E+00  0.0000E+00
    -20.924  0.1353E-14  0.1270E-15
    -20.830  0.1423E-10  0.1336E-11
    -20.736  0.2679E-07  0.2516E-08
    -20.642  0.9202E-05  0.8662E-06
    -20.548  0.5958E-03  0.5678E-04
    -20.455  0.7654E-02  0.7752E-03
    -20.361  0.2118E-01  0.2763E-02
    -20.267  0.2014E-01  0.4653E-02
    -20.173  0.3224E-01  0.7679E-02
    -20.079  0.4216E-01  0.1164E-01
    -19.985  0.3438E-01  0.1486E-01
    -19.891  0.2558E-01  0.1726E-01
    -19.798  0.2188E-01  0.1932E-01
    -19.704  0.1186E-01  0.2043E-01
    -19.610  0.2962E-01  0.2321E-01
    -19.516  0.3994E-01  0.2696E-01
    -19.422  0.2295E-01  0.2911E-01
    -19.328  0.2163E-01  0.3114E-01
    -19.235  0.8391E-02  0.3193E-01
    -19.141  0.7103E-03  0.3200E-01
    -19.047  0.1197E-04  0.3200E-01
    -18.953  0.3809E-07  0.3200E-01
    -18.859  0.2214E-10  0.3200E-01
    -18.765  0.2304E-14  0.3200E-01
    -18.671  0.0000E+00  0.3200E-01
    -18.578  0.0000E+00  0.3200E-01
    -18.484  0.0000E+00  0.3200E-01
    -18.390  0.0000E+00  0.3200E-01
    -18.296  0.0000E+00  0.3200E-01
    -18.202  0.0000E+00  0.3200E-01
    -18.108  0.0000E+00  0.3200E-01
    -18.014  0.0000E+00  0.3200E-01
    -17.921  0.0000E+00  0.3200E-01
    -17.827  0.0000E+00  0.3200E-01
    -17.733  0.0000E+00  0.3200E-01
    -17.639  0.0000E+00  0.3200E-01
    -17.545  0.0000E+00  0.3200E-01
    -17.451  0.0000E+00  0.3200E-01
    -17.357  0.0000E+00  0.3200E-01
    -17.264  0.0000E+00  0.3200E-01
    -17.170  0.0000E+00  0.3200E-01
    -17.076  0.0000E+00  0.3200E-01
    -16.982  0.0000E+00  0.3200E-01
    -16.888  0.0000E+00  0.3200E-01
    -16.794  0.0000E+00  0.3200E-01
    -16.700  0.0000E+00  0.3200E-01
    -16.607  0.0000E+00  0.3200E-01
    -16.513  0.0000E+00  0.3200E-01
    -16.419  0.0000E+00  0.3200E-01
    -16.325  0.0000E+00  0.3200E-01
    -16.231  0.0000E+00  0.3200E-01
    -16.137  0.0000E+00  0.3200E-01
    -16.043  0.0000E+00  0.3200E-01
    -15.950  0.0000E+00  0.3200E-01
    -15.856  0.0000E+00  0.3200E-01
    -15.762  0.0000E+00  0.3200E-01
    -15.668  0.0000E+00  0.3200E-01
    -15.574  0.0000E+00  0.3200E-01
    -15.480  0.0000E+00  0.3200E-01
    -15.386  0.0000E+00  0.3200E-01
    -15.293  0.0000E+00  0.3200E-01
    -15.199  0.0000E+00  0.3200E-01
    -15.105  0.0000E+00  0.3200E-01
    -15.011  0.0000E+00  0.3200E-01
    -14.917  0.0000E+00  0.3200E-01
    -14.823  0.0000E+00  0.3200E-01
    -14.729  0.0000E+00  0.3200E-01
    -14.636  0.0000E+00  0.3200E-01
    -14.542  0.0000E+00  0.3200E-01
    -14.448  0.0000E+00  0.3200E-01
    -14.354  0.0000E+00  0.3200E-01
    -14.260  0.0000E+00  0.3200E-01
    -14.166  0.0000E+00  0.3200E-01
    -14.072  0.0000E+00  0.3200E-01
    -13.979  0.0000E+00  0.3200E-01
    -13.885  0.0000E+00  0.3200E-01
    -13.791  0.0000E+00  0.3200E-01
    -13.697  0.0000E+00  0.3200E-01
    -13.603  0.0000E+00  0.3200E-01
    -13.509  0.0000E+00  0.3200E-01
    -13.415  0.0000E+00  0.3200E-01
    -13.322  0.0000E+00  0.3200E-01
    -13.228  0.0000E+00  0.3200E-01
    -13.134  0.0000E+00  0.3200E-01
    -13.040  0.0000E+00  0.3200E-01
    -12.946  0.0000E+00  0.3200E-01
    -12.852  0.0000E+00  0.3200E-01
    -12.758  0.0000E+00  0.3200E-01
    -12.665  0.0000E+00  0.3200E-01
    -12.571  0.0000E+00  0.3200E-01
    -12.477  0.0000E+00  0.3200E-01
    -12.383  0.0000E+00  0.3200E-01
    -12.289  0.0000E+00  0.3200E-01
    -12.195  0.0000E+00  0.3200E-01
    -12.101  0.0000E+00  0.3200E-01
    -12.008  0.0000E+00  0.3200E-01
    -11.914  0.0000E+00  0.3200E-01
    -11.820  0.0000E+00  0.3200E-01
    -11.726  0.0000E+00  0.3200E-01
    -11.632  0.0000E+00  0.3200E-01
    -11.538  0.0000E+00  0.3200E-01
    -11.444  0.0000E+00  0.3200E-01
    -11.351  0.0000E+00  0.3200E-01
    -11.257  0.0000E+00  0.3200E-01
    -11.163  0.0000E+00  0.3200E-01
    -11.069  0.0000E+00  0.3200E-01
    -10.975  0.0000E+00  0.3200E-01
    -10.881  0.0000E+00  0.3200E-01
    -10.788  0.0000E+00  0.3200E-01
    -10.694  0.0000E+00  0.3200E-01
    -10.600  0.0000E+00  0.3200E-01
    -10.506  0.0000E+00  0.3200E-01
    -10.412  0.0000E+00  0.3200E-01
    -10.318  0.0000E+00  0.3200E-01
    -10.224  0.0000E+00  0.3200E-01
    -10.131  0.0000E+00  0.3200E-01
    -10.037  0.0000E+00  0.3200E-01
     -9.943  0.0000E+00  0.3200E-01
     -9.849  0.0000E+00  0.3200E-01
     -9.755  0.0000E+00  0.3200E-01
     -9.661  0.0000E+00  0.3200E-01
     -9.567  0.1104E-16  0.3200E-01
     -9.474  0.2272E-12  0.3200E-01
     -9.380  0.8342E-09  0.3200E-01
     -9.286  0.5560E-06  0.3200E-01
     -9.192  0.6912E-04  0.3201E-01
     -9.098  0.1681E-02  0.3216E-01
     -9.004  0.8850E-02  0.3299E-01
     -8.910  0.1402E-01  0.3431E-01
     -8.817  0.1257E-01  0.3549E-01
     -8.723  0.4943E-02  0.3595E-01
     -8.629  0.8180E-03  0.3603E-01
     -8.535  0.4177E-02  0.3642E-01
     -8.441  0.1452E-01  0.3779E-01
     -8.347  0.2260E-01  0.3991E-01
     -8.253  0.3535E-01  0.4322E-01
     -8.160  0.5318E-01  0.4822E-01
     -8.066  0.5386E-01  0.5327E-01
     -7.972  0.4171E-01  0.5719E-01
     -7.878  0.4270E-01  0.6119E-01
     -7.784  0.4969E-01  0.6586E-01
     -7.690  0.5822E-01  0.7132E-01
     -7.596  0.6462E-01  0.7739E-01
     -7.503  0.6076E-01  0.8309E-01
     -7.409  0.7054E-01  0.8971E-01
     -7.315  0.9248E-01  0.9839E-01
     -7.221  0.1054E+00  0.1083E+00
     -7.127  0.1178E+00  0.1193E+00
     -7.033  0.1242E+00  0.1310E+00
     -6.939  0.1247E+00  0.1427E+00
     -6.846  0.1186E+00  0.1538E+00
     -6.752  0.1091E+00  0.1641E+00
     -6.658  0.1158E+00  0.1749E+00
     -6.564  0.1383E+00  0.1879E+00
     -6.470  0.1562E+00  0.2026E+00
     -6.376  0.1602E+00  0.2176E+00
     -6.282  0.1603E+00  0.2327E+00
     -6.189  0.1651E+00  0.2482E+00
     -6.095  0.1684E+00  0.2640E+00
     -6.001  0.1629E+00  0.2793E+00
     -5.907  0.1565E+00  0.2939E+00
     -5.813  0.1595E+00  0.3089E+00
     -5.719  0.1677E+00  0.3247E+00
     -5.625  0.1714E+00  0.3407E+00
     -5.532  0.1760E+00  0.3573E+00
     -5.438  0.1707E+00  0.3733E+00
     -5.344  0.1703E+00  0.3893E+00
     -5.250  0.1823E+00  0.4064E+00
     -5.156  0.1841E+00  0.4237E+00
     -5.062  0.1756E+00  0.4401E+00
     -4.968  0.1770E+00  0.4568E+00
     -4.875  0.1801E+00  0.4737E+00
     -4.781  0.1739E+00  0.4900E+00
     -4.687  0.1788E+00  0.5068E+00
     -4.593  0.1847E+00  0.5241E+00
     -4.499  0.1877E+00  0.5417E+00
     -4.405  0.1873E+00  0.5593E+00
     -4.311  0.1845E+00  0.5766E+00
     -4.218  0.1788E+00  0.5934E+00
     -4.124  0.1799E+00  0.6103E+00
     -4.030  0.1946E+00  0.6285E+00
     -3.936  0.2046E+00  0.6477E+00
     -3.842  0.2010E+00  0.6666E+00
     -3.748  0.1958E+00  0.6850E+00
     -3.654  0.1929E+00  0.7031E+00
     -3.561  0.1898E+00  0.7209E+00
     -3.467  0.1913E+00  0.7389E+00
     -3.373  0.1934E+00  0.7570E+00
     -3.279  0.1848E+00  0.7744E+00
     -3.185  0.1794E+00  0.7912E+00
     -3.091  0.1881E+00  0.8088E+00
     -2.997  0.1866E+00  0.8264E+00
     -2.904  0.1824E+00  0.8435E+00
     -2.810  0.1826E+00  0.8606E+00
     -2.716  0.1805E+00  0.8776E+00
     -2.622  0.1800E+00  0.8945E+00
     -2.528  0.1842E+00  0.9117E+00
     -2.434  0.1842E+00  0.9290E+00
     -2.341  0.1888E+00  0.9467E+00
     -2.247  0.1876E+00  0.9644E+00
     -2.153  0.1913E+00  0.9823E+00
     -2.059  0.1926E+00  0.1000E+01
     -1.965  0.1855E+00  0.1018E+01
     -1.871  0.1781E+00  0.1035E+01
     -1.777  0.1673E+00  0.1050E+01
     -1.684  0.1550E+00  0.1065E+01
     -1.590  0.1353E+00  0.1077E+01
     -1.496  0.1188E+00  0.1089E+01
     -1.402  0.1064E+00  0.1099E+01
     -1.308  0.9161E-01  0.1107E+01
     -1.214  0.7036E-01  0.1114E+01
     -1.120  0.5510E-01  0.1119E+01
     -1.027  0.4643E-01  0.1123E+01
     -0.933  0.4402E-01  0.1127E+01
     -0.839  0.4433E-01  0.1132E+01
     -0.745  0.4837E-01  0.1136E+01
     -0.651  0.5930E-01  0.1142E+01
     -0.557  0.5852E-01  0.1147E+01
     -0.463  0.4896E-01  0.1152E+01
     -0.370  0.4717E-01  0.1156E+01
     -0.276  0.4718E-01  0.1161E+01
     -0.182  0.3032E-01  0.1164E+01
     -0.088  0.2355E-01  0.1166E+01
      0.006  0.2658E-01  0.1168E+01
      0.100  0.2571E-01  0.1171E+01
      0.194  0.2546E-01  0.1173E+01
      0.287  0.2351E-01  0.1175E+01
      0.381  0.2605E-01  0.1178E+01
      0.475  0.3230E-01  0.1181E+01
      0.569  0.3834E-01  0.1184E+01
      0.663  0.3661E-01  0.1188E+01
      0.757  0.3916E-01  0.1191E+01
      0.851  0.3723E-01  0.1195E+01
      0.944  0.2869E-01  0.1198E+01
      1.038  0.2861E-01  0.1200E+01
      1.132  0.2628E-01  0.1203E+01
      1.226  0.1977E-01  0.1205E+01
      1.320  0.2281E-01  0.1207E+01
      1.414  0.2111E-01  0.1209E+01
      1.508  0.2139E-01  0.1211E+01
      1.601  0.2785E-01  0.1213E+01
      1.695  0.3083E-01  0.1216E+01
      1.789  0.3306E-01  0.1219E+01
      1.883  0.3362E-01  0.1222E+01
      1.977  0.3625E-01  0.1226E+01
      2.071  0.3147E-01  0.1229E+01
      2.165  0.2707E-01  0.1231E+01
      2.258  0.3201E-01  0.1234E+01
      2.352  0.3367E-01  0.1238E+01
      2.446  0.2861E-01  0.1240E+01
      2.540  0.2267E-01  0.1242E+01
      2.634  0.2207E-01  0.1244E+01
      2.728  0.2267E-01  0.1247E+01
      2.822  0.2477E-01  0.1249E+01
      2.915  0.2809E-01  0.1252E+01
      3.009  0.2666E-01  0.1254E+01
      3.103  0.2125E-01  0.1256E+01
      3.197  0.2960E-01  0.1259E+01
      3.291  0.3216E-01  0.1262E+01
      3.385  0.3562E-01  0.1265E+01
      3.479  0.4246E-01  0.1269E+01
      3.572  0.3851E-01  0.1273E+01
      3.666  0.3909E-01  0.1276E+01
      3.760  0.3934E-01  0.1280E+01
      3.854  0.3476E-01  0.1283E+01
      3.948  0.3995E-01  0.1287E+01
      4.042  0.3986E-01  0.1291E+01
      4.136  0.3767E-01  0.1294E+01
      4.229  0.3798E-01  0.1298E+01
      4.323  0.3366E-01  0.1301E+01
      4.417  0.3186E-01  0.1304E+01
      4.511  0.3417E-01  0.1307E+01
      4.605  0.4386E-01  0.1311E+01
      4.699  0.5071E-01  0.1316E+01
      4.793  0.5665E-01  0.1322E+01
      4.886  0.6477E-01  0.1328E+01
      4.980  0.5775E-01  0.1333E+01
      5.074  0.5306E-01  0.1338E+01
      5.168  0.4111E-01  0.1342E+01
      5.262  0.1889E-01  0.1344E+01
      5.356  0.3619E-02  0.1344E+01
      5.450  0.2002E-03  0.1344E+01
      5.543  0.2551E-05  0.1344E+01
      5.637  0.6635E-08  0.1344E+01
      5.731  0.3301E-11  0.1344E+01
      5.825  0.3028E-15  0.1344E+01
      5.919  0.0000E+00  0.1344E+01
      6.013  0.0000E+00  0.1344E+01
      6.106  0.0000E+00  0.1344E+01
      6.200  0.0000E+00  0.1344E+01
      6.294  0.0000E+00  0.1344E+01
      6.388  0.0000E+00  0.1344E+01
      6.482  0.0000E+00  0.1344E+01
