  48  48   0   0
  0.5349325E+02  0.1100258E-08  0.1100258E-08  0.2449179E-08  0.3500000E-15
  1.000000000000000E-004
  CAR 
 unknown system                          
      6.37130933     -9.71982401  301     -1.07625327      1.00000000
     -9.720  0.0000E+00  0.0000E+00
     -9.666  0.0000E+00  0.0000E+00
     -9.613  0.0000E+00  0.0000E+00
     -9.559  0.0000E+00  0.0000E+00
     -9.505  0.0000E+00  0.0000E+00
     -9.452  0.0000E+00  0.0000E+00
     -9.398  0.0000E+00  0.0000E+00
     -9.344  0.0000E+00  0.0000E+00
     -9.291  0.1242E-16  0.6661E-18
     -9.237  0.4652E-14  0.2502E-15
     -9.183  0.9966E-12  0.5371E-13
     -9.130  0.1214E-09  0.6563E-11
     -9.076  0.8413E-08  0.4578E-09
     -9.023  0.3327E-06  0.1830E-07
     -8.969  0.7521E-05  0.4217E-06
     -8.915  0.9743E-04  0.5648E-05
     -8.862  0.7250E-03  0.4454E-04
     -8.808  0.3107E-02  0.2112E-03
     -8.754  0.7694E-02  0.6239E-03
     -8.701  0.1116E-01  0.1223E-02
     -8.647  0.1032E-01  0.1776E-02
     -8.593  0.8855E-02  0.2251E-02
     -8.540  0.1045E-01  0.2812E-02
     -8.486  0.1108E-01  0.3406E-02
     -8.433  0.7420E-02  0.3804E-02
     -8.379  0.2911E-02  0.3960E-02
     -8.325  0.7045E-03  0.3998E-02
     -8.272  0.4758E-03  0.4023E-02
     -8.218  0.1945E-02  0.4128E-02
     -8.164  0.5775E-02  0.4437E-02
     -8.111  0.1071E-01  0.5012E-02
     -8.057  0.1357E-01  0.5740E-02
     -8.003  0.1417E-01  0.6500E-02
     -7.950  0.1504E-01  0.7306E-02
     -7.896  0.1700E-01  0.8218E-02
     -7.843  0.1868E-01  0.9220E-02
     -7.789  0.1831E-01  0.1020E-01
     -7.735  0.1575E-01  0.1105E-01
     -7.682  0.1204E-01  0.1169E-01
     -7.628  0.9573E-02  0.1221E-01
     -7.574  0.1071E-01  0.1278E-01
     -7.521  0.1443E-01  0.1356E-01
     -7.467  0.1794E-01  0.1452E-01
     -7.413  0.1928E-01  0.1555E-01
     -7.360  0.1920E-01  0.1658E-01
     -7.306  0.2199E-01  0.1776E-01
     -7.253  0.3091E-01  0.1942E-01
     -7.199  0.4226E-01  0.2168E-01
     -7.145  0.4886E-01  0.2431E-01
     -7.092  0.5083E-01  0.2703E-01
     -7.038  0.5442E-01  0.2995E-01
     -6.984  0.6109E-01  0.3323E-01
     -6.931  0.6604E-01  0.3677E-01
     -6.877  0.6552E-01  0.4028E-01
     -6.823  0.6142E-01  0.4358E-01
     -6.770  0.5769E-01  0.4667E-01
     -6.716  0.5842E-01  0.4981E-01
     -6.663  0.6740E-01  0.5342E-01
     -6.609  0.8095E-01  0.5776E-01
     -6.555  0.9041E-01  0.6261E-01
     -6.502  0.9464E-01  0.6769E-01
     -6.448  0.9825E-01  0.7296E-01
     -6.394  0.1038E+00  0.7852E-01
     -6.341  0.1116E+00  0.8451E-01
     -6.287  0.1229E+00  0.9110E-01
     -6.233  0.1359E+00  0.9839E-01
     -6.180  0.1426E+00  0.1060E+00
     -6.126  0.1410E+00  0.1136E+00
     -6.073  0.1402E+00  0.1211E+00
     -6.019  0.1470E+00  0.1290E+00
     -5.965  0.1567E+00  0.1374E+00
     -5.912  0.1623E+00  0.1461E+00
     -5.858  0.1633E+00  0.1549E+00
     -5.804  0.1610E+00  0.1635E+00
     -5.751  0.1539E+00  0.1718E+00
     -5.697  0.1446E+00  0.1795E+00
     -5.643  0.1382E+00  0.1869E+00
     -5.590  0.1364E+00  0.1943E+00
     -5.536  0.1378E+00  0.2016E+00
     -5.482  0.1431E+00  0.2093E+00
     -5.429  0.1529E+00  0.2175E+00
     -5.375  0.1623E+00  0.2262E+00
     -5.322  0.1680E+00  0.2352E+00
     -5.268  0.1712E+00  0.2444E+00
     -5.214  0.1714E+00  0.2536E+00
     -5.161  0.1680E+00  0.2626E+00
     -5.107  0.1640E+00  0.2714E+00
     -5.053  0.1646E+00  0.2803E+00
     -5.000  0.1716E+00  0.2895E+00
     -4.946  0.1794E+00  0.2991E+00
     -4.892  0.1813E+00  0.3088E+00
     -4.839  0.1785E+00  0.3184E+00
     -4.785  0.1764E+00  0.3278E+00
     -4.732  0.1768E+00  0.3373E+00
     -4.678  0.1790E+00  0.3469E+00
     -4.624  0.1831E+00  0.3568E+00
     -4.571  0.1870E+00  0.3668E+00
     -4.517  0.1874E+00  0.3768E+00
     -4.463  0.1832E+00  0.3867E+00
     -4.410  0.1763E+00  0.3961E+00
     -4.356  0.1726E+00  0.4054E+00
     -4.302  0.1739E+00  0.4147E+00
     -4.249  0.1750E+00  0.4241E+00
     -4.195  0.1729E+00  0.4334E+00
     -4.142  0.1714E+00  0.4426E+00
     -4.088  0.1746E+00  0.4519E+00
     -4.034  0.1802E+00  0.4616E+00
     -3.981  0.1837E+00  0.4714E+00
     -3.927  0.1863E+00  0.4814E+00
     -3.873  0.1924E+00  0.4917E+00
     -3.820  0.2002E+00  0.5025E+00
     -3.766  0.2044E+00  0.5135E+00
     -3.712  0.2039E+00  0.5244E+00
     -3.659  0.2020E+00  0.5352E+00
     -3.605  0.2001E+00  0.5460E+00
     -3.552  0.1973E+00  0.5565E+00
     -3.498  0.1950E+00  0.5670E+00
     -3.444  0.1959E+00  0.5775E+00
     -3.391  0.1973E+00  0.5881E+00
     -3.337  0.1972E+00  0.5987E+00
     -3.283  0.1972E+00  0.6092E+00
     -3.230  0.1951E+00  0.6197E+00
     -3.176  0.1863E+00  0.6297E+00
     -3.122  0.1745E+00  0.6390E+00
     -3.069  0.1709E+00  0.6482E+00
     -3.015  0.1763E+00  0.6577E+00
     -2.962  0.1804E+00  0.6673E+00
     -2.908  0.1782E+00  0.6769E+00
     -2.854  0.1732E+00  0.6862E+00
     -2.801  0.1708E+00  0.6954E+00
     -2.747  0.1720E+00  0.7046E+00
     -2.693  0.1734E+00  0.7139E+00
     -2.640  0.1734E+00  0.7232E+00
     -2.586  0.1752E+00  0.7326E+00
     -2.532  0.1791E+00  0.7422E+00
     -2.479  0.1805E+00  0.7519E+00
     -2.425  0.1785E+00  0.7614E+00
     -2.372  0.1757E+00  0.7709E+00
     -2.318  0.1729E+00  0.7801E+00
     -2.264  0.1732E+00  0.7894E+00
     -2.211  0.1790E+00  0.7990E+00
     -2.157  0.1859E+00  0.8090E+00
     -2.103  0.1894E+00  0.8192E+00
     -2.050  0.1904E+00  0.8294E+00
     -1.996  0.1909E+00  0.8396E+00
     -1.942  0.1928E+00  0.8499E+00
     -1.889  0.1969E+00  0.8605E+00
     -1.835  0.2010E+00  0.8713E+00
     -1.782  0.2049E+00  0.8823E+00
     -1.728  0.2088E+00  0.8935E+00
     -1.674  0.2078E+00  0.9046E+00
     -1.621  0.1988E+00  0.9153E+00
     -1.567  0.1883E+00  0.9254E+00
     -1.513  0.1843E+00  0.9353E+00
     -1.460  0.1865E+00  0.9453E+00
     -1.406  0.1905E+00  0.9555E+00
     -1.352  0.1924E+00  0.9658E+00
     -1.299  0.1895E+00  0.9760E+00
     -1.245  0.1810E+00  0.9857E+00
     -1.192  0.1635E+00  0.9944E+00
     -1.138  0.1354E+00  0.1002E+01
     -1.084  0.1041E+00  0.1007E+01
     -1.031  0.7957E-01  0.1012E+01
     -0.977  0.6419E-01  0.1015E+01
     -0.923  0.5226E-01  0.1018E+01
     -0.870  0.3923E-01  0.1020E+01
     -0.816  0.2785E-01  0.1021E+01
     -0.762  0.2072E-01  0.1023E+01
     -0.709  0.1588E-01  0.1023E+01
     -0.655  0.1276E-01  0.1024E+01
     -0.602  0.1519E-01  0.1025E+01
     -0.548  0.2426E-01  0.1026E+01
     -0.494  0.3486E-01  0.1028E+01
     -0.441  0.4099E-01  0.1030E+01
     -0.387  0.3972E-01  0.1032E+01
     -0.333  0.3357E-01  0.1034E+01
     -0.280  0.3002E-01  0.1036E+01
     -0.226  0.3475E-01  0.1038E+01
     -0.172  0.4289E-01  0.1040E+01
     -0.119  0.4252E-01  0.1042E+01
     -0.065  0.3317E-01  0.1044E+01
     -0.012  0.2683E-01  0.1045E+01
      0.042  0.2896E-01  0.1047E+01
      0.096  0.3412E-01  0.1049E+01
      0.149  0.3821E-01  0.1051E+01
      0.203  0.4265E-01  0.1053E+01
      0.257  0.4652E-01  0.1056E+01
      0.310  0.4547E-01  0.1058E+01
      0.364  0.3874E-01  0.1060E+01
      0.418  0.3135E-01  0.1062E+01
      0.471  0.2810E-01  0.1063E+01
      0.525  0.2771E-01  0.1065E+01
      0.579  0.2798E-01  0.1066E+01
      0.632  0.3218E-01  0.1068E+01
      0.686  0.4012E-01  0.1070E+01
      0.739  0.4452E-01  0.1073E+01
      0.793  0.4163E-01  0.1075E+01
      0.847  0.3412E-01  0.1077E+01
      0.900  0.2662E-01  0.1078E+01
      0.954  0.2264E-01  0.1079E+01
      1.008  0.2238E-01  0.1081E+01
      1.061  0.2325E-01  0.1082E+01
      1.115  0.2096E-01  0.1083E+01
      1.169  0.1486E-01  0.1084E+01
      1.222  0.1009E-01  0.1084E+01
      1.276  0.1033E-01  0.1085E+01
      1.329  0.1416E-01  0.1086E+01
      1.383  0.1827E-01  0.1087E+01
      1.437  0.2271E-01  0.1088E+01
      1.490  0.2999E-01  0.1089E+01
      1.544  0.3651E-01  0.1091E+01
      1.598  0.3696E-01  0.1093E+01
      1.651  0.3525E-01  0.1095E+01
      1.705  0.3643E-01  0.1097E+01
      1.759  0.3810E-01  0.1099E+01
      1.812  0.3628E-01  0.1101E+01
      1.866  0.2867E-01  0.1103E+01
      1.919  0.1733E-01  0.1104E+01
      1.973  0.9608E-02  0.1104E+01
      2.027  0.9486E-02  0.1105E+01
      2.080  0.1271E-01  0.1105E+01
      2.134  0.1537E-01  0.1106E+01
      2.188  0.2115E-01  0.1107E+01
      2.241  0.3212E-01  0.1109E+01
      2.295  0.4275E-01  0.1111E+01
      2.349  0.4864E-01  0.1114E+01
      2.402  0.4943E-01  0.1117E+01
      2.456  0.4672E-01  0.1119E+01
      2.509  0.4488E-01  0.1121E+01
      2.563  0.4559E-01  0.1124E+01
      2.617  0.4718E-01  0.1126E+01
      2.670  0.5037E-01  0.1129E+01
      2.724  0.5425E-01  0.1132E+01
      2.778  0.5085E-01  0.1135E+01
      2.831  0.3611E-01  0.1137E+01
      2.885  0.1918E-01  0.1138E+01
      2.939  0.1130E-01  0.1138E+01
      2.992  0.1326E-01  0.1139E+01
      3.046  0.1825E-01  0.1140E+01
      3.099  0.2266E-01  0.1141E+01
      3.153  0.2687E-01  0.1143E+01
      3.207  0.2780E-01  0.1144E+01
      3.260  0.2185E-01  0.1145E+01
      3.314  0.1437E-01  0.1146E+01
      3.368  0.1232E-01  0.1147E+01
      3.421  0.1330E-01  0.1147E+01
      3.475  0.1348E-01  0.1148E+01
      3.529  0.1408E-01  0.1149E+01
      3.582  0.1597E-01  0.1150E+01
      3.636  0.2144E-01  0.1151E+01
      3.689  0.3311E-01  0.1153E+01
      3.743  0.4520E-01  0.1155E+01
      3.797  0.4763E-01  0.1158E+01
      3.850  0.3878E-01  0.1160E+01
      3.904  0.2709E-01  0.1161E+01
      3.958  0.2153E-01  0.1162E+01
      4.011  0.2402E-01  0.1164E+01
      4.065  0.2802E-01  0.1165E+01
      4.119  0.2770E-01  0.1167E+01
      4.172  0.2550E-01  0.1168E+01
      4.226  0.2470E-01  0.1169E+01
      4.279  0.2334E-01  0.1171E+01
      4.333  0.1975E-01  0.1172E+01
      4.387  0.1737E-01  0.1173E+01
      4.440  0.1905E-01  0.1174E+01
      4.494  0.2491E-01  0.1175E+01
      4.548  0.3611E-01  0.1177E+01
      4.601  0.5083E-01  0.1180E+01
      4.655  0.6127E-01  0.1183E+01
      4.709  0.6140E-01  0.1186E+01
      4.762  0.5412E-01  0.1189E+01
      4.816  0.4745E-01  0.1192E+01
      4.869  0.4815E-01  0.1194E+01
      4.923  0.5462E-01  0.1197E+01
      4.977  0.6005E-01  0.1200E+01
      5.030  0.6401E-01  0.1204E+01
      5.084  0.6718E-01  0.1207E+01
      5.138  0.6710E-01  0.1211E+01
      5.191  0.6442E-01  0.1215E+01
      5.245  0.5954E-01  0.1218E+01
      5.299  0.4982E-01  0.1220E+01
      5.352  0.3543E-01  0.1222E+01
      5.406  0.2036E-01  0.1223E+01
      5.459  0.8755E-02  0.1224E+01
      5.513  0.2574E-02  0.1224E+01
      5.567  0.4828E-03  0.1224E+01
      5.620  0.5540E-04  0.1224E+01
      5.674  0.3801E-05  0.1224E+01
      5.728  0.1537E-06  0.1224E+01
      5.781  0.3628E-08  0.1224E+01
      5.835  0.4965E-10  0.1224E+01
      5.889  0.3917E-12  0.1224E+01
      5.942  0.1773E-14  0.1224E+01
      5.996  0.4140E-17  0.1224E+01
      6.049  0.0000E+00  0.1224E+01
      6.103  0.0000E+00  0.1224E+01
      6.157  0.0000E+00  0.1224E+01
      6.210  0.0000E+00  0.1224E+01
      6.264  0.0000E+00  0.1224E+01
      6.318  0.0000E+00  0.1224E+01
      6.371  0.0000E+00  0.1224E+01
