  56  56   0   0
  0.4903395E+02  0.1100258E-08  0.1100258E-08  0.2619179E-08  0.3500000E-15
  1.000000000000000E-004
  CAR 
 unknown system                          
      6.43713204    -21.61911607  301     -1.36145253      1.00000000
    -21.619  0.0000E+00  0.0000E+00
    -21.526  0.0000E+00  0.0000E+00
    -21.432  0.0000E+00  0.0000E+00
    -21.339  0.0000E+00  0.0000E+00
    -21.245  0.0000E+00  0.0000E+00
    -21.152  0.0000E+00  0.0000E+00
    -21.058  0.0000E+00  0.0000E+00
    -20.964  0.0000E+00  0.0000E+00
    -20.871  0.1906E-14  0.1782E-15
    -20.777  0.1838E-10  0.1719E-11
    -20.684  0.3210E-07  0.3004E-08
    -20.590  0.1036E-04  0.9719E-06
    -20.497  0.6382E-03  0.6065E-04
    -20.403  0.7887E-02  0.7982E-03
    -20.310  0.2073E-01  0.2737E-02
    -20.216  0.1203E-01  0.3862E-02
    -20.123  0.3371E-02  0.4177E-02
    -20.029  0.1552E-01  0.5628E-02
    -19.936  0.3525E-01  0.8925E-02
    -19.842  0.2665E-01  0.1142E-01
    -19.749  0.1021E-01  0.1237E-01
    -19.655  0.1970E-01  0.1421E-01
    -19.562  0.3401E-01  0.1740E-01
    -19.468  0.4573E-01  0.2167E-01
    -19.375  0.3227E-01  0.2469E-01
    -19.281  0.3481E-01  0.2795E-01
    -19.188  0.3265E-01  0.3100E-01
    -19.094  0.9917E-02  0.3193E-01
    -19.001  0.7724E-03  0.3200E-01
    -18.907  0.1304E-04  0.3200E-01
    -18.813  0.4310E-07  0.3200E-01
    -18.720  0.2653E-10  0.3200E-01
    -18.626  0.2965E-14  0.3200E-01
    -18.533  0.0000E+00  0.3200E-01
    -18.439  0.0000E+00  0.3200E-01
    -18.346  0.0000E+00  0.3200E-01
    -18.252  0.0000E+00  0.3200E-01
    -18.159  0.0000E+00  0.3200E-01
    -18.065  0.0000E+00  0.3200E-01
    -17.972  0.0000E+00  0.3200E-01
    -17.878  0.0000E+00  0.3200E-01
    -17.785  0.0000E+00  0.3200E-01
    -17.691  0.0000E+00  0.3200E-01
    -17.598  0.0000E+00  0.3200E-01
    -17.504  0.0000E+00  0.3200E-01
    -17.411  0.0000E+00  0.3200E-01
    -17.317  0.0000E+00  0.3200E-01
    -17.224  0.0000E+00  0.3200E-01
    -17.130  0.0000E+00  0.3200E-01
    -17.037  0.0000E+00  0.3200E-01
    -16.943  0.0000E+00  0.3200E-01
    -16.850  0.0000E+00  0.3200E-01
    -16.756  0.0000E+00  0.3200E-01
    -16.663  0.0000E+00  0.3200E-01
    -16.569  0.0000E+00  0.3200E-01
    -16.475  0.0000E+00  0.3200E-01
    -16.382  0.0000E+00  0.3200E-01
    -16.288  0.0000E+00  0.3200E-01
    -16.195  0.0000E+00  0.3200E-01
    -16.101  0.0000E+00  0.3200E-01
    -16.008  0.0000E+00  0.3200E-01
    -15.914  0.0000E+00  0.3200E-01
    -15.821  0.0000E+00  0.3200E-01
    -15.727  0.0000E+00  0.3200E-01
    -15.634  0.0000E+00  0.3200E-01
    -15.540  0.0000E+00  0.3200E-01
    -15.447  0.0000E+00  0.3200E-01
    -15.353  0.0000E+00  0.3200E-01
    -15.260  0.0000E+00  0.3200E-01
    -15.166  0.0000E+00  0.3200E-01
    -15.073  0.0000E+00  0.3200E-01
    -14.979  0.0000E+00  0.3200E-01
    -14.886  0.0000E+00  0.3200E-01
    -14.792  0.0000E+00  0.3200E-01
    -14.699  0.0000E+00  0.3200E-01
    -14.605  0.0000E+00  0.3200E-01
    -14.512  0.0000E+00  0.3200E-01
    -14.418  0.0000E+00  0.3200E-01
    -14.324  0.0000E+00  0.3200E-01
    -14.231  0.0000E+00  0.3200E-01
    -14.137  0.0000E+00  0.3200E-01
    -14.044  0.0000E+00  0.3200E-01
    -13.950  0.0000E+00  0.3200E-01
    -13.857  0.0000E+00  0.3200E-01
    -13.763  0.0000E+00  0.3200E-01
    -13.670  0.0000E+00  0.3200E-01
    -13.576  0.0000E+00  0.3200E-01
    -13.483  0.0000E+00  0.3200E-01
    -13.389  0.0000E+00  0.3200E-01
    -13.296  0.0000E+00  0.3200E-01
    -13.202  0.0000E+00  0.3200E-01
    -13.109  0.0000E+00  0.3200E-01
    -13.015  0.0000E+00  0.3200E-01
    -12.922  0.0000E+00  0.3200E-01
    -12.828  0.0000E+00  0.3200E-01
    -12.735  0.0000E+00  0.3200E-01
    -12.641  0.0000E+00  0.3200E-01
    -12.548  0.0000E+00  0.3200E-01
    -12.454  0.0000E+00  0.3200E-01
    -12.361  0.0000E+00  0.3200E-01
    -12.267  0.0000E+00  0.3200E-01
    -12.174  0.0000E+00  0.3200E-01
    -12.080  0.0000E+00  0.3200E-01
    -11.986  0.0000E+00  0.3200E-01
    -11.893  0.0000E+00  0.3200E-01
    -11.799  0.0000E+00  0.3200E-01
    -11.706  0.0000E+00  0.3200E-01
    -11.612  0.0000E+00  0.3200E-01
    -11.519  0.0000E+00  0.3200E-01
    -11.425  0.0000E+00  0.3200E-01
    -11.332  0.0000E+00  0.3200E-01
    -11.238  0.0000E+00  0.3200E-01
    -11.145  0.0000E+00  0.3200E-01
    -11.051  0.0000E+00  0.3200E-01
    -10.958  0.0000E+00  0.3200E-01
    -10.864  0.0000E+00  0.3200E-01
    -10.771  0.0000E+00  0.3200E-01
    -10.677  0.0000E+00  0.3200E-01
    -10.584  0.0000E+00  0.3200E-01
    -10.490  0.0000E+00  0.3200E-01
    -10.397  0.0000E+00  0.3200E-01
    -10.303  0.0000E+00  0.3200E-01
    -10.210  0.0000E+00  0.3200E-01
    -10.116  0.0000E+00  0.3200E-01
    -10.023  0.0000E+00  0.3200E-01
     -9.929  0.0000E+00  0.3200E-01
     -9.835  0.0000E+00  0.3200E-01
     -9.742  0.5936E-17  0.3200E-01
     -9.648  0.1275E-12  0.3200E-01
     -9.555  0.4775E-09  0.3200E-01
     -9.461  0.3364E-06  0.3200E-01
     -9.368  0.4589E-04  0.3200E-01
     -9.274  0.1268E-02  0.3212E-01
     -9.181  0.7707E-02  0.3284E-01
     -9.087  0.1329E-01  0.3409E-01
     -8.994  0.1255E-01  0.3526E-01
     -8.900  0.6731E-02  0.3589E-01
     -8.807  0.1240E-02  0.3601E-01
     -8.713  0.1395E-02  0.3614E-01
     -8.620  0.4414E-02  0.3655E-01
     -8.526  0.8592E-02  0.3735E-01
     -8.433  0.1302E-01  0.3857E-01
     -8.339  0.1039E-01  0.3954E-01
     -8.246  0.1491E-01  0.4094E-01
     -8.152  0.2090E-01  0.4289E-01
     -8.059  0.2069E-01  0.4482E-01
     -7.965  0.2543E-01  0.4720E-01
     -7.872  0.3917E-01  0.5087E-01
     -7.778  0.5791E-01  0.5628E-01
     -7.685  0.6857E-01  0.6269E-01
     -7.591  0.6718E-01  0.6898E-01
     -7.497  0.7249E-01  0.7576E-01
     -7.404  0.8693E-01  0.8389E-01
     -7.310  0.9989E-01  0.9323E-01
     -7.217  0.9996E-01  0.1026E+00
     -7.123  0.9718E-01  0.1117E+00
     -7.030  0.1032E+00  0.1213E+00
     -6.936  0.1126E+00  0.1318E+00
     -6.843  0.1238E+00  0.1434E+00
     -6.749  0.1240E+00  0.1550E+00
     -6.656  0.1370E+00  0.1678E+00
     -6.562  0.1572E+00  0.1825E+00
     -6.469  0.1614E+00  0.1976E+00
     -6.375  0.1582E+00  0.2124E+00
     -6.282  0.1621E+00  0.2276E+00
     -6.188  0.1708E+00  0.2436E+00
     -6.095  0.1705E+00  0.2595E+00
     -6.001  0.1685E+00  0.2753E+00
     -5.908  0.1638E+00  0.2906E+00
     -5.814  0.1707E+00  0.3065E+00
     -5.721  0.1768E+00  0.3231E+00
     -5.627  0.1721E+00  0.3392E+00
     -5.534  0.1645E+00  0.3546E+00
     -5.440  0.1724E+00  0.3707E+00
     -5.346  0.1803E+00  0.3875E+00
     -5.253  0.1775E+00  0.4041E+00
     -5.159  0.1688E+00  0.4199E+00
     -5.066  0.1661E+00  0.4355E+00
     -4.972  0.1711E+00  0.4515E+00
     -4.879  0.1771E+00  0.4680E+00
     -4.785  0.1764E+00  0.4845E+00
     -4.692  0.1798E+00  0.5013E+00
     -4.598  0.1796E+00  0.5181E+00
     -4.505  0.1764E+00  0.5346E+00
     -4.411  0.1828E+00  0.5517E+00
     -4.318  0.1950E+00  0.5700E+00
     -4.224  0.1908E+00  0.5878E+00
     -4.131  0.1806E+00  0.6047E+00
     -4.037  0.1829E+00  0.6218E+00
     -3.944  0.1858E+00  0.6392E+00
     -3.850  0.1850E+00  0.6565E+00
     -3.757  0.1831E+00  0.6736E+00
     -3.663  0.1738E+00  0.6898E+00
     -3.570  0.1786E+00  0.7066E+00
     -3.476  0.1879E+00  0.7241E+00
     -3.383  0.1937E+00  0.7422E+00
     -3.289  0.1981E+00  0.7608E+00
     -3.196  0.2002E+00  0.7795E+00
     -3.102  0.2012E+00  0.7983E+00
     -3.008  0.2051E+00  0.8175E+00
     -2.915  0.2018E+00  0.8364E+00
     -2.821  0.1999E+00  0.8551E+00
     -2.728  0.1979E+00  0.8736E+00
     -2.634  0.1831E+00  0.8907E+00
     -2.541  0.1782E+00  0.9074E+00
     -2.447  0.1837E+00  0.9245E+00
     -2.354  0.1848E+00  0.9418E+00
     -2.260  0.1896E+00  0.9595E+00
     -2.167  0.1973E+00  0.9780E+00
     -2.073  0.2002E+00  0.9967E+00
     -1.980  0.2060E+00  0.1016E+01
     -1.886  0.2001E+00  0.1035E+01
     -1.793  0.1869E+00  0.1052E+01
     -1.699  0.1649E+00  0.1068E+01
     -1.606  0.1338E+00  0.1080E+01
     -1.512  0.1157E+00  0.1091E+01
     -1.419  0.9297E-01  0.1100E+01
     -1.325  0.7417E-01  0.1107E+01
     -1.232  0.7073E-01  0.1113E+01
     -1.138  0.7003E-01  0.1120E+01
     -1.045  0.5847E-01  0.1125E+01
     -0.951  0.4739E-01  0.1130E+01
     -0.857  0.4853E-01  0.1134E+01
     -0.764  0.4900E-01  0.1139E+01
     -0.670  0.4453E-01  0.1143E+01
     -0.577  0.4316E-01  0.1147E+01
     -0.483  0.4038E-01  0.1151E+01
     -0.390  0.3959E-01  0.1154E+01
     -0.296  0.3796E-01  0.1158E+01
     -0.203  0.2650E-01  0.1160E+01
     -0.109  0.1850E-01  0.1162E+01
     -0.016  0.2083E-01  0.1164E+01
      0.078  0.2611E-01  0.1167E+01
      0.171  0.3306E-01  0.1170E+01
      0.265  0.3415E-01  0.1173E+01
      0.358  0.2990E-01  0.1176E+01
      0.452  0.3110E-01  0.1179E+01
      0.545  0.3651E-01  0.1182E+01
      0.639  0.3678E-01  0.1185E+01
      0.732  0.3874E-01  0.1189E+01
      0.826  0.3701E-01  0.1193E+01
      0.919  0.3828E-01  0.1196E+01
      1.013  0.3633E-01  0.1200E+01
      1.106  0.3205E-01  0.1202E+01
      1.200  0.2651E-01  0.1205E+01
      1.293  0.2520E-01  0.1207E+01
      1.387  0.2474E-01  0.1210E+01
      1.481  0.2391E-01  0.1212E+01
      1.574  0.3058E-01  0.1215E+01
      1.668  0.3948E-01  0.1218E+01
      1.761  0.4059E-01  0.1222E+01
      1.855  0.4138E-01  0.1226E+01
      1.948  0.3387E-01  0.1229E+01
      2.042  0.2527E-01  0.1232E+01
      2.135  0.3033E-01  0.1234E+01
      2.229  0.3110E-01  0.1237E+01
      2.322  0.2481E-01  0.1240E+01
      2.416  0.2936E-01  0.1242E+01
      2.509  0.3469E-01  0.1246E+01
      2.603  0.2891E-01  0.1248E+01
      2.696  0.2363E-01  0.1251E+01
      2.790  0.2032E-01  0.1253E+01
      2.883  0.2666E-01  0.1255E+01
      2.977  0.2873E-01  0.1258E+01
      3.070  0.2684E-01  0.1260E+01
      3.164  0.3316E-01  0.1263E+01
      3.257  0.3542E-01  0.1267E+01
      3.351  0.3531E-01  0.1270E+01
      3.444  0.3719E-01  0.1273E+01
      3.538  0.3276E-01  0.1276E+01
      3.632  0.3508E-01  0.1280E+01
      3.725  0.3182E-01  0.1283E+01
      3.819  0.2560E-01  0.1285E+01
      3.912  0.3126E-01  0.1288E+01
      4.006  0.3474E-01  0.1291E+01
      4.099  0.3595E-01  0.1295E+01
      4.193  0.3416E-01  0.1298E+01
      4.286  0.2732E-01  0.1300E+01
      4.380  0.3218E-01  0.1303E+01
      4.473  0.4692E-01  0.1308E+01
      4.567  0.5091E-01  0.1313E+01
      4.660  0.5097E-01  0.1317E+01
      4.754  0.5408E-01  0.1322E+01
      4.847  0.5878E-01  0.1328E+01
      4.941  0.5654E-01  0.1333E+01
      5.034  0.4814E-01  0.1338E+01
      5.128  0.4078E-01  0.1341E+01
      5.221  0.2204E-01  0.1344E+01
      5.315  0.4752E-02  0.1344E+01
      5.408  0.2895E-03  0.1344E+01
      5.502  0.3999E-05  0.1344E+01
      5.595  0.1112E-07  0.1344E+01
      5.689  0.5854E-11  0.1344E+01
      5.782  0.5667E-15  0.1344E+01
      5.876  0.0000E+00  0.1344E+01
      5.970  0.0000E+00  0.1344E+01
      6.063  0.0000E+00  0.1344E+01
      6.157  0.0000E+00  0.1344E+01
      6.250  0.0000E+00  0.1344E+01
      6.344  0.0000E+00  0.1344E+01
      6.437  0.0000E+00  0.1344E+01
