<?xml version="1.0" encoding="ISO-8859-1"?>
<modeling>
 <generator>
  <i name="program" type="string">vasp </i>
  <i name="version" type="string">5.4.1  </i>
  <i name="subversion" type="string">24Jun15 (build Mar 14 2019 10:18:33) complex                          parallel </i>
  <i name="platform" type="string">INTEL-19.0.2+OPENMPI-3.1.3 </i>
  <i name="date" type="string">2023 01 23 </i>
  <i name="time" type="string">11:37:14 </i>
 </generator>
 <incar>
  <i type="int" name="ISTART">     0</i>
  <i type="string" name="PREC">normal</i>
  <i type="string" name="ALGO"> Fast</i>
  <i type="int" name="NELM">   500</i>
  <i type="int" name="IBRION">     2</i>
  <i type="int" name="NFREE">     2</i>
  <i name="EDIFF">      0.00000100</i>
  <i name="EDIFFG">     -0.02000000</i>
  <i type="int" name="NSW">   500</i>
  <i type="int" name="ISIF">     0</i>
  <i type="int" name="ISYM">     2</i>
  <i name="ENCUT">    400.00000000</i>
  <i name="POTIM">      0.35000000</i>
  <i type="string" name="LREAL"> Auto</i>
  <i type="logical" name="LPLANE"> T  </i>
  <i type="int" name="ISMEAR">     0</i>
  <i name="SIGMA">      0.10000000</i>
  <i type="int" name="NWRITE">     1</i>
  <i type="logical" name="LWAVE"> F  </i>
  <i type="logical" name="LCHARG"> F  </i>
  <i type="logical" name="LVTOT"> F  </i>
  <i type="logical" name="LORBIT"> F  </i>
  <i type="logical" name="LAECHG"> F  </i>
  <v type="int" name="KPOINT_BSE">    -1     0     0     0</v>
  <i type="int" name="NELM">   500</i>
  <i type="string" name="GGA"> PE          ! optPBE-vdW XC-functional</i>
  <i type="int" name="VOSKOWN">     1</i>
  <i type="logical" name="LDIPOL"> T  </i>
  <i type="logical" name="LMONO"> F  </i>
  <i type="int" name="IDIPOL">     3</i>
  <v name="DIPOL">      0.00000000      0.00000000      0.50000000</v>
 </incar>
 <kpoints>
  <generation param="Monkhorst-Pack">
   <v type="int" name="divisions">       2        2        1 </v>
   <v name="usershift">      0.00000000       0.00000000       0.00000000 </v>
   <v name="genvec1">      0.50000000       0.00000000       0.00000000 </v>
   <v name="genvec2">      0.00000000       0.50000000       0.00000000 </v>
   <v name="genvec3">      0.00000000       0.00000000       1.00000000 </v>
   <v name="shift">      0.50000000       0.50000000       0.00000000 </v>
  </generation>
  <varray name="kpointlist" >
   <v>       0.25000000       0.25000000       0.00000000 </v>
   <v>       0.00000000       0.25000000       0.00000000 </v>
   <v>      -0.25000000       0.00000000       0.00000000 </v>
   <v>      -0.25000000       0.25000000       0.00000000 </v>
   <v>       0.50000000      -0.25000000       0.00000000 </v>
   <v>      -0.25000000       0.50000000       0.00000000 </v>
  </varray>
  <varray name="weights" >
   <v>       0.16666667 </v>
   <v>       0.16666667 </v>
   <v>       0.16666667 </v>
   <v>       0.16666667 </v>
   <v>       0.16666667 </v>
   <v>       0.16666667 </v>
  </varray>
 </kpoints>
 <parameters>
  <separator name="general" >
   <i type="string" name="SYSTEM">unknown system</i>
   <i type="logical" name="LCOMPAT"> F  </i>
  </separator>
  <separator name="electronic" >
   <i type="string" name="PREC">normal</i>
   <i name="ENMAX">    400.00000000</i>
   <i name="ENAUG">    605.39200000</i>
   <i name="EDIFF">      0.00000100</i>
   <i type="int" name="IALGO">    68</i>
   <i type="int" name="IWAVPR">    11</i>
   <i type="int" name="NBANDS">   336</i>
   <i name="NELECT">    552.00000000</i>
   <i type="int" name="TURBO">     0</i>
   <i type="int" name="IRESTART">     0</i>
   <i type="int" name="NREBOOT">     0</i>
   <i type="int" name="NMIN">     0</i>
   <i name="EREF">      0.00000000</i>
   <separator name="electronic smearing" >
    <i type="int" name="ISMEAR">     0</i>
    <i name="SIGMA">      0.10000000</i>
    <i name="KSPACING">      0.50000000</i>
    <i type="logical" name="KGAMMA"> T  </i>
   </separator>
   <separator name="electronic projectors" >
    <i type="logical" name="LREAL"> T  </i>
    <v name="ROPT">     -0.00050000     -0.00050000     -0.00050000</v>
    <i type="int" name="LMAXPAW">  -100</i>
    <i type="int" name="LMAXMIX">     2</i>
    <i type="logical" name="NLSPLINE"> F  </i>
   </separator>
   <separator name="electronic startup" >
    <i type="int" name="ISTART">     0</i>
    <i type="int" name="ICHARG">     2</i>
    <i type="int" name="INIWAV">     1</i>
   </separator>
   <separator name="electronic spin" >
    <i type="int" name="ISPIN">     1</i>
    <i type="logical" name="LNONCOLLINEAR"> F  </i>
    <v name="MAGMOM">      1.00000000      1.00000000      1.00000000      1.00000000      1.00000000      1.00000000      1.00000000      1.00000000      1.00000000      1.00000000      1.00000000      1.00000000      1.00000000      1.00000000      1.00000000      1.00000000      1.00000000      1.00000000      1.00000000      1.00000000
      1.00000000      1.00000000      1.00000000      1.00000000      1.00000000      1.00000000      1.00000000      1.00000000      1.00000000      1.00000000      1.00000000      1.00000000      1.00000000      1.00000000      1.00000000      1.00000000      1.00000000      1.00000000      1.00000000      1.00000000
      1.00000000      1.00000000      1.00000000      1.00000000      1.00000000      1.00000000      1.00000000      1.00000000      1.00000000      1.00000000      1.00000000      1.00000000      1.00000000      1.00000000      1.00000000      1.00000000</v>
    <i name="NUPDOWN">     -1.00000000</i>
    <i type="logical" name="LSORBIT"> F  </i>
    <v name="SAXIS">      0.00000000      0.00000000      1.00000000</v>
    <i type="logical" name="LSPIRAL"> F  </i>
    <v name="QSPIRAL">      0.00000000      0.00000000      0.00000000</v>
    <i type="logical" name="LZEROZ"> F  </i>
   </separator>
   <separator name="electronic exchange-correlation" >
    <i type="logical" name="LASPH"> F  </i>
    <i type="logical" name="LMETAGGA"> F  </i>
   </separator>
   <separator name="electronic convergence" >
    <i type="int" name="NELM">   500</i>
    <i type="int" name="NELMDL">    -5</i>
    <i type="int" name="NELMIN">     2</i>
    <i name="ENINI">    400.00000000</i>
    <separator name="electronic convergence detail" >
     <i type="logical" name="LDIAG"> T  </i>
     <i type="logical" name="LSUBROT"> F  </i>
     <i name="WEIMIN">      0.00100000</i>
     <i name="EBREAK">      0.00000000</i>
     <i name="DEPER">      0.30000000</i>
     <i type="int" name="NRMM">     4</i>
     <i name="TIME">      0.40000000</i>
    </separator>
   </separator>
   <separator name="electronic mixer" >
    <i name="AMIX">      0.40000000</i>
    <i name="BMIX">      1.00000000</i>
    <i name="AMIN">      0.10000000</i>
    <i name="AMIX_MAG">      1.60000000</i>
    <i name="BMIX_MAG">      1.00000000</i>
    <separator name="electronic mixer details" >
     <i type="int" name="IMIX">     4</i>
     <i type="logical" name="MIXFIRST"> F  </i>
     <i type="int" name="MAXMIX">   -45</i>
     <i name="WC">    100.00000000</i>
     <i type="int" name="INIMIX">     1</i>
     <i type="int" name="MIXPRE">     1</i>
     <i type="int" name="MREMOVE">     5</i>
    </separator>
   </separator>
   <separator name="electronic dipolcorrection" >
    <i type="logical" name="LDIPOL"> T  </i>
    <i type="logical" name="LMONO"> F  </i>
    <i type="int" name="IDIPOL">     3</i>
    <i name="EPSILON">      1.00000000</i>
    <v name="DIPOL">      0.00000000      0.00000000      0.50000000</v>
    <i name="EFIELD">      0.00000000</i>
   </separator>
  </separator>
  <separator name="grids" >
   <i type="int" name="NGX">    54</i>
   <i type="int" name="NGY">    54</i>
   <i type="int" name="NGZ">   128</i>
   <i type="int" name="NGXF">   108</i>
   <i type="int" name="NGYF">   108</i>
   <i type="int" name="NGZF">   256</i>
   <i type="logical" name="ADDGRID"> F  </i>
  </separator>
  <separator name="ionic" >
   <i type="int" name="NSW">   500</i>
   <i type="int" name="IBRION">     2</i>
   <i type="int" name="ISIF">     0</i>
   <i name="PSTRESS">      0.00000000</i>
   <i name="EDIFFG">     -0.02000000</i>
   <i type="int" name="NFREE">     2</i>
   <i name="POTIM">      0.35000000</i>
   <i name="SMASS">     -3.00000000</i>
   <i name="SCALEE">      1.00000000</i>
  </separator>
  <separator name="ionic md" >
   <i name="TEBEG">      0.00010000</i>
   <i name="TEEND">      0.00010000</i>
   <i type="int" name="NBLOCK">     1</i>
   <i type="int" name="KBLOCK">   500</i>
   <i type="int" name="NPACO">   256</i>
   <i name="APACO">     16.00000000</i>
  </separator>
  <separator name="symmetry" >
   <i type="int" name="ISYM">     2</i>
   <i name="SYMPREC">      0.00001000</i>
  </separator>
  <separator name="dos" >
   <i type="logical" name="LORBIT"> F  </i>
   <v name="RWIGS">     -1.00000000     -1.00000000     -1.00000000</v>
   <i type="int" name="NEDOS">   301</i>
   <i name="EMIN">     10.00000000</i>
   <i name="EMAX">    -10.00000000</i>
   <i name="EFERMI">      0.00000000</i>
  </separator>
  <separator name="writing" >
   <i type="int" name="NWRITE">     1</i>
   <i type="logical" name="LWAVE"> F  </i>
   <i type="logical" name="LCHARG"> F  </i>
   <i type="logical" name="LPARD"> F  </i>
   <i type="logical" name="LVTOT"> F  </i>
   <i type="logical" name="LVHAR"> F  </i>
   <i type="logical" name="LELF"> F  </i>
   <i type="logical" name="LOPTICS"> F  </i>
   <v name="STM">      0.00000000      0.00000000      0.00000000      0.00000000      0.00000000      0.00000000      0.00000000</v>
  </separator>
  <separator name="performance" >
   <i type="int" name="NPAR">     6</i>
   <i type="int" name="NSIM">     4</i>
   <i type="int" name="NBLK">    -1</i>
   <i type="logical" name="LPLANE"> T  </i>
   <i type="logical" name="LSCALAPACK"> T  </i>
   <i type="logical" name="LSCAAWARE"> F  </i>
   <i type="logical" name="LSCALU"> F  </i>
   <i type="logical" name="LASYNC"> F  </i>
   <i type="logical" name="LORBITALREAL"> F  </i>
  </separator>
  <separator name="miscellaneous" >
   <i type="int" name="IDIOT">     3</i>
   <i type="logical" name="LMUSIC"> F  </i>
   <v name="POMASS">    196.96600000     16.00000000    106.42000000</v>
   <v name="DARWINR">      0.00000000      0.00000000      0.00000000</v>
   <v name="DARWINV">      1.00000000      1.00000000      1.00000000</v>
   <i type="logical" name="LCORR"> T  </i>
  </separator>
  <i type="logical" name="GGA_COMPAT"> T  </i>
  <i type="logical" name="LBERRY"> F  </i>
  <i type="int" name="ICORELEVEL">     0</i>
  <i type="logical" name="LDAU"> F  </i>
  <i type="int" name="I_CONSTRAINED_M">     0</i>
  <separator name="electronic exchange-correlation" >
   <i type="string" name="GGA">PE</i>
   <i type="int" name="VOSKOWN">     1</i>
   <i type="logical" name="LHFCALC"> F  </i>
   <i type="string" name="PRECFOCK"></i>
   <i type="logical" name="LSYMGRAD"> F  </i>
   <i type="logical" name="LHFONE"> F  </i>
   <i type="logical" name="LRHFCALC"> F  </i>
   <i type="logical" name="LTHOMAS"> F  </i>
   <i type="logical" name="LMODELHF"> F  </i>
   <i name="ENCUT4O">     -1.00000000</i>
   <i type="int" name="EXXOEP">     0</i>
   <i type="int" name="FOURORBIT">     0</i>
   <i name="AEXX">      0.00000000</i>
   <i name="HFALPHA">      0.00000000</i>
   <i name="MCALPHA">      0.00000000</i>
   <i name="ALDAX">      1.00000000</i>
   <i name="AGGAX">      1.00000000</i>
   <i name="ALDAC">      1.00000000</i>
   <i name="AGGAC">      1.00000000</i>
   <i type="int" name="NKREDX">     1</i>
   <i type="int" name="NKREDY">     1</i>
   <i type="int" name="NKREDZ">     1</i>
   <i type="logical" name="SHIFTRED"> F  </i>
   <i type="logical" name="ODDONLY"> F  </i>
   <i type="logical" name="EVENONLY"> F  </i>
   <i type="int" name="LMAXFOCK">     0</i>
   <i type="int" name="NMAXFOCKAE">     0</i>
   <i type="logical" name="LFOCKAEDFT"> F  </i>
   <i name="HFSCREEN">      0.00000000</i>
   <i name="HFSCREENC">      0.00000000</i>
   <i type="int" name="NBANDSGWLOW">     0</i>
  </separator>
  <separator name="vdW DFT" >
   <i type="logical" name="LUSE_VDW"> F  </i>
   <i name="Zab_VDW">     -0.84910000</i>
   <i name="PARAM1">      0.12340000</i>
   <i name="PARAM2">      1.00000000</i>
   <i name="PARAM3">      0.00000000</i>
  </separator>
  <separator name="model GW" >
   <i type="int" name="MODEL_GW">     0</i>
   <i name="MODEL_EPS0">     29.42037089</i>
   <i name="MODEL_ALPHA">      1.00000000</i>
  </separator>
  <separator name="linear response parameters" >
   <i type="logical" name="LEPSILON"> F  </i>
   <i type="logical" name="LRPA"> F  </i>
   <i type="logical" name="LNABLA"> F  </i>
   <i type="logical" name="LVEL"> F  </i>
   <i type="int" name="KINTER">     0</i>
   <i name="CSHIFT">      0.10000000</i>
   <i name="OMEGAMAX">     -1.00000000</i>
   <i name="DEG_THRESHOLD">      0.00200000</i>
  </separator>
  <separator name="orbital magnetization" >
   <i type="logical" name="NUCIND"> F  </i>
   <v name="MAGPOS">      0.00000000      0.00000000      0.00000000</v>
   <i type="logical" name="LNICSALL"> T  </i>
   <i type="logical" name="ORBITALMAG"> F  </i>
   <i type="logical" name="LMAGBLOCH"> F  </i>
   <i type="logical" name="LCHIMAG"> F  </i>
   <i type="logical" name="LGAUGE"> T  </i>
   <i type="int" name="MAGATOM">     0</i>
   <v name="MAGDIPOL">      0.00000000      0.00000000      0.00000000</v>
   <v name="AVECCONST">      0.00000000      0.00000000      0.00000000</v>
  </separator>
  <separator name="response functions" >
   <i type="logical" name="LADDER"> F  </i>
   <i type="logical" name="LFXC"> F  </i>
   <i type="logical" name="LHARTREE"> T  </i>
   <i type="int" name="IBSE">     0</i>
   <v type="int" name="KPOINT">    -1     0     0     0</v>
   <i type="logical" name="LTCTE"> F  </i>
   <i type="logical" name="LTETE"> F  </i>
   <i type="logical" name="LTRIPLET"> F  </i>
   <i type="logical" name="LFXCEPS"> F  </i>
   <i type="logical" name="LFXHEG"> F  </i>
   <i type="int" name="NATURALO">     0</i>
   <i type="logical" name="L2ORDER"> F  </i>
   <i type="logical" name="LUSEW"> F  </i>
   <i name="ENCUTGW">     -2.00000000</i>
   <i name="ENCUTGWSOFT">     -2.00000000</i>
   <i name="ENCUTLF">     -1.00000000</i>
   <i type="int" name="LMAXMP2">    -1</i>
   <i name="SCISSOR">      0.00000000</i>
   <i type="int" name="NOMEGA">     0</i>
   <i type="int" name="NOMEGAR">     0</i>
   <i type="int" name="NBANDSGW">    -1</i>
   <i type="int" name="NBANDSO">    -1</i>
   <i type="int" name="NBANDSV">    -1</i>
   <i type="int" name="NELM">   500</i>
   <i type="int" name="NELMHF">     1</i>
   <i type="int" name="DIM">     3</i>
   <i type="int" name="ANTIRES">     0</i>
   <i name="OMEGAMAX">    -30.00000000</i>
   <i name="OMEGAMIN">    -30.00000000</i>
   <i name="OMEGATL">   -200.00000000</i>
   <i type="int" name="OMEGAGRID">     0</i>
   <i name="CSHIFT">     -0.10000000</i>
   <i type="logical" name="SELFENERGY"> F  </i>
   <i type="logical" name="LSPECTRAL"> F  </i>
   <i type="logical" name="LSPECTRALGW"> F  </i>
   <i type="logical" name="LSINGLES"> F  </i>
   <i type="logical" name="LFERMIGW"> F  </i>
   <i type="logical" name="ODDONLYGW"> F  </i>
   <i type="logical" name="EVENONLYGW"> F  </i>
   <i type="int" name="NKREDLFX">     1</i>
   <i type="int" name="NKREDLFY">     1</i>
   <i type="int" name="NKREDLFZ">     1</i>
   <i type="int" name="MAXMEM">  1800</i>
   <i type="int" name="TELESCOPE">     0</i>
   <i type="int" name="TAUPAR">     1</i>
   <i type="int" name="OMEGAPAR">    -1</i>
   <i name="LAMBDA">      1.00000000</i>
  </separator>
  <separator name="External order field" >
   <i name="OFIELD_KAPPA">      0.00000000</i>
   <v name="OFIELD_K">      0.00000000      0.00000000      0.00000000</v>
   <i name="OFIELD_Q6_NEAR">      0.00000000</i>
   <i name="OFIELD_Q6_FAR">      0.00000000</i>
   <i name="OFIELD_A">      0.00000000</i>
  </separator>
 </parameters>
 <atominfo>
  <atoms>      56 </atoms>
  <types>       3 </types>
  <array name="atoms" >
   <dimension dim="1">ion</dimension>
   <field type="string">element</field>
   <field type="int">atomtype</field>
   <set>
    <rc><c>Au</c><c>   1</c></rc>
    <rc><c>Au</c><c>   1</c></rc>
    <rc><c>Au</c><c>   1</c></rc>
    <rc><c>Au</c><c>   1</c></rc>
    <rc><c>Au</c><c>   1</c></rc>
    <rc><c>Au</c><c>   1</c></rc>
    <rc><c>Au</c><c>   1</c></rc>
    <rc><c>Au</c><c>   1</c></rc>
    <rc><c>Au</c><c>   1</c></rc>
    <rc><c>Au</c><c>   1</c></rc>
    <rc><c>Au</c><c>   1</c></rc>
    <rc><c>Au</c><c>   1</c></rc>
    <rc><c>Au</c><c>   1</c></rc>
    <rc><c>Au</c><c>   1</c></rc>
    <rc><c>Au</c><c>   1</c></rc>
    <rc><c>Au</c><c>   1</c></rc>
    <rc><c>Au</c><c>   1</c></rc>
    <rc><c>Au</c><c>   1</c></rc>
    <rc><c>Au</c><c>   1</c></rc>
    <rc><c>Au</c><c>   1</c></rc>
    <rc><c>Au</c><c>   1</c></rc>
    <rc><c>Au</c><c>   1</c></rc>
    <rc><c>Au</c><c>   1</c></rc>
    <rc><c>Au</c><c>   1</c></rc>
    <rc><c>O </c><c>   2</c></rc>
    <rc><c>O </c><c>   2</c></rc>
    <rc><c>O </c><c>   2</c></rc>
    <rc><c>O </c><c>   2</c></rc>
    <rc><c>O </c><c>   2</c></rc>
    <rc><c>O </c><c>   2</c></rc>
    <rc><c>O </c><c>   2</c></rc>
    <rc><c>O </c><c>   2</c></rc>
    <rc><c>Pd</c><c>   3</c></rc>
    <rc><c>Pd</c><c>   3</c></rc>
    <rc><c>Pd</c><c>   3</c></rc>
    <rc><c>Pd</c><c>   3</c></rc>
    <rc><c>Pd</c><c>   3</c></rc>
    <rc><c>Pd</c><c>   3</c></rc>
    <rc><c>Pd</c><c>   3</c></rc>
    <rc><c>Pd</c><c>   3</c></rc>
    <rc><c>Pd</c><c>   3</c></rc>
    <rc><c>Pd</c><c>   3</c></rc>
    <rc><c>Pd</c><c>   3</c></rc>
    <rc><c>Pd</c><c>   3</c></rc>
    <rc><c>Pd</c><c>   3</c></rc>
    <rc><c>Pd</c><c>   3</c></rc>
    <rc><c>Pd</c><c>   3</c></rc>
    <rc><c>Pd</c><c>   3</c></rc>
    <rc><c>Pd</c><c>   3</c></rc>
    <rc><c>Pd</c><c>   3</c></rc>
    <rc><c>Pd</c><c>   3</c></rc>
    <rc><c>Pd</c><c>   3</c></rc>
    <rc><c>Pd</c><c>   3</c></rc>
    <rc><c>Pd</c><c>   3</c></rc>
    <rc><c>Pd</c><c>   3</c></rc>
    <rc><c>Pd</c><c>   3</c></rc>
   </set>
  </array>
  <array name="atomtypes" >
   <dimension dim="1">type</dimension>
   <field type="int">atomspertype</field>
   <field type="string">element</field>
   <field>mass</field>
   <field>valence</field>
   <field type="string">pseudopotential</field>
   <set>
    <rc><c>  24</c><c>Au</c><c>    196.96600000</c><c>     11.00000000</c><c>  PAW_PBE Au 04Oct2007                  </c></rc>
    <rc><c>   8</c><c>O </c><c>     16.00000000</c><c>      6.00000000</c><c>  PAW_PBE O 08Apr2002                   </c></rc>
    <rc><c>  24</c><c>Pd</c><c>    106.42000000</c><c>     10.00000000</c><c>  PAW_PBE Pd 04Jan2005                  </c></rc>
   </set>
  </array>
 </atominfo>
 <structure name="initialpos" >
  <crystal>
   <varray name="basis" >
    <v>      11.00258152       0.00000000       0.00000000 </v>
    <v>       5.50129076       9.52851510       0.00000000 </v>
    <v>       0.00000000       0.00000000      26.19178509 </v>
   </varray>
   <i name="volume">   2745.90128299 </i>
   <varray name="rec_basis" >
    <v>       0.09088776      -0.05247407       0.00000000 </v>
    <v>       0.00000000       0.10494815       0.00000000 </v>
    <v>       0.00000000       0.00000000       0.03817991 </v>
   </varray>
  </crystal>
  <varray name="positions" >
   <v>       0.91576963       0.90931603       0.47437355 </v>
   <v>       0.74990490       0.24267537       0.56092892 </v>
   <v>       0.66046336       0.89735041       0.47509564 </v>
   <v>       0.00674741       0.99671220       0.56277987 </v>
   <v>       0.66550684       0.65504351       0.51258659 </v>
   <v>       0.90989239       0.42362328       0.47450700 </v>
   <v>       0.98454981       0.27096001       0.56407882 </v>
   <v>       0.83333333       0.58333333       0.38179910 </v>
   <v>       0.08333333       0.58333333       0.38179910 </v>
   <v>       0.92053488       0.66143920       0.50435645 </v>
   <v>       0.03238067       0.47793209       0.60431277 </v>
   <v>       0.74052536       0.75375478       0.59958742 </v>
   <v>       0.17270873       0.91921634       0.47174102 </v>
   <v>       0.66508040       0.41675706       0.47124072 </v>
   <v>       0.33333333       0.08333333       0.38179910 </v>
   <v>       0.83333333       0.08333333       0.38179910 </v>
   <v>       0.40508178       0.92765333       0.51511956 </v>
   <v>       0.42477561       0.67517221       0.47178218 </v>
   <v>       0.16611585       0.41159092       0.47390966 </v>
   <v>       0.24851846       0.23977558       0.56260291 </v>
   <v>       0.49690278       0.24186084       0.55746336 </v>
   <v>       0.58333333       0.08333333       0.38179910 </v>
   <v>       0.16973472       0.66752482       0.47331153 </v>
   <v>       0.01972591       0.74185735       0.59125374 </v>
   <v>       0.33244179       0.57027648       0.60478068 </v>
   <v>       0.31234940       0.15243894       0.63660415 </v>
   <v>       0.07729599       0.08871709       0.61835784 </v>
   <v>       0.82731955       0.87764989       0.62761128 </v>
   <v>       0.30886186       0.79799865       0.63032724 </v>
   <v>       0.85680534       0.57151435       0.65019412 </v>
   <v>       0.48621495       0.88129957       0.65084239 </v>
   <v>       0.64645409       0.38836950       0.62180684 </v>
   <v>       0.41857277       0.41591938       0.46996715 </v>
   <v>       0.08333333       0.08333333       0.38179910 </v>
   <v>       0.58333333       0.33333333       0.38179910 </v>
   <v>       0.50715359       0.01457497       0.60293669 </v>
   <v>       0.41576265       0.15729579       0.47083090 </v>
   <v>       0.33333333       0.58333333       0.38179910 </v>
   <v>       0.24379175       0.49315204       0.55950376 </v>
   <v>       0.25221314       0.75045220       0.56440659 </v>
   <v>       0.50904942       0.49839338       0.56445335 </v>
   <v>       0.51202988       0.72432145       0.60441767 </v>
   <v>       0.58333333       0.83333333       0.38179910 </v>
   <v>       0.33333333       0.83333333       0.38179910 </v>
   <v>       0.28237214       0.98858019       0.63094025 </v>
   <v>       0.16512575       0.16547478       0.47230851 </v>
   <v>       0.66646357       0.15767468       0.47198668 </v>
   <v>       0.74790502       0.99067818       0.56285440 </v>
   <v>       0.83333333       0.33333333       0.38179910 </v>
   <v>       0.08333333       0.83333333       0.38179910 </v>
   <v>       0.08333333       0.33333333       0.38179910 </v>
   <v>       0.75488461       0.47851370       0.62904605 </v>
   <v>       0.83333333       0.83333333       0.38179910 </v>
   <v>       0.91650833       0.16522370       0.47171703 </v>
   <v>       0.58333333       0.58333333       0.38179910 </v>
   <v>       0.33333333       0.33333333       0.38179910 </v>
  </varray>
  <varray name="selective"  type="logical" >
   <v type="logical" >  T  T  T </v>
   <v type="logical" >  T  T  T </v>
   <v type="logical" >  T  T  T </v>
   <v type="logical" >  T  T  T </v>
   <v type="logical" >  T  T  T </v>
   <v type="logical" >  T  T  T </v>
   <v type="logical" >  T  T  T </v>
   <v type="logical" >  F  F  F </v>
   <v type="logical" >  F  F  F </v>
   <v type="logical" >  T  T  T </v>
   <v type="logical" >  T  T  T </v>
   <v type="logical" >  T  T  T </v>
   <v type="logical" >  T  T  T </v>
   <v type="logical" >  T  T  T </v>
   <v type="logical" >  F  F  F </v>
   <v type="logical" >  F  F  F </v>
   <v type="logical" >  T  T  T </v>
   <v type="logical" >  T  T  T </v>
   <v type="logical" >  T  T  T </v>
   <v type="logical" >  T  T  T </v>
   <v type="logical" >  T  T  T </v>
   <v type="logical" >  F  F  F </v>
   <v type="logical" >  T  T  T </v>
   <v type="logical" >  T  T  T </v>
   <v type="logical" >  T  T  T </v>
   <v type="logical" >  T  T  T </v>
   <v type="logical" >  T  T  T </v>
   <v type="logical" >  T  T  T </v>
   <v type="logical" >  T  T  T </v>
   <v type="logical" >  T  T  T </v>
   <v type="logical" >  T  T  T </v>
   <v type="logical" >  T  T  T </v>
   <v type="logical" >  T  T  T </v>
   <v type="logical" >  F  F  F </v>
   <v type="logical" >  F  F  F </v>
   <v type="logical" >  T  T  T </v>
   <v type="logical" >  T  T  T </v>
   <v type="logical" >  F  F  F </v>
   <v type="logical" >  T  T  T </v>
   <v type="logical" >  T  T  T </v>
   <v type="logical" >  T  T  T </v>
   <v type="logical" >  T  T  T </v>
   <v type="logical" >  F  F  F </v>
   <v type="logical" >  F  F  F </v>
   <v type="logical" >  T  T  T </v>
   <v type="logical" >  T  T  T </v>
   <v type="logical" >  T  T  T </v>
   <v type="logical" >  T  T  T </v>
   <v type="logical" >  F  F  F </v>
   <v type="logical" >  F  F  F </v>
   <v type="logical" >  F  F  F </v>
   <v type="logical" >  T  T  T </v>
   <v type="logical" >  F  F  F </v>
   <v type="logical" >  T  T  T </v>
   <v type="logical" >  F  F  F </v>
   <v type="logical" >  F  F  F </v>
  </varray>
  <nose>
   <v>      -3.00000000       0.00000000       0.00010000       0.00010000 </v>
  </nose>
 </structure>
 <calculation>
  <scstep>
   <time name="dav">    8.12    8.22</time>
   <time name="total">    8.18    8.29</time>
   <dipole>
    <v name="dipole">      0.00000000       0.00000000       0.00007454 </v>
    <i name="Tr[quadrupol]"> -11135.87511121 </i>
    <i name="Echarged">      0.00000000 </i>
    <i name="Edipol_quadrupol">      0.00000000 </i>
    <i name="Eion">      0.00000000 </i>
   </dipole>
   <energy>
    <i name="alphaZ">    862.57685121 </i>
    <i name="ewald"> 227977.73125287 </i>
    <i name="hartreedc">-273627.80949626 </i>
    <i name="XCdc">   -119.63425391 </i>
    <i name="pawpsdc">  43112.45544455 </i>
    <i name="pawaedc"> -41079.41300390 </i>
    <i name="eentropy">     -0.12974469 </i>
    <i name="bandstr">   1342.79388112 </i>
    <i name="atom">  45117.89144060 </i>
    <i name="e_fr_energy">   3586.46237158 </i>
    <i name="e_wo_entrp">   3586.59211627 </i>
    <i name="e_0_energy">   3586.52724393 </i>
   </energy>
  </scstep>
  <scstep>
   <time name="dav">    9.47    9.50</time>
   <time name="total">    9.48    9.50</time>
   <dipole>
    <v name="dipole">      0.00000000       0.00000000       0.00007454 </v>
    <i name="Tr[quadrupol]"> -11135.87511121 </i>
    <i name="Echarged">      0.00000000 </i>
    <i name="Edipol_quadrupol">      0.00000000 </i>
    <i name="Eion">      0.00000000 </i>
   </dipole>
   <energy>
    <i name="e_fr_energy">     54.04668053 </i>
    <i name="e_wo_entrp">     54.17821974 </i>
    <i name="e_0_energy">     54.11245013 </i>
   </energy>
  </scstep>
  <scstep>
   <time name="dav">    9.69    9.71</time>
   <time name="total">    9.69    9.72</time>
   <dipole>
    <v name="dipole">      0.00000000       0.00000000       0.00007454 </v>
    <i name="Tr[quadrupol]"> -11135.87511121 </i>
    <i name="Echarged">      0.00000000 </i>
    <i name="Edipol_quadrupol">      0.00000000 </i>
    <i name="Eion">      0.00000000 </i>
   </dipole>
   <energy>
    <i name="e_fr_energy">   -252.32401200 </i>
    <i name="e_wo_entrp">   -252.08972264 </i>
    <i name="e_0_energy">   -252.20686732 </i>
   </energy>
  </scstep>
  <scstep>
   <time name="dav">    9.49    9.51</time>
   <time name="total">    9.49    9.52</time>
   <dipole>
    <v name="dipole">      0.00000000       0.00000000       0.00007454 </v>
    <i name="Tr[quadrupol]"> -11135.87511121 </i>
    <i name="Echarged">      0.00000000 </i>
    <i name="Edipol_quadrupol">      0.00000000 </i>
    <i name="Eion">      0.00000000 </i>
   </dipole>
   <energy>
    <i name="e_fr_energy">   -263.25097705 </i>
    <i name="e_wo_entrp">   -262.98665048 </i>
    <i name="e_0_energy">   -263.11881377 </i>
   </energy>
  </scstep>
  <scstep>
   <time name="dav">    9.39    9.49</time>
   <time name="total">    9.67    9.77</time>
   <dipole>
    <v name="dipole">      0.00000000       0.00000000       0.00007454 </v>
    <i name="Tr[quadrupol]"> -11135.87511121 </i>
    <i name="Echarged">      0.00000000 </i>
    <i name="Edipol_quadrupol">      0.00000000 </i>
    <i name="Eion">      0.00000000 </i>
   </dipole>
   <energy>
    <i name="e_fr_energy">   -263.55165853 </i>
    <i name="e_wo_entrp">   -263.28601696 </i>
    <i name="e_0_energy">   -263.41883775 </i>
   </energy>
  </scstep>
  <scstep>
   <time name="diag">    1.46    1.46</time>
   <time name="diis">    3.99    4.00</time>
   <time name="orth">    0.37    0.37</time>
   <time name="total">    6.15    6.17</time>
   <dipole>
    <v name="dipole">      0.00000000       0.00000000      -0.43397275 </v>
    <i name="Tr[quadrupol]"> -11128.92593861 </i>
    <i name="Echarged">      0.00000000 </i>
    <i name="Edipol_quadrupol">      0.00000000 </i>
    <i name="Eion">      0.00000000 </i>
   </dipole>
   <energy>
    <i name="e_fr_energy">   -255.15163306 </i>
    <i name="e_wo_entrp">   -254.83043131 </i>
    <i name="e_0_energy">   -254.99103218 </i>
   </energy>
  </scstep>
  <scstep>
   <time name="diag">    1.46    1.47</time>
   <time name="diis">    3.98    4.00</time>
   <time name="orth">    0.36    0.36</time>
   <time name="total">    6.14    6.16</time>
   <dipole>
    <v name="dipole">      0.00000000       0.00000000       2.44316219 </v>
    <i name="Tr[quadrupol]"> -11134.25247451 </i>
    <i name="Echarged">      0.00000000 </i>
    <i name="Edipol_quadrupol">      0.00000000 </i>
    <i name="Eion">      0.00000000 </i>
   </dipole>
   <energy>
    <i name="e_fr_energy">   -281.99522723 </i>
    <i name="e_wo_entrp">   -281.81466193 </i>
    <i name="e_0_energy">   -281.90494458 </i>
   </energy>
  </scstep>
  <scstep>
   <time name="diag">    1.46    1.46</time>
   <time name="diis">    3.97    3.98</time>
   <time name="orth">    0.36    0.36</time>
   <time name="total">    6.12    6.14</time>
   <dipole>
    <v name="dipole">      0.00000000       0.00000000      -2.31266873 </v>
    <i name="Tr[quadrupol]"> -11135.13219322 </i>
    <i name="Echarged">      0.00000000 </i>
    <i name="Edipol_quadrupol">      0.00000000 </i>
    <i name="Eion">      0.00000000 </i>
   </dipole>
   <energy>
    <i name="e_fr_energy">   -292.21749736 </i>
    <i name="e_wo_entrp">   -291.90245287 </i>
    <i name="e_0_energy">   -292.05997512 </i>
   </energy>
  </scstep>
  <scstep>
   <time name="diag">    1.46    1.46</time>
   <time name="diis">    3.99    4.00</time>
   <time name="orth">    0.36    0.37</time>
   <time name="total">    6.13    6.16</time>
   <dipole>
    <v name="dipole">      0.00000000       0.00000000      -1.41831289 </v>
    <i name="Tr[quadrupol]"> -11136.34568715 </i>
    <i name="Echarged">      0.00000000 </i>
    <i name="Edipol_quadrupol">      0.00000000 </i>
    <i name="Eion">      0.00000000 </i>
   </dipole>
   <energy>
    <i name="e_fr_energy">   -277.92896632 </i>
    <i name="e_wo_entrp">   -277.73305676 </i>
    <i name="e_0_energy">   -277.83101154 </i>
   </energy>
  </scstep>
  <scstep>
   <time name="diag">    1.46    1.46</time>
   <time name="diis">    3.93    3.94</time>
   <time name="orth">    0.36    0.36</time>
   <time name="total">    6.07    6.10</time>
   <dipole>
    <v name="dipole">      0.00000000       0.00000000      -1.11830433 </v>
    <i name="Tr[quadrupol]"> -11136.49526642 </i>
    <i name="Echarged">      0.00000000 </i>
    <i name="Edipol_quadrupol">      0.00000000 </i>
    <i name="Eion">      0.00000000 </i>
   </dipole>
   <energy>
    <i name="e_fr_energy">   -267.20553259 </i>
    <i name="e_wo_entrp">   -267.02689543 </i>
    <i name="e_0_energy">   -267.11621401 </i>
   </energy>
  </scstep>
  <scstep>
   <time name="diag">    1.46    1.46</time>
   <time name="diis">    4.01    4.02</time>
   <time name="orth">    0.36    0.36</time>
   <time name="total">    6.16    6.18</time>
   <dipole>
    <v name="dipole">      0.00000000       0.00000000      -0.52442605 </v>
    <i name="Tr[quadrupol]"> -11136.21911230 </i>
    <i name="Echarged">      0.00000000 </i>
    <i name="Edipol_quadrupol">      0.00000000 </i>
    <i name="Eion">      0.00000000 </i>
   </dipole>
   <energy>
    <i name="e_fr_energy">   -257.06371168 </i>
    <i name="e_wo_entrp">   -256.90970256 </i>
    <i name="e_0_energy">   -256.98670712 </i>
   </energy>
  </scstep>
  <scstep>
   <time name="diag">    1.45    1.53</time>
   <time name="diis">    3.98    3.99</time>
   <time name="orth">    0.36    0.36</time>
   <time name="total">    6.12    6.21</time>
   <dipole>
    <v name="dipole">      0.00000000       0.00000000       0.31037583 </v>
    <i name="Tr[quadrupol]"> -11135.73632013 </i>
    <i name="Echarged">      0.00000000 </i>
    <i name="Edipol_quadrupol">      0.00000000 </i>
    <i name="Eion">      0.00000000 </i>
   </dipole>
   <energy>
    <i name="e_fr_energy">   -246.60177267 </i>
    <i name="e_wo_entrp">   -246.40875742 </i>
    <i name="e_0_energy">   -246.50526505 </i>
   </energy>
  </scstep>
  <scstep>
   <time name="diag">    1.46    1.47</time>
   <time name="diis">    3.99    4.00</time>
   <time name="orth">    0.36    0.36</time>
   <time name="total">    6.14    6.16</time>
   <dipole>
    <v name="dipole">      0.00000000       0.00000000       0.54357858 </v>
    <i name="Tr[quadrupol]"> -11135.14496034 </i>
    <i name="Echarged">      0.00000000 </i>
    <i name="Edipol_quadrupol">      0.00000000 </i>
    <i name="Eion">      0.00000000 </i>
   </dipole>
   <energy>
    <i name="e_fr_energy">   -239.64780384 </i>
    <i name="e_wo_entrp">   -239.51499117 </i>
    <i name="e_0_energy">   -239.58139751 </i>
   </energy>
  </scstep>
  <scstep>
   <time name="diag">    1.46    1.46</time>
   <time name="diis">    4.02    4.03</time>
   <time name="orth">    0.36    0.36</time>
   <time name="total">    6.16    6.18</time>
   <dipole>
    <v name="dipole">      0.00000000       0.00000000       0.48155332 </v>
    <i name="Tr[quadrupol]"> -11134.73567911 </i>
    <i name="Echarged">      0.00000000 </i>
    <i name="Edipol_quadrupol">      0.00000000 </i>
    <i name="Eion">      0.00000000 </i>
   </dipole>
   <energy>
    <i name="e_fr_energy">   -234.58253230 </i>
    <i name="e_wo_entrp">   -234.44962805 </i>
    <i name="e_0_energy">   -234.51608017 </i>
   </energy>
  </scstep>
  <scstep>
   <time name="diag">    1.46    1.46</time>
   <time name="diis">    4.01    4.02</time>
   <time name="orth">    0.36    0.36</time>
   <time name="total">    6.15    6.17</time>
   <dipole>
    <v name="dipole">      0.00000000       0.00000000       0.35923518 </v>
    <i name="Tr[quadrupol]"> -11135.30368727 </i>
    <i name="Echarged">      0.00000000 </i>
    <i name="Edipol_quadrupol">      0.00000000 </i>
    <i name="Eion">      0.00000000 </i>
   </dipole>
   <energy>
    <i name="e_fr_energy">   -233.13100527 </i>
    <i name="e_wo_entrp">   -232.94852260 </i>
    <i name="e_0_energy">   -233.03976394 </i>
   </energy>
  </scstep>
  <scstep>
   <time name="diag">    1.46    1.47</time>
   <time name="diis">    3.98    3.99</time>
   <time name="orth">    0.36    0.36</time>
   <time name="total">    6.13    6.15</time>
   <dipole>
    <v name="dipole">      0.00000000       0.00000000       0.28332523 </v>
    <i name="Tr[quadrupol]"> -11135.19375577 </i>
    <i name="Echarged">      0.00000000 </i>
    <i name="Edipol_quadrupol">      0.00000000 </i>
    <i name="Eion">      0.00000000 </i>
   </dipole>
   <energy>
    <i name="e_fr_energy">   -232.34715249 </i>
    <i name="e_wo_entrp">   -232.16196375 </i>
    <i name="e_0_energy">   -232.25455812 </i>
   </energy>
  </scstep>
  <scstep>
   <time name="diag">    1.46    1.47</time>
   <time name="diis">    4.01    4.02</time>
   <time name="orth">    0.36    0.36</time>
   <time name="total">    6.15    6.17</time>
   <dipole>
    <v name="dipole">      0.00000000       0.00000000       0.20149133 </v>
    <i name="Tr[quadrupol]"> -11135.30752219 </i>
    <i name="Echarged">      0.00000000 </i>
    <i name="Edipol_quadrupol">      0.00000000 </i>
    <i name="Eion">      0.00000000 </i>
   </dipole>
   <energy>
    <i name="e_fr_energy">   -232.22247448 </i>
    <i name="e_wo_entrp">   -232.02010002 </i>
    <i name="e_0_energy">   -232.12128725 </i>
   </energy>
  </scstep>
  <scstep>
   <time name="diag">    1.46    1.46</time>
   <time name="diis">    3.91    4.01</time>
   <time name="orth">    0.36    0.36</time>
   <time name="total">    6.05    6.16</time>
   <dipole>
    <v name="dipole">      0.00000000       0.00000000       0.21680430 </v>
    <i name="Tr[quadrupol]"> -11135.62318654 </i>
    <i name="Echarged">      0.00000000 </i>
    <i name="Edipol_quadrupol">      0.00000000 </i>
    <i name="Eion">      0.00000000 </i>
   </dipole>
   <energy>
    <i name="e_fr_energy">   -232.20190461 </i>
    <i name="e_wo_entrp">   -232.00733976 </i>
    <i name="e_0_energy">   -232.10462219 </i>
   </energy>
  </scstep>
  <scstep>
   <time name="diag">    1.46    1.46</time>
   <time name="diis">    3.98    4.00</time>
   <time name="orth">    0.36    0.36</time>
   <time name="total">    6.13    6.15</time>
   <dipole>
    <v name="dipole">      0.00000000       0.00000000       0.28727221 </v>
    <i name="Tr[quadrupol]"> -11135.75533144 </i>
    <i name="Echarged">      0.00000000 </i>
    <i name="Edipol_quadrupol">      0.00000000 </i>
    <i name="Eion">      0.00000000 </i>
   </dipole>
   <energy>
    <i name="e_fr_energy">   -231.98099529 </i>
    <i name="e_wo_entrp">   -231.78343984 </i>
    <i name="e_0_energy">   -231.88221757 </i>
   </energy>
  </scstep>
  <scstep>
   <time name="diag">    1.46    1.46</time>
   <time name="diis">    3.99    4.00</time>
   <time name="orth">    0.36    0.36</time>
   <time name="total">    6.13    6.15</time>
   <dipole>
    <v name="dipole">      0.00000000       0.00000000       0.31133864 </v>
    <i name="Tr[quadrupol]"> -11136.07967416 </i>
    <i name="Echarged">      0.00000000 </i>
    <i name="Edipol_quadrupol">      0.00000000 </i>
    <i name="Eion">      0.00000000 </i>
   </dipole>
   <energy>
    <i name="e_fr_energy">   -231.86800377 </i>
    <i name="e_wo_entrp">   -231.66932466 </i>
    <i name="e_0_energy">   -231.76866422 </i>
   </energy>
  </scstep>
  <scstep>
   <time name="diag">    1.47    1.47</time>
   <time name="diis">    3.98    3.98</time>
   <time name="orth">    0.36    0.36</time>
   <time name="total">    6.13    6.14</time>
   <dipole>
    <v name="dipole">      0.00000000       0.00000000       0.31949916 </v>
    <i name="Tr[quadrupol]"> -11136.21896252 </i>
    <i name="Echarged">      0.00000000 </i>
    <i name="Edipol_quadrupol">      0.00000000 </i>
    <i name="Eion">      0.00000000 </i>
   </dipole>
   <energy>
    <i name="e_fr_energy">   -231.82725256 </i>
    <i name="e_wo_entrp">   -231.62233668 </i>
    <i name="e_0_energy">   -231.72479462 </i>
   </energy>
  </scstep>
  <scstep>
   <time name="diag">    1.45    1.45</time>
   <time name="diis">    3.98    3.99</time>
   <time name="orth">    0.36    0.36</time>
   <time name="total">    6.12    6.13</time>
   <dipole>
    <v name="dipole">      0.00000000       0.00000000       0.31830121 </v>
    <i name="Tr[quadrupol]"> -11136.35863490 </i>
    <i name="Echarged">      0.00000000 </i>
    <i name="Edipol_quadrupol">      0.00000000 </i>
    <i name="Eion">      0.00000000 </i>
   </dipole>
   <energy>
    <i name="e_fr_energy">   -231.79219995 </i>
    <i name="e_wo_entrp">   -231.58572139 </i>
    <i name="e_0_energy">   -231.68896067 </i>
   </energy>
  </scstep>
  <scstep>
   <time name="diag">    1.45    1.46</time>
   <time name="diis">    3.92    3.93</time>
   <time name="orth">    0.36    0.36</time>
   <time name="total">    6.06    6.08</time>
   <dipole>
    <v name="dipole">      0.00000000       0.00000000       0.33324393 </v>
    <i name="Tr[quadrupol]"> -11136.45394989 </i>
    <i name="Echarged">      0.00000000 </i>
    <i name="Edipol_quadrupol">      0.00000000 </i>
    <i name="Eion">      0.00000000 </i>
   </dipole>
   <energy>
    <i name="e_fr_energy">   -231.76342262 </i>
    <i name="e_wo_entrp">   -231.56008295 </i>
    <i name="e_0_energy">   -231.66175278 </i>
   </energy>
  </scstep>
  <scstep>
   <time name="diag">    1.45    1.46</time>
   <time name="diis">    3.92    3.94</time>
   <time name="orth">    0.36    0.36</time>
   <time name="total">    6.06    6.09</time>
   <dipole>
    <v name="dipole">      0.00000000       0.00000000       0.34949893 </v>
    <i name="Tr[quadrupol]"> -11136.55766239 </i>
    <i name="Echarged">      0.00000000 </i>
    <i name="Edipol_quadrupol">      0.00000000 </i>
    <i name="Eion">      0.00000000 </i>
   </dipole>
   <energy>
    <i name="e_fr_energy">   -231.73735946 </i>
    <i name="e_wo_entrp">   -231.53620694 </i>
    <i name="e_0_energy">   -231.63678320 </i>
   </energy>
  </scstep>
  <scstep>
   <time name="diag">    1.44    1.52</time>
   <time name="diis">    3.88    3.90</time>
   <time name="orth">    0.36    0.36</time>
   <time name="total">    6.00    6.10</time>
   <dipole>
    <v name="dipole">      0.00000000       0.00000000       0.37144417 </v>
    <i name="Tr[quadrupol]"> -11136.69595034 </i>
    <i name="Echarged">      0.00000000 </i>
    <i name="Edipol_quadrupol">      0.00000000 </i>
    <i name="Eion">      0.00000000 </i>
   </dipole>
   <energy>
    <i name="e_fr_energy">   -231.72465019 </i>
    <i name="e_wo_entrp">   -231.52863295 </i>
    <i name="e_0_energy">   -231.62664157 </i>
   </energy>
  </scstep>
  <scstep>
   <time name="diag">    1.45    1.46</time>
   <time name="diis">    3.96    3.97</time>
   <time name="orth">    0.36    0.36</time>
   <time name="total">    6.09    6.11</time>
   <dipole>
    <v name="dipole">      0.00000000       0.00000000       0.39107703 </v>
    <i name="Tr[quadrupol]"> -11136.92053482 </i>
    <i name="Echarged">      0.00000000 </i>
    <i name="Edipol_quadrupol">      0.00000000 </i>
    <i name="Eion">      0.00000000 </i>
   </dipole>
   <energy>
    <i name="e_fr_energy">   -231.71708714 </i>
    <i name="e_wo_entrp">   -231.52083898 </i>
    <i name="e_0_energy">   -231.61896306 </i>
   </energy>
  </scstep>
  <scstep>
   <time name="diag">    1.46    1.46</time>
   <time name="diis">    3.98    3.99</time>
   <time name="orth">    0.36    0.36</time>
   <time name="total">    6.12    6.14</time>
   <dipole>
    <v name="dipole">      0.00000000       0.00000000       0.40449642 </v>
    <i name="Tr[quadrupol]"> -11137.02166291 </i>
    <i name="Echarged">      0.00000000 </i>
    <i name="Edipol_quadrupol">      0.00000000 </i>
    <i name="Eion">      0.00000000 </i>
   </dipole>
   <energy>
    <i name="e_fr_energy">   -231.71350113 </i>
    <i name="e_wo_entrp">   -231.51952575 </i>
    <i name="e_0_energy">   -231.61651344 </i>
   </energy>
  </scstep>
  <scstep>
   <time name="diag">    1.45    1.45</time>
   <time name="diis">    3.93    3.94</time>
   <time name="orth">    0.36    0.36</time>
   <time name="total">    6.06    6.08</time>
   <dipole>
    <v name="dipole">      0.00000000       0.00000000       0.41392622 </v>
    <i name="Tr[quadrupol]"> -11137.11609129 </i>
    <i name="Echarged">      0.00000000 </i>
    <i name="Edipol_quadrupol">      0.00000000 </i>
    <i name="Eion">      0.00000000 </i>
   </dipole>
   <energy>
    <i name="e_fr_energy">   -231.71162653 </i>
    <i name="e_wo_entrp">   -231.51868248 </i>
    <i name="e_0_energy">   -231.61515450 </i>
   </energy>
  </scstep>
  <scstep>
   <time name="diag">    1.45    1.45</time>
   <time name="diis">    3.92    3.95</time>
   <time name="orth">    0.36    0.36</time>
   <time name="total">    6.05    6.10</time>
   <dipole>
    <v name="dipole">      0.00000000       0.00000000       0.41787155 </v>
    <i name="Tr[quadrupol]"> -11137.20303389 </i>
    <i name="Echarged">      0.00000000 </i>
    <i name="Edipol_quadrupol">      0.00000000 </i>
    <i name="Eion">      0.00000000 </i>
   </dipole>
   <energy>
    <i name="e_fr_energy">   -231.71104294 </i>
    <i name="e_wo_entrp">   -231.51789712 </i>
    <i name="e_0_energy">   -231.61447003 </i>
   </energy>
  </scstep>
  <scstep>
   <time name="diag">    1.45    1.46</time>
   <time name="diis">    3.96    3.97</time>
   <time name="orth">    0.36    0.36</time>
   <time name="total">    6.10    6.12</time>
   <dipole>
    <v name="dipole">      0.00000000       0.00000000       0.42551296 </v>
    <i name="Tr[quadrupol]"> -11137.33477893 </i>
    <i name="Echarged">      0.00000000 </i>
    <i name="Edipol_quadrupol">      0.00000000 </i>
    <i name="Eion">      0.00000000 </i>
   </dipole>
   <energy>
    <i name="e_fr_energy">   -231.71028972 </i>
    <i name="e_wo_entrp">   -231.51715832 </i>
    <i name="e_0_energy">   -231.61372402 </i>
   </energy>
  </scstep>
  <scstep>
   <time name="diag">    1.45    1.45</time>
   <time name="diis">    3.91    4.01</time>
   <time name="orth">    0.36    0.36</time>
   <time name="total">    6.04    6.15</time>
   <dipole>
    <v name="dipole">      0.00000000       0.00000000       0.43376995 </v>
    <i name="Tr[quadrupol]"> -11137.46565428 </i>
    <i name="Echarged">      0.00000000 </i>
    <i name="Edipol_quadrupol">      0.00000000 </i>
    <i name="Eion">      0.00000000 </i>
   </dipole>
   <energy>
    <i name="e_fr_energy">   -231.70984464 </i>
    <i name="e_wo_entrp">   -231.51727905 </i>
    <i name="e_0_energy">   -231.61356185 </i>
   </energy>
  </scstep>
  <scstep>
   <time name="diag">    1.45    1.45</time>
   <time name="diis">    3.98    3.99</time>
   <time name="orth">    0.36    0.36</time>
   <time name="total">    6.11    6.13</time>
   <dipole>
    <v name="dipole">      0.00000000       0.00000000       0.43588162 </v>
    <i name="Tr[quadrupol]"> -11137.51252226 </i>
    <i name="Echarged">      0.00000000 </i>
    <i name="Edipol_quadrupol">      0.00000000 </i>
    <i name="Eion">      0.00000000 </i>
   </dipole>
   <energy>
    <i name="e_fr_energy">   -231.70989490 </i>
    <i name="e_wo_entrp">   -231.51710720 </i>
    <i name="e_0_energy">   -231.61350105 </i>
   </energy>
  </scstep>
  <scstep>
   <time name="diag">    1.45    1.45</time>
   <time name="diis">    3.93    3.94</time>
   <time name="orth">    0.36    0.36</time>
   <time name="total">    6.06    6.08</time>
   <dipole>
    <v name="dipole">      0.00000000       0.00000000       0.43966726 </v>
    <i name="Tr[quadrupol]"> -11137.57397961 </i>
    <i name="Echarged">      0.00000000 </i>
    <i name="Edipol_quadrupol">      0.00000000 </i>
    <i name="Eion">      0.00000000 </i>
   </dipole>
   <energy>
    <i name="e_fr_energy">   -231.71006349 </i>
    <i name="e_wo_entrp">   -231.51726162 </i>
    <i name="e_0_energy">   -231.61366255 </i>
   </energy>
  </scstep>
  <scstep>
   <time name="diag">    1.45    1.45</time>
   <time name="diis">    4.02    4.03</time>
   <time name="orth">    0.36    0.36</time>
   <time name="total">    6.15    6.17</time>
   <dipole>
    <v name="dipole">      0.00000000       0.00000000       0.44432865 </v>
    <i name="Tr[quadrupol]"> -11137.63262268 </i>
    <i name="Echarged">      0.00000000 </i>
    <i name="Edipol_quadrupol">      0.00000000 </i>
    <i name="Eion">      0.00000000 </i>
   </dipole>
   <energy>
    <i name="e_fr_energy">   -231.71026386 </i>
    <i name="e_wo_entrp">   -231.51758605 </i>
    <i name="e_0_energy">   -231.61392495 </i>
   </energy>
  </scstep>
  <scstep>
   <time name="diag">    1.45    1.46</time>
   <time name="diis">    3.97    3.98</time>
   <time name="orth">    0.36    0.36</time>
   <time name="total">    6.11    6.13</time>
   <dipole>
    <v name="dipole">      0.00000000       0.00000000       0.44778563 </v>
    <i name="Tr[quadrupol]"> -11137.68071769 </i>
    <i name="Echarged">      0.00000000 </i>
    <i name="Edipol_quadrupol">      0.00000000 </i>
    <i name="Eion">      0.00000000 </i>
   </dipole>
   <energy>
    <i name="e_fr_energy">   -231.71041173 </i>
    <i name="e_wo_entrp">   -231.51765351 </i>
    <i name="e_0_energy">   -231.61403262 </i>
   </energy>
  </scstep>
  <scstep>
   <time name="diag">    1.45    1.45</time>
   <time name="diis">    3.32    3.33</time>
   <time name="orth">    0.36    0.36</time>
   <time name="total">    5.46    5.48</time>
   <dipole>
    <v name="dipole">      0.00000000       0.00000000       0.44958389 </v>
    <i name="Tr[quadrupol]"> -11137.70412131 </i>
    <i name="Echarged">      0.00000000 </i>
    <i name="Edipol_quadrupol">      0.00000000 </i>
    <i name="Eion">      0.00000000 </i>
   </dipole>
   <energy>
    <i name="e_fr_energy">   -231.71049120 </i>
    <i name="e_wo_entrp">   -231.51763387 </i>
    <i name="e_0_energy">   -231.61406253 </i>
   </energy>
  </scstep>
  <scstep>
   <time name="diag">    1.45    1.46</time>
   <time name="diis">    3.16    3.17</time>
   <time name="orth">    0.36    0.36</time>
   <time name="total">    5.30    5.31</time>
   <dipole>
    <v name="dipole">      0.00000000       0.00000000       0.45285686 </v>
    <i name="Tr[quadrupol]"> -11137.74186606 </i>
    <i name="Echarged">      0.00000000 </i>
    <i name="Edipol_quadrupol">      0.00000000 </i>
    <i name="Eion">      0.00000000 </i>
   </dipole>
   <energy>
    <i name="e_fr_energy">   -231.71062303 </i>
    <i name="e_wo_entrp">   -231.51772381 </i>
    <i name="e_0_energy">   -231.61417342 </i>
   </energy>
  </scstep>
  <scstep>
   <time name="diag">    1.45    1.45</time>
   <time name="diis">    3.03    3.13</time>
   <time name="orth">    0.36    0.36</time>
   <time name="total">    5.16    5.27</time>
   <dipole>
    <v name="dipole">      0.00000000       0.00000000       0.45667209 </v>
    <i name="Tr[quadrupol]"> -11137.78272282 </i>
    <i name="Echarged">      0.00000000 </i>
    <i name="Edipol_quadrupol">      0.00000000 </i>
    <i name="Eion">      0.00000000 </i>
   </dipole>
   <energy>
    <i name="e_fr_energy">   -231.71076794 </i>
    <i name="e_wo_entrp">   -231.51791207 </i>
    <i name="e_0_energy">   -231.61434000 </i>
   </energy>
  </scstep>
  <scstep>
   <time name="diag">    1.45    1.45</time>
   <time name="diis">    3.03    3.03</time>
   <time name="orth">    0.36    0.36</time>
   <time name="total">    5.15    5.18</time>
   <dipole>
    <v name="dipole">      0.00000000       0.00000000       0.46052033 </v>
    <i name="Tr[quadrupol]"> -11137.82435618 </i>
    <i name="Echarged">      0.00000000 </i>
    <i name="Edipol_quadrupol">      0.00000000 </i>
    <i name="Eion">      0.00000000 </i>
   </dipole>
   <energy>
    <i name="e_fr_energy">   -231.71090200 </i>
    <i name="e_wo_entrp">   -231.51800335 </i>
    <i name="e_0_energy">   -231.61445267 </i>
   </energy>
  </scstep>
  <scstep>
   <time name="diag">    1.43    1.45</time>
   <time name="diis">    2.95    2.96</time>
   <time name="orth">    0.36    0.36</time>
   <time name="total">    5.07    5.10</time>
   <dipole>
    <v name="dipole">      0.00000000       0.00000000       0.46455237 </v>
    <i name="Tr[quadrupol]"> -11137.86842166 </i>
    <i name="Echarged">      0.00000000 </i>
    <i name="Edipol_quadrupol">      0.00000000 </i>
    <i name="Eion">      0.00000000 </i>
   </dipole>
   <energy>
    <i name="e_fr_energy">   -231.71100899 </i>
    <i name="e_wo_entrp">   -231.51806969 </i>
    <i name="e_0_energy">   -231.61453934 </i>
   </energy>
  </scstep>
  <scstep>
   <time name="diag">    1.44    1.45</time>
   <time name="diis">    2.85    2.86</time>
   <time name="orth">    0.36    0.36</time>
   <time name="total">    4.98    5.00</time>
   <dipole>
    <v name="dipole">      0.00000000       0.00000000       0.46753113 </v>
    <i name="Tr[quadrupol]"> -11137.89910494 </i>
    <i name="Echarged">      0.00000000 </i>
    <i name="Edipol_quadrupol">      0.00000000 </i>
    <i name="Eion">      0.00000000 </i>
   </dipole>
   <energy>
    <i name="e_fr_energy">   -231.71106299 </i>
    <i name="e_wo_entrp">   -231.51812619 </i>
    <i name="e_0_energy">   -231.61459459 </i>
   </energy>
  </scstep>
  <scstep>
   <time name="diag">    1.45    1.45</time>
   <time name="diis">    2.55    2.56</time>
   <time name="orth">    0.36    0.36</time>
   <time name="total">    4.68    4.70</time>
   <dipole>
    <v name="dipole">      0.00000000       0.00000000       0.46954823 </v>
    <i name="Tr[quadrupol]"> -11137.91783785 </i>
    <i name="Echarged">      0.00000000 </i>
    <i name="Edipol_quadrupol">      0.00000000 </i>
    <i name="Eion">      0.00000000 </i>
   </dipole>
   <energy>
    <i name="e_fr_energy">   -231.71108983 </i>
    <i name="e_wo_entrp">   -231.51814376 </i>
    <i name="e_0_energy">   -231.61461680 </i>
   </energy>
  </scstep>
  <scstep>
   <time name="diag">    1.45    1.45</time>
   <time name="diis">    2.44    2.45</time>
   <time name="orth">    0.35    0.36</time>
   <time name="total">    4.57    4.59</time>
   <dipole>
    <v name="dipole">      0.00000000       0.00000000       0.47092237 </v>
    <i name="Tr[quadrupol]"> -11137.92957600 </i>
    <i name="Echarged">      0.00000000 </i>
    <i name="Edipol_quadrupol">      0.00000000 </i>
    <i name="Eion">      0.00000000 </i>
   </dipole>
   <energy>
    <i name="e_fr_energy">   -231.71110455 </i>
    <i name="e_wo_entrp">   -231.51813823 </i>
    <i name="e_0_energy">   -231.61462139 </i>
   </energy>
  </scstep>
  <scstep>
   <time name="diag">    1.45    1.45</time>
   <time name="diis">    2.23    2.24</time>
   <time name="orth">    0.36    0.36</time>
   <time name="total">    4.37    4.39</time>
   <dipole>
    <v name="dipole">      0.00000000       0.00000000       0.47182292 </v>
    <i name="Tr[quadrupol]"> -11137.93556060 </i>
    <i name="Echarged">      0.00000000 </i>
    <i name="Edipol_quadrupol">      0.00000000 </i>
    <i name="Eion">      0.00000000 </i>
   </dipole>
   <energy>
    <i name="e_fr_energy">   -231.71111465 </i>
    <i name="e_wo_entrp">   -231.51814872 </i>
    <i name="e_0_energy">   -231.61463169 </i>
   </energy>
  </scstep>
  <scstep>
   <time name="diag">    1.44    1.45</time>
   <time name="diis">    2.09    2.09</time>
   <time name="orth">    0.36    0.36</time>
   <time name="total">    4.22    4.24</time>
   <dipole>
    <v name="dipole">      0.00000000       0.00000000       0.47233513 </v>
    <i name="Tr[quadrupol]"> -11137.93856399 </i>
    <i name="Echarged">      0.00000000 </i>
    <i name="Edipol_quadrupol">      0.00000000 </i>
    <i name="Eion">      0.00000000 </i>
   </dipole>
   <energy>
    <i name="e_fr_energy">   -231.71112024 </i>
    <i name="e_wo_entrp">   -231.51816193 </i>
    <i name="e_0_energy">   -231.61464108 </i>
   </energy>
  </scstep>
  <scstep>
   <time name="diag">    1.44    1.45</time>
   <time name="diis">    2.21    2.22</time>
   <time name="orth">    0.36    0.36</time>
   <time name="total">    4.36    4.39</time>
   <dipole>
    <v name="dipole">      0.00000000       0.00000000       0.47310433 </v>
    <i name="Tr[quadrupol]"> -11137.94292206 </i>
    <i name="Echarged">      0.00000000 </i>
    <i name="Edipol_quadrupol">      0.00000000 </i>
    <i name="Eion">      0.00000000 </i>
   </dipole>
   <energy>
    <i name="e_fr_energy">   -231.71112908 </i>
    <i name="e_wo_entrp">   -231.51816668 </i>
    <i name="e_0_energy">   -231.61464788 </i>
   </energy>
  </scstep>
  <scstep>
   <time name="diag">    1.43    1.49</time>
   <time name="diis">    1.94    1.95</time>
   <time name="orth">    0.35    0.36</time>
   <time name="total">    4.06    4.13</time>
   <dipole>
    <v name="dipole">      0.00000000       0.00000000       0.47363325 </v>
    <i name="Tr[quadrupol]"> -11137.94567545 </i>
    <i name="Echarged">      0.00000000 </i>
    <i name="Edipol_quadrupol">      0.00000000 </i>
    <i name="Eion">      0.00000000 </i>
   </dipole>
   <energy>
    <i name="e_fr_energy">   -231.71113455 </i>
    <i name="e_wo_entrp">   -231.51817444 </i>
    <i name="e_0_energy">   -231.61465449 </i>
   </energy>
  </scstep>
  <scstep>
   <time name="diag">    1.46    1.46</time>
   <time name="diis">    2.16    2.16</time>
   <time name="orth">    0.36    0.36</time>
   <time name="total">    4.31    4.32</time>
   <dipole>
    <v name="dipole">      0.00000000       0.00000000       0.47417785 </v>
    <i name="Tr[quadrupol]"> -11137.94870115 </i>
    <i name="Echarged">      0.00000000 </i>
    <i name="Edipol_quadrupol">      0.00000000 </i>
    <i name="Eion">      0.00000000 </i>
   </dipole>
   <energy>
    <i name="e_fr_energy">   -231.71113901 </i>
    <i name="e_wo_entrp">   -231.51817582 </i>
    <i name="e_0_energy">   -231.61465741 </i>
   </energy>
  </scstep>
  <scstep>
   <time name="diag">    1.45    1.45</time>
   <time name="diis">    1.72    1.73</time>
   <time name="orth">    0.36    0.36</time>
   <time name="total">    3.86    3.87</time>
   <dipole>
    <v name="dipole">      0.00000000       0.00000000       0.47447601 </v>
    <i name="Tr[quadrupol]"> -11137.95040890 </i>
    <i name="Echarged">      0.00000000 </i>
    <i name="Edipol_quadrupol">      0.00000000 </i>
    <i name="Eion">      0.00000000 </i>
   </dipole>
   <energy>
    <i name="e_fr_energy">   -231.71114097 </i>
    <i name="e_wo_entrp">   -231.51817495 </i>
    <i name="e_0_energy">   -231.61465796 </i>
   </energy>
  </scstep>
  <scstep>
   <time name="diag">    1.44    1.45</time>
   <time name="diis">    1.75    1.76</time>
   <time name="orth">    0.35    0.36</time>
   <time name="total">    3.88    3.90</time>
   <dipole>
    <v name="dipole">      0.00000000       0.00000000       0.47469745 </v>
    <i name="Tr[quadrupol]"> -11137.95159704 </i>
    <i name="Echarged">      0.00000000 </i>
    <i name="Edipol_quadrupol">      0.00000000 </i>
    <i name="Eion">      0.00000000 </i>
   </dipole>
   <energy>
    <i name="e_fr_energy">   -231.71114205 </i>
    <i name="e_wo_entrp">   -231.51817600 </i>
    <i name="e_0_energy">   -231.61465902 </i>
   </energy>
  </scstep>
  <scstep>
   <time name="diag">    1.45    1.45</time>
   <time name="diis">    1.63    1.63</time>
   <time name="orth">    0.36    0.36</time>
   <time name="total">    3.49    3.50</time>
   <dipole>
    <v name="dipole">      0.00000000       0.00000000       0.47479332 </v>
    <i name="Tr[quadrupol]"> -11137.95229905 </i>
    <i name="Echarged">      0.00000000 </i>
    <i name="Edipol_quadrupol">      0.00000000 </i>
    <i name="Eion">      0.00000000 </i>
   </dipole>
   <energy>
    <i name="alphaZ">    864.92509960 </i>
    <i name="ewald"> 227977.73125287 </i>
    <i name="hartreedc">-273282.85914316 </i>
    <i name="XCdc">   -131.00765589 </i>
    <i name="pawpsdc">  51568.53778481 </i>
    <i name="pawaedc"> -49654.19839087 </i>
    <i name="eentropy">     -0.19296776 </i>
    <i name="bandstr">  -2692.53856263 </i>
    <i name="atom">  45117.89144060 </i>
    <i name="e_fr_energy">   -231.71114242 </i>
    <i name="e_wo_entrp">   -231.51817466 </i>
    <i name="e_0_energy">   -231.61465854 </i>
   </energy>
  </scstep>
  <structure>
   <crystal>
    <varray name="basis" >
     <v>      11.00258152       0.00000000       0.00000000 </v>
     <v>       5.50129076       9.52851510       0.00000000 </v>
     <v>       0.00000000       0.00000000      26.19178509 </v>
    </varray>
    <i name="volume">   2745.90128299 </i>
    <varray name="rec_basis" >
     <v>       0.09088776      -0.05247407       0.00000000 </v>
     <v>       0.00000000       0.10494815       0.00000000 </v>
     <v>       0.00000000       0.00000000       0.03817991 </v>
    </varray>
   </crystal>
   <varray name="positions" >
    <v>       0.91576963       0.90931603       0.47437355 </v>
    <v>       0.74990490       0.24267537       0.56092892 </v>
    <v>       0.66046336       0.89735041       0.47509564 </v>
    <v>       0.00674741       0.99671220       0.56277987 </v>
    <v>       0.66550684       0.65504351       0.51258659 </v>
    <v>       0.90989239       0.42362328       0.47450700 </v>
    <v>       0.98454981       0.27096001       0.56407882 </v>
    <v>       0.83333333       0.58333333       0.38179910 </v>
    <v>       0.08333333       0.58333333       0.38179910 </v>
    <v>       0.92053488       0.66143920       0.50435645 </v>
    <v>       0.03238067       0.47793209       0.60431277 </v>
    <v>       0.74052536       0.75375478       0.59958742 </v>
    <v>       0.17270873       0.91921634       0.47174102 </v>
    <v>       0.66508040       0.41675706       0.47124072 </v>
    <v>       0.33333333       0.08333333       0.38179910 </v>
    <v>       0.83333333       0.08333333       0.38179910 </v>
    <v>       0.40508178       0.92765333       0.51511956 </v>
    <v>       0.42477561       0.67517221       0.47178218 </v>
    <v>       0.16611585       0.41159092       0.47390966 </v>
    <v>       0.24851846       0.23977558       0.56260291 </v>
    <v>       0.49690278       0.24186084       0.55746336 </v>
    <v>       0.58333333       0.08333333       0.38179910 </v>
    <v>       0.16973472       0.66752482       0.47331153 </v>
    <v>       0.01972591       0.74185735       0.59125374 </v>
    <v>       0.33244179       0.57027648       0.60478068 </v>
    <v>       0.31234940       0.15243894       0.63660415 </v>
    <v>       0.07729599       0.08871709       0.61835784 </v>
    <v>       0.82731955       0.87764989       0.62761128 </v>
    <v>       0.30886186       0.79799865       0.63032724 </v>
    <v>       0.85680534       0.57151435       0.65019412 </v>
    <v>       0.48621495       0.88129957       0.65084239 </v>
    <v>       0.64645409       0.38836950       0.62180684 </v>
    <v>       0.41857277       0.41591938       0.46996715 </v>
    <v>       0.08333333       0.08333333       0.38179910 </v>
    <v>       0.58333333       0.33333333       0.38179910 </v>
    <v>       0.50715359       0.01457497       0.60293669 </v>
    <v>       0.41576265       0.15729579       0.47083090 </v>
    <v>       0.33333333       0.58333333       0.38179910 </v>
    <v>       0.24379175       0.49315204       0.55950376 </v>
    <v>       0.25221314       0.75045220       0.56440659 </v>
    <v>       0.50904942       0.49839338       0.56445335 </v>
    <v>       0.51202988       0.72432145       0.60441767 </v>
    <v>       0.58333333       0.83333333       0.38179910 </v>
    <v>       0.33333333       0.83333333       0.38179910 </v>
    <v>       0.28237214       0.98858019       0.63094025 </v>
    <v>       0.16512575       0.16547478       0.47230851 </v>
    <v>       0.66646357       0.15767468       0.47198668 </v>
    <v>       0.74790502       0.99067818       0.56285440 </v>
    <v>       0.83333333       0.33333333       0.38179910 </v>
    <v>       0.08333333       0.83333333       0.38179910 </v>
    <v>       0.08333333       0.33333333       0.38179910 </v>
    <v>       0.75488461       0.47851370       0.62904605 </v>
    <v>       0.83333333       0.83333333       0.38179910 </v>
    <v>       0.91650833       0.16522370       0.47171703 </v>
    <v>       0.58333333       0.58333333       0.38179910 </v>
    <v>       0.33333333       0.33333333       0.38179910 </v>
   </varray>
  </structure>
  <varray name="forces" >
   <v>      -0.00889189       0.03493187       0.03683740 </v>
   <v>       0.01115143      -0.22054230      -0.11789239 </v>
   <v>       0.01516638       0.00350639      -0.02000697 </v>
   <v>      -0.17585886       0.01832038      -0.11135744 </v>
   <v>      -0.03290428      -0.03433083       0.23317765 </v>
   <v>       0.02304889      -0.02557857       0.02441247 </v>
   <v>       0.06597073       0.04108668      -0.00601273 </v>
   <v>      -0.21477665       0.24862018       0.00591831 </v>
   <v>       0.00003439       0.08920637      -0.17513367 </v>
   <v>      -0.03918448      -0.06020690      -0.02456503 </v>
   <v>      -0.02311771       0.01045301      -0.02537116 </v>
   <v>      -0.07458988       0.17099124       0.11303804 </v>
   <v>       0.06320020       0.04297690       0.02559565 </v>
   <v>       0.08262435      -0.00461830      -0.00847042 </v>
   <v>      -0.28086688      -0.27255284      -0.12882288 </v>
   <v>       0.22517114      -0.00747553      -0.37043421 </v>
   <v>      -0.03971041       0.00898986       0.07528317 </v>
   <v>       0.03320841      -0.03779431       0.01140373 </v>
   <v>       0.06976294       0.16876267      -0.03039665 </v>
   <v>       0.04630301      -0.00033664      -0.08133664 </v>
   <v>       0.00448720      -0.06563332       0.02555509 </v>
   <v>      -0.09235604      -0.11679976      -0.31413652 </v>
   <v>      -0.03155794      -0.15685542      -0.02585277 </v>
   <v>      -0.10692117      -0.02594821      -0.01311351 </v>
   <v>      -0.00165534      -0.25139584       0.00901721 </v>
   <v>      -0.13672989      -0.06777835      -0.21487081 </v>
   <v>       0.20312732      -0.02192038       0.01146422 </v>
   <v>       0.07656953      -0.00392133      -0.09170746 </v>
   <v>      -0.02427880       0.35690692       0.09047267 </v>
   <v>      -0.18940642      -0.02122705      -0.12520405 </v>
   <v>       0.13220310       0.02861517       0.13597742 </v>
   <v>       0.04702349      -0.02345265       0.07406430 </v>
   <v>      -0.02496393       0.00514034      -0.02182026 </v>
   <v>       0.03496238       0.04422503       0.04682505 </v>
   <v>      -0.03805691       0.15973115      -0.12507370 </v>
   <v>       0.22354551       0.10304514      -0.06756896 </v>
   <v>       0.14590266      -0.11765447       0.04339251 </v>
   <v>       0.18196717       0.00790075       0.02964953 </v>
   <v>       0.07470543      -0.01069468       0.07401426 </v>
   <v>      -0.05174803       0.04452835      -0.05291039 </v>
   <v>       0.06544586       0.00302731      -0.24032646 </v>
   <v>       0.11516083      -0.11683853       0.06945929 </v>
   <v>      -0.08542860      -0.24824787       0.32870898 </v>
   <v>       0.12383131      -0.11079761       0.00715088 </v>
   <v>      -0.55865872       0.36874918       0.18591783 </v>
   <v>      -0.10593720      -0.06857224      -0.02463646 </v>
   <v>       0.01144253      -0.01578278       0.04493342 </v>
   <v>       0.04774552       0.06176603      -0.07886530 </v>
   <v>       0.04681607       0.01476530       0.07651336 </v>
   <v>       0.04820398      -0.02351369       0.04216296 </v>
   <v>      -0.06682610      -0.05692958       0.09714984 </v>
   <v>       0.21335597       0.01138201       0.09026378 </v>
   <v>      -0.08747247      -0.13020647       0.32772628 </v>
   <v>      -0.02920246      -0.01136773       0.06030447 </v>
   <v>       0.02567684       0.15515383       0.08854204 </v>
   <v>       0.06328649       0.12619213       0.01095501 </v>
  </varray>
  <energy>
   <i name="e_fr_energy">   -231.71114242 </i>
   <i name="e_wo_entrp">   -231.61465854 </i>
   <i name="e_0_energy">     -0.19296776 </i>
  </energy>
  <time name="totalsc">  305.49  307.20</time>
 </calculation>
 <calculation>
  <scstep>
   <time name="dav">    8.69    8.74</time>
   <time name="total">    9.02    9.07</time>
   <dipole>
    <v name="dipole">      0.00000000       0.00000000       0.47482478 </v>
    <i name="Tr[quadrupol]"> -11135.70627001 </i>
    <i name="Echarged">      0.00000000 </i>
    <i name="Edipol_quadrupol">      0.00000000 </i>
    <i name="Eion">      0.00000000 </i>
   </dipole>
   <energy>
    <i name="alphaZ">    864.92414828 </i>
    <i name="ewald"> 227976.22551073 </i>
    <i name="hartreedc">-273281.57401385 </i>
    <i name="XCdc">   -131.04382980 </i>
    <i name="pawpsdc">  51568.53747143 </i>
    <i name="pawaedc"> -49654.19804933 </i>
    <i name="eentropy">     -0.19396030 </i>
    <i name="bandstr">  -2692.29487703 </i>
    <i name="atom">  45117.89144060 </i>
    <i name="e_fr_energy">   -231.72615927 </i>
    <i name="e_wo_entrp">   -231.53219897 </i>
    <i name="e_0_energy">   -231.62917912 </i>
   </energy>
  </scstep>
  <scstep>
   <time name="diag">    1.45    1.46</time>
   <time name="diis">    3.93    3.94</time>
   <time name="orth">    0.35    0.35</time>
   <time name="total">    6.06    6.08</time>
   <dipole>
    <v name="dipole">      0.00000000       0.00000000       0.48895029 </v>
    <i name="Tr[quadrupol]"> -11135.72910187 </i>
    <i name="Echarged">      0.00000000 </i>
    <i name="Edipol_quadrupol">      0.00000000 </i>
    <i name="Eion">      0.00000000 </i>
   </dipole>
   <energy>
    <i name="e_fr_energy">   -231.75524467 </i>
    <i name="e_wo_entrp">   -231.56731663 </i>
    <i name="e_0_energy">   -231.66128065 </i>
   </energy>
  </scstep>
  <scstep>
   <time name="diag">    1.45    1.45</time>
   <time name="diis">    3.91    4.01</time>
   <time name="orth">    0.35    0.35</time>
   <time name="total">    6.03    6.14</time>
   <dipole>
    <v name="dipole">      0.00000000       0.00000000       0.45186242 </v>
    <i name="Tr[quadrupol]"> -11135.70864193 </i>
    <i name="Echarged">      0.00000000 </i>
    <i name="Edipol_quadrupol">      0.00000000 </i>
    <i name="Eion">      0.00000000 </i>
   </dipole>
   <energy>
    <i name="e_fr_energy">   -231.75439563 </i>
    <i name="e_wo_entrp">   -231.55392153 </i>
    <i name="e_0_energy">   -231.65415858 </i>
   </energy>
  </scstep>
  <scstep>
   <time name="diag">    1.44    1.45</time>
   <time name="diis">    4.02    4.03</time>
   <time name="orth">    0.35    0.35</time>
   <time name="total">    6.14    6.16</time>
   <dipole>
    <v name="dipole">      0.00000000       0.00000000       0.50054814 </v>
    <i name="Tr[quadrupol]"> -11135.71725205 </i>
    <i name="Echarged">      0.00000000 </i>
    <i name="Edipol_quadrupol">      0.00000000 </i>
    <i name="Eion">      0.00000000 </i>
   </dipole>
   <energy>
    <i name="e_fr_energy">   -231.75581403 </i>
    <i name="e_wo_entrp">   -231.56910027 </i>
    <i name="e_0_energy">   -231.66245715 </i>
   </energy>
  </scstep>
  <scstep>
   <time name="diag">    1.45    1.45</time>
   <time name="diis">    4.02    4.03</time>
   <time name="orth">    0.35    0.35</time>
   <time name="total">    6.14    6.16</time>
   <dipole>
    <v name="dipole">      0.00000000       0.00000000       0.47476911 </v>
    <i name="Tr[quadrupol]"> -11135.73005149 </i>
    <i name="Echarged">      0.00000000 </i>
    <i name="Edipol_quadrupol">      0.00000000 </i>
    <i name="Eion">      0.00000000 </i>
   </dipole>
   <energy>
    <i name="e_fr_energy">   -231.74759210 </i>
    <i name="e_wo_entrp">   -231.55530028 </i>
    <i name="e_0_energy">   -231.65144619 </i>
   </energy>
  </scstep>
  <scstep>
   <time name="diag">    1.45    1.45</time>
   <time name="diis">    3.99    4.00</time>
   <time name="orth">    0.35    0.35</time>
   <time name="total">    6.11    6.13</time>
   <dipole>
    <v name="dipole">      0.00000000       0.00000000       0.47519589 </v>
    <i name="Tr[quadrupol]"> -11135.71296389 </i>
    <i name="Echarged">      0.00000000 </i>
    <i name="Edipol_quadrupol">      0.00000000 </i>
    <i name="Eion">      0.00000000 </i>
   </dipole>
   <energy>
    <i name="e_fr_energy">   -231.74709804 </i>
    <i name="e_wo_entrp">   -231.55486865 </i>
    <i name="e_0_energy">   -231.65098335 </i>
   </energy>
  </scstep>
  <scstep>
   <time name="diag">    1.45    1.45</time>
   <time name="diis">    4.00    4.01</time>
   <time name="orth">    0.35    0.35</time>
   <time name="total">    6.13    6.15</time>
   <dipole>
    <v name="dipole">      0.00000000       0.00000000       0.47665487 </v>
    <i name="Tr[quadrupol]"> -11135.72242951 </i>
    <i name="Echarged">      0.00000000 </i>
    <i name="Edipol_quadrupol">      0.00000000 </i>
    <i name="Eion">      0.00000000 </i>
   </dipole>
   <energy>
    <i name="e_fr_energy">   -231.74619281 </i>
    <i name="e_wo_entrp">   -231.55345062 </i>
    <i name="e_0_energy">   -231.64982171 </i>
   </energy>
  </scstep>
  <scstep>
   <time name="diag">    1.44    1.44</time>
   <time name="diis">    3.99    4.00</time>
   <time name="orth">    0.35    0.35</time>
   <time name="total">    6.10    6.12</time>
   <dipole>
    <v name="dipole">      0.00000000       0.00000000       0.47553783 </v>
    <i name="Tr[quadrupol]"> -11135.71779365 </i>
    <i name="Echarged">      0.00000000 </i>
    <i name="Edipol_quadrupol">      0.00000000 </i>
    <i name="Eion">      0.00000000 </i>
   </dipole>
   <energy>
    <i name="e_fr_energy">   -231.74605683 </i>
    <i name="e_wo_entrp">   -231.55346636 </i>
    <i name="e_0_energy">   -231.64976160 </i>
   </energy>
  </scstep>
  <scstep>
   <time name="diag">    1.44    1.45</time>
   <time name="diis">    3.99    4.00</time>
   <time name="orth">    0.35    0.35</time>
   <time name="total">    6.11    6.13</time>
   <dipole>
    <v name="dipole">      0.00000000       0.00000000       0.47533050 </v>
    <i name="Tr[quadrupol]"> -11135.71974893 </i>
    <i name="Echarged">      0.00000000 </i>
    <i name="Edipol_quadrupol">      0.00000000 </i>
    <i name="Eion">      0.00000000 </i>
   </dipole>
   <energy>
    <i name="e_fr_energy">   -231.74602946 </i>
    <i name="e_wo_entrp">   -231.55317434 </i>
    <i name="e_0_energy">   -231.64960190 </i>
   </energy>
  </scstep>
  <scstep>
   <time name="diag">    1.44    1.50</time>
   <time name="diis">    3.98    4.01</time>
   <time name="orth">    0.35    0.35</time>
   <time name="total">    6.09    6.19</time>
   <dipole>
    <v name="dipole">      0.00000000       0.00000000       0.47505632 </v>
    <i name="Tr[quadrupol]"> -11135.71957316 </i>
    <i name="Echarged">      0.00000000 </i>
    <i name="Edipol_quadrupol">      0.00000000 </i>
    <i name="Eion">      0.00000000 </i>
   </dipole>
   <energy>
    <i name="e_fr_energy">   -231.74601535 </i>
    <i name="e_wo_entrp">   -231.55321682 </i>
    <i name="e_0_energy">   -231.64961609 </i>
   </energy>
  </scstep>
  <scstep>
   <time name="diag">    1.44    1.45</time>
   <time name="diis">    4.00    4.01</time>
   <time name="orth">    0.35    0.35</time>
   <time name="total">    6.12    6.15</time>
   <dipole>
    <v name="dipole">      0.00000000       0.00000000       0.47497362 </v>
    <i name="Tr[quadrupol]"> -11135.71896973 </i>
    <i name="Echarged">      0.00000000 </i>
    <i name="Edipol_quadrupol">      0.00000000 </i>
    <i name="Eion">      0.00000000 </i>
   </dipole>
   <energy>
    <i name="e_fr_energy">   -231.74601452 </i>
    <i name="e_wo_entrp">   -231.55311048 </i>
    <i name="e_0_energy">   -231.64956250 </i>
   </energy>
  </scstep>
  <scstep>
   <time name="diag">    1.44    1.44</time>
   <time name="diis">    3.91    3.92</time>
   <time name="orth">    0.35    0.35</time>
   <time name="total">    6.02    6.04</time>
   <dipole>
    <v name="dipole">      0.00000000       0.00000000       0.47484686 </v>
    <i name="Tr[quadrupol]"> -11135.71955270 </i>
    <i name="Echarged">      0.00000000 </i>
    <i name="Edipol_quadrupol">      0.00000000 </i>
    <i name="Eion">      0.00000000 </i>
   </dipole>
   <energy>
    <i name="e_fr_energy">   -231.74601600 </i>
    <i name="e_wo_entrp">   -231.55310006 </i>
    <i name="e_0_energy">   -231.64955803 </i>
   </energy>
  </scstep>
  <scstep>
   <time name="diag">    1.44    1.45</time>
   <time name="diis">    2.47    2.48</time>
   <time name="orth">    0.35    0.35</time>
   <time name="total">    4.32    4.33</time>
   <dipole>
    <v name="dipole">      0.00000000       0.00000000       0.47476090 </v>
    <i name="Tr[quadrupol]"> -11135.71976894 </i>
    <i name="Echarged">      0.00000000 </i>
    <i name="Edipol_quadrupol">      0.00000000 </i>
    <i name="Eion">      0.00000000 </i>
   </dipole>
   <energy>
    <i name="alphaZ">    864.92383347 </i>
    <i name="ewald"> 227976.22551073 </i>
    <i name="hartreedc">-273282.18641673 </i>
    <i name="XCdc">   -131.03683948 </i>
    <i name="pawpsdc">  51563.46092038 </i>
    <i name="pawaedc"> -49649.12011877 </i>
    <i name="eentropy">     -0.19291321 </i>
    <i name="bandstr">  -2691.71143326 </i>
    <i name="atom">  45117.89144060 </i>
    <i name="e_fr_energy">   -231.74601626 </i>
    <i name="e_wo_entrp">   -231.55310305 </i>
    <i name="e_0_energy">   -231.64955966 </i>
   </energy>
  </scstep>
  <structure>
   <crystal>
    <varray name="basis" >
     <v>      11.00258152       0.00000000       0.00000000 </v>
     <v>       5.50129076       9.52851510       0.00000000 </v>
     <v>       0.00000000       0.00000000      26.19178509 </v>
    </varray>
    <i name="volume">   2745.90128299 </i>
    <varray name="rec_basis" >
     <v>       0.09088776      -0.05247407       0.00000000 </v>
     <v>       0.00000000       0.10494815       0.00000000 </v>
     <v>       0.00000000       0.00000000       0.03817991 </v>
    </varray>
   </crystal>
   <varray name="positions" >
    <v>       0.91568044       0.90943983       0.47442104 </v>
    <v>       0.75032993       0.24189375       0.56077692 </v>
    <v>       0.66050370       0.89736284       0.47506984 </v>
    <v>       0.00617519       0.99677713       0.56263630 </v>
    <v>       0.66546668       0.65492184       0.51288723 </v>
    <v>       0.91000846       0.42353263       0.47453847 </v>
    <v>       0.98467949       0.27110562       0.56407107 </v>
    <v>       0.83333333       0.58333333       0.38179910 </v>
    <v>       0.08333333       0.58333333       0.38179910 </v>
    <v>       0.92052131       0.66122582       0.50432477 </v>
    <v>       0.03229119       0.47796914       0.60428006 </v>
    <v>       0.73999342       0.75436078       0.59973316 </v>
    <v>       0.17282656       0.91936865       0.47177402 </v>
    <v>       0.66534218       0.41674069       0.47122980 </v>
    <v>       0.33333333       0.08333333       0.38179910 </v>
    <v>       0.83333333       0.08333333       0.38179910 </v>
    <v>       0.40494396       0.92768519       0.51521662 </v>
    <v>       0.42494450       0.67503826       0.47179688 </v>
    <v>       0.16603091       0.41218903       0.47387046 </v>
    <v>       0.24866117       0.23977438       0.56249804 </v>
    <v>       0.49703286       0.24162823       0.55749631 </v>
    <v>       0.58333333       0.08333333       0.38179910 </v>
    <v>       0.16991582       0.66696891       0.47327820 </v>
    <v>       0.01944372       0.74176539       0.59123684 </v>
    <v>       0.33288220       0.56938551       0.60479231 </v>
    <v>       0.31204985       0.15219872       0.63632711 </v>
    <v>       0.07795829       0.08863940       0.61837262 </v>
    <v>       0.82756151       0.87763599       0.62749304 </v>
    <v>       0.30815489       0.79926356       0.63044389 </v>
    <v>       0.85626162       0.57143912       0.65003269 </v>
    <v>       0.48657001       0.88140099       0.65101771 </v>
    <v>       0.64663998       0.38828638       0.62190234 </v>
    <v>       0.41848705       0.41593760       0.46993902 </v>
    <v>       0.08333333       0.08333333       0.38179910 </v>
    <v>       0.58333333       0.33333333       0.38179910 </v>
    <v>       0.50765711       0.01494017       0.60284957 </v>
    <v>       0.41641896       0.15687881       0.47088684 </v>
    <v>       0.33333333       0.58333333       0.38179910 </v>
    <v>       0.24404000       0.49311414       0.55959919 </v>
    <v>       0.25197540       0.75061001       0.56433837 </v>
    <v>       0.50924492       0.49840411       0.56414349 </v>
    <v>       0.51259038       0.72390737       0.60450722 </v>
    <v>       0.58333333       0.83333333       0.38179910 </v>
    <v>       0.33333333       0.83333333       0.38179910 </v>
[...]
       <r>   -19.2811    17.4038    13.9730 </r>
       <r>   -19.1876    16.3232    15.4996 </r>
       <r>   -19.0941     4.9585    15.9633 </r>
       <r>   -19.0005     0.3862    15.9994 </r>
       <r>   -18.9070     0.0065    16.0000 </r>
       <r>   -18.8135     0.0000    16.0000 </r>
       <r>   -18.7200     0.0000    16.0000 </r>
       <r>   -18.6264     0.0000    16.0000 </r>
       <r>   -18.5329     0.0000    16.0000 </r>
       <r>   -18.4394     0.0000    16.0000 </r>
       <r>   -18.3459     0.0000    16.0000 </r>
       <r>   -18.2524     0.0000    16.0000 </r>
       <r>   -18.1588     0.0000    16.0000 </r>
       <r>   -18.0653     0.0000    16.0000 </r>
       <r>   -17.9718     0.0000    16.0000 </r>
       <r>   -17.8783     0.0000    16.0000 </r>
       <r>   -17.7848     0.0000    16.0000 </r>
       <r>   -17.6912     0.0000    16.0000 </r>
       <r>   -17.5977     0.0000    16.0000 </r>
       <r>   -17.5042     0.0000    16.0000 </r>
       <r>   -17.4107     0.0000    16.0000 </r>
       <r>   -17.3172     0.0000    16.0000 </r>
       <r>   -17.2236     0.0000    16.0000 </r>
       <r>   -17.1301     0.0000    16.0000 </r>
       <r>   -17.0366     0.0000    16.0000 </r>
       <r>   -16.9431     0.0000    16.0000 </r>
       <r>   -16.8496     0.0000    16.0000 </r>
       <r>   -16.7560     0.0000    16.0000 </r>
       <r>   -16.6625     0.0000    16.0000 </r>
       <r>   -16.5690     0.0000    16.0000 </r>
       <r>   -16.4755     0.0000    16.0000 </r>
       <r>   -16.3819     0.0000    16.0000 </r>
       <r>   -16.2884     0.0000    16.0000 </r>
       <r>   -16.1949     0.0000    16.0000 </r>
       <r>   -16.1014     0.0000    16.0000 </r>
       <r>   -16.0079     0.0000    16.0000 </r>
       <r>   -15.9143     0.0000    16.0000 </r>
       <r>   -15.8208     0.0000    16.0000 </r>
       <r>   -15.7273     0.0000    16.0000 </r>
       <r>   -15.6338     0.0000    16.0000 </r>
       <r>   -15.5403     0.0000    16.0000 </r>
       <r>   -15.4467     0.0000    16.0000 </r>
       <r>   -15.3532     0.0000    16.0000 </r>
       <r>   -15.2597     0.0000    16.0000 </r>
       <r>   -15.1662     0.0000    16.0000 </r>
       <r>   -15.0727     0.0000    16.0000 </r>
       <r>   -14.9791     0.0000    16.0000 </r>
       <r>   -14.8856     0.0000    16.0000 </r>
       <r>   -14.7921     0.0000    16.0000 </r>
       <r>   -14.6986     0.0000    16.0000 </r>
       <r>   -14.6051     0.0000    16.0000 </r>
       <r>   -14.5115     0.0000    16.0000 </r>
       <r>   -14.4180     0.0000    16.0000 </r>
       <r>   -14.3245     0.0000    16.0000 </r>
       <r>   -14.2310     0.0000    16.0000 </r>
       <r>   -14.1374     0.0000    16.0000 </r>
       <r>   -14.0439     0.0000    16.0000 </r>
       <r>   -13.9504     0.0000    16.0000 </r>
       <r>   -13.8569     0.0000    16.0000 </r>
       <r>   -13.7634     0.0000    16.0000 </r>
       <r>   -13.6698     0.0000    16.0000 </r>
       <r>   -13.5763     0.0000    16.0000 </r>
       <r>   -13.4828     0.0000    16.0000 </r>
       <r>   -13.3893     0.0000    16.0000 </r>
       <r>   -13.2958     0.0000    16.0000 </r>
       <r>   -13.2022     0.0000    16.0000 </r>
       <r>   -13.1087     0.0000    16.0000 </r>
       <r>   -13.0152     0.0000    16.0000 </r>
       <r>   -12.9217     0.0000    16.0000 </r>
       <r>   -12.8282     0.0000    16.0000 </r>
       <r>   -12.7346     0.0000    16.0000 </r>
       <r>   -12.6411     0.0000    16.0000 </r>
       <r>   -12.5476     0.0000    16.0000 </r>
       <r>   -12.4541     0.0000    16.0000 </r>
       <r>   -12.3606     0.0000    16.0000 </r>
       <r>   -12.2670     0.0000    16.0000 </r>
       <r>   -12.1735     0.0000    16.0000 </r>
       <r>   -12.0800     0.0000    16.0000 </r>
       <r>   -11.9865     0.0000    16.0000 </r>
       <r>   -11.8930     0.0000    16.0000 </r>
       <r>   -11.7994     0.0000    16.0000 </r>
       <r>   -11.7059     0.0000    16.0000 </r>
       <r>   -11.6124     0.0000    16.0000 </r>
       <r>   -11.5189     0.0000    16.0000 </r>
       <r>   -11.4253     0.0000    16.0000 </r>
       <r>   -11.3318     0.0000    16.0000 </r>
       <r>   -11.2383     0.0000    16.0000 </r>
       <r>   -11.1448     0.0000    16.0000 </r>
       <r>   -11.0513     0.0000    16.0000 </r>
       <r>   -10.9577     0.0000    16.0000 </r>
       <r>   -10.8642     0.0000    16.0000 </r>
       <r>   -10.7707     0.0000    16.0000 </r>
       <r>   -10.6772     0.0000    16.0000 </r>
       <r>   -10.5837     0.0000    16.0000 </r>
       <r>   -10.4901     0.0000    16.0000 </r>
       <r>   -10.3966     0.0000    16.0000 </r>
       <r>   -10.3031     0.0000    16.0000 </r>
       <r>   -10.2096     0.0000    16.0000 </r>
       <r>   -10.1161     0.0000    16.0000 </r>
       <r>   -10.0225     0.0000    16.0000 </r>
       <r>    -9.9290     0.0000    16.0000 </r>
       <r>    -9.8355     0.0000    16.0000 </r>
       <r>    -9.7420     0.0000    16.0000 </r>
       <r>    -9.6485     0.0000    16.0000 </r>
       <r>    -9.5549     0.0000    16.0000 </r>
       <r>    -9.4614     0.0002    16.0000 </r>
       <r>    -9.3679     0.0229    16.0022 </r>
       <r>    -9.2744     0.6340    16.0615 </r>
       <r>    -9.1808     3.8536    16.4218 </r>
       <r>    -9.0873     6.6430    17.0431 </r>
       <r>    -8.9938     6.2767    17.6301 </r>
       <r>    -8.9003     3.3655    17.9448 </r>
       <r>    -8.8068     0.6200    18.0028 </r>
       <r>    -8.7132     0.6975    18.0681 </r>
       <r>    -8.6197     2.2068    18.2744 </r>
       <r>    -8.5262     4.2959    18.6762 </r>
       <r>    -8.4327     6.5075    19.2848 </r>
       <r>    -8.3392     5.1933    19.7705 </r>
       <r>    -8.2456     7.4540    20.4676 </r>
       <r>    -8.1521    10.4495    21.4448 </r>
       <r>    -8.0586    10.3471    22.4125 </r>
       <r>    -7.9651    12.7166    23.6017 </r>
       <r>    -7.8716    19.5834    25.4332 </r>
       <r>    -7.7780    28.9567    28.1413 </r>
       <r>    -7.6845    34.2832    31.3475 </r>
       <r>    -7.5910    33.5906    34.4889 </r>
       <r>    -7.4975    36.2452    37.8786 </r>
       <r>    -7.4040    43.4668    41.9436 </r>
       <r>    -7.3104    49.9440    46.6144 </r>
       <r>    -7.2169    49.9776    51.2884 </r>
       <r>    -7.1234    48.5907    55.8326 </r>
       <r>    -7.0299    51.5850    60.6569 </r>
       <r>    -6.9363    56.3157    65.9236 </r>
       <r>    -6.8428    61.9247    71.7148 </r>
       <r>    -6.7493    61.9865    77.5118 </r>
       <r>    -6.6558    68.4837    83.9165 </r>
       <r>    -6.5623    78.5984    91.2671 </r>
       <r>    -6.4687    80.7086    98.8150 </r>
       <r>    -6.3752    79.1208   106.2145 </r>
       <r>    -6.2817    81.0572   113.7950 </r>
       <r>    -6.1882    85.4185   121.7834 </r>
       <r>    -6.0947    85.2274   129.7539 </r>
       <r>    -6.0011    84.2561   137.6336 </r>
       <r>    -5.9076    81.8789   145.2910 </r>
       <r>    -5.8141    85.3385   153.2719 </r>
       <r>    -5.7206    88.3772   161.5370 </r>
       <r>    -5.6271    86.0678   169.5862 </r>
       <r>    -5.5335    82.2451   177.2778 </r>
       <r>    -5.4400    86.1795   185.3374 </r>
       <r>    -5.3465    90.1726   193.7704 </r>
       <r>    -5.2530    88.7584   202.0712 </r>
       <r>    -5.1595    84.3884   209.9632 </r>
       <r>    -5.0659    83.0426   217.7294 </r>
       <r>    -4.9724    85.5467   225.7298 </r>
       <r>    -4.8789    88.5564   234.0117 </r>
       <r>    -4.7854    88.2008   242.2603 </r>
       <r>    -4.6918    89.9091   250.6687 </r>
       <r>    -4.5983    89.8010   259.0670 </r>
       <r>    -4.5048    88.2190   267.3173 </r>
       <r>    -4.4113    91.3961   275.8647 </r>
       <r>    -4.3178    97.4842   284.9815 </r>
       <r>    -4.2242    95.4072   293.9041 </r>
       <r>    -4.1307    90.2932   302.3484 </r>
       <r>    -4.0372    91.4678   310.9025 </r>
       <r>    -3.9437    92.8983   319.5904 </r>
       <r>    -3.8502    92.4869   328.2399 </r>
       <r>    -3.7566    91.5291   336.7998 </r>
       <r>    -3.6631    86.8769   344.9246 </r>
       <r>    -3.5696    89.3097   353.2769 </r>
       <r>    -3.4761    93.9353   362.0618 </r>
       <r>    -3.3826    96.8540   371.1197 </r>
       <r>    -3.2890    99.0717   380.3849 </r>
       <r>    -3.1955   100.0902   389.7454 </r>
       <r>    -3.1020   100.6138   399.1549 </r>
       <r>    -3.0085   102.5615   408.7466 </r>
       <r>    -2.9150   100.8900   418.1819 </r>
       <r>    -2.8214    99.9686   427.5310 </r>
       <r>    -2.7279    98.9575   436.7856 </r>
       <r>    -2.6344    91.5392   445.3464 </r>
       <r>    -2.5409    89.0817   453.6774 </r>
       <r>    -2.4473    91.8303   462.2655 </r>
       <r>    -2.3538    92.3923   470.9061 </r>
       <r>    -2.2603    94.8211   479.7738 </r>
       <r>    -2.1668    98.6681   489.0013 </r>
       <r>    -2.0733   100.1149   498.3642 </r>
       <r>    -1.9797   103.0224   507.9989 </r>
       <r>    -1.8862   100.0621   517.3568 </r>
       <r>    -1.7927    93.4724   526.0984 </r>
       <r>    -1.6992    82.4683   533.8109 </r>
       <r>    -1.6057    66.8956   540.0671 </r>
       <r>    -1.5121    57.8307   545.4754 </r>
       <r>    -1.4186    46.4849   549.8227 </r>
       <r>    -1.3251    37.0864   553.2911 </r>
       <r>    -1.2316    35.3645   556.5984 </r>
       <r>    -1.1381    35.0157   559.8731 </r>
       <r>    -1.0445    29.2336   562.6071 </r>
       <r>    -0.9510    23.6961   564.8232 </r>
       <r>    -0.8575    24.2639   567.0923 </r>
       <r>    -0.7640    24.5007   569.3837 </r>
       <r>    -0.6705    22.2627   571.4657 </r>
       <r>    -0.5769    21.5805   573.4839 </r>
       <r>    -0.4834    20.1877   575.3719 </r>
       <r>    -0.3899    19.7937   577.2230 </r>
       <r>    -0.2964    18.9818   578.9982 </r>
       <r>    -0.2028    13.2516   580.2375 </r>
       <r>    -0.1093     9.2519   581.1027 </r>
       <r>    -0.0158    10.4141   582.0767 </r>
       <r>     0.0777    13.0527   583.2974 </r>
       <r>     0.1712    16.5312   584.8434 </r>
       <r>     0.2648    17.0746   586.4402 </r>
       <r>     0.3583    14.9517   587.8385 </r>
       <r>     0.4518    15.5477   589.2926 </r>
       <r>     0.5453    18.2525   590.9995 </r>
       <r>     0.6388    18.3905   592.7194 </r>
       <r>     0.7324    19.3717   594.5311 </r>
       <r>     0.8259    18.5075   596.2619 </r>
       <r>     0.9194    19.1404   598.0520 </r>
       <r>     1.0129    18.1666   599.7509 </r>
       <r>     1.1064    16.0270   601.2498 </r>
       <r>     1.2000    13.2566   602.4895 </r>
       <r>     1.2935    12.5982   603.6677 </r>
       <r>     1.3870    12.3679   604.8244 </r>
       <r>     1.4805    11.9535   605.9423 </r>
       <r>     1.5740    15.2887   607.3721 </r>
       <r>     1.6676    19.7388   609.2181 </r>
       <r>     1.7611    20.2934   611.1160 </r>
       <r>     1.8546    20.6894   613.0508 </r>
       <r>     1.9481    16.9344   614.6346 </r>
       <r>     2.0417    12.6355   615.8162 </r>
       <r>     2.1352    15.1635   617.2343 </r>
       <r>     2.2287    15.5504   618.6886 </r>
       <r>     2.3222    12.4071   619.8490 </r>
       <r>     2.4157    14.6811   621.2219 </r>
       <r>     2.5093    17.3440   622.8440 </r>
       <r>     2.6028    14.4547   624.1958 </r>
       <r>     2.6963    11.8130   625.3005 </r>
       <r>     2.7898    10.1586   626.2506 </r>
       <r>     2.8833    13.3303   627.4972 </r>
       <r>     2.9769    14.3641   628.8406 </r>
       <r>     3.0704    13.4187   630.0955 </r>
       <r>     3.1639    16.5794   631.6460 </r>
       <r>     3.2574    17.7107   633.3023 </r>
       <r>     3.3509    17.6537   634.9533 </r>
       <r>     3.4445    18.5949   636.6923 </r>
       <r>     3.5380    16.3814   638.2243 </r>
       <r>     3.6315    17.5423   639.8649 </r>
       <r>     3.7250    15.9076   641.3526 </r>
       <r>     3.8185    12.7976   642.5494 </r>
       <r>     3.9121    15.6310   644.0113 </r>
       <r>     4.0056    17.3693   645.6357 </r>
       <r>     4.0991    17.9734   647.3165 </r>
       <r>     4.1926    17.0789   648.9138 </r>
       <r>     4.2862    13.6623   650.1915 </r>
       <r>     4.3797    16.0919   651.6964 </r>
       <r>     4.4732    23.4609   653.8905 </r>
       <r>     4.5667    25.4564   656.2712 </r>
       <r>     4.6602    25.4840   658.6545 </r>
       <r>     4.7538    27.0384   661.1831 </r>
       <r>     4.8473    29.3913   663.9318 </r>
       <r>     4.9408    28.2690   666.5756 </r>
       <r>     5.0343    24.0687   668.8265 </r>
       <r>     5.1278    20.3902   670.7334 </r>
       <r>     5.2214    11.0209   671.7641 </r>
       <r>     5.3149     2.3758   671.9863 </r>
       <r>     5.4084     0.1447   671.9998 </r>
       <r>     5.5019     0.0020   672.0000 </r>
       <r>     5.5954     0.0000   672.0000 </r>
       <r>     5.6890     0.0000   672.0000 </r>
       <r>     5.7825     0.0000   672.0000 </r>
       <r>     5.8760     0.0000   672.0000 </r>
       <r>     5.9695     0.0000   672.0000 </r>
       <r>     6.0630     0.0000   672.0000 </r>
       <r>     6.1566     0.0000   672.0000 </r>
       <r>     6.2501     0.0000   672.0000 </r>
       <r>     6.3436     0.0000   672.0000 </r>
       <r>     6.4371     0.0000   672.0000 </r>
      </set>
     </set>
    </array>
   </total>
  </dos>
 </calculation>
 <structure name="finalpos" >
  <crystal>
   <varray name="basis" >
    <v>      11.00258152       0.00000000       0.00000000 </v>
    <v>       5.50129076       9.52851510       0.00000000 </v>
    <v>       0.00000000       0.00000000      26.19178509 </v>
   </varray>
   <i name="volume">   2745.90128299 </i>
   <varray name="rec_basis" >
    <v>       0.09088776      -0.05247407       0.00000000 </v>
    <v>       0.00000000       0.10494815       0.00000000 </v>
    <v>       0.00000000       0.00000000       0.03817991 </v>
   </varray>
  </crystal>
  <varray name="positions" >
   <v>       0.91604981       0.91680974       0.47313814 </v>
   <v>       0.74750201       0.24366457       0.55989034 </v>
   <v>       0.63975097       0.90522558       0.47633418 </v>
   <v>       0.00617480       0.00099741       0.56182816 </v>
   <v>       0.67390299       0.65492816       0.52901189 </v>
   <v>       0.90969767       0.42209124       0.47492613 </v>
   <v>       0.98936755       0.26630357       0.56443394 </v>
   <v>       0.83333333       0.58333333       0.38179910 </v>
   <v>       0.08333333       0.58333333       0.38179910 </v>
   <v>       0.90097485       0.67536188       0.47587311 </v>
   <v>      -0.00159999       0.50871776       0.56726047 </v>
   <v>       0.73045906       0.77540156       0.61726388 </v>
   <v>       0.17998166       0.92269274       0.47229450 </v>
   <v>       0.66553526       0.42261434       0.47125597 </v>
   <v>       0.33333333       0.08333333       0.38179910 </v>
   <v>       0.83333333       0.08333333       0.38179910 </v>
   <v>       0.39876245       0.93512392       0.52797830 </v>
   <v>       0.43776919       0.68597217       0.47396953 </v>
   <v>       0.16576737       0.42046880       0.47441523 </v>
   <v>       0.25293063       0.23875008       0.56189706 </v>
   <v>       0.49933907       0.24197628       0.55923810 </v>
   <v>       0.58333333       0.08333333       0.38179910 </v>
   <v>       0.17973950       0.67122726       0.47420080 </v>
   <v>       0.01650209       0.74640628       0.56609934 </v>
   <v>       0.34537038       0.57199212       0.60434339 </v>
   <v>       0.29046526       0.17472040       0.63820283 </v>
   <v>       0.06401743       0.09996601       0.62005372 </v>
   <v>       0.85283194       0.87024132       0.61997362 </v>
   <v>       0.29408989       0.81698157       0.63654743 </v>
   <v>       0.88382070       0.56809423       0.63814520 </v>
   <v>       0.46517618       0.90967071       0.66240529 </v>
   <v>       0.65944430       0.39221246       0.62169619 </v>
   <v>       0.42189294       0.41924815       0.47089982 </v>
   <v>       0.08333333       0.08333333       0.38179910 </v>
   <v>       0.58333333       0.33333333       0.38179910 </v>
   <v>       0.50374784       0.02916323       0.61368044 </v>
   <v>       0.41336031       0.16464340       0.47110678 </v>
   <v>       0.33333333       0.58333333       0.38179910 </v>
   <v>       0.25810608       0.49263570       0.56094537 </v>
   <v>       0.25976190       0.76147015       0.56818107 </v>
   <v>       0.52244092       0.51868300       0.56701537 </v>
   <v>       0.51109889       0.73732325       0.62104616 </v>
   <v>       0.58333333       0.83333333       0.38179910 </v>
   <v>       0.33333333       0.83333333       0.38179910 </v>
   <v>       0.26504654       0.00837718       0.63621604 </v>
   <v>       0.16590678       0.16935007       0.47186539 </v>
   <v>       0.66470933       0.16107157       0.47194213 </v>
   <v>       0.74059952       0.99085931       0.56064820 </v>
   <v>       0.83333333       0.33333333       0.38179910 </v>
   <v>       0.08333333       0.83333333       0.38179910 </v>
   <v>       0.08333333       0.33333333       0.38179910 </v>
   <v>       0.77075474       0.48161427       0.62472710 </v>
   <v>       0.83333333       0.83333333       0.38179910 </v>
   <v>       0.91712971       0.16702159       0.47090578 </v>
   <v>       0.58333333       0.58333333       0.38179910 </v>
   <v>       0.33333333       0.33333333       0.38179910 </v>
  </varray>
  <varray name="selective"  type="logical" >
   <v type="logical" >  T  T  T </v>
   <v type="logical" >  T  T  T </v>
   <v type="logical" >  T  T  T </v>
   <v type="logical" >  T  T  T </v>
   <v type="logical" >  T  T  T </v>
   <v type="logical" >  T  T  T </v>
   <v type="logical" >  T  T  T </v>
   <v type="logical" >  F  F  F </v>
   <v type="logical" >  F  F  F </v>
   <v type="logical" >  T  T  T </v>
   <v type="logical" >  T  T  T </v>
   <v type="logical" >  T  T  T </v>
   <v type="logical" >  T  T  T </v>
   <v type="logical" >  T  T  T </v>
   <v type="logical" >  F  F  F </v>
   <v type="logical" >  F  F  F </v>
   <v type="logical" >  T  T  T </v>
   <v type="logical" >  T  T  T </v>
   <v type="logical" >  T  T  T </v>
   <v type="logical" >  T  T  T </v>
   <v type="logical" >  T  T  T </v>
   <v type="logical" >  F  F  F </v>
   <v type="logical" >  T  T  T </v>
   <v type="logical" >  T  T  T </v>
   <v type="logical" >  T  T  T </v>
   <v type="logical" >  T  T  T </v>
   <v type="logical" >  T  T  T </v>
   <v type="logical" >  T  T  T </v>
   <v type="logical" >  T  T  T </v>
   <v type="logical" >  T  T  T </v>
   <v type="logical" >  T  T  T </v>
   <v type="logical" >  T  T  T </v>
   <v type="logical" >  T  T  T </v>
   <v type="logical" >  F  F  F </v>
   <v type="logical" >  F  F  F </v>
   <v type="logical" >  T  T  T </v>
   <v type="logical" >  T  T  T </v>
   <v type="logical" >  F  F  F </v>
   <v type="logical" >  T  T  T </v>
   <v type="logical" >  T  T  T </v>
   <v type="logical" >  T  T  T </v>
   <v type="logical" >  T  T  T </v>
   <v type="logical" >  F  F  F </v>
   <v type="logical" >  F  F  F </v>
   <v type="logical" >  T  T  T </v>
   <v type="logical" >  T  T  T </v>
   <v type="logical" >  T  T  T </v>
   <v type="logical" >  T  T  T </v>
   <v type="logical" >  F  F  F </v>
   <v type="logical" >  F  F  F </v>
   <v type="logical" >  F  F  F </v>
   <v type="logical" >  T  T  T </v>
   <v type="logical" >  F  F  F </v>
   <v type="logical" >  T  T  T </v>
   <v type="logical" >  F  F  F </v>
   <v type="logical" >  F  F  F </v>
  </varray>
  <nose>
   <v>      -3.00000000       0.00000000       0.00010000       0.00010000 </v>
  </nose>
 </structure>
</modeling>
