  48  48   0   0
  0.5349325E+02  0.1100258E-08  0.1100258E-08  0.2449179E-08  0.3500000E-15
  1.000000000000000E-004
  CAR 
 unknown system                          
      6.43801747     -9.73390825  301     -1.10599551      1.00000000
     -9.734  0.0000E+00  0.0000E+00
     -9.680  0.0000E+00  0.0000E+00
     -9.626  0.0000E+00  0.0000E+00
     -9.572  0.0000E+00  0.0000E+00
     -9.518  0.0000E+00  0.0000E+00
     -9.464  0.0000E+00  0.0000E+00
     -9.410  0.0000E+00  0.0000E+00
     -9.357  0.0000E+00  0.0000E+00
     -9.303  0.1098E-16  0.5921E-18
     -9.249  0.4205E-14  0.2273E-15
     -9.195  0.9285E-12  0.5028E-13
     -9.141  0.1160E-09  0.6303E-11
     -9.087  0.8211E-08  0.4489E-09
     -9.033  0.3301E-06  0.1824E-07
     -8.979  0.7554E-05  0.4254E-06
     -8.925  0.9862E-04  0.5742E-05
     -8.871  0.7364E-03  0.4544E-04
     -8.817  0.3153E-02  0.2154E-03
     -8.764  0.7767E-02  0.6341E-03
     -8.710  0.1115E-01  0.1235E-02
     -8.656  0.1013E-01  0.1781E-02
     -8.602  0.8503E-02  0.2240E-02
     -8.548  0.1009E-01  0.2784E-02
     -8.494  0.1099E-01  0.3376E-02
     -8.440  0.7612E-02  0.3787E-02
     -8.386  0.3119E-02  0.3955E-02
     -8.332  0.8436E-03  0.4000E-02
     -8.278  0.7129E-03  0.4039E-02
     -8.225  0.2183E-02  0.4156E-02
     -8.171  0.4974E-02  0.4424E-02
     -8.117  0.7993E-02  0.4855E-02
     -8.063  0.1021E-01  0.5406E-02
     -8.009  0.1238E-01  0.6073E-02
     -7.955  0.1620E-01  0.6946E-02
     -7.901  0.1987E-01  0.8017E-02
     -7.847  0.1865E-01  0.9022E-02
     -7.793  0.1273E-01  0.9709E-02
     -7.739  0.8402E-02  0.1016E-01
     -7.685  0.9673E-02  0.1068E-01
     -7.632  0.1369E-01  0.1142E-01
     -7.578  0.1645E-01  0.1231E-01
     -7.524  0.1767E-01  0.1326E-01
     -7.470  0.1876E-01  0.1427E-01
     -7.416  0.2110E-01  0.1541E-01
     -7.362  0.2354E-01  0.1668E-01
     -7.308  0.2369E-01  0.1795E-01
     -7.254  0.2260E-01  0.1917E-01
     -7.200  0.2165E-01  0.2034E-01
     -7.146  0.2128E-01  0.2149E-01
     -7.092  0.2338E-01  0.2275E-01
     -7.039  0.3058E-01  0.2440E-01
     -6.985  0.4392E-01  0.2676E-01
     -6.931  0.5979E-01  0.2999E-01
     -6.877  0.7161E-01  0.3385E-01
     -6.823  0.7757E-01  0.3803E-01
     -6.769  0.8183E-01  0.4244E-01
     -6.715  0.8793E-01  0.4718E-01
     -6.661  0.9551E-01  0.5233E-01
     -6.607  0.1017E+00  0.5781E-01
     -6.553  0.1041E+00  0.6342E-01
     -6.500  0.1039E+00  0.6902E-01
     -6.446  0.1059E+00  0.7473E-01
     -6.392  0.1150E+00  0.8093E-01
     -6.338  0.1311E+00  0.8800E-01
     -6.284  0.1498E+00  0.9608E-01
     -6.230  0.1655E+00  0.1050E+00
     -6.176  0.1732E+00  0.1143E+00
     -6.122  0.1702E+00  0.1235E+00
     -6.068  0.1587E+00  0.1321E+00
     -6.014  0.1471E+00  0.1400E+00
     -5.960  0.1426E+00  0.1477E+00
     -5.907  0.1440E+00  0.1555E+00
     -5.853  0.1465E+00  0.1634E+00
     -5.799  0.1462E+00  0.1712E+00
     -5.745  0.1420E+00  0.1789E+00
     -5.691  0.1370E+00  0.1863E+00
     -5.637  0.1349E+00  0.1935E+00
     -5.583  0.1361E+00  0.2009E+00
     -5.529  0.1390E+00  0.2084E+00
     -5.475  0.1421E+00  0.2160E+00
     -5.421  0.1434E+00  0.2238E+00
     -5.367  0.1440E+00  0.2315E+00
     -5.314  0.1486E+00  0.2395E+00
     -5.260  0.1571E+00  0.2480E+00
     -5.206  0.1652E+00  0.2569E+00
     -5.152  0.1727E+00  0.2662E+00
     -5.098  0.1786E+00  0.2758E+00
     -5.044  0.1779E+00  0.2854E+00
     -4.990  0.1729E+00  0.2948E+00
     -4.936  0.1696E+00  0.3039E+00
     -4.882  0.1687E+00  0.3130E+00
     -4.828  0.1703E+00  0.3222E+00
     -4.775  0.1747E+00  0.3316E+00
     -4.721  0.1764E+00  0.3411E+00
     -4.667  0.1715E+00  0.3503E+00
     -4.613  0.1648E+00  0.3592E+00
     -4.559  0.1630E+00  0.3680E+00
     -4.505  0.1674E+00  0.3770E+00
     -4.451  0.1743E+00  0.3864E+00
     -4.397  0.1787E+00  0.3961E+00
     -4.343  0.1806E+00  0.4058E+00
     -4.289  0.1821E+00  0.4156E+00
     -4.235  0.1820E+00  0.4254E+00
     -4.182  0.1798E+00  0.4351E+00
     -4.128  0.1802E+00  0.4448E+00
     -4.074  0.1842E+00  0.4548E+00
     -4.020  0.1841E+00  0.4647E+00
     -3.966  0.1765E+00  0.4742E+00
     -3.912  0.1682E+00  0.4833E+00
     -3.858  0.1657E+00  0.4922E+00
     -3.804  0.1686E+00  0.5013E+00
     -3.750  0.1738E+00  0.5107E+00
     -3.696  0.1793E+00  0.5203E+00
     -3.642  0.1829E+00  0.5302E+00
     -3.589  0.1836E+00  0.5401E+00
     -3.535  0.1848E+00  0.5500E+00
     -3.481  0.1881E+00  0.5602E+00
     -3.427  0.1882E+00  0.5703E+00
     -3.373  0.1831E+00  0.5802E+00
     -3.319  0.1787E+00  0.5898E+00
     -3.265  0.1791E+00  0.5995E+00
     -3.211  0.1818E+00  0.6093E+00
     -3.157  0.1838E+00  0.6192E+00
     -3.103  0.1858E+00  0.6292E+00
     -3.050  0.1880E+00  0.6393E+00
     -2.996  0.1871E+00  0.6494E+00
     -2.942  0.1841E+00  0.6593E+00
     -2.888  0.1870E+00  0.6694E+00
     -2.834  0.1975E+00  0.6801E+00
     -2.780  0.2054E+00  0.6911E+00
     -2.726  0.2027E+00  0.7021E+00
     -2.672  0.1944E+00  0.7126E+00
     -2.618  0.1895E+00  0.7228E+00
     -2.564  0.1895E+00  0.7330E+00
     -2.510  0.1882E+00  0.7431E+00
     -2.457  0.1842E+00  0.7531E+00
     -2.403  0.1840E+00  0.7630E+00
     -2.349  0.1897E+00  0.7732E+00
     -2.295  0.1933E+00  0.7836E+00
     -2.241  0.1907E+00  0.7939E+00
     -2.187  0.1883E+00  0.8040E+00
     -2.133  0.1914E+00  0.8144E+00
     -2.079  0.1978E+00  0.8250E+00
     -2.025  0.2035E+00  0.8360E+00
     -1.971  0.2067E+00  0.8471E+00
     -1.917  0.2054E+00  0.8582E+00
     -1.864  0.1997E+00  0.8690E+00
     -1.810  0.1949E+00  0.8795E+00
     -1.756  0.1950E+00  0.8900E+00
     -1.702  0.1972E+00  0.9006E+00
     -1.648  0.1982E+00  0.9113E+00
     -1.594  0.1992E+00  0.9221E+00
     -1.540  0.2038E+00  0.9330E+00
     -1.486  0.2104E+00  0.9444E+00
     -1.432  0.2127E+00  0.9559E+00
     -1.378  0.2059E+00  0.9670E+00
     -1.325  0.1921E+00  0.9773E+00
     -1.271  0.1749E+00  0.9867E+00
     -1.217  0.1538E+00  0.9950E+00
     -1.163  0.1295E+00  0.1002E+01
     -1.109  0.1060E+00  0.1008E+01
     -1.055  0.8452E-01  0.1012E+01
     -1.001  0.6321E-01  0.1016E+01
     -0.947  0.4297E-01  0.1018E+01
     -0.893  0.2698E-01  0.1019E+01
     -0.839  0.1784E-01  0.1020E+01
     -0.785  0.1445E-01  0.1021E+01
     -0.732  0.1291E-01  0.1022E+01
     -0.678  0.1401E-01  0.1023E+01
     -0.624  0.1937E-01  0.1024E+01
     -0.570  0.2621E-01  0.1025E+01
     -0.516  0.3306E-01  0.1027E+01
     -0.462  0.4071E-01  0.1029E+01
     -0.408  0.4584E-01  0.1032E+01
     -0.354  0.4369E-01  0.1034E+01
     -0.300  0.3905E-01  0.1036E+01
     -0.246  0.4042E-01  0.1038E+01
     -0.192  0.4430E-01  0.1041E+01
     -0.139  0.4066E-01  0.1043E+01
     -0.085  0.2991E-01  0.1044E+01
     -0.031  0.2053E-01  0.1045E+01
      0.023  0.1764E-01  0.1046E+01
      0.077  0.2152E-01  0.1048E+01
      0.131  0.2982E-01  0.1049E+01
      0.185  0.3629E-01  0.1051E+01
      0.239  0.3605E-01  0.1053E+01
      0.293  0.3393E-01  0.1055E+01
      0.347  0.3635E-01  0.1057E+01
      0.400  0.4104E-01  0.1059E+01
      0.454  0.4212E-01  0.1061E+01
      0.508  0.3929E-01  0.1064E+01
      0.562  0.3753E-01  0.1066E+01
      0.616  0.4013E-01  0.1068E+01
      0.670  0.4616E-01  0.1070E+01
      0.724  0.4966E-01  0.1073E+01
      0.778  0.4488E-01  0.1075E+01
      0.832  0.3440E-01  0.1077E+01
      0.886  0.2516E-01  0.1078E+01
      0.940  0.2017E-01  0.1080E+01
      0.993  0.1849E-01  0.1081E+01
      1.047  0.1872E-01  0.1082E+01
      1.101  0.1990E-01  0.1083E+01
      1.155  0.2042E-01  0.1084E+01
      1.209  0.1832E-01  0.1085E+01
      1.263  0.1459E-01  0.1086E+01
      1.317  0.1229E-01  0.1086E+01
      1.371  0.1344E-01  0.1087E+01
      1.425  0.1793E-01  0.1088E+01
      1.479  0.2458E-01  0.1089E+01
      1.533  0.3063E-01  0.1091E+01
      1.586  0.3242E-01  0.1093E+01
      1.640  0.3122E-01  0.1094E+01
      1.694  0.3192E-01  0.1096E+01
      1.748  0.3564E-01  0.1098E+01
      1.802  0.3863E-01  0.1100E+01
      1.856  0.3549E-01  0.1102E+01
      1.910  0.2483E-01  0.1103E+01
      1.964  0.1460E-01  0.1104E+01
      2.018  0.1313E-01  0.1105E+01
      2.072  0.1835E-01  0.1106E+01
      2.126  0.2352E-01  0.1107E+01
      2.179  0.2699E-01  0.1108E+01
      2.233  0.3127E-01  0.1110E+01
      2.287  0.3846E-01  0.1112E+01
      2.341  0.4760E-01  0.1115E+01
      2.395  0.5346E-01  0.1118E+01
      2.449  0.5280E-01  0.1121E+01
      2.503  0.4916E-01  0.1123E+01
      2.557  0.4587E-01  0.1126E+01
      2.611  0.4487E-01  0.1128E+01
      2.665  0.4829E-01  0.1131E+01
      2.718  0.5007E-01  0.1133E+01
      2.772  0.4186E-01  0.1136E+01
      2.826  0.2771E-01  0.1137E+01
      2.880  0.1755E-01  0.1138E+01
      2.934  0.1412E-01  0.1139E+01
      2.988  0.1220E-01  0.1139E+01
      3.042  0.9340E-02  0.1140E+01
      3.096  0.1059E-01  0.1141E+01
      3.150  0.1835E-01  0.1142E+01
      3.204  0.2570E-01  0.1143E+01
      3.258  0.2443E-01  0.1144E+01
      3.311  0.1701E-01  0.1145E+01
      3.365  0.1282E-01  0.1146E+01
      3.419  0.1446E-01  0.1147E+01
      3.473  0.1759E-01  0.1148E+01
      3.527  0.2087E-01  0.1149E+01
      3.581  0.2653E-01  0.1150E+01
      3.635  0.3276E-01  0.1152E+01
      3.689  0.3542E-01  0.1154E+01
      3.743  0.3664E-01  0.1156E+01
      3.797  0.3875E-01  0.1158E+01
      3.851  0.3617E-01  0.1160E+01
      3.904  0.2798E-01  0.1161E+01
      3.958  0.2379E-01  0.1163E+01
      4.012  0.2809E-01  0.1164E+01
      4.066  0.3175E-01  0.1166E+01
      4.120  0.2768E-01  0.1167E+01
      4.174  0.2257E-01  0.1169E+01
      4.228  0.2217E-01  0.1170E+01
      4.282  0.2161E-01  0.1171E+01
      4.336  0.1831E-01  0.1172E+01
      4.390  0.1853E-01  0.1173E+01
      4.443  0.2497E-01  0.1174E+01
      4.497  0.3275E-01  0.1176E+01
      4.551  0.3992E-01  0.1178E+01
      4.605  0.4771E-01  0.1181E+01
      4.659  0.5133E-01  0.1183E+01
      4.713  0.4693E-01  0.1186E+01
      4.767  0.4181E-01  0.1188E+01
      4.821  0.4267E-01  0.1191E+01
      4.875  0.4740E-01  0.1193E+01
      4.929  0.5246E-01  0.1196E+01
      4.983  0.5775E-01  0.1199E+01
      5.036  0.6384E-01  0.1203E+01
      5.090  0.6735E-01  0.1206E+01
      5.144  0.6541E-01  0.1210E+01
      5.198  0.6239E-01  0.1213E+01
      5.252  0.6036E-01  0.1216E+01
      5.306  0.5355E-01  0.1219E+01
      5.360  0.4067E-01  0.1221E+01
      5.414  0.2644E-01  0.1223E+01
      5.468  0.1424E-01  0.1224E+01
      5.522  0.5916E-02  0.1224E+01
      5.576  0.1761E-02  0.1224E+01
      5.629  0.3497E-03  0.1224E+01
      5.683  0.4365E-04  0.1224E+01
      5.737  0.3280E-05  0.1224E+01
      5.791  0.1444E-06  0.1224E+01
      5.845  0.3666E-08  0.1224E+01
      5.899  0.5319E-10  0.1224E+01
      5.953  0.4387E-12  0.1224E+01
      6.007  0.2047E-14  0.1224E+01
      6.061  0.5492E-17  0.1224E+01
      6.115  0.0000E+00  0.1224E+01
      6.168  0.0000E+00  0.1224E+01
      6.222  0.0000E+00  0.1224E+01
      6.276  0.0000E+00  0.1224E+01
      6.330  0.0000E+00  0.1224E+01
      6.384  0.0000E+00  0.1224E+01
      6.438  0.0000E+00  0.1224E+01
