 vasp.5.4.1 24Jun15 (build Mar 14 2019 10:18:33) complex                        
  
 executed on INTEL-19.0.2+OPENMPI date 2023.01.31  00:42:26
 running on   36 total cores
 distrk:  each k-point on   36 cores,    1 groups
 distr:  one band on NCORES_PER_BAND=   6 cores,    6 groups


--------------------------------------------------------------------------------------------------------


 INCAR:
 POTCAR:    PAW_PBE Au 04Oct2007                  
 POTCAR:    PAW_PBE Pd 04Jan2005                  
 POTCAR:    PAW_PBE Au 04Oct2007                  
  local pseudopotential read in
  partial core-charges read in
  partial kinetic energy density read in
  atomic valenz-charges read in
  non local Contribution for L=           2  read in
    real space projection operators read in
  non local Contribution for L=           2  read in
    real space projection operators read in
  non local Contribution for L=           0  read in
    real space projection operators read in
  non local Contribution for L=           0  read in
    real space projection operators read in
  non local Contribution for L=           1  read in
    real space projection operators read in
  non local Contribution for L=           1  read in
    real space projection operators read in
    PAW grid and wavefunctions read in
 
   number of l-projection  operators is LMAX  =           6
   number of lm-projection operators is LMMAX =          18
 
 POTCAR:    PAW_PBE Pd 04Jan2005                  
  local pseudopotential read in
  partial core-charges read in
  partial kinetic energy density read in
  atomic valenz-charges read in
  non local Contribution for L=           2  read in
    real space projection operators read in
  non local Contribution for L=           2  read in
    real space projection operators read in
  non local Contribution for L=           0  read in
    real space projection operators read in
  non local Contribution for L=           0  read in
    real space projection operators read in
  non local Contribution for L=           1  read in
    real space projection operators read in
  non local Contribution for L=           1  read in
    real space projection operators read in
    PAW grid and wavefunctions read in
 
   number of l-projection  operators is LMAX  =           6
   number of lm-projection operators is LMMAX =          18
 
 Optimization of the real space projectors (new method)

 maximal supplied QI-value         = 15.12
 optimisation between [QCUT,QGAM] = [ 10.13, 20.41] = [ 28.73,116.64] Ry 
 Optimized for a Real-space Cutoff    1.51 Angstroem

   l    n(q)    QCUT    max X(q) W(low)/X(q) W(high)/X(q)  e(spline) 
   2      8    10.129    60.898    0.46E-03    0.46E-03    0.14E-06
   2      8    10.129    58.894    0.47E-03    0.47E-03    0.14E-06
   0      9    10.129   109.617    0.16E-03    0.11E-03    0.54E-07
   0      9    10.129    75.026    0.15E-03    0.11E-03    0.52E-07
   1      9    10.129    16.344    0.96E-04    0.15E-03    0.14E-06
   1      9    10.129    10.160    0.81E-04    0.12E-03    0.11E-06
 Optimization of the real space projectors (new method)

 maximal supplied QI-value         = 14.36
 optimisation between [QCUT,QGAM] = [ 10.20, 20.39] = [ 29.12,116.47] Ry 
 Optimized for a Real-space Cutoff    1.51 Angstroem

   l    n(q)    QCUT    max X(q) W(low)/X(q) W(high)/X(q)  e(spline) 
   2      8    10.197    59.108    0.26E-03    0.14E-03    0.96E-07
   2      8    10.197    58.101    0.27E-03    0.14E-03    0.98E-07
   0      9    10.197   102.235    0.54E-04    0.60E-05    0.72E-07
   0      9    10.197    58.388    0.52E-04    0.60E-05    0.68E-07
   1      9    10.197    22.191    0.18E-03    0.25E-03    0.79E-07
   1      9    10.197    15.590    0.15E-03    0.21E-03    0.69E-07
  PAW_PBE Au 04Oct2007                  :
 energy of atom  1       EATOM= -926.0867
 kinetic energy error for atom=    0.0062 (will be added to EATOM!!)
  PAW_PBE Pd 04Jan2005                  :
 energy of atom  2       EATOM= -809.7530
 kinetic energy error for atom=    0.0091 (will be added to EATOM!!)
 
 
 POSCAR: Au Pd                                   
  positions in cartesian coordinates
  No initial velocities read in
 exchange correlation table for  LEXCH =        8
   RHO(1)=    0.500       N(1)  =     2000
   RHO(2)=  100.500       N(2)  =     4000

 VTST: version 3.2, (02/03/18)

 CHAIN: initializing optimizer
 
 OPT: Using VASP Conjugate-Gradient optimizer
 CHAIN: Read ICHAIN            0
 
 POSCAR: Au Pd                                   
  positions in cartesian coordinates
  No initial velocities read in
 


--------------------------------------------------------------------------------------------------------


 ion  position               nearest neighbor table
   1  0.250  0.750  0.592-  19 2.75  40 2.75  23 2.75  27 2.75  29 2.75  17 2.75  18 2.75  28 2.75
                            16 2.75
   2  0.750  0.250  0.592-  10 2.75   9 2.75  14 2.75  23 2.75  29 2.75  41 2.75   4 2.75  46 2.75
                            15 2.75
   3  0.083  0.833  0.408-  19 2.75   6 2.75  33 2.75  39 2.75  45 2.75   8 2.75  35 2.75  16 2.75
                            34 2.75
   4  0.000  0.250  0.592-  31 2.75  12 2.75  29 2.75  30 2.75  27 2.75  41 2.75  25 2.75   2 2.75
                             9 2.75
   5  0.917  0.667  0.500-  36 2.75  30 2.75  48 2.75  31 2.75  34 2.75  26 2.75  20 2.75  44 2.75
                            16 2.75   8 2.75   6 2.75  28 2.75
   6  0.083  0.583  0.408-  16 2.75   8 2.75  11 2.75   3 2.75  32 2.75  33 2.75  36 2.75  26 2.75
                             5 2.75
   7  0.333  0.083  0.408-  37 2.75  32 2.75  35 2.75  11 2.75  42 2.75  39 2.75  47 2.75  43 2.75
                            12 2.75
   8  0.833  0.833  0.408-  34 2.75   6 2.75  36 2.75  45 2.75  47 2.75   3 2.75  42 2.75   5 2.75
                            20 2.75
   9  0.917  0.167  0.500-  45 2.75  29 2.75   2 2.75  10 2.75  31 2.75  34 2.75  19 2.75  15 2.75
                            12 2.75  24 2.75  39 2.75   4 2.75
  10  0.667  0.417  0.500-  22 2.75   2 2.75  23 2.75   9 2.75  15 2.75  40 2.75  44 2.75  31 2.75
                            38 2.75  13 2.75  41 2.75  24 2.75
  11  0.333  0.333  0.408-  38 2.75   7 2.75  33 2.75   6 2.75  47 2.75  32 2.75  22 2.75  37 2.75
                            26 2.75
  12  0.167  0.167  0.500-  39 2.75  27 2.75   4 2.75  19 2.75  31 2.75  26 2.75  43 2.75   9 2.75
                            37 2.75  32 2.75  25 2.75   7 2.75
  13  0.583  0.583  0.408-  44 2.75  24 2.75  35 2.75  42 2.75  22 2.75  33 2.75  36 2.75  10 2.75
                            40 2.75
  14  0.750  0.000  0.592-  15 2.75  34 2.75  28 2.75   2 2.75  46 2.75  48 2.75  29 2.75  21 2.75
                            20 2.75
  15  0.667  0.167  0.500-  47 2.75  14 2.75  46 2.75  34 2.75  38 2.75  10 2.75  20 2.75  37 2.75
                             9 2.75  22 2.75   2 2.75  45 2.75
  16  0.167  0.667  0.500-   6 2.75  17 2.75  28 2.75  26 2.75  19 2.75  34 2.75  38 2.75   5 2.75
                            40 2.75   3 2.75  33 2.75   1 2.75
  17  0.250  0.500  0.592-  16 2.75  38 2.75  25 2.75  28 2.75   1 2.75  46 2.75  23 2.75  30 2.75
                            26 2.75
  18  0.500  0.750  0.592-  43 2.75  44 2.75  27 2.75  41 2.75  21 2.75  23 2.75   1 2.75  48 2.75
                            40 2.75
  19  0.167  0.917  0.500-   3 2.75   1 2.75  29 2.75  12 2.75  16 2.75   9 2.75  40 2.75  34 2.75
                            43 2.75  39 2.75  35 2.75  27 2.75
  20  0.667  0.917  0.500-  42 2.75  48 2.75  21 2.75  37 2.75  15 2.75  44 2.75   5 2.75  34 2.75
                            43 2.75  47 2.75  14 2.75   8 2.75
  21  0.500  0.000  0.592-  37 2.75  20 2.75  25 2.75  18 2.75  46 2.75  48 2.75  27 2.75  14 2.75
                            43 2.75
  22  0.583  0.333  0.408-  10 2.75  13 2.75  33 2.75  45 2.75  47 2.75  24 2.75  11 2.75  15 2.75
                            38 2.75
  23  0.500  0.500  0.592-  40 2.75  10 2.75   1 2.75  18 2.75   2 2.75  46 2.75  41 2.75  17 2.75
                            38 2.75
  24  0.833  0.333  0.408-  31 2.75  13 2.75  36 2.75  39 2.75  45 2.75  32 2.75  22 2.75   9 2.75
                            10 2.75
  25  0.250  0.250  0.592-  26 2.75  37 2.75  17 2.75  27 2.75  30 2.75  21 2.75   4 2.75  46 2.75
                            12 2.75
  26  0.167  0.417  0.500-  32 2.75  25 2.75  30 2.75   5 2.75  12 2.75  16 2.75  37 2.75  31 2.75
                            38 2.75   6 2.75  11 2.75  17 2.75
  27  0.250  0.000  0.592-  12 2.75  43 2.75   1 2.75  18 2.75  25 2.75   4 2.75  29 2.75  21 2.75
                            19 2.75
  28  0.000  0.750  0.592-  34 2.75  16 2.75  17 2.75  29 2.75  30 2.75  14 2.75   1 2.75  48 2.75
                             5 2.75
  29  0.000  0.000  0.592-   9 2.75  19 2.75   4 2.75   1 2.75   2 2.75  28 2.75  27 2.75  14 2.75
                            34 2.75
  30  0.000  0.500  0.592-   5 2.75  26 2.75  25 2.75   4 2.75  28 2.75  48 2.75  41 2.75  17 2.75
                            31 2.75
  31  0.917  0.417  0.500-  24 2.75   4 2.75  41 2.75  12 2.75   5 2.75   9 2.75  44 2.75  10 2.75
                            26 2.75  36 2.75  32 2.75  30 2.75
  32  0.083  0.333  0.408-  26 2.75   7 2.75   6 2.75  36 2.75  39 2.75  24 2.75  11 2.75  12 2.75
                            31 2.75
  33  0.333  0.583  0.408-  40 2.75  11 2.75  22 2.75  35 2.75   3 2.75  13 2.75   6 2.75  38 2.75
                            16 2.75
  34  0.917  0.917  0.500-   8 2.75  28 2.75  14 2.75   5 2.75  15 2.75  16 2.75   9 2.75  20 2.75
                            19 2.75  45 2.75  29 2.75   3 2.75
  35  0.333  0.833  0.408-  43 2.75  13 2.75  33 2.75  39 2.75   7 2.75  42 2.75   3 2.75  40 2.75
                            19 2.75
  36  0.833  0.583  0.408-   5 2.75   8 2.75  24 2.75  32 2.75  42 2.75  13 2.75   6 2.75  31 2.75
                            44 2.75
  37  0.417  0.167  0.500-   7 2.75  21 2.75  25 2.75  20 2.75  26 2.75  38 2.75  43 2.75  12 2.75
                            15 2.75  11 2.75  46 2.75  47 2.75
  38  0.417  0.417  0.500-  11 2.75  46 2.75  17 2.75  15 2.75  37 2.75  40 2.75  16 2.75  26 2.75
                            10 2.75  33 2.75  23 2.75  22 2.75
  39  0.083  0.083  0.408-  12 2.75   3 2.75  24 2.75  32 2.75  35 2.75   7 2.75  45 2.75  19 2.75
                             9 2.75
  40  0.417  0.667  0.500-  33 2.75  23 2.75   1 2.75  10 2.75  19 2.75  38 2.75  43 2.75  16 2.75
                            44 2.75  35 2.75  18 2.75  13 2.75
  41  0.750  0.500  0.592-  44 2.75  31 2.75  18 2.75   2 2.75   4 2.75  48 2.75  30 2.75  23 2.75
                            10 2.75
  42  0.583  0.833  0.408-  20 2.75  13 2.75   7 2.75  36 2.75  47 2.75   8 2.75  35 2.75  44 2.75
                            43 2.75
  43  0.417  0.917  0.500-  35 2.75  18 2.75  27 2.75  12 2.75  37 2.75  40 2.75  44 2.75  20 2.75
                            19 2.75   7 2.75  42 2.75  21 2.75
  44  0.667  0.667  0.500-  13 2.75  41 2.75  18 2.75  20 2.75  31 2.75  10 2.75  43 2.75   5 2.75
                            40 2.75  42 2.75  36 2.75  48 2.75
  45  0.833  0.083  0.408-   9 2.75   8 2.75   3 2.75  22 2.75  24 2.75  39 2.75  47 2.75  34 2.75
                            15 2.75
  46  0.500  0.250  0.592-  38 2.75  15 2.75  17 2.75  21 2.75  23 2.75  14 2.75  25 2.75   2 2.75
                            37 2.75
  47  0.583  0.083  0.408-  15 2.75  11 2.75   8 2.75  22 2.75  42 2.75   7 2.75  45 2.75  20 2.75
                            37 2.75
  48  0.750  0.750  0.592-  20 2.75   5 2.75  14 2.75  21 2.75  30 2.75  41 2.75  18 2.75  28 2.75
                            44 2.75
 
  LATTYP: Found a hexagonal cell.
 ALAT       =    11.0025815153
 C/A-ratio  =     2.2260035120
  
  Lattice vectors:
  
 A1 = (   5.5012907576,  -9.5285150994,   0.0000000000)
 A2 = ( -11.0025815153,   0.0000000000,   0.0000000000)
 A3 = (   0.0000000000,   0.0000000000, -24.4917850943)


Analysis of symmetry for initial positions (statically):
=====================================================================
 Subroutine PRICEL returns:
 Original cell was already a primitive cell.
 

 Routine SETGRP: Setting up the symmetry group for a 
 hexagonal supercell.


 Subroutine GETGRP returns: Found  1 space group operations
 (whereof  1 operations were pure point group operations)
 out of a pool of 24 trial point group operations.


The static configuration has the point symmetry C_1 .


Analysis of symmetry for dynamics (positions and initial velocities):
=====================================================================
 Subroutine PRICEL returns:
 Original cell was already a primitive cell.
 

 Routine SETGRP: Setting up the symmetry group for a 
 hexagonal supercell.


 Subroutine GETGRP returns: Found  1 space group operations
 (whereof  1 operations were pure point group operations)
 out of a pool of 24 trial point group operations.


The dynamic configuration has the point symmetry C_1 .


Analysis of constrained symmetry for selective dynamics:
=====================================================================
 Subroutine PRICEL returns:
 Original cell was already a primitive cell.
 

 Routine SETGRP: Setting up the symmetry group for a 
 hexagonal supercell.


 Subroutine GETGRP returns: Found  1 space group operations
 (whereof  1 operations were pure point group operations)
 out of a pool of 24 trial point group operations.


The constrained configuration has the point symmetry C_1 .
 
 
 KPOINTS: Automatic mesh                          

Automatic generation of k-mesh.
Space group operators:
 irot       det(A)        alpha          n_x          n_y          n_z        tau_x        tau_y        tau_z
    1     1.000000     0.000000     1.000000     0.000000     0.000000     0.000000     0.000000     0.000000
 
 Subroutine IBZKPT returns following result:
 ===========================================
 
 Found      6 irreducible k-points:
 
 Following reciprocal coordinates:
            Coordinates               Weight
  0.250000  0.250000  0.000000     16.000000
  0.000000  0.250000  0.000000     16.000000
 -0.250000  0.000000  0.000000     16.000000
 -0.250000  0.250000  0.000000     16.000000
  0.500000 -0.250000  0.000000     16.000000
 -0.250000  0.500000  0.000000     16.000000
 
 Following cartesian coordinates:
            Coordinates               Weight
  0.022722  0.013119  0.000000     16.000000
  0.000000  0.026237  0.000000     16.000000
 -0.022722  0.013119  0.000000     16.000000
 -0.022722  0.039356  0.000000     16.000000
  0.045444 -0.052474  0.000000     16.000000
 -0.022722  0.065593  0.000000     16.000000
 


--------------------------------------------------------------------------------------------------------




 Dimension of arrays:
   k-points           NKPTS =      6   k-points in BZ     NKDIM =      6   number of bands    NBANDS=    306
   number of dos      NEDOS =    301   number of ions     NIONS =     48
   non local maximal  LDIM  =      6   non local SUM 2l+1 LMDIM =     18
   total plane-waves  NPLWV = 349920
   max r-space proj   IRMAX =   2009   max aug-charges    IRDMAX=   8532
   dimension x,y,z NGX =    54 NGY =   54 NGZ =  120
   dimension x,y,z NGXF=   108 NGYF=  108 NGZF=  240
   support grid    NGXF=   108 NGYF=  108 NGZF=  240
   ions per type =              24  24
 NGX,Y,Z   is equivalent  to a cutoff of   8.16,  8.16,  8.15 a.u.
 NGXF,Y,Z  is equivalent  to a cutoff of  16.32, 16.32, 16.29 a.u.


 I would recommend the setting:
   dimension x,y,z NGX =    54 NGY =   54 NGZ =  120
 SYSTEM =  unknown system                          
 POSCAR =  Au Pd                                   

 Startparameter for this run:
   NWRITE =      1    write-flag & timer
   PREC   = normal    normal or accurate (medium, high low for compatibility)
   ISTART =      0    job   : 0-new  1-cont  2-samecut
   ICHARG =      2    charge: 1-file 2-atom 10-const
   ISPIN  =      1    spin polarized calculation?
   LNONCOLLINEAR =      F non collinear calculations
   LSORBIT =      F    spin-orbit coupling
   INIWAV =      1    electr: 0-lowe 1-rand  2-diag
   LASPH  =      F    aspherical Exc in radial PAW
   METAGGA=      F    non-selfconsistent MetaGGA calc.

 Electronic Relaxation 1
   ENCUT  =  400.0 eV  29.40 Ry    5.42 a.u.  17.94 17.94 39.94*2*pi/ulx,y,z
   ENINI  =  400.0     initial cutoff
   ENAUG  =  416.2 eV  augmentation charge cutoff
   NELM   =    500;   NELMIN=  2; NELMDL= -5     # of ELM steps 
   EDIFF  = 0.1E-05   stopping-criterion for ELM
   LREAL  =      T    real-space projection
   NLSPLINE    = F    spline interpolate recip. space projectors
   LCOMPAT=      F    compatible to vasp.4.4
   GGA_COMPAT  = T    GGA compatible to vasp.4.4-vasp.4.6
   LMAXPAW     = -100 max onsite density
   LMAXMIX     =    2 max onsite mixed and CHGCAR
   VOSKOWN=      1    Vosko Wilk Nusair interpolation
   ROPT   =   -0.00050  -0.00050
 Ionic relaxation
   EDIFFG = -.2E-01   stopping-criterion for IOM
   NSW    =    500    number of steps for IOM
   NBLOCK =      1;   KBLOCK =    500    inner block; outer block 
   IBRION =      2    ionic relax: 0-MD 1-quasi-New 2-CG
   NFREE  =      2    steps in history (QN), initial steepest desc. (CG)
   ISIF   =      0    stress and relaxation
   IWAVPR =     11    prediction:  0-non 1-charg 2-wave 3-comb
   ISYM   =      2    0-nonsym 1-usesym 2-fastsym
   LCORR  =      T    Harris-Foulkes like correction to forces

   POTIM  = 0.3500    time-step for ionic-motion
   TEIN   =    0.0    initial temperature
   TEBEG  =    0.0;   TEEND  =   0.0 temperature during run
   SMASS  =  -3.00    Nose mass-parameter (am)
   estimated Nose-frequenzy (Omega)   =  0.10E-29 period in steps =****** mass=  -0.277E-26a.u.
   SCALEE = 1.0000    scale energy and forces
   NPACO  =    256;   APACO  = 16.0  distance and # of slots for P.C.
   PSTRESS=    0.0 pullay stress

  Mass of Ions in am
   POMASS = 196.97106.42
  Ionic Valenz
   ZVAL   =  11.00 10.00
  Atomic Wigner-Seitz radii
   RWIGS  =  -1.00 -1.00
  virtual crystal weights 
   VCA    =   1.00  1.00
   NELECT =     504.0000    total number of electrons
   NUPDOWN=      -1.0000    fix difference up-down

 DOS related values:
   EMIN   =  10.00;   EMAX   =-10.00  energy-range for DOS
   EFERMI =   0.00
   ISMEAR =     0;   SIGMA  =   0.10  broadening in eV -4-tet -1-fermi 0-gaus

 Electronic relaxation 2 (details)
   IALGO  =     68    algorithm
   LDIAG  =      T    sub-space diagonalisation (order eigenvalues)
   LSUBROT=      F    optimize rotation matrix (better conditioning)
   TURBO    =      0    0=normal 1=particle mesh
   IRESTART =      0    0=no restart 2=restart with 2 vectors
   NREBOOT  =      0    no. of reboots
   NMIN     =      0    reboot dimension
   EREF     =   0.00    reference energy to select bands
   IMIX   =      4    mixing-type and parameters
     AMIX     =   0.40;   BMIX     =  1.00
     AMIX_MAG =   1.60;   BMIX_MAG =  1.00
     AMIN     =   0.10
     WC   =   100.;   INIMIX=   1;  MIXPRE=   1;  MAXMIX= -45

 Intra band minimization:
   WEIMIN = 0.0010     energy-eigenvalue tresh-hold
   EBREAK =  0.82E-09  absolut break condition
   DEPER  =   0.30     relativ break condition  

   TIME   =   0.40     timestep for ELM

  volume/ion in A,a.u.               =      53.49       360.99
  Fermi-wavevector in a.u.,A,eV,Ry     =   0.951418  1.797920 12.315955  0.905197
  Thomas-Fermi vector in A             =   2.079887
 
 Write flags
   LWAVE  =      F    write WAVECAR
   LCHARG =      F    write CHGCAR
   LVTOT  =      F    write LOCPOT, total local potential
   LVHAR  =      F    write LOCPOT, Hartree potential only
   LELF   =      F    write electronic localiz. function (ELF)
   LORBIT =      0    0 simple, 1 ext, 2 COOP (PROOUT)


 Dipole corrections
   LMONO  =      F    monopole corrections only (constant potential shift)
   LDIPOL =      T    correct potential (dipole corrections)
   IDIPOL =      3    1-x, 2-y, 3-z, 4-all directions 
   EPSILON=  1.0000000 bulk dielectric constant

 Exchange correlation treatment:
   GGA     =    PE    GGA type
   LEXCH   =     8    internal setting for exchange type
   VOSKOWN=      1    Vosko Wilk Nusair interpolation
   LHFCALC =     F    Hartree Fock is set to
   LHFONE  =     F    Hartree Fock one center treatment
   AEXX    =    0.0000 exact exchange contribution

 Linear response parameters
   LEPSILON=     F    determine dielectric tensor
   LRPA    =     F    only Hartree local field effects (RPA)
   LNABLA  =     F    use nabla operator in PAW spheres
   LVEL    =     F    velocity operator in full k-point grid
   LINTERFAST=   F  fast interpolation
   KINTER  =     0    interpolate to denser k-point grid
   CSHIFT  =0.1000    complex shift for real part using Kramers Kronig
   OMEGAMAX=  -1.0    maximum frequency
   DEG_THRESHOLD= 0.2000000E-02 threshold for treating states as degnerate
   RTIME   =    0.100 relaxation time in fs

 Orbital magnetization related:
   ORBITALMAG=     F  switch on orbital magnetization
   LCHIMAG   =     F  perturbation theory with respect to B field
   DQ        =  0.001000  dq finite difference perturbation B field



--------------------------------------------------------------------------------------------------------


 conjugate gradient relaxation of ions
   using selective dynamics as specified on POSCAR
   WARNING: If single coordinates had been selected the selection of coordinates
            is made according to the corresponding   d i r e c t   coordinates!
            Don't support selection of single cartesian coordinates -- sorry ...
  !
 charge density and potential will be updated during run
 non-spin polarized calculation
 RMM-DIIS sequential band-by-band and
  variant of blocked Davidson during initial phase
 perform sub-space diagonalisation
    before iterative eigenvector-optimisation
 modified Broyden-mixing scheme, WC =      100.0
 initial mixing is a Kerker type mixing with AMIX =  0.4000 and BMIX =      1.0000
 Hartree-type preconditioning will be used
 using additional bands           54
 real space projection scheme for non local part
 use partial core corrections
 calculate Harris-corrections to forces 
   (improved forces if not selfconsistent)
 use gradient corrections 
 use of overlap-Matrix (Vanderbilt PP)
 Gauss-broadening in eV      SIGMA  =   0.10


--------------------------------------------------------------------------------------------------------


  energy-cutoff  :      400.00
  volume of cell :     2567.68
      direct lattice vectors                 reciprocal lattice vectors
    11.002581515  0.000000000  0.000000000     0.090887761 -0.052474073  0.000000000
     5.501290758  9.528515099  0.000000000     0.000000000  0.104948147  0.000000000
     0.000000000  0.000000000 24.491785094     0.000000000  0.000000000  0.040830017

  length of vectors
    11.002581515 11.002581515 24.491785094     0.104948147  0.104948147  0.040830017


 
 k-points in units of 2pi/SCALE and weight: Automatic mesh                          
   0.02272194  0.01311852  0.00000000       0.167
   0.00000000  0.02623704  0.00000000       0.167
  -0.02272194  0.01311852  0.00000000       0.167
  -0.02272194  0.03935555  0.00000000       0.167
   0.04544388 -0.05247407  0.00000000       0.167
  -0.02272194  0.06559259  0.00000000       0.167
 
 k-points in reciprocal lattice and weights: Automatic mesh                          
   0.25000000  0.25000000  0.00000000       0.167
   0.00000000  0.25000000  0.00000000       0.167
  -0.25000000  0.00000000  0.00000000       0.167
  -0.25000000  0.25000000  0.00000000       0.167
   0.50000000 -0.25000000  0.00000000       0.167
  -0.25000000  0.50000000  0.00000000       0.167
 
 position of ions in fractional coordinates (direct lattice) 
   0.25000000  0.75000000  0.59169983
   0.75000000  0.25000000  0.59169983
   0.08333333  0.83333333  0.40830017
   0.00000000  0.25000000  0.59169983
   0.91666667  0.66666667  0.50000000
   0.08333333  0.58333333  0.40830017
   0.33333333  0.08333333  0.40830017
   0.83333333  0.83333333  0.40830017
   0.91666667  0.16666667  0.50000000
   0.66666667  0.41666667  0.50000000
   0.33333333  0.33333333  0.40830017
   0.16666667  0.16666667  0.50000000
   0.58333333  0.58333333  0.40830017
   0.75000000  0.00000000  0.59169983
   0.66666667  0.16666667  0.50000000
   0.16666667  0.66666667  0.50000000
   0.25000000  0.50000000  0.59169983
   0.50000000  0.75000000  0.59169983
   0.16666667  0.91666667  0.50000000
   0.66666667  0.91666667  0.50000000
   0.50000000  0.00000000  0.59169983
   0.58333333  0.33333333  0.40830017
   0.50000000  0.50000000  0.59169983
   0.83333333  0.33333333  0.40830017
   0.25000000  0.25000000  0.59169983
   0.16666667  0.41666667  0.50000000
   0.25000000  0.00000000  0.59169983
   0.00000000  0.75000000  0.59169983
   0.00000000  0.00000000  0.59169983
   0.00000000  0.50000000  0.59169983
   0.91666667  0.41666667  0.50000000
   0.08333333  0.33333333  0.40830017
   0.33333333  0.58333333  0.40830017
   0.91666667  0.91666667  0.50000000
   0.33333333  0.83333333  0.40830017
   0.83333333  0.58333333  0.40830017
   0.41666667  0.16666667  0.50000000
   0.41666667  0.41666667  0.50000000
   0.08333333  0.08333333  0.40830017
   0.41666667  0.66666667  0.50000000
   0.75000000  0.50000000  0.59169983
   0.58333333  0.83333333  0.40830017
   0.41666667  0.91666667  0.50000000
   0.66666667  0.66666667  0.50000000
   0.83333333  0.08333333  0.40830017
   0.50000000  0.25000000  0.59169983
   0.58333333  0.08333333  0.40830017
   0.75000000  0.75000000  0.59169983
 
 position of ions in cartesian coordinates  (Angst):
   6.87661345  7.14638632 14.49178509
   9.62725883  2.38212877 14.49178509
   5.50129076  7.94042925 10.00000000
   1.37532269  2.38212877 14.49178509
  13.75322689  6.35234340 12.24589255
   4.12596807  5.55830047 10.00000000
   4.12596807  0.79404292 10.00000000
  13.75322689  7.94042925 10.00000000
  11.00258152  1.58808585 12.24589255
   9.62725883  3.97021462 12.24589255
   5.50129076  3.17617170 10.00000000
   2.75064538  1.58808585 12.24589255
   9.62725883  5.55830047 10.00000000
   8.25193614  0.00000000 14.49178509
   8.25193614  1.58808585 12.24589255
   5.50129076  6.35234340 12.24589255
   5.50129076  4.76425755 14.49178509
   9.62725883  7.14638632 14.49178509
   6.87661345  8.73447217 12.24589255
  12.37790420  8.73447217 12.24589255
   5.50129076  0.00000000 14.49178509
   8.25193614  3.17617170 10.00000000
   8.25193614  4.76425755 14.49178509
  11.00258152  3.17617170 10.00000000
   4.12596807  2.38212877 14.49178509
   4.12596807  3.97021462 12.24589255
   2.75064538  0.00000000 14.49178509
   4.12596807  7.14638632 14.49178509
   0.00000000  0.00000000 14.49178509
   2.75064538  4.76425755 14.49178509
  12.37790420  3.97021462 12.24589255
   2.75064538  3.17617170 10.00000000
   6.87661345  5.55830047 10.00000000
  15.12854958  8.73447217 12.24589255
   8.25193614  7.94042925 10.00000000
  12.37790420  5.55830047 10.00000000
   5.50129076  1.58808585 12.24589255
   6.87661345  3.97021462 12.24589255
   1.37532269  0.79404292 10.00000000
   8.25193614  6.35234340 12.24589255
  11.00258152  4.76425755 14.49178509
  11.00258152  7.94042925 10.00000000
   9.62725883  8.73447217 12.24589255
  11.00258152  6.35234340 12.24589255
   9.62725883  0.79404292 10.00000000
   6.87661345  2.38212877 14.49178509
   6.87661345  0.79404292 10.00000000
  12.37790420  7.14638632 14.49178509
 


--------------------------------------------------------------------------------------------------------


 k-point  1 :   0.2500 0.2500 0.0000  plane waves:   46635
 k-point  2 :   0.0000 0.2500 0.0000  plane waves:   46635
 k-point  3 :  -0.2500 0.0000 0.0000  plane waves:   46635
 k-point  4 :  -0.2500 0.2500 0.0000  plane waves:   46644
 k-point  5 :   0.5000-0.2500 0.0000  plane waves:   46644
 k-point  6 :  -0.2500 0.5000 0.0000  plane waves:   46644

 maximum and minimum number of plane-waves per node :      7818     7732

 maximum number of plane-waves:     46644
 maximum index in each direction: 
   IXMAX=   18   IYMAX=   18   IZMAX=   39
   IXMIN=  -18   IYMIN=  -18   IZMIN=  -39

 WARNING: aliasing errors must be expected set NGX to  74 to avoid them
 WARNING: aliasing errors must be expected set NGY to  74 to avoid them
 WARNING: aliasing errors must be expected set NGZ to 158 to avoid them
 aliasing errors are usually negligible using standard VASP settings
 and one can safely disregard these warnings

 real space projection operators:
  total allocation   :      12803.06 KBytes
  max/ min on nodes  :       2145.66       2127.94


 parallel 3D FFT for wavefunctions:
    minimum data exchange during FFTs selected (reduces bandwidth)
 parallel 3D FFT for charge:
    minimum data exchange during FFTs selected (reduces bandwidth)


 total amount of memory used by VASP on root node    84353. kBytes
========================================================================

   base      :      30000. kBytes
   nonlr-proj:       4285. kBytes
   fftplans  :       4447. kBytes
   grid      :       6721. kBytes
   one-center:        124. kBytes
   wavefun   :      38776. kBytes
 
     INWAV:  cpu time    0.0000: real time    0.0000
 Broyden mixing: mesh for mixing (old mesh)
   NGX = 35   NGY = 35   NGZ = 79
  (NGX  =108   NGY  =108   NGZ  =240)
  gives a total of  96775 points

 initial charge density was supplied:
 charge density of overlapping atoms calculated
 number of electron     504.0000000 magnetization 
 keeping initial charge density in first step


--------------------------------------------------------------------------------------------------------


 Maximum index for non-local projection operator          355
 Maximum index for augmentation-charges          437 (set IRDMAX)


--------------------------------------------------------------------------------------------------------


 First call to EWALD:  gamma=   0.129
 Maximum number of real-space cells 4x 4x 2
 Maximum number of reciprocal cells 2x 2x 5

 FEWALD executed in parallel
    FEWALD:  cpu time    0.0022: real time    0.0022


----------------------------------------- Iteration    1(   1)  ---------------------------------------


    POTLOK:  cpu time    0.0454: real time    0.0456
    SETDIJ:  cpu time    0.0058: real time    0.0059
     EDDAV:  cpu time    7.2259: real time    7.2532
       DOS:  cpu time    0.0013: real time    0.0013
    --------------------------------------------
      LOOP:  cpu time    7.2810: real time    7.3123

 eigenvalue-minimisations  :  3672
 total energy-change (2. order) : 0.3200830E+04  (-0.1897744E+05)
 number of electron     504.0000000 magnetization 
 augmentation part      504.0000000 magnetization 

 DIPCOR: dipole corrections for dipol
 direction  3 min pos     1,
 dipolmoment           0.000000      0.000000      0.000000 electrons x Angstroem
 Tr[quadrupol]    -10271.437411

 energy correction for charged system         0.000000 eV
 dipol+quadrupol energy correction           -0.000000 eV
 added-field ion interaction          0.000000 eV  (added to PSCEN)


 Free energy of the ion-electron system (eV)
  ---------------------------------------------------
  alpha Z        PSCENC =       805.86936429
  Ewald energy   TEWEN  =    200155.64140271
  -Hartree energ DENC   =   -242569.47548890
  -exchange      EXHF   =         0.00000000
  -V(xc)+E(xc)   XCENC  =      -327.63101082
  PAW double counting   =     40340.05962942   -38292.62782345
  entropy T*S    EENTRO =        -0.14343959
  eigenvalues    EBANDS =      1429.35107459
  atomic energy  EATOM  =     41659.78587232
  Solvation  Ediel_sol  =         0.00000000
  ---------------------------------------------------
  free energy    TOTEN  =      3200.82958057 eV

  energy without entropy =     3200.97302016  energy(sigma->0) =     3200.90130037


--------------------------------------------------------------------------------------------------------




----------------------------------------- Iteration    1(   2)  ---------------------------------------


     EDDAV:  cpu time    8.5413: real time    8.5642
       DOS:  cpu time    0.0014: real time    0.0014
    --------------------------------------------
      LOOP:  cpu time    8.5435: real time    8.5679

 eigenvalue-minimisations  :  4392
 total energy-change (2. order) :-0.3186115E+04  (-0.2930612E+04)
 number of electron     504.0000000 magnetization 
 augmentation part      504.0000000 magnetization 

 DIPCOR: dipole corrections for dipol
 direction  3 min pos     1,
 dipolmoment           0.000000      0.000000      0.000000 electrons x Angstroem
 Tr[quadrupol]    -10271.437411

 energy correction for charged system         0.000000 eV
 dipol+quadrupol energy correction           -0.000000 eV
 added-field ion interaction          0.000000 eV  (added to PSCEN)


 Free energy of the ion-electron system (eV)
  ---------------------------------------------------
  alpha Z        PSCENC =       805.86936429
  Ewald energy   TEWEN  =    200155.64140271
  -Hartree energ DENC   =   -242569.47548890
  -exchange      EXHF   =         0.00000000
  -V(xc)+E(xc)   XCENC  =      -327.63101082
  PAW double counting   =     40340.05962942   -38292.62782345
  entropy T*S    EENTRO =        -0.12706489
  eigenvalues    EBANDS =     -1756.78057161
  atomic energy  EATOM  =     41659.78587232
  Solvation  Ediel_sol  =         0.00000000
  ---------------------------------------------------
  free energy    TOTEN  =        14.71430907 eV

  energy without entropy =       14.84137396  energy(sigma->0) =       14.77784151


--------------------------------------------------------------------------------------------------------




----------------------------------------- Iteration    1(   3)  ---------------------------------------


     EDDAV:  cpu time    8.1477: real time    8.1691
       DOS:  cpu time    0.0014: real time    0.0014
    --------------------------------------------
      LOOP:  cpu time    8.1501: real time    8.1755

 eigenvalue-minimisations  :  4140
 total energy-change (2. order) :-0.2150878E+03  (-0.1999150E+03)
 number of electron     504.0000000 magnetization 
 augmentation part      504.0000000 magnetization 

 DIPCOR: dipole corrections for dipol
 direction  3 min pos     1,
 dipolmoment           0.000000      0.000000      0.000000 electrons x Angstroem
 Tr[quadrupol]    -10271.437411

 energy correction for charged system         0.000000 eV
 dipol+quadrupol energy correction           -0.000000 eV
 added-field ion interaction          0.000000 eV  (added to PSCEN)


 Free energy of the ion-electron system (eV)
  ---------------------------------------------------
  alpha Z        PSCENC =       805.86936429
  Ewald energy   TEWEN  =    200155.64140271
  -Hartree energ DENC   =   -242569.47548890
  -exchange      EXHF   =         0.00000000
  -V(xc)+E(xc)   XCENC  =      -327.63101082
  PAW double counting   =     40340.05962942   -38292.62782345
  entropy T*S    EENTRO =        -0.20855495
  eigenvalues    EBANDS =     -1971.78690571
  atomic energy  EATOM  =     41659.78587232
  Solvation  Ediel_sol  =         0.00000000
  ---------------------------------------------------
  free energy    TOTEN  =      -200.37351509 eV

  energy without entropy =     -200.16496014  energy(sigma->0) =     -200.26923762


--------------------------------------------------------------------------------------------------------




----------------------------------------- Iteration    1(   4)  ---------------------------------------


     EDDAV:  cpu time    8.2672: real time    8.2950
       DOS:  cpu time    0.0014: real time    0.0014
    --------------------------------------------
      LOOP:  cpu time    8.2695: real time    8.2994

 eigenvalue-minimisations  :  4188
 total energy-change (2. order) :-0.5726073E+01  (-0.5662095E+01)
 number of electron     504.0000000 magnetization 
 augmentation part      504.0000000 magnetization 

 DIPCOR: dipole corrections for dipol
 direction  3 min pos     1,
 dipolmoment           0.000000      0.000000      0.000000 electrons x Angstroem
 Tr[quadrupol]    -10271.437411

 energy correction for charged system         0.000000 eV
 dipol+quadrupol energy correction           -0.000000 eV
 added-field ion interaction          0.000000 eV  (added to PSCEN)


 Free energy of the ion-electron system (eV)
  ---------------------------------------------------
  alpha Z        PSCENC =       805.86936429
  Ewald energy   TEWEN  =    200155.64140271
  -Hartree energ DENC   =   -242569.47548890
  -exchange      EXHF   =         0.00000000
  -V(xc)+E(xc)   XCENC  =      -327.63101082
  PAW double counting   =     40340.05962942   -38292.62782345
  entropy T*S    EENTRO =        -0.20896054
  eigenvalues    EBANDS =     -1977.51257296
  atomic energy  EATOM  =     41659.78587232
  Solvation  Ediel_sol  =         0.00000000
  ---------------------------------------------------
  free energy    TOTEN  =      -206.09958793 eV

  energy without entropy =     -205.89062739  energy(sigma->0) =     -205.99510766


--------------------------------------------------------------------------------------------------------




----------------------------------------- Iteration    1(   5)  ---------------------------------------


     EDDAV:  cpu time    8.6659: real time    8.7576
       DOS:  cpu time    0.0015: real time    0.0015
    CHARGE:  cpu time    0.2194: real time    0.2200
    MIXING:  cpu time    0.0021: real time    0.0022
    --------------------------------------------
      LOOP:  cpu time    8.8897: real time    8.9851

 eigenvalue-minimisations  :  4476
 total energy-change (2. order) :-0.1986188E+00  (-0.1980290E+00)
 number of electron     503.9998406 magnetization 
 augmentation part      191.2623524 magnetization 

 DIPCOR: dipole corrections for dipol
 direction  3 min pos     1,
 dipolmoment           0.000000      0.000000      0.000000 electrons x Angstroem
 Tr[quadrupol]    -10271.437411

 energy correction for charged system         0.000000 eV
 dipol+quadrupol energy correction           -0.000000 eV
 added-field ion interaction          0.000000 eV  (added to PSCEN)


 Broyden mixing:
  rms(total) = 0.62243E+01    rms(broyden)= 0.62242E+01
  rms(prec ) = 0.63315E+01
  weight for this iteration     100.00

 Free energy of the ion-electron system (eV)
  ---------------------------------------------------
  alpha Z        PSCENC =       805.86936429
  Ewald energy   TEWEN  =    200155.64140271
  -Hartree energ DENC   =   -242569.47548890
  -exchange      EXHF   =         0.00000000
  -V(xc)+E(xc)   XCENC  =      -327.63101082
  PAW double counting   =     40340.05962942   -38292.62782345
  entropy T*S    EENTRO =        -0.20877457
  eigenvalues    EBANDS =     -1977.71137777
  atomic energy  EATOM  =     41659.78587232
  Solvation  Ediel_sol  =         0.00000000
  ---------------------------------------------------
  free energy    TOTEN  =      -206.29820677 eV

  energy without entropy =     -206.08943220  energy(sigma->0) =     -206.19381949


--------------------------------------------------------------------------------------------------------




----------------------------------------- Iteration    1(   6)  ---------------------------------------


    POTLOK:  cpu time    0.0414: real time    0.0417
    SETDIJ:  cpu time    0.0053: real time    0.0058
    EDDIAG:  cpu time    1.2785: real time    1.2821
  RMM-DIIS:  cpu time    3.4357: real time    3.4464
    ORTHCH:  cpu time    0.3544: real time    0.3554
       DOS:  cpu time    0.0014: real time    0.0014
    CHARGE:  cpu time    0.2177: real time    0.2183
    MIXING:  cpu time    0.0019: real time    0.0020
    --------------------------------------------
      LOOP:  cpu time    5.3370: real time    5.3548

 eigenvalue-minimisations  :  3679
 total energy-change (2. order) : 0.8769253E+01  (-0.8877047E+01)
 number of electron     503.9998414 magnetization 
 augmentation part      192.5077949 magnetization 

 DIPCOR: dipole corrections for dipol
 direction  3 min pos     1,
 dipolmoment           0.000000      0.000000     -0.002205 electrons x Angstroem
 Tr[quadrupol]    -10272.846285

 energy correction for charged system         0.000000 eV
 dipol+quadrupol energy correction           -0.000000 eV
 added-field ion interaction         -0.000000 eV  (added to PSCEN)


 Broyden mixing:
  rms(total) = 0.50846E+01    rms(broyden)= 0.50845E+01
  rms(prec ) = 0.52081E+01
  weight for this iteration     100.00

 eigenvalues of (default mixing * dielectric matrix)
  average eigenvalue GAMMA=   0.8931
  0.8931

 Free energy of the ion-electron system (eV)
  ---------------------------------------------------
  alpha Z        PSCENC =       805.86936411
  Ewald energy   TEWEN  =    200155.64140271
  -Hartree energ DENC   =   -242321.26218611
  -exchange      EXHF   =         0.00000000
  -V(xc)+E(xc)   XCENC  =      -340.19607409
  PAW double counting   =     43917.03064120   -41928.93102970
  entropy T*S    EENTRO =        -0.25239526
  eigenvalues    EBANDS =     -2145.21454889
  atomic energy  EATOM  =     41659.78587232
  Solvation  Ediel_sol  =         0.00000000
  ---------------------------------------------------
  free energy    TOTEN  =      -197.52895372 eV

  energy without entropy =     -197.27655846  energy(sigma->0) =     -197.40275609


--------------------------------------------------------------------------------------------------------




----------------------------------------- Iteration    1(   7)  ---------------------------------------


    POTLOK:  cpu time    0.0407: real time    0.0408
    SETDIJ:  cpu time    0.0052: real time    0.0052
    EDDIAG:  cpu time    1.2861: real time    1.2909
  RMM-DIIS:  cpu time    3.4368: real time    3.4458
    ORTHCH:  cpu time    0.3491: real time    0.3499
       DOS:  cpu time    0.0014: real time    0.0014
    CHARGE:  cpu time    0.2151: real time    0.2156
    MIXING:  cpu time    0.0020: real time    0.0020
    --------------------------------------------
      LOOP:  cpu time    5.3368: real time    5.3542

 eigenvalue-minimisations  :  3685
 total energy-change (2. order) :-0.2947393E+01  (-0.5324770E+01)
 number of electron     503.9998357 magnetization 
 augmentation part      197.4208679 magnetization 

 DIPCOR: dipole corrections for dipol
 direction  3 min pos     1,
 dipolmoment           0.000000      0.000000     -0.109563 electrons x Angstroem
 Tr[quadrupol]    -10271.027006

 energy correction for charged system         0.000000 eV
 dipol+quadrupol energy correction           -0.000423 eV
 added-field ion interaction         -0.000000 eV  (added to PSCEN)


 Broyden mixing:
  rms(total) = 0.35939E+01    rms(broyden)= 0.35937E+01
  rms(prec ) = 0.38341E+01
  weight for this iteration     100.00

 eigenvalues of (default mixing * dielectric matrix)
  average eigenvalue GAMMA=   1.1536
  1.8640  0.4431

 Free energy of the ion-electron system (eV)
  ---------------------------------------------------
  alpha Z        PSCENC =       805.86894129
  Ewald energy   TEWEN  =    200155.64140271
  -Hartree energ DENC   =   -242145.03217222
  -exchange      EXHF   =         0.00000000
  -V(xc)+E(xc)   XCENC  =      -342.63211251
  PAW double counting   =     45694.57752277   -43736.06731113
  entropy T*S    EENTRO =        -0.16448192
  eigenvalues    EBANDS =     -2292.45400835
  atomic energy  EATOM  =     41659.78587232
  Solvation  Ediel_sol  =         0.00000000
  ---------------------------------------------------
  free energy    TOTEN  =      -200.47634705 eV

  energy without entropy =     -200.31186513  energy(sigma->0) =     -200.39410609


--------------------------------------------------------------------------------------------------------




----------------------------------------- Iteration    1(   8)  ---------------------------------------


    POTLOK:  cpu time    0.0410: real time    0.0412
    SETDIJ:  cpu time    0.0059: real time    0.0059
    EDDIAG:  cpu time    1.2826: real time    1.2894
  RMM-DIIS:  cpu time    3.4659: real time    3.4745
    ORTHCH:  cpu time    0.3483: real time    0.3491
       DOS:  cpu time    0.0013: real time    0.0013
    CHARGE:  cpu time    0.2174: real time    0.2180
    MIXING:  cpu time    0.0019: real time    0.0019
    --------------------------------------------
      LOOP:  cpu time    5.3648: real time    5.3852

 eigenvalue-minimisations  :  3679
 total energy-change (2. order) :-0.1247554E+01  (-0.5009325E+01)
 number of electron     503.9998346 magnetization 
 augmentation part      198.2371872 magnetization 

 DIPCOR: dipole corrections for dipol
 direction  3 min pos     1,
 dipolmoment           0.000000      0.000000      0.514198 electrons x Angstroem
 Tr[quadrupol]    -10273.797104

 energy correction for charged system         0.000000 eV
 dipol+quadrupol energy correction           -0.009317 eV
 added-field ion interaction         -0.000000 eV  (added to PSCEN)


 Broyden mixing:
  rms(total) = 0.27084E+01    rms(broyden)= 0.27081E+01
  rms(prec ) = 0.30026E+01
  weight for this iteration     100.00

 eigenvalues of (default mixing * dielectric matrix)
  average eigenvalue GAMMA=   1.0516
  2.2599  0.4973  0.3976

 Free energy of the ion-electron system (eV)
  ---------------------------------------------------
  alpha Z        PSCENC =       805.86004754
  Ewald energy   TEWEN  =    200155.64140271
  -Hartree energ DENC   =   -242183.90829894
  -exchange      EXHF   =         0.00000000
  -V(xc)+E(xc)   XCENC  =      -344.66409088
  PAW double counting   =     48105.68004762   -46177.67497196
  entropy T*S    EENTRO =        -0.23387614
  eigenvalues    EBANDS =     -2222.21003373
  atomic energy  EATOM  =     41659.78587232
  Solvation  Ediel_sol  =         0.00000000
  ---------------------------------------------------
  free energy    TOTEN  =      -201.72390146 eV

  energy without entropy =     -201.49002532  energy(sigma->0) =     -201.60696339


--------------------------------------------------------------------------------------------------------




----------------------------------------- Iteration    1(   9)  ---------------------------------------


    POTLOK:  cpu time    0.0402: real time    0.0403
    SETDIJ:  cpu time    0.0052: real time    0.0060
    EDDIAG:  cpu time    1.2774: real time    1.2811
  RMM-DIIS:  cpu time    3.4716: real time    3.4821
    ORTHCH:  cpu time    0.3472: real time    0.3485
       DOS:  cpu time    0.0013: real time    0.0014
    CHARGE:  cpu time    0.2205: real time    0.2211
    MIXING:  cpu time    0.0021: real time    0.0021
    --------------------------------------------
      LOOP:  cpu time    5.3662: real time    5.3856

 eigenvalue-minimisations  :  3679
 total energy-change (2. order) : 0.5232351E+01  (-0.1678557E+01)
 number of electron     503.9998354 magnetization 
 augmentation part      197.5197587 magnetization 

 DIPCOR: dipole corrections for dipol
 direction  3 min pos     1,
 dipolmoment           0.000000      0.000000     -0.690918 electrons x Angstroem
 Tr[quadrupol]    -10274.303648

 energy correction for charged system         0.000000 eV
 dipol+quadrupol energy correction           -0.016821 eV
 added-field ion interaction          0.000000 eV  (added to PSCEN)


 Broyden mixing:
  rms(total) = 0.20658E+01    rms(broyden)= 0.20655E+01
  rms(prec ) = 0.25526E+01
  weight for this iteration     100.00

 eigenvalues of (default mixing * dielectric matrix)
  average eigenvalue GAMMA=   0.8923
  2.3042  0.4871  0.3890  0.3890

 Free energy of the ion-electron system (eV)
  ---------------------------------------------------
  alpha Z        PSCENC =       805.85254313
  Ewald energy   TEWEN  =    200155.64140271
  -Hartree energ DENC   =   -242207.61545027
  -exchange      EXHF   =         0.00000000
  -V(xc)+E(xc)   XCENC  =      -344.97408408
  PAW double counting   =     49113.14421789   -47195.79330309
  entropy T*S    EENTRO =        -0.20216058
  eigenvalues    EBANDS =     -2182.33058857
  atomic energy  EATOM  =     41659.78587232
  Solvation  Ediel_sol  =         0.00000000
  ---------------------------------------------------
  free energy    TOTEN  =      -196.49155053 eV

  energy without entropy =     -196.28938996  energy(sigma->0) =     -196.39047025


--------------------------------------------------------------------------------------------------------




----------------------------------------- Iteration    1(  10)  ---------------------------------------


    POTLOK:  cpu time    0.0398: real time    0.0403
    SETDIJ:  cpu time    0.0054: real time    0.0055
    EDDIAG:  cpu time    1.2725: real time    1.2774
  RMM-DIIS:  cpu time    3.4789: real time    3.4873
    ORTHCH:  cpu time    0.3482: real time    0.3490
       DOS:  cpu time    0.0014: real time    0.0014
    CHARGE:  cpu time    0.2154: real time    0.2159
    MIXING:  cpu time    0.0022: real time    0.0022
    --------------------------------------------
      LOOP:  cpu time    5.3644: real time    5.3817

 eigenvalue-minimisations  :  3682
 total energy-change (2. order) : 0.4552326E+01  (-0.9536944E+00)
 number of electron     503.9998355 magnetization 
 augmentation part      197.9562599 magnetization 

 DIPCOR: dipole corrections for dipol
 direction  3 min pos     1,
 dipolmoment           0.000000      0.000000      0.397815 electrons x Angstroem
 Tr[quadrupol]    -10274.527571

 energy correction for charged system         0.000000 eV
 dipol+quadrupol energy correction           -0.005577 eV
 added-field ion interaction         -0.000000 eV  (added to PSCEN)


 Broyden mixing:
  rms(total) = 0.12297E+01    rms(broyden)= 0.12293E+01
  rms(prec ) = 0.14961E+01
  weight for this iteration     100.00

 eigenvalues of (default mixing * dielectric matrix)
  average eigenvalue GAMMA=   0.8261
  2.2896  0.6014  0.6014  0.4268  0.2112

 Free energy of the ion-electron system (eV)
  ---------------------------------------------------
  alpha Z        PSCENC =       805.86378775
  Ewald energy   TEWEN  =    200155.64140271
  -Hartree energ DENC   =   -242221.05462927
  -exchange      EXHF   =         0.00000000
  -V(xc)+E(xc)   XCENC  =      -344.87429174
  PAW double counting   =     49241.20665339   -47324.85722608
  entropy T*S    EENTRO =        -0.19184835
  eigenvalues    EBANDS =     -2163.45894569
  atomic energy  EATOM  =     41659.78587232
  Solvation  Ediel_sol  =         0.00000000
  ---------------------------------------------------
  free energy    TOTEN  =      -191.93922496 eV

  energy without entropy =     -191.74737661  energy(sigma->0) =     -191.84330078


--------------------------------------------------------------------------------------------------------




----------------------------------------- Iteration    1(  11)  ---------------------------------------


    POTLOK:  cpu time    0.0398: real time    0.0399
    SETDIJ:  cpu time    0.0051: real time    0.0051
    EDDIAG:  cpu time    1.2728: real time    1.2759
  RMM-DIIS:  cpu time    3.4551: real time    3.4634
    ORTHCH:  cpu time    0.3479: real time    0.3488
       DOS:  cpu time    0.0013: real time    0.0013
    CHARGE:  cpu time    0.2147: real time    0.2152
    MIXING:  cpu time    0.0024: real time    0.0024
    --------------------------------------------
      LOOP:  cpu time    5.3397: real time    5.3545

 eigenvalue-minimisations  :  3681
 total energy-change (2. order) : 0.2081194E+01  (-0.3946685E+00)
 number of electron     503.9998357 magnetization 
 augmentation part      197.5455085 magnetization 

 DIPCOR: dipole corrections for dipol
 direction  3 min pos     1,
 dipolmoment           0.000000      0.000000     -0.065371 electrons x Angstroem
 Tr[quadrupol]    -10274.625015

 energy correction for charged system         0.000000 eV
 dipol+quadrupol energy correction           -0.000151 eV
 added-field ion interaction         -0.000000 eV  (added to PSCEN)


 Broyden mixing:
  rms(total) = 0.81510E+00    rms(broyden)= 0.81489E+00
  rms(prec ) = 0.90096E+00
  weight for this iteration     100.00

 eigenvalues of (default mixing * dielectric matrix)
  average eigenvalue GAMMA=   0.7574
  2.2787  0.7491  0.4734  0.4734  0.3471  0.2228

 Free energy of the ion-electron system (eV)
  ---------------------------------------------------
  alpha Z        PSCENC =       805.86921371
  Ewald energy   TEWEN  =    200155.64140271
  -Hartree energ DENC   =   -242242.66519452
  -exchange      EXHF   =         0.00000000
  -V(xc)+E(xc)   XCENC  =      -344.40198409
  PAW double counting   =     49291.03318931   -47373.34044957
  entropy T*S    EENTRO =        -0.24419765
  eigenvalues    EBANDS =     -2141.53588306
  atomic energy  EATOM  =     41659.78587232
  Solvation  Ediel_sol  =         0.00000000
  ---------------------------------------------------
  free energy    TOTEN  =      -189.85803085 eV

  energy without entropy =     -189.61383320  energy(sigma->0) =     -189.73593202


--------------------------------------------------------------------------------------------------------




----------------------------------------- Iteration    1(  12)  ---------------------------------------


    POTLOK:  cpu time    0.0395: real time    0.0396
    SETDIJ:  cpu time    0.0051: real time    0.0051
    EDDIAG:  cpu time    1.2836: real time    1.2877
  RMM-DIIS:  cpu time    3.3950: real time    3.4892
    ORTHCH:  cpu time    0.3467: real time    0.3485
       DOS:  cpu time    0.0014: real time    0.0014
    CHARGE:  cpu time    0.2203: real time    0.2208
    MIXING:  cpu time    0.0025: real time    0.0025
    --------------------------------------------
      LOOP:  cpu time    5.2949: real time    5.3974

 eigenvalue-minimisations  :  3681
 total energy-change (2. order) : 0.6755580E+00  (-0.1306213E+00)
 number of electron     503.9998362 magnetization 
 augmentation part      197.2717298 magnetization 

 DIPCOR: dipole corrections for dipol
 direction  3 min pos     1,
 dipolmoment           0.000000      0.000000      0.094416 electrons x Angstroem
 Tr[quadrupol]    -10274.721060

 energy correction for charged system         0.000000 eV
 dipol+quadrupol energy correction           -0.000314 eV
 added-field ion interaction          0.000000 eV  (added to PSCEN)


 Broyden mixing:
  rms(total) = 0.47756E+00    rms(broyden)= 0.47743E+00
  rms(prec ) = 0.54669E+00
  weight for this iteration     100.00

 eigenvalues of (default mixing * dielectric matrix)
  average eigenvalue GAMMA=   0.7544
  2.2774  0.8769  0.6249  0.6249  0.3360  0.3360  0.2047

 Free energy of the ion-electron system (eV)
  ---------------------------------------------------
  alpha Z        PSCENC =       805.86905017
  Ewald energy   TEWEN  =    200155.64140271
  -Hartree energ DENC   =   -242255.04181724
  -exchange      EXHF   =         0.00000000
  -V(xc)+E(xc)   XCENC  =      -344.13280016
  PAW double counting   =     49307.83908957   -47389.17095010
  entropy T*S    EENTRO =        -0.24334656
  eigenvalues    EBANDS =     -2129.72897350
  atomic energy  EATOM  =     41659.78587232
  Solvation  Ediel_sol  =         0.00000000
  ---------------------------------------------------
  free energy    TOTEN  =      -189.18247280 eV

  energy without entropy =     -188.93912624  energy(sigma->0) =     -189.06079952


--------------------------------------------------------------------------------------------------------




----------------------------------------- Iteration    1(  13)  ---------------------------------------


    POTLOK:  cpu time    0.0400: real time    0.0401
    SETDIJ:  cpu time    0.0056: real time    0.0056
    EDDIAG:  cpu time    1.2790: real time    1.2827
  RMM-DIIS:  cpu time    3.4286: real time    3.4368
    ORTHCH:  cpu time    0.3439: real time    0.3447
       DOS:  cpu time    0.0015: real time    0.0015
    CHARGE:  cpu time    0.2169: real time    0.2192
    MIXING:  cpu time    0.0027: real time    0.0027
    --------------------------------------------
      LOOP:  cpu time    5.3189: real time    5.3377

 eigenvalue-minimisations  :  3679
 total energy-change (2. order) : 0.8977769E-02  (-0.4336288E-01)
 number of electron     503.9998363 magnetization 
 augmentation part      197.0831404 magnetization 

 DIPCOR: dipole corrections for dipol
 direction  3 min pos     1,
 dipolmoment           0.000000      0.000000     -0.035848 electrons x Angstroem
 Tr[quadrupol]    -10275.038936

 energy correction for charged system         0.000000 eV
 dipol+quadrupol energy correction           -0.000045 eV
 added-field ion interaction          0.000000 eV  (added to PSCEN)


 Broyden mixing:
  rms(total) = 0.44024E+00    rms(broyden)= 0.44016E+00
  rms(prec ) = 0.48783E+00
  weight for this iteration     100.00

 eigenvalues of (default mixing * dielectric matrix)
  average eigenvalue GAMMA=   0.7481
  2.2637  0.9758  0.7839  0.7839  0.3424  0.3424  0.2947  0.1978

 Free energy of the ion-electron system (eV)
  ---------------------------------------------------
  alpha Z        PSCENC =       805.86931900
  Ewald energy   TEWEN  =    200155.64140271
  -Hartree energ DENC   =   -242272.62936556
  -exchange      EXHF   =         0.00000000
  -V(xc)+E(xc)   XCENC  =      -343.91477231
  PAW double counting   =     49328.16639179   -47408.56194208
  entropy T*S    EENTRO =        -0.25563287
  eigenvalues    EBANDS =     -2113.27476804
  atomic energy  EATOM  =     41659.78587232
  Solvation  Ediel_sol  =         0.00000000
  ---------------------------------------------------
  free energy    TOTEN  =      -189.17349503 eV

  energy without entropy =     -188.91786216  energy(sigma->0) =     -189.04567859


--------------------------------------------------------------------------------------------------------




----------------------------------------- Iteration    1(  14)  ---------------------------------------


    POTLOK:  cpu time    0.0402: real time    0.0411
    SETDIJ:  cpu time    0.0054: real time    0.0060
    EDDIAG:  cpu time    1.2764: real time    1.2821
  RMM-DIIS:  cpu time    3.4643: real time    3.4735
    ORTHCH:  cpu time    0.3443: real time    0.3451
       DOS:  cpu time    0.0013: real time    0.0013
    CHARGE:  cpu time    0.2151: real time    0.2156
    MIXING:  cpu time    0.0028: real time    0.0028
    --------------------------------------------
      LOOP:  cpu time    5.3505: real time    5.3713

 eigenvalue-minimisations  :  3682
 total energy-change (2. order) : 0.5479069E-01  (-0.2505591E-01)
 number of electron     503.9998363 magnetization 
 augmentation part      197.0004793 magnetization 

 DIPCOR: dipole corrections for dipol
 direction  3 min pos     1,
 dipolmoment           0.000000      0.000000     -0.016283 electrons x Angstroem
 Tr[quadrupol]    -10275.187789

 energy correction for charged system         0.000000 eV
 dipol+quadrupol energy correction           -0.000009 eV
 added-field ion interaction          0.000000 eV  (added to PSCEN)


 Broyden mixing:
  rms(total) = 0.39766E+00    rms(broyden)= 0.39757E+00
  rms(prec ) = 0.44652E+00
  weight for this iteration     100.00

 eigenvalues of (default mixing * dielectric matrix)
  average eigenvalue GAMMA=   0.7313
  2.2642  0.9436  0.9436  0.9013  0.3967  0.3967  0.3256  0.2130  0.1970

 Free energy of the ion-electron system (eV)
  ---------------------------------------------------
  alpha Z        PSCENC =       805.86935494
  Ewald energy   TEWEN  =    200155.64140271
  -Hartree energ DENC   =   -242282.52311092
  -exchange      EXHF   =         0.00000000
  -V(xc)+E(xc)   XCENC  =      -343.72616527
  PAW double counting   =     49336.29446618   -47415.81501396
  entropy T*S    EENTRO =        -0.25280602
  eigenvalues    EBANDS =     -2104.39270432
  atomic energy  EATOM  =     41659.78587232
  Solvation  Ediel_sol  =         0.00000000
  ---------------------------------------------------
  free energy    TOTEN  =      -189.11870434 eV

  energy without entropy =     -188.86589832  energy(sigma->0) =     -188.99230133


--------------------------------------------------------------------------------------------------------




----------------------------------------- Iteration    1(  15)  ---------------------------------------


    POTLOK:  cpu time    0.0406: real time    0.0408
    SETDIJ:  cpu time    0.0052: real time    0.0052
    EDDIAG:  cpu time    1.2768: real time    1.2809
  RMM-DIIS:  cpu time    3.5180: real time    3.5265
    ORTHCH:  cpu time    0.3431: real time    0.3442
       DOS:  cpu time    0.0014: real time    0.0014
    CHARGE:  cpu time    0.2145: real time    0.2150
    MIXING:  cpu time    0.0029: real time    0.0029
    --------------------------------------------
      LOOP:  cpu time    5.4030: real time    5.4204

 eigenvalue-minimisations  :  3679
 total energy-change (2. order) : 0.7752853E-01  (-0.1386007E-01)
 number of electron     503.9998364 magnetization 
 augmentation part      197.0228042 magnetization 

 DIPCOR: dipole corrections for dipol
 direction  3 min pos     1,
 dipolmoment           0.000000      0.000000     -0.021964 electrons x Angstroem
 Tr[quadrupol]    -10275.345023

 energy correction for charged system         0.000000 eV
 dipol+quadrupol energy correction           -0.000017 eV
 added-field ion interaction          0.000000 eV  (added to PSCEN)


 Broyden mixing:
  rms(total) = 0.22220E+00    rms(broyden)= 0.22215E+00
  rms(prec ) = 0.24369E+00
  weight for this iteration     100.00

 eigenvalues of (default mixing * dielectric matrix)
  average eigenvalue GAMMA=   0.7693
  2.2459  1.3461  1.3461  0.6575  0.6575  0.3681  0.3681  0.3061  0.1987  0.1987

 Free energy of the ion-electron system (eV)
  ---------------------------------------------------
  alpha Z        PSCENC =       805.86934729
  Ewald energy   TEWEN  =    200155.64140271
  -Hartree energ DENC   =   -242289.04255063
  -exchange      EXHF   =         0.00000000
  -V(xc)+E(xc)   XCENC  =      -343.65831498
  PAW double counting   =     49341.45475633   -47420.56918665
  entropy T*S    EENTRO =        -0.25936452
  eigenvalues    EBANDS =     -2098.26313766
  atomic energy  EATOM  =     41659.78587232
  Solvation  Ediel_sol  =         0.00000000
  ---------------------------------------------------
  free energy    TOTEN  =      -189.04117581 eV

  energy without entropy =     -188.78181129  energy(sigma->0) =     -188.91149355


--------------------------------------------------------------------------------------------------------




----------------------------------------- Iteration    1(  16)  ---------------------------------------


    POTLOK:  cpu time    0.0401: real time    0.0410
    SETDIJ:  cpu time    0.0047: real time    0.0051
    EDDIAG:  cpu time    1.2798: real time    1.2829
  RMM-DIIS:  cpu time    3.4892: real time    3.4984
    ORTHCH:  cpu time    0.3428: real time    0.3436
       DOS:  cpu time    0.0014: real time    0.0014
    CHARGE:  cpu time    0.2161: real time    0.2167
    MIXING:  cpu time    0.0029: real time    0.0029
    --------------------------------------------
      LOOP:  cpu time    5.3777: real time    5.3945

 eigenvalue-minimisations  :  3681
 total energy-change (2. order) : 0.1670017E-01  (-0.1025412E-01)
 number of electron     503.9998362 magnetization 
 augmentation part      197.0748738 magnetization 

 DIPCOR: dipole corrections for dipol
 direction  3 min pos     1,
 dipolmoment           0.000000      0.000000      0.010801 electrons x Angstroem
 Tr[quadrupol]    -10275.646614

 energy correction for charged system         0.000000 eV
 dipol+quadrupol energy correction           -0.000004 eV
 added-field ion interaction          0.000000 eV  (added to PSCEN)


 Broyden mixing:
  rms(total) = 0.18414E+00    rms(broyden)= 0.18409E+00
  rms(prec ) = 0.20721E+00
  weight for this iteration     100.00

 eigenvalues of (default mixing * dielectric matrix)
  average eigenvalue GAMMA=   0.7709
  2.1623  1.6805  1.5418  0.6424  0.6424  0.3808  0.3808  0.3380  0.3143  0.2078
  0.1888

 Free energy of the ion-electron system (eV)
  ---------------------------------------------------
  alpha Z        PSCENC =       805.86936018
  Ewald energy   TEWEN  =    200155.64140271
  -Hartree energ DENC   =   -242300.91400674
  -exchange      EXHF   =         0.00000000
  -V(xc)+E(xc)   XCENC  =      -343.58638112
  PAW double counting   =     49343.77989210   -47422.27629170
  entropy T*S    EENTRO =        -0.26959678
  eigenvalues    EBANDS =     -2087.05472659
  atomic energy  EATOM  =     41659.78587232
  Solvation  Ediel_sol  =         0.00000000
  ---------------------------------------------------
  free energy    TOTEN  =      -189.02447564 eV

  energy without entropy =     -188.75487886  energy(sigma->0) =     -188.88967725


--------------------------------------------------------------------------------------------------------




----------------------------------------- Iteration    1(  17)  ---------------------------------------


    POTLOK:  cpu time    0.0400: real time    0.0400
    SETDIJ:  cpu time    0.0051: real time    0.0052
    EDDIAG:  cpu time    1.2709: real time    1.2740
  RMM-DIIS:  cpu time    3.4839: real time    3.4924
    ORTHCH:  cpu time    0.3428: real time    0.3437
       DOS:  cpu time    0.0014: real time    0.0014
    CHARGE:  cpu time    0.2168: real time    0.2173
    MIXING:  cpu time    0.0030: real time    0.0030
    --------------------------------------------
      LOOP:  cpu time    5.3647: real time    5.3797

 eigenvalue-minimisations  :  3679
 total energy-change (2. order) : 0.1976321E-01  (-0.5002561E-02)
 number of electron     503.9998363 magnetization 
 augmentation part      197.0854965 magnetization 

 DIPCOR: dipole corrections for dipol
 direction  3 min pos     1,
 dipolmoment           0.000000      0.000000      0.010023 electrons x Angstroem
 Tr[quadrupol]    -10275.790509

 energy correction for charged system         0.000000 eV
 dipol+quadrupol energy correction           -0.000004 eV
 added-field ion interaction         -0.000000 eV  (added to PSCEN)


 Broyden mixing:
  rms(total) = 0.11736E+00    rms(broyden)= 0.11733E+00
  rms(prec ) = 0.13759E+00
  weight for this iteration     100.00

 eigenvalues of (default mixing * dielectric matrix)
  average eigenvalue GAMMA=   0.7643
  2.1314  2.1314  1.3656  0.6448  0.6448  0.5291  0.3801  0.3801  0.3241  0.2485
  0.2020  0.1901

 Free energy of the ion-electron system (eV)
  ---------------------------------------------------
  alpha Z        PSCENC =       805.86936075
  Ewald energy   TEWEN  =    200155.64140271
  -Hartree energ DENC   =   -242307.00602477
  -exchange      EXHF   =         0.00000000
  -V(xc)+E(xc)   XCENC  =      -343.52427468
  PAW double counting   =     49345.29556335   -47423.40312764
  entropy T*S    EENTRO =        -0.26032322
  eigenvalues    EBANDS =     -2081.40316124
  atomic energy  EATOM  =     41659.78587232
  Solvation  Ediel_sol  =         0.00000000
  ---------------------------------------------------
  free energy    TOTEN  =      -189.00471243 eV

  energy without entropy =     -188.74438921  energy(sigma->0) =     -188.87455082


--------------------------------------------------------------------------------------------------------




----------------------------------------- Iteration    1(  18)  ---------------------------------------


    POTLOK:  cpu time    0.0399: real time    0.0400
    SETDIJ:  cpu time    0.0052: real time    0.0052
    EDDIAG:  cpu time    1.2732: real time    1.2762
  RMM-DIIS:  cpu time    3.4653: real time    3.4750
    ORTHCH:  cpu time    0.3536: real time    0.3544
       DOS:  cpu time    0.0014: real time    0.0014
    CHARGE:  cpu time    0.2138: real time    0.2143
    MIXING:  cpu time    0.0032: real time    0.0032
    --------------------------------------------
      LOOP:  cpu time    5.3561: real time    5.3724

 eigenvalue-minimisations  :  3680
 total energy-change (2. order) : 0.1033588E-01  (-0.1120994E-02)
 number of electron     503.9998363 magnetization 
 augmentation part      197.0794835 magnetization 

 DIPCOR: dipole corrections for dipol
 direction  3 min pos     1,
 dipolmoment           0.000000      0.000000      0.002627 electrons x Angstroem
 Tr[quadrupol]    -10275.905994

 energy correction for charged system         0.000000 eV
 dipol+quadrupol energy correction           -0.000000 eV
 added-field ion interaction          0.000000 eV  (added to PSCEN)


 Broyden mixing:
  rms(total) = 0.59163E-01    rms(broyden)= 0.59137E-01
  rms(prec ) = 0.68206E-01
  weight for this iteration     100.00

 eigenvalues of (default mixing * dielectric matrix)
  average eigenvalue GAMMA=   0.7481
  2.2204  2.2204  1.3294  0.7115  0.7115  0.5574  0.3736  0.3736  0.3442  0.2593
  0.1890  0.2047  0.2300

 Free energy of the ion-electron system (eV)
  ---------------------------------------------------
  alpha Z        PSCENC =       805.86936404
  Ewald energy   TEWEN  =    200155.64140271
  -Hartree energ DENC   =   -242311.45174543
  -exchange      EXHF   =         0.00000000
  -V(xc)+E(xc)   XCENC  =      -343.50207393
  PAW double counting   =     49348.15411415   -47426.15559117
  entropy T*S    EENTRO =        -0.26793304
  eigenvalues    EBANDS =     -2077.06778620
  atomic energy  EATOM  =     41659.78587232
  Solvation  Ediel_sol  =         0.00000000
  ---------------------------------------------------
  free energy    TOTEN  =      -188.99437655 eV

  energy without entropy =     -188.72644351  energy(sigma->0) =     -188.86041003


--------------------------------------------------------------------------------------------------------




----------------------------------------- Iteration    1(  19)  ---------------------------------------


    POTLOK:  cpu time    0.0401: real time    0.0402
    SETDIJ:  cpu time    0.0052: real time    0.0052
    EDDIAG:  cpu time    1.2698: real time    1.2729
  RMM-DIIS:  cpu time    3.4554: real time    3.4640
    ORTHCH:  cpu time    0.3427: real time    0.3435
       DOS:  cpu time    0.0015: real time    0.0015
    CHARGE:  cpu time    0.2134: real time    0.2140
    MIXING:  cpu time    0.0033: real time    0.0033
    --------------------------------------------
      LOOP:  cpu time    5.3320: real time    5.3469

 eigenvalue-minimisations  :  3680
 total energy-change (2. order) : 0.2952295E-02  (-0.2903642E-03)
 number of electron     503.9998363 magnetization 
 augmentation part      197.0672218 magnetization 

 DIPCOR: dipole corrections for dipol
 direction  3 min pos     1,
 dipolmoment           0.000000      0.000000     -0.002090 electrons x Angstroem
 Tr[quadrupol]    -10275.996274

 energy correction for charged system         0.000000 eV
 dipol+quadrupol energy correction           -0.000000 eV
 added-field ion interaction          0.000000 eV  (added to PSCEN)


 Broyden mixing:
  rms(total) = 0.34393E-01    rms(broyden)= 0.34380E-01
  rms(prec ) = 0.38961E-01
  weight for this iteration     100.00

 eigenvalues of (default mixing * dielectric matrix)
  average eigenvalue GAMMA=   0.7601
  2.3423  2.3423  1.2420  0.8433  0.8433  0.4925  0.4925  0.4272  0.4272  0.2968
  0.2968  0.1882  0.2037  0.2037

 Free energy of the ion-electron system (eV)
  ---------------------------------------------------
  alpha Z        PSCENC =       805.86936413
  Ewald energy   TEWEN  =    200155.64140271
  -Hartree energ DENC   =   -242315.04522270
  -exchange      EXHF   =         0.00000000
  -V(xc)+E(xc)   XCENC  =      -343.48798291
  PAW double counting   =     49349.69056890   -47427.63187518
  entropy T*S    EENTRO =        -0.26555088
  eigenvalues    EBANDS =     -2073.54800065
  atomic energy  EATOM  =     41659.78587232
  Solvation  Ediel_sol  =         0.00000000
  ---------------------------------------------------
  free energy    TOTEN  =      -188.99142426 eV

  energy without entropy =     -188.72587338  energy(sigma->0) =     -188.85864882


--------------------------------------------------------------------------------------------------------




----------------------------------------- Iteration    1(  20)  ---------------------------------------


    POTLOK:  cpu time    0.0401: real time    0.0402
    SETDIJ:  cpu time    0.0051: real time    0.0051
    EDDIAG:  cpu time    1.2699: real time    1.3241
  RMM-DIIS:  cpu time    3.4406: real time    3.4713
    ORTHCH:  cpu time    0.3422: real time    0.3439
       DOS:  cpu time    0.0013: real time    0.0013
    CHARGE:  cpu time    0.2163: real time    0.2169
    MIXING:  cpu time    0.0035: real time    0.0035
    --------------------------------------------
      LOOP:  cpu time    5.3196: real time    5.4084

 eigenvalue-minimisations  :  3680
 total energy-change (2. order) : 0.6482727E-03  (-0.2086066E-03)
 number of electron     503.9998363 magnetization 
 augmentation part      197.0504482 magnetization 

 DIPCOR: dipole corrections for dipol
 direction  3 min pos     1,
 dipolmoment           0.000000      0.000000     -0.003953 electrons x Angstroem
 Tr[quadrupol]    -10276.101601

 energy correction for charged system         0.000000 eV
 dipol+quadrupol energy correction           -0.000001 eV
 added-field ion interaction         -0.000000 eV  (added to PSCEN)


 Broyden mixing:
  rms(total) = 0.29535E-01    rms(broyden)= 0.29529E-01
  rms(prec ) = 0.33883E-01
  weight for this iteration     100.00

 eigenvalues of (default mixing * dielectric matrix)
  average eigenvalue GAMMA=   0.7679
  2.4288  2.4288  1.1748  1.0082  1.0082  0.5891  0.5891  0.4197  0.3601  0.3601
  0.3107  0.2573  0.2050  0.1916  0.1875

 Free energy of the ion-electron system (eV)
  ---------------------------------------------------
  alpha Z        PSCENC =       805.86936374
  Ewald energy   TEWEN  =    200155.64140271
  -Hartree energ DENC   =   -242319.49337898
  -exchange      EXHF   =         0.00000000
  -V(xc)+E(xc)   XCENC  =      -343.46401506
  PAW double counting   =     49349.83139596   -47427.69674315
  entropy T*S    EENTRO =        -0.26707044
  eigenvalues    EBANDS =     -2069.19760308
  atomic energy  EATOM  =     41659.78587232
  Solvation  Ediel_sol  =         0.00000000
  ---------------------------------------------------
  free energy    TOTEN  =      -188.99077599 eV

  energy without entropy =     -188.72370554  energy(sigma->0) =     -188.85724076


--------------------------------------------------------------------------------------------------------




----------------------------------------- Iteration    1(  21)  ---------------------------------------


    POTLOK:  cpu time    0.0400: real time    0.0401
    SETDIJ:  cpu time    0.0052: real time    0.0052
    EDDIAG:  cpu time    1.2711: real time    1.2748
  RMM-DIIS:  cpu time    3.4451: real time    3.4543
    ORTHCH:  cpu time    0.3424: real time    0.3433
       DOS:  cpu time    0.0014: real time    0.0014
    CHARGE:  cpu time    0.2176: real time    0.2181
    MIXING:  cpu time    0.0037: real time    0.0037
    --------------------------------------------
      LOOP:  cpu time    5.3272: real time    5.3441

 eigenvalue-minimisations  :  3681
 total energy-change (2. order) : 0.7068234E-03  (-0.1027605E-03)
 number of electron     503.9998363 magnetization 
 augmentation part      197.0442706 magnetization 

 DIPCOR: dipole corrections for dipol
 direction  3 min pos     1,
 dipolmoment           0.000000      0.000000     -0.004979 electrons x Angstroem
 Tr[quadrupol]    -10276.208212

 energy correction for charged system         0.000000 eV
 dipol+quadrupol energy correction           -0.000001 eV
 added-field ion interaction          0.000000 eV  (added to PSCEN)


 Broyden mixing:
  rms(total) = 0.13027E-01    rms(broyden)= 0.13022E-01
  rms(prec ) = 0.15257E-01
  weight for this iteration     100.00

 eigenvalues of (default mixing * dielectric matrix)
  average eigenvalue GAMMA=   0.7865
  2.5314  2.3178  1.4214  1.4214  0.7925  0.7925  0.5422  0.5422  0.3846  0.3846
  0.3183  0.2929  0.2569  0.2032  0.1944  0.1872

 Free energy of the ion-electron system (eV)
  ---------------------------------------------------
  alpha Z        PSCENC =       805.86936341
  Ewald energy   TEWEN  =    200155.64140271
  -Hartree energ DENC   =   -242323.65126476
  -exchange      EXHF   =         0.00000000
  -V(xc)+E(xc)   XCENC  =      -343.45055182
  PAW double counting   =     49350.41714995   -47428.28329920
  entropy T*S    EENTRO =        -0.26648232
  eigenvalues    EBANDS =     -2065.05225945
  atomic energy  EATOM  =     41659.78587232
  Solvation  Ediel_sol  =         0.00000000
  ---------------------------------------------------
  free energy    TOTEN  =      -188.99006916 eV

  energy without entropy =     -188.72358685  energy(sigma->0) =     -188.85682800


--------------------------------------------------------------------------------------------------------




----------------------------------------- Iteration    1(  22)  ---------------------------------------


    POTLOK:  cpu time    0.0405: real time    0.0405
    SETDIJ:  cpu time    0.0048: real time    0.0052
    EDDIAG:  cpu time    1.2740: real time    1.2771
  RMM-DIIS:  cpu time    3.4511: real time    3.4596
    ORTHCH:  cpu time    0.3417: real time    0.3433
       DOS:  cpu time    0.0014: real time    0.0014
    CHARGE:  cpu time    0.2138: real time    0.2143
    MIXING:  cpu time    0.0039: real time    0.0039
    --------------------------------------------
      LOOP:  cpu time    5.3318: real time    5.3480

 eigenvalue-minimisations  :  3681
 total energy-change (2. order) :-0.1567111E-03  (-0.3360101E-04)
 number of electron     503.9998363 magnetization 
 augmentation part      197.0466727 magnetization 

 DIPCOR: dipole corrections for dipol
 direction  3 min pos     1,
 dipolmoment           0.000000      0.000000     -0.001288 electrons x Angstroem
 Tr[quadrupol]    -10276.307366

 energy correction for charged system         0.000000 eV
 dipol+quadrupol energy correction           -0.000000 eV
 added-field ion interaction          0.000000 eV  (added to PSCEN)


 Broyden mixing:
  rms(total) = 0.10303E-01    rms(broyden)= 0.10301E-01
  rms(prec ) = 0.12229E-01
  weight for this iteration     100.00

 eigenvalues of (default mixing * dielectric matrix)
  average eigenvalue GAMMA=   0.7874
  2.5791  2.1198  2.0029  1.3535  0.7849  0.7849  0.5851  0.5851  0.4034  0.4034
  0.3296  0.3296  0.2874  0.2521  0.2036  0.1938  0.1867

 Free energy of the ion-electron system (eV)
  ---------------------------------------------------
  alpha Z        PSCENC =       805.86936423
  Ewald energy   TEWEN  =    200155.64140271
  -Hartree energ DENC   =   -242327.34398626
  -exchange      EXHF   =         0.00000000
  -V(xc)+E(xc)   XCENC  =      -343.44427462
  PAW double counting   =     49350.84580599   -47428.78314130
  entropy T*S    EENTRO =        -0.26637680
  eigenvalues    EBANDS =     -2061.29489214
  atomic energy  EATOM  =     41659.78587232
  Solvation  Ediel_sol  =         0.00000000
  ---------------------------------------------------
  free energy    TOTEN  =      -188.99022587 eV

  energy without entropy =     -188.72384907  energy(sigma->0) =     -188.85703747


--------------------------------------------------------------------------------------------------------




----------------------------------------- Iteration    1(  23)  ---------------------------------------


    POTLOK:  cpu time    0.0406: real time    0.0409
    SETDIJ:  cpu time    0.0052: real time    0.0052
    EDDIAG:  cpu time    1.2713: real time    1.2759
  RMM-DIIS:  cpu time    3.4927: real time    3.5019
[...]
    275       1.7266      0.00000
    276       1.8419      0.00000
    277       2.1121      0.00000
    278       2.2508      0.00000
    279       2.3344      0.00000
    280       2.4150      0.00000
    281       2.5304      0.00000
    282       2.5490      0.00000
    283       2.6896      0.00000
    284       2.9389      0.00000
    285       3.1328      0.00000
    286       3.2111      0.00000
    287       3.5416      0.00000
    288       3.6508      0.00000
    289       3.7789      0.00000
    290       4.0255      0.00000
    291       4.0656      0.00000
    292       4.2224      0.00000
    293       4.4984      0.00000
    294       4.5370      0.00000
    295       4.5914      0.00000
    296       4.6261      0.00000
    297       4.7462      0.00000
    298       4.8012      0.00000
    299       4.8897      0.00000
    300       4.9353      0.00000
    301       4.9961      0.00000
    302       5.0505      0.00000
    303       5.0787      0.00000
    304       5.1549      0.00000
    305       5.2331      0.00000
    306       5.2659      0.00000


--------------------------------------------------------------------------------------------------------


 soft charge-density along one line, spin component           1
         0         1         2         3         4         5         6         7         8         9
 total charge-density along one line
 
 pseudopotential strength for first ion, spin component:           1
 -8.025  -0.001   0.001   0.002  -0.002  -8.172  -0.001   0.001
 -0.001  -7.946  -0.001  -0.001  -0.005  -0.001  -8.095  -0.001
  0.001  -0.001  -7.940  -0.000  -0.001   0.001  -0.001  -8.089
  0.002  -0.001  -0.000  -7.944  -0.002   0.002  -0.001  -0.000
 -0.002  -0.005  -0.001  -0.002  -8.022  -0.002  -0.005  -0.001
 -8.172  -0.001   0.001   0.002  -0.002  -8.303  -0.001   0.001
 -0.001  -8.095  -0.001  -0.001  -0.005  -0.001  -8.227  -0.001
  0.001  -0.001  -8.089  -0.000  -0.001   0.001  -0.001  -8.222
  0.002  -0.001  -0.000  -8.093  -0.002   0.002  -0.001  -0.000
 -0.002  -0.005  -0.001  -0.002  -8.169  -0.002  -0.004  -0.001
 -0.000  -0.002  -0.025   0.001  -0.000  -0.000  -0.002  -0.025
 -0.001  -0.003  -0.037   0.001  -0.000  -0.001  -0.003  -0.037
  0.002   0.004   0.003  -0.000   0.004   0.002   0.004   0.003
 -0.000  -0.004   0.006   0.001   0.000  -0.000  -0.004   0.006
 -0.005  -0.000  -0.001   0.004   0.002  -0.005  -0.000  -0.001
  0.002   0.004   0.003  -0.000   0.005   0.002   0.004   0.003
 -0.000  -0.005   0.007   0.001   0.000  -0.000  -0.005   0.006
 -0.006  -0.000  -0.002   0.004   0.002  -0.006  -0.000  -0.002
 total augmentation occupancy for first ion, spin component:           1
  4.169   0.032   0.115   0.084  -0.072  -2.367  -0.028  -0.108  -0.078   0.040   0.037   0.014   0.007   0.015   0.057   0.002
  0.032   4.082  -0.091   0.053   0.067  -0.029  -1.810   0.059  -0.047  -0.104   0.083  -0.016   0.161  -0.019   0.009  -0.004
  0.115  -0.091   4.309   0.105  -0.016  -0.109   0.059  -2.194  -0.091   0.014   0.990  -0.105  -0.041   0.206   0.030   0.005
  0.084   0.053   0.105   4.051  -0.023  -0.078  -0.047  -0.091  -1.773   0.006  -0.053   0.027   0.007   0.027   0.166  -0.001
 -0.072   0.067  -0.016  -0.023   4.299   0.040  -0.104   0.014   0.006  -2.462   0.003  -0.009  -0.011  -0.005  -0.045   0.006
 -2.367  -0.029  -0.109  -0.078   0.040   2.443   0.026   0.105   0.072  -0.014  -0.041  -0.006  -0.006  -0.013  -0.043  -0.000
 -0.028  -1.810   0.059  -0.047  -0.104   0.026   1.511  -0.035   0.040   0.131  -0.074   0.017  -0.152   0.018  -0.008   0.006
 -0.108   0.059  -2.194  -0.091   0.014   0.105  -0.035   2.025   0.081  -0.012  -0.925   0.126   0.029  -0.210  -0.024  -0.002
 -0.078  -0.047  -0.091  -1.773   0.006   0.072   0.040   0.081   1.471   0.007   0.047  -0.024  -0.006  -0.024  -0.157   0.000
  0.040  -0.104   0.014   0.006  -2.462  -0.014   0.131  -0.012   0.007   2.511  -0.003   0.008   0.001   0.003   0.034  -0.001
  0.037   0.083   0.990  -0.053   0.003  -0.041  -0.074  -0.925   0.047  -0.003   2.367  -0.490  -0.005  -0.118   0.006   0.000
  0.014  -0.016  -0.105   0.027  -0.009  -0.006   0.017   0.126  -0.024   0.008  -0.490   0.147   0.020   0.055  -0.010  -0.001
  0.007   0.161  -0.041   0.007  -0.011  -0.006  -0.152   0.029  -0.006   0.001  -0.005   0.020   0.183  -0.005  -0.004  -0.006
  0.015  -0.019   0.206   0.027  -0.005  -0.013   0.018  -0.210  -0.024   0.003  -0.118   0.055  -0.005   0.084   0.002   0.000
  0.057   0.009   0.030   0.166  -0.045  -0.043  -0.008  -0.024  -0.157   0.034   0.006  -0.010  -0.004   0.002   0.183   0.000
  0.002  -0.004   0.005  -0.001   0.006  -0.000   0.006  -0.002   0.000  -0.001   0.000  -0.001  -0.006   0.000   0.000   0.000
 -0.001  -0.005  -0.000   0.001   0.000   0.000   0.000   0.006   0.001  -0.000   0.008  -0.003   0.000  -0.003  -0.000  -0.000
 -0.007  -0.001  -0.003  -0.004   0.004   0.003   0.000   0.002   0.006  -0.002  -0.000   0.000   0.000  -0.000  -0.006  -0.000


------------------------ aborting loop because EDIFF is reached ----------------------------------------


    CHARGE:  cpu time    0.2203: real time    0.2208
    FORLOC:  cpu time    0.0158: real time    0.0159
    FORNL :  cpu time    1.3133: real time    1.3166
    FORCOR:  cpu time    0.0550: real time    0.0568
    FORHAR:  cpu time    0.0240: real time    0.0241
    MIXING:  cpu time    0.0027: real time    0.0027
    OFIELD:  cpu time    0.0000: real time    0.0000

 VOLUME and BASIS-vectors are now :
 -----------------------------------------------------------------------------
  energy-cutoff  :      400.00
  volume of cell :     2567.68
      direct lattice vectors                 reciprocal lattice vectors
    11.002581515  0.000000000  0.000000000     0.090887761 -0.052474073  0.000000000
     5.501290758  9.528515099  0.000000000     0.000000000  0.104948147  0.000000000
     0.000000000  0.000000000 24.491785094     0.000000000  0.000000000  0.040830017

  length of vectors
    11.002581515 11.002581515 24.491785094     0.104948147  0.104948147  0.040830017


 FORCES acting on ions
    electron-ion (+dipol)            ewald-force                    non-local-force                 convergence-correction
 -----------------------------------------------------------------------------------------------
   0.221E+00 -.798E+01 -.229E+04   -.570E+00 0.902E+01 0.229E+04   0.361E+00 -.105E+01 0.525E-01   -.612E-02 0.268E-02 0.635E-03
   -.289E+01 0.102E+01 -.233E+04   0.284E+01 -.121E+01 0.233E+04   0.527E-01 0.192E+00 -.211E+00   0.163E-02 0.238E-02 -.710E-02
   -.149E+02 -.116E+02 0.222E+04   0.156E+02 0.123E+02 -.222E+04   -.456E+00 -.473E+00 0.779E-01   -.464E-02 0.634E-03 0.236E-02
   -.165E+02 -.255E+01 -.228E+04   0.168E+02 0.288E+01 0.228E+04   -.350E+00 -.342E+00 -.209E-01   -.939E-02 0.755E-02 -.146E-02
   0.102E+01 -.914E+00 -.402E+01   -.156E+01 0.287E+00 0.517E+01   0.532E+00 0.619E+00 -.113E+01   0.338E-02 0.344E-02 -.993E-02
   0.394E+01 0.101E+02 0.222E+04   -.430E+01 -.110E+02 -.222E+04   0.256E+00 0.647E+00 -.609E-01   -.706E-02 -.346E-02 0.326E-02
   0.334E+01 0.160E+02 0.223E+04   -.329E+01 -.166E+02 -.223E+04   -.876E-01 0.327E+00 -.257E+00   -.528E-02 0.975E-02 -.267E-02
   0.132E+02 -.123E+02 0.223E+04   -.137E+02 0.129E+02 -.223E+04   0.274E+00 -.423E+00 -.220E-01   0.403E-02 -.584E-02 0.280E-02
   0.258E+01 -.809E+01 -.104E+02   -.275E+01 0.749E+01 0.989E+01   0.178E+00 0.596E+00 0.511E+00   0.685E-02 0.981E-03 -.594E-02
   0.523E+01 0.364E+01 -.690E+02   -.491E+01 -.254E+01 0.697E+02   -.331E+00 -.111E+01 -.661E+00   0.610E-02 0.922E-02 -.179E-01
   -.194E+01 0.798E+00 0.222E+04   0.195E+01 -.646E+00 -.222E+04   0.100E-01 -.124E+00 -.471E+00   -.569E-02 0.352E-02 0.669E-03
   0.363E+01 -.430E+00 0.201E+02   -.287E+01 0.103E+01 -.200E+02   -.738E+00 -.605E+00 -.908E-01   -.726E-02 0.721E-02 -.132E-01
   0.151E+01 -.199E+02 0.222E+04   -.150E+01 0.213E+02 -.222E+04   -.265E-01 -.894E+00 -.269E+00   0.563E-02 -.710E-02 0.343E-02
   0.705E+01 0.125E+02 -.228E+04   -.649E+01 -.130E+02 0.228E+04   -.568E+00 0.546E+00 -.796E-01   0.867E-02 -.542E-04 0.139E-02
   -.578E+01 0.150E+01 -.889E+01   0.507E+01 -.163E+01 0.842E+01   0.710E+00 0.122E+00 0.473E+00   -.326E-02 0.583E-03 -.101E-01
   -.122E+02 0.282E+01 -.335E+02   0.127E+02 -.327E+01 0.335E+02   -.404E+00 0.444E+00 -.890E-02   -.583E-02 0.256E-02 -.228E-02
   0.139E+02 0.681E+01 -.226E+04   -.147E+02 -.769E+01 0.226E+04   0.756E+00 0.868E+00 0.335E+00   -.111E-02 0.502E-02 -.495E-02
   -.878E+01 -.750E+01 -.220E+04   0.928E+01 0.735E+01 0.220E+04   -.505E+00 0.159E+00 0.524E+00   -.278E-02 -.129E-02 -.163E-01
   -.322E+01 0.768E+01 0.135E+02   0.372E+01 -.784E+01 -.134E+02   -.504E+00 0.152E+00 -.977E-01   0.730E-03 0.109E-02 -.990E-02
   0.185E+01 -.734E+01 0.107E+02   -.264E+01 0.724E+01 -.113E+02   0.777E+00 0.104E+00 0.595E+00   0.994E-02 -.400E-02 0.414E-02
   0.786E+01 -.178E+01 -.224E+04   -.833E+01 0.236E+01 0.224E+04   0.463E+00 -.588E+00 0.226E+00   0.620E-02 0.630E-03 0.481E-02
   0.316E+01 0.334E+01 0.222E+04   -.375E+01 -.363E+01 -.222E+04   0.431E+00 0.183E+00 0.169E+00   0.301E-02 0.673E-03 0.220E-02
   0.242E+01 -.475E+01 -.225E+04   -.243E+01 0.437E+01 0.225E+04   0.195E-02 0.386E+00 0.207E+00   -.233E-03 -.278E-02 -.961E-02
   -.145E+02 0.539E+01 0.222E+04   0.157E+02 -.577E+01 -.222E+04   -.923E+00 0.251E+00 -.859E-02   0.630E-02 0.317E-02 0.353E-02
   -.140E+00 -.102E+01 -.197E+04   0.366E+00 0.999E+00 0.196E+04   -.222E+00 0.556E-02 0.182E+01   -.212E-02 0.102E-01 -.136E-01
   -.388E+01 0.182E+01 0.565E+01   0.367E+01 -.234E+01 -.525E+01   0.206E+00 0.511E+00 -.380E+00   -.577E-02 0.344E-02 -.910E-02
   -.558E+01 -.322E+01 -.197E+04   0.561E+01 0.339E+01 0.197E+04   -.200E-01 -.179E+00 0.148E+01   -.923E-02 -.139E-02 -.901E-02
   0.942E+01 0.324E+01 -.200E+04   -.963E+01 -.292E+01 0.199E+04   0.216E+00 -.322E+00 0.171E+01   -.488E-02 0.279E-02 -.899E-02
   -.664E+01 0.587E+01 -.198E+04   0.662E+01 -.629E+01 0.198E+04   0.356E-01 0.412E+00 0.133E+01   -.482E-02 -.861E-03 -.916E-02
   0.171E+01 0.125E+01 -.198E+04   -.193E+01 -.120E+01 0.198E+04   0.217E+00 -.537E-01 0.168E+01   -.217E-02 0.231E-02 -.257E-01
   0.232E+01 0.572E+01 0.154E+02   -.203E+01 -.510E+01 -.154E+02   -.279E+00 -.618E+00 0.195E-01   -.117E-02 0.661E-02 -.753E-02
   0.123E+02 -.192E+01 0.203E+04   -.127E+02 0.209E+01 -.203E+04   0.262E+00 -.926E-01 -.174E+01   -.327E-02 0.482E-02 0.206E-02
   -.111E+02 -.871E+01 0.202E+04   0.114E+02 0.883E+01 -.202E+04   -.232E+00 -.210E-01 -.176E+01   -.245E-02 -.247E-02 0.176E-02
   0.258E+01 -.555E+01 -.160E+02   -.237E+01 0.573E+01 0.165E+02   -.214E+00 -.187E+00 -.505E+00   -.124E-02 -.539E-02 -.810E-02
   -.563E+01 0.260E+01 0.203E+04   0.572E+01 -.275E+01 -.203E+04   -.542E-01 0.867E-01 -.175E+01   -.406E-02 -.100E-03 -.405E-04
   0.616E+01 0.197E+01 0.203E+04   -.626E+01 -.209E+01 -.202E+04   0.961E-01 0.847E-01 -.160E+01   0.367E-02 -.710E-02 0.400E-02
   -.153E+01 0.378E+01 0.971E+01   0.154E+01 -.337E+01 -.919E+01   -.314E-01 -.421E+00 -.499E+00   0.459E-02 0.731E-02 -.121E-01
   -.222E+01 -.733E+01 -.981E+01   0.193E+01 0.727E+01 0.986E+01   0.289E+00 0.625E-01 -.435E-01   0.141E-02 0.360E-03 -.714E-02
   0.359E+00 0.113E+01 0.203E+04   -.333E+00 -.107E+01 -.203E+04   -.319E-01 -.480E-01 -.128E+01   -.160E-02 0.659E-02 0.128E-02
   0.228E+01 0.119E+01 0.710E+01   -.211E+01 -.105E+01 -.801E+01   -.168E+00 -.146E+00 0.908E+00   0.795E-03 -.846E-03 -.384E-03
   -.188E+02 -.128E+02 -.199E+04   0.194E+02 0.131E+02 0.198E+04   -.574E+00 -.317E+00 0.180E+01   0.396E-02 -.641E-02 -.169E-01
   0.720E+01 0.182E+01 0.203E+04   -.747E+01 -.189E+01 -.203E+04   0.184E+00 0.759E-01 -.183E+01   0.456E-02 -.643E-02 -.105E-02
   -.446E+00 0.260E+01 0.225E+02   0.478E+00 -.309E+01 -.229E+02   -.292E-01 0.491E+00 0.421E+00   -.666E-02 0.239E-02 0.871E-03
   0.678E+01 -.141E+01 0.267E+02   -.681E+01 0.140E+01 -.266E+02   0.156E-01 0.151E-01 -.806E-01   0.518E-02 -.106E-01 -.632E-02
   -.144E+01 0.327E+01 0.203E+04   0.139E+01 -.350E+01 -.202E+04   0.312E-01 0.173E+00 -.148E+01   0.254E-02 0.486E-03 0.126E-02
   0.167E+02 0.323E+01 -.196E+04   -.171E+02 -.301E+01 0.196E+04   0.356E+00 -.228E+00 0.165E+01   0.184E-02 0.488E-02 -.100E-01
   -.175E+01 0.840E+01 0.203E+04   0.170E+01 -.860E+01 -.203E+04   0.820E-01 0.848E-01 -.162E+01   0.381E-02 0.282E-02 -.421E-03
   0.115E+01 0.751E+01 -.199E+04   -.101E+01 -.809E+01 0.199E+04   -.149E+00 0.577E+00 0.156E+01   0.956E-02 -.297E-02 -.101E-01
 -----------------------------------------------------------------------------------------------
   0.827E-01 0.346E-02 0.565E+00   -.365E-12 0.703E-12 0.455E-12   -.103E+00 -.642E-01 -.379E+00   -.372E-02 0.470E-01 -.226E+00
 
 
 POSITION                                       TOTAL-FORCE (eV/Angst)
 -----------------------------------------------------------------------------------
      6.86645      7.17545     15.01345         0.006543     -0.002414     -0.000473
      9.63758      2.37348     15.08315         0.003766      0.004597      0.008391
      5.50129      7.94043     10.00000         0.271528      0.245575     -0.265930
      1.40071      2.39347     14.98642        -0.003489     -0.002649      0.002191
     13.73312      6.32381     12.45803        -0.005854     -0.004969      0.010724
      4.12597      5.55830     10.00000        -0.102338     -0.270822     -0.275370
      4.12597      0.79404     10.00000        -0.047025     -0.255793     -0.252681
     13.75323      7.94043     10.00000        -0.216026      0.221634     -0.272009
     10.99488      1.57275     12.45218         0.010380     -0.003757     -0.002647
      9.62597      3.99063     12.52769        -0.007930      0.003923      0.009565
      5.50129      3.17617     10.00000         0.019903      0.031703     -0.083360
      2.76328      1.60752     12.42397         0.008088     -0.000436     -0.001032
      9.62726      5.55830     10.00000        -0.010602      0.450612     -0.139838
      8.27222     -0.02844     15.00242         0.001518     -0.010608      0.002945
      8.23411      1.57606     12.44989        -0.009872     -0.009185     -0.000973
      5.51923      6.32869     12.48211         0.004866     -0.006049     -0.001084
      5.46828      4.73012     14.95893         0.013358     -0.007005      0.004234
      9.64811      7.14374     14.88972        -0.006572      0.004573      0.004547
      6.89878      8.72023     12.43375        -0.003004     -0.006410     -0.003178
     12.34902      8.72460     12.42799         0.001979      0.003598      0.005343
      5.50022      0.01484     14.93055         0.002110     -0.005127     -0.002139
      8.25194      3.17617     10.00000        -0.155885     -0.106526     -0.189177
      8.24329      4.76122     14.97369        -0.005727     -0.005196      0.008515
     11.00258      3.17617     10.00000         0.361191     -0.125033     -0.190152
      4.13031      2.37444     14.79433         0.003063     -0.000001     -0.003401
      4.12897      3.95756     12.43941        -0.001675     -0.008156      0.011614
      2.75647      0.01391     14.81070         0.002577     -0.010667      0.000613
      4.12325      7.13810     14.84301         0.001586      0.000541      0.004551
      0.00776     -0.00317     14.84889         0.004553     -0.005154     -0.002757
      2.74152      4.76783     14.81077        -0.005213     -0.004923      0.011849
     12.37925      3.97513     12.42992         0.007228      0.002568      0.003465
      2.75065      3.17617     10.00000        -0.160875      0.079425      0.187197
      6.87661      5.55830     10.00000         0.070192      0.093223      0.299218
     15.12129      8.72460     12.46750        -0.008784     -0.009666     -0.007150
      8.25194      7.94043     10.00000         0.027990     -0.063647      0.205647
     12.37790      5.55830     10.00000         0.003716     -0.037230      0.207222
      5.49719      1.59075     12.43205        -0.010037     -0.005058      0.001306
      6.86435      3.96662     12.45865         0.000603      0.006517      0.001459
      1.37532      0.79404     10.00000        -0.007544      0.012633      0.104094
      8.25778      6.35269     12.43726         0.007828     -0.007846     -0.002960
     11.02430      4.76697     14.84351         0.003057     -0.007136      0.005534
     11.00258      7.94043     10.00000        -0.074431     -0.009706      0.183477
      9.63719      8.70836     12.42039        -0.002845      0.003296      0.008708
     10.99008      6.34812     12.42042        -0.001233     -0.006082      0.004115
      9.62726      0.79404     10.00000        -0.019216     -0.053636      0.232449
      6.88199      2.37505     14.82829        -0.001862     -0.003833      0.002668
      6.87661      0.79404     10.00000         0.032925     -0.112130      0.165310
     12.39232      7.12196     14.82615        -0.002509      0.002433     -0.000642
 -----------------------------------------------------------------------------------
    total drift:                               -0.024495     -0.013741     -0.040087


--------------------------------------------------------------------------------------------------------



  FREE ENERGIE OF THE ION-ELECTRON SYSTEM (eV)
  ---------------------------------------------------
  free  energy   TOTEN  =      -192.48709701 eV

  energy  without entropy=     -192.25223442  energy(sigma->0) =     -192.36966571
 
 d Force = 0.7295399E-03[ 0.157E-03, 0.130E-02]  d Energy = 0.7074524E-03 0.221E-04
 d Force = 0.5180097E+02[ 0.518E+02, 0.518E+02]  d Ewald  = 0.5180097E+02-0.645E-05


--------------------------------------------------------------------------------------------------------


    POTLOK:  cpu time    0.0471: real time    0.0472


--------------------------------------------------------------------------------------------------------


 stress matrix after NEB project (eV)
      0.00000      0.00000      0.00000
      0.00000      0.00000      0.00000
      0.00000      0.00000      0.00000
  FORCES: max atom, RMS     0.015666    0.008141
  FORCE total and by dimension    0.056404    0.013358
  Stress total and by dimension    0.000000    0.000000
 Conjugate gradient step on ions:
 trial-energy change:   -0.000707  1 .order   -0.000730   -0.001303   -0.000157
  (g-gl).g = 0.444E-03      g.g   = 0.467E-03  gl.gl    = 0.752E-03
 g(Force)  = 0.467E-03   g(Stress)= 0.000E+00 ortho     = 0.192E-04
 gamma     =   0.59052
 trial     =   2.72364
 opt step  =   3.15322  (harmonic =   3.09570) maximal distance =0.00620211
 next E    =  -192.487109   (d E  =  -0.00072)


--------------------------------------------------------------------------------------------------------


  
 reached required accuracy - stopping structural energy minimisation
     LOOP+:  cpu time   54.7527: real time   55.0591
    4ORBIT:  cpu time    0.0000: real time    0.0000

 total amount of memory used by VASP on root node    84353. kBytes
========================================================================

   base      :      30000. kBytes
   nonlr-proj:       4285. kBytes
   fftplans  :       4447. kBytes
   grid      :       6721. kBytes
   one-center:        124. kBytes
   wavefun   :      38776. kBytes
 
  
  
 General timing and accounting informations for this job:
 ========================================================
  
                  Total CPU time used (sec):     1392.070
                            User time (sec):     1329.874
                          System time (sec):       62.196
                         Elapsed time (sec):     1400.495
  
                   Maximum memory used (kb):      771032.
                   Average memory used (kb):           0.
  
                          Minor page faults:       641850
                          Major page faults:            0
                 Voluntary context switches:         9443
