unknown system                          
           1
    11.002582    0.000000    0.000000
     5.501291    9.528515    0.000000
     0.000000    0.000000   24.491785
   Au   Pd
  24  24
Direct configuration=     1
   0.25000000  0.75000000  0.59169983
   0.75000000  0.25000000  0.59169983
   0.08333333  0.83333333  0.40830017
   0.00000000  0.25000000  0.59169983
   0.91666667  0.66666667  0.50000000
   0.08333333  0.58333333  0.40830017
   0.33333333  0.08333333  0.40830017
   0.83333333  0.83333333  0.40830017
   0.91666667  0.16666667  0.50000000
   0.66666667  0.41666667  0.50000000
   0.33333333  0.33333333  0.40830017
   0.16666667  0.16666667  0.50000000
   0.58333333  0.58333333  0.40830017
   0.75000000  0.00000000  0.59169983
   0.66666667  0.16666667  0.50000000
   0.16666667  0.66666667  0.50000000
   0.25000000  0.50000000  0.59169983
   0.50000000  0.75000000  0.59169983
   0.16666667  0.91666667  0.50000000
   0.66666667  0.91666667  0.50000000
   0.50000000  0.00000000  0.59169983
   0.58333333  0.33333333  0.40830017
   0.50000000  0.50000000  0.59169983
   0.83333333  0.33333333  0.40830017
   0.25000000  0.25000000  0.59169983
   0.16666667  0.41666667  0.50000000
   0.25000000  0.00000000  0.59169983
   0.00000000  0.75000000  0.59169983
   0.00000000  0.00000000  0.59169983
   0.00000000  0.50000000  0.59169983
   0.91666667  0.41666667  0.50000000
   0.08333333  0.33333333  0.40830017
   0.33333333  0.58333333  0.40830017
   0.91666667  0.91666667  0.50000000
   0.33333333  0.83333333  0.40830017
   0.83333333  0.58333333  0.40830017
   0.41666667  0.16666667  0.50000000
   0.41666667  0.41666667  0.50000000
   0.08333333  0.08333333  0.40830017
   0.41666667  0.66666667  0.50000000
   0.75000000  0.50000000  0.59169983
   0.58333333  0.83333333  0.40830017
   0.41666667  0.91666667  0.50000000
   0.66666667  0.66666667  0.50000000
   0.83333333  0.08333333  0.40830017
   0.50000000  0.25000000  0.59169983
   0.58333333  0.08333333  0.40830017
   0.75000000  0.75000000  0.59169983
Direct configuration=     2
   0.24901246  0.75132518  0.59387384
   0.75004354  0.24994532  0.59423137
   0.08333333  0.83333333  0.40830017
   0.00047052  0.25065294  0.59385333
   0.91622644  0.66528167  0.50074601
   0.08333333  0.58333333  0.40830017
   0.33333333  0.08333333  0.40830017
   0.83333333  0.83333333  0.40830017
   0.91757205  0.16516059  0.49962665
   0.66612120  0.41894426  0.50035250
   0.33333333  0.33333333  0.40830017
   0.16746312  0.16763687  0.50000910
   0.58333333  0.58333333  0.40830017
   0.75131097 -0.00104760  0.59390350
   0.66547047  0.16624259  0.49964286
   0.16749651  0.66582478  0.50004294
   0.24962684  0.49851883  0.59351247
   0.50077883  0.74994242  0.59328528
   0.16748483  0.91681320  0.49995373
   0.66562350  0.91615234  0.49961500
   0.49882321  0.00088422  0.59355568
   0.58333333  0.33333333  0.40830017
   0.50022895  0.49961728  0.59360172
   0.83333333  0.33333333  0.40830017
   0.25029777  0.25004440  0.59254043
   0.16670532  0.41558950  0.50027786
   0.24999270  0.00034978  0.59285035
  -0.00067035  0.75033561  0.59289191
   0.00025958 -0.00067956  0.59299535
  -0.00049121  0.50032747  0.59258542
   0.91676077  0.41814897  0.50002923
   0.08333333  0.33333333  0.40830017
   0.33333333  0.58333333  0.40830017
   0.91686511  0.91688172  0.50022035
   0.33333333  0.83333333  0.40830017
   0.83333333  0.58333333  0.40830017
   0.41615204  0.16742655  0.50017234
   0.41598512  0.41652794  0.49998317
   0.08333333  0.08333333  0.40830017
   0.41683919  0.66707752  0.49953322
   0.75054994  0.50060796  0.59272565
   0.58333333  0.83333333  0.40830017
   0.41722812  0.91580686  0.49977697
   0.66676910  0.66671099  0.50001161
   0.83333333  0.08333333  0.40830017
   0.49914501  0.25028843  0.59278517
   0.58333333  0.08333333  0.40830017
   0.75093178  0.74873638  0.59280802
Direct configuration=     3
   0.24613752  0.75518303  0.60020284
   0.75017028  0.24978615  0.60160120
   0.08333333  0.83333333  0.40830017
   0.00184030  0.25255379  0.60012261
   0.91494485  0.66124965  0.50291778
   0.08333333  0.58333333  0.40830017
   0.33333333  0.08333333  0.40830017
   0.83333333  0.83333333  0.40830017
   0.92020781  0.16077608  0.49853977
   0.66453324  0.42557479  0.50137869
   0.33333333  0.33333333  0.40830017
   0.16978175  0.17046135  0.50003558
   0.58333333  0.58333333  0.40830017
   0.75512747 -0.00409738  0.60031882
   0.66198808  0.16500803  0.49860315
   0.16991233  0.66337386  0.50016796
   0.24854050  0.49420685  0.59878943
   0.50304614  0.74977480  0.59790084
   0.16986669  0.91723980  0.49981902
   0.66258664  0.91465503  0.49849419
   0.49539732  0.00345837  0.59895844
   0.58333333  0.33333333  0.40830017
   0.50089547  0.49850309  0.59913849
   0.83333333  0.33333333  0.40830017
   0.25116462  0.25017366  0.59498759
   0.16681786  0.41245365  0.50108677
   0.24997144  0.00136804  0.59619973
  -0.00262186  0.75131265  0.59636230
   0.00101528 -0.00265788  0.59676687
  -0.00192121  0.50128079  0.59516356
   0.91703472  0.42246424  0.50011433
   0.08333333  0.33333333  0.40830017
   0.33333333  0.58333333  0.40830017
   0.91744282  0.91750779  0.50086184
   0.33333333  0.83333333  0.40830017
   0.83333333  0.58333333  0.40830017
   0.41465384  0.16963871  0.50067405
   0.41400098  0.41612410  0.49993418
   0.08333333  0.08333333  0.40830017
   0.41734144  0.66827360  0.49817432
   0.75215094  0.50237786  0.59571203
   0.58333333  0.83333333  0.40830017
   0.41886264  0.91330378  0.49912768
   0.66706729  0.66684003  0.50004541
   0.83333333  0.08333333  0.40830017
   0.49665596  0.25112811  0.59594481
   0.58333333  0.08333333  0.40830017
   0.75364439  0.74505774  0.59603419
Direct configuration=     4
   0.24618909  0.75485471  0.60263476
   0.75073667  0.24938976  0.60413000
   0.08333333  0.83333333  0.40830017
   0.00188222  0.25251553  0.60242226
   0.91544003  0.66258174  0.50396742
   0.08333333  0.58333333  0.40830017
   0.33333333  0.08333333  0.40830017
   0.83333333  0.83333333  0.40830017
   0.91919142  0.16235645  0.50024607
   0.66521032  0.42425277  0.50333425
   0.33333333  0.33333333  0.40830017
   0.16889593  0.17035844  0.50133257
   0.58333333  0.58333333  0.40830017
   0.75449009 -0.00423165  0.60268807
   0.66250994  0.16508299  0.50035504
   0.17016321  0.66297398  0.50195576
   0.24777702  0.49487093  0.60100875
   0.50314853  0.74976601  0.59973978
   0.17122384  0.91662233  0.50120908
   0.66230293  0.91474636  0.50006732
   0.49602330  0.00342068  0.60105751
   0.58333333  0.33333333  0.40830017
   0.50011070  0.49904118  0.60129083
   0.83333333  0.33333333  0.40830017
   0.25083418  0.24984700  0.59638852
   0.16685012  0.41328007  0.50204713
   0.24953741  0.00192254  0.59744514
  -0.00184990  0.75047472  0.59776929
   0.00103688 -0.00190812  0.59825552
  -0.00176843  0.50112365  0.59681003
   0.91730824  0.42051369  0.50098520
   0.08333333  0.33333333  0.40830017
   0.33333333  0.58333333  0.40830017
   0.91700432  0.91643487  0.50212734
   0.33333333  0.83333333  0.40830017
   0.83333333  0.58333333  0.40830017
   0.41508467  0.16892893  0.50173274
   0.41394033  0.41666700  0.50124238
   0.08333333  0.08333333  0.40830017
   0.41667888  0.66872180  0.49945029
   0.75257463  0.50197990  0.59716571
   0.58333333  0.83333333  0.40830017
   0.41924460  0.91292308  0.50021529
   0.66622116  0.66776304  0.50094526
   0.83333333  0.08333333  0.40830017
   0.49762299  0.25046184  0.59725313
   0.58333333  0.08333333  0.40830017
   0.75338761  0.74564298  0.59761821
Direct configuration=     5
   0.24634380  0.75386974  0.60993052
   0.75243584  0.24820058  0.61171640
   0.08333333  0.83333333  0.40830017
   0.00200799  0.25240076  0.60932121
   0.91692557  0.66657801  0.50711631
   0.08333333  0.58333333  0.40830017
   0.33333333  0.08333333  0.40830017
   0.83333333  0.83333333  0.40830017
   0.91614227  0.16709754  0.50536498
   0.66724153  0.42028671  0.50920091
   0.33333333  0.33333333  0.40830017
   0.16623845  0.17004971  0.50522354
   0.58333333  0.58333333  0.40830017
   0.75257793 -0.00463447  0.60979581
   0.66407553  0.16530785  0.50561071
   0.17091586  0.66177431  0.50731915
   0.24548657  0.49686317  0.60766672
   0.50345571  0.74973964  0.60525660
   0.17529529  0.91476989  0.50537925
   0.66145179  0.91502035  0.50478672
   0.49790124  0.00330761  0.60735473
   0.58333333  0.33333333  0.40830017
   0.49775638  0.50065544  0.60774785
   0.83333333  0.33333333  0.40830017
   0.24984286  0.24886703  0.60059130
   0.16694690  0.41575930  0.50492822
   0.24823534  0.00358602  0.60118135
   0.00046600  0.74796092  0.60199026
   0.00110166  0.00034118  0.60272146
  -0.00131009  0.50065221  0.60174943
   0.91812879  0.41466204  0.50359779
   0.08333333  0.33333333  0.40830017
   0.33333333  0.58333333  0.40830017
   0.91568882  0.91321613  0.50592383
   0.33333333  0.83333333  0.40830017
   0.83333333  0.58333333  0.40830017
   0.41637713  0.16679960  0.50490880
   0.41375837  0.41829569  0.50516696
   0.08333333  0.08333333  0.40830017
   0.41469118  0.67006640  0.50327822
   0.75384569  0.50078600  0.60152676
   0.58333333  0.83333333  0.40830017
   0.42039048  0.91178099  0.50347811
   0.66368278  0.67053206  0.50364481
   0.83333333  0.08333333  0.40830017
   0.50052409  0.24846304  0.60117809
   0.58333333  0.08333333  0.40830017
   0.75261728  0.74739870  0.60237029
Direct configuration=     6
   0.24637194  0.75369061  0.61125739
   0.75274487  0.24798430  0.61309613
   0.08333333  0.83333333  0.40830017
   0.00203086  0.25237988  0.61057592
   0.91719575  0.66730481  0.50768900
   0.08333333  0.58333333  0.40830017
   0.33333333  0.08333333  0.40830017
   0.83333333  0.83333333  0.40830017
   0.91558772  0.16795980  0.50629594
   0.66761094  0.41956541  0.51026788
   0.33333333  0.33333333  0.40830017
   0.16575514  0.16999356  0.50593119
   0.58333333  0.58333333  0.40830017
   0.75223017 -0.00470773  0.61108849
   0.66436026  0.16534875  0.50656655
   0.17105274  0.66155613  0.50829458
   0.24507001  0.49722549  0.60887760
   0.50351157  0.74973484  0.60625993
   0.17603576  0.91443299  0.50613767
   0.66129700  0.91507018  0.50564503
   0.49824277  0.00328705  0.60849999
   0.58333333  0.33333333  0.40830017
   0.49732820  0.50094903  0.60892218
   0.83333333  0.33333333  0.40830017
   0.24966257  0.24868881  0.60135566
   0.16696450  0.41621020  0.50545220
   0.24799853  0.00388855  0.60186085
   0.00088719  0.74750374  0.60275793
   0.00111344  0.00075026  0.60353367
  -0.00122673  0.50056648  0.60264775
   0.91827803  0.41359781  0.50407294
   0.08333333  0.33333333  0.40830017
   0.33333333  0.58333333  0.40830017
   0.91544957  0.91263074  0.50661429
   0.33333333  0.83333333  0.40830017
   0.83333333  0.58333333  0.40830017
   0.41661219  0.16641234  0.50548643
   0.41372527  0.41859190  0.50588071
   0.08333333  0.08333333  0.40830017
   0.41432968  0.67031095  0.50397440
   0.75407685  0.50056887  0.60231990
   0.58333333  0.83333333  0.40830017
   0.42059888  0.91157328  0.50407151
   0.66322112  0.67103565  0.50413577
   0.83333333  0.08333333  0.40830017
   0.50105170  0.24809952  0.60189192
   0.58333333  0.08333333  0.40830017
   0.75247718  0.74771801  0.60323454
Direct configuration=     7
   0.24712717  0.75359766  0.61249936
   0.75191186  0.24849529  0.61446619
   0.08333333  0.83333333  0.40830017
   0.00141392  0.25219192  0.61184661
   0.91622230  0.66420693  0.50814547
   0.08333333  0.58333333  0.40830017
   0.33333333  0.08333333  0.40830017
   0.83333333  0.83333333  0.40830017
   0.91649586  0.16428621  0.50774245
   0.66482416  0.42022489  0.51133821
   0.33333333  0.33333333  0.40830017
   0.16667959  0.16910461  0.50669222
   0.58333333  0.58333333  0.40830017
   0.75317750 -0.00419664  0.61220512
   0.66593383  0.16512077  0.50779937
   0.17063439  0.66413709  0.50932034
   0.24740490  0.49622198  0.61015773
   0.50230114  0.75006430  0.60707230
   0.17026635  0.91571083  0.50714676
   0.66274029  0.91684113  0.50704931
   0.49829125  0.00225270  0.60953758
   0.58333333  0.33333333  0.40830017
   0.49765462  0.50055042  0.60995022
   0.83333333  0.33333333  0.40830017
   0.25012544  0.24925726  0.60230007
   0.16696223  0.41588439  0.50650799
   0.24938686  0.00237230  0.60297477
   0.00044802  0.74898693  0.60424866
   0.00066076  0.00048883  0.60409076
  -0.00148469  0.50026045  0.60336897
   0.91749382  0.41702373  0.50538654
   0.08333333  0.33333333  0.40830017
   0.33333333  0.58333333  0.40830017
   0.91612843  0.91557485  0.50775192
   0.33333333  0.83333333  0.40830017
   0.83333333  0.58333333  0.40830017
   0.41575394  0.16647409  0.50641543
   0.41589447  0.41756269  0.50727261
   0.08333333  0.08333333  0.40830017
   0.41727814  0.66665692  0.50576075
   0.75315564  0.50047834  0.60344033
   0.58333333  0.83333333  0.40830017
   0.41952316  0.91406762  0.50560257
   0.66535633  0.66742697  0.50538213
   0.83333333  0.08333333  0.40830017
   0.50084816  0.24936969  0.60295734
   0.58333333  0.08333333  0.40830017
   0.75214548  0.74795722  0.60422269
Direct configuration=     8
   0.24725039  0.75358250  0.61270198
   0.75177596  0.24857866  0.61468972
   0.08333333  0.83333333  0.40830017
   0.00131327  0.25216126  0.61205392
   0.91606348  0.66370151  0.50821994
   0.08333333  0.58333333  0.40830017
   0.33333333  0.08333333  0.40830017
   0.83333333  0.83333333  0.40830017
   0.91664402  0.16368686  0.50797844
   0.66436949  0.42033248  0.51151283
   0.33333333  0.33333333  0.40830017
   0.16683042  0.16895958  0.50681639
   0.58333333  0.58333333  0.40830017
   0.75333206 -0.00411326  0.61238730
   0.66619055  0.16508357  0.50800050
   0.17056614  0.66455817  0.50948769
   0.24778583  0.49605826  0.61036658
   0.50210366  0.75011806  0.60720483
   0.16932508  0.91591931  0.50731140
   0.66297576  0.91713006  0.50727841
   0.49829916  0.00208395  0.60970686
   0.58333333  0.33333333  0.40830017
   0.49770788  0.50048539  0.61011794
   0.83333333  0.33333333  0.40830017
   0.25020095  0.24935000  0.60245415
   0.16696186  0.41583124  0.50668024
   0.24961336  0.00212492  0.60315651
   0.00037637  0.74922891  0.60449187
   0.00058691  0.00044618  0.60418165
  -0.00152677  0.50021053  0.60348664
   0.91736587  0.41758267  0.50560085
   0.08333333  0.33333333  0.40830017
   0.33333333  0.58333333  0.40830017
   0.91623918  0.91605518  0.50793752
   0.33333333  0.83333333  0.40830017
   0.83333333  0.58333333  0.40830017
   0.41561392  0.16648416  0.50656700
   0.41624837  0.41739477  0.50749969
   0.08333333  0.08333333  0.40830017
   0.41775918  0.66606077  0.50605219
   0.75300534  0.50046357  0.60362313
   0.58333333  0.83333333  0.40830017
   0.41934766  0.91447457  0.50585236
   0.66570469  0.66683822  0.50558547
   0.83333333  0.08333333  0.40830017
   0.50081495  0.24957692  0.60313117
   0.58333333  0.08333333  0.40830017
   0.75209136  0.74799625  0.60438390
Direct configuration=     9
   0.24750776  0.75355102  0.61289194
   0.75110898  0.24923526  0.61502200
   0.08333333  0.83333333  0.40830017
   0.00133403  0.25162307  0.61215925
   0.91581912  0.66390912  0.50828320
   0.08333333  0.58333333  0.40830017
   0.33333333  0.08333333  0.40830017
   0.83333333  0.83333333  0.40830017
   0.91655467  0.16500194  0.50815596
   0.66519314  0.41902636  0.51142696
   0.33333333  0.33333333  0.40830017
   0.16630318  0.16892594  0.50691079
   0.58333333  0.58333333  0.40830017
   0.75351926 -0.00349609  0.61254656
   0.66590735  0.16551613  0.50812394
   0.16993172  0.66489837  0.50962066
   0.24852831  0.49604732  0.61052512
   0.50170835  0.74995392  0.60720633
   0.16909357  0.91522072  0.50735341
   0.66439001  0.91670823  0.50759655
   0.49849219  0.00190061  0.60981224
   0.58333333  0.33333333  0.40830017
   0.49843039  0.50026616  0.61048182
   0.83333333  0.33333333  0.40830017
   0.25050042  0.24953755  0.60282890
   0.16769538  0.41579547  0.50714097
   0.24999773  0.00150394  0.60364384
   0.00019787  0.74957271  0.60502035
   0.00064606  0.00000176  0.60472202
  -0.00134807  0.50028055  0.60366965
   0.91673277  0.41744587  0.50622635
   0.08333333  0.33333333  0.40830017
   0.33333333  0.58333333  0.40830017
   0.91635538  0.91567995  0.50822340
   0.33333333  0.83333333  0.40830017
   0.83333333  0.58333333  0.40830017
   0.41558765  0.16725131  0.50689262
   0.41612504  0.41650810  0.50791471
   0.08333333  0.08333333  0.40830017
   0.41780821  0.66667282  0.50682064
   0.75202103  0.50058837  0.60426312
   0.58333333  0.83333333  0.40830017
   0.41870691  0.91445467  0.50648788
   0.66598072  0.66633076  0.50618783
   0.83333333  0.08333333  0.40830017
   0.50065606  0.24964891  0.60370851
   0.58333333  0.08333333  0.40830017
   0.75205552  0.74790862  0.60462929
Direct configuration=    10
   0.24763498  0.75353545  0.61298584
   0.75077929  0.24955982  0.61518625
   0.08333333  0.83333333  0.40830017
   0.00134429  0.25135705  0.61221131
   0.91569833  0.66401175  0.50831446
   0.08333333  0.58333333  0.40830017
   0.33333333  0.08333333  0.40830017
   0.83333333  0.83333333  0.40830017
   0.91651050  0.16565197  0.50824370
   0.66560026  0.41838075  0.51138451
   0.33333333  0.33333333  0.40830017
   0.16604257  0.16890931  0.50695746
   0.58333333  0.58333333  0.40830017
   0.75361179 -0.00319103  0.61262528
   0.66576736  0.16572994  0.50818496
   0.16961812  0.66506652  0.50968638
   0.24889531  0.49604191  0.61060348
   0.50151295  0.74987278  0.60720708
   0.16897914  0.91487541  0.50737418
   0.66508907  0.91649973  0.50775380
   0.49858761  0.00180998  0.60986433
   0.58333333  0.33333333  0.40830017
   0.49878752  0.50015780  0.61066168
   0.83333333  0.33333333  0.40830017
   0.25064845  0.24963025  0.60301413
   0.16805795  0.41577779  0.50736871
   0.25018772  0.00119699  0.60388472
   0.00010964  0.74974264  0.60528157
   0.00067530 -0.00021792  0.60498912
  -0.00125974  0.50031516  0.60376010
   0.91641983  0.41737826  0.50653553
   0.08333333  0.33333333  0.40830017
   0.33333333  0.58333333  0.40830017
   0.91641282  0.91549447  0.50836470
   0.33333333  0.83333333  0.40830017
   0.83333333  0.58333333  0.40830017
   0.41557467  0.16763050  0.50705357
   0.41606408  0.41606982  0.50811985
   0.08333333  0.08333333  0.40830017
   0.41783245  0.66697535  0.50720047
   0.75153449  0.50065006  0.60457946
   0.58333333  0.83333333  0.40830017
   0.41839019  0.91444483  0.50680201
   0.66611716  0.66607992  0.50648558
   0.83333333  0.08333333  0.40830017
   0.50057752  0.24968450  0.60399389
   0.58333333  0.08333333  0.40830017
   0.75203780  0.74786530  0.60475058
Direct configuration=    11
   0.24753298  0.75326911  0.61304031
   0.75081532  0.24957625  0.61541961
   0.08333333  0.83333333  0.40830017
   0.00154462  0.25108946  0.61213628
   0.91621933  0.66384414  0.50835787
   0.08333333  0.58333333  0.40830017
   0.33333333  0.08333333  0.40830017
   0.83333333  0.83333333  0.40830017
   0.91671723  0.16568486  0.50826588
   0.66553341  0.41838689  0.51119288
   0.33333333  0.33333333  0.40830017
   0.16616093  0.16897990  0.50703266
   0.58333333  0.58333333  0.40830017
   0.75333146 -0.00276152  0.61265742
   0.66584773  0.16548201  0.50812014
   0.16973182  0.66422618  0.50968447
   0.24881723  0.49661962  0.61064006
   0.50171851  0.74983381  0.60728562
   0.16921242  0.91496016  0.50733856
   0.66456513  0.91628428  0.50776620
   0.49890457  0.00181027  0.60977710
   0.58333333  0.33333333  0.40830017
   0.49904908  0.50004406  0.61089682
   0.83333333  0.33333333  0.40830017
   0.25059985  0.24942792  0.60328359
   0.16784531  0.41591254  0.50759836
   0.24989784  0.00143118  0.60418331
   0.00017131  0.74945095  0.60558590
   0.00079181 -0.00023523  0.60545277
  -0.00113851  0.50036542  0.60388929
   0.91652857  0.41727227  0.50694452
   0.08333333  0.33333333  0.40830017
   0.33333333  0.58333333  0.40830017
   0.91632080  0.91562077  0.50849980
   0.33333333  0.83333333  0.40830017
   0.83333333  0.58333333  0.40830017
   0.41587808  0.16713185  0.50719625
   0.41552493  0.41656463  0.50827747
   0.08333333  0.08333333  0.40830017
   0.41766644  0.66696735  0.50753408
   0.75144344  0.50057403  0.60511312
   0.58333333  0.83333333  0.40830017
   0.41870528  0.91445322  0.50705292
   0.66579071  0.66646714  0.50675539
   0.83333333  0.08333333  0.40830017
   0.50070930  0.24930862  0.60453842
   0.58333333  0.08333333  0.40830017
   0.75210242  0.74778196  0.60494200
Direct configuration=    12
   0.24748623  0.75314705  0.61306527
   0.75083184  0.24958378  0.61552655
   0.08333333  0.83333333  0.40830017
   0.00163643  0.25096682  0.61210189
   0.91645811  0.66376732  0.50837776
   0.08333333  0.58333333  0.40830017
   0.33333333  0.08333333  0.40830017
   0.83333333  0.83333333  0.40830017
   0.91681197  0.16569992  0.50827605
   0.66550277  0.41838971  0.51110506
   0.33333333  0.33333333  0.40830017
   0.16621517  0.16901226  0.50706713
   0.58333333  0.58333333  0.40830017
   0.75320298 -0.00256467  0.61267216
   0.66588457  0.16536839  0.50809043
   0.16978393  0.66384105  0.50968359
   0.24878145  0.49688438  0.61065682
   0.50181272  0.74981594  0.60732161
   0.16931933  0.91499900  0.50732224
   0.66432501  0.91618553  0.50777188
   0.49904984  0.00181041  0.60973711
   0.58333333  0.33333333  0.40830017
   0.49916894  0.49999194  0.61100459
   0.83333333  0.33333333  0.40830017
   0.25057758  0.24933519  0.60340708
   0.16774785  0.41597430  0.50770361
   0.24976498  0.00153852  0.60432015
   0.00019958  0.74931726  0.60572538
   0.00084521 -0.00024317  0.60566526
  -0.00108296  0.50038846  0.60394850
   0.91657841  0.41722369  0.50713196
   0.08333333  0.33333333  0.40830017
   0.33333333  0.58333333  0.40830017
   0.91627862  0.91567865  0.50856171
   0.33333333  0.83333333  0.40830017
   0.83333333  0.58333333  0.40830017
   0.41601714  0.16690332  0.50726164
   0.41527783  0.41679141  0.50834970
   0.08333333  0.08333333  0.40830017
   0.41759035  0.66696368  0.50768698
   0.75140171  0.50053918  0.60535770
   0.58333333  0.83333333  0.40830017
   0.41884969  0.91445706  0.50716791
   0.66564109  0.66664461  0.50687905
   0.83333333  0.08333333  0.40830017
   0.50076969  0.24913636  0.60478798
   0.58333333  0.08333333  0.40830017
   0.75213203  0.74774376  0.60502973
Direct configuration=    13
   0.24741448  0.75322375  0.61305851
   0.75108222  0.24944268  0.61565875
   0.08333333  0.83333333  0.40830017
   0.00154352  0.25116630  0.61203449
   0.91628232  0.66391148  0.50844593
   0.08333333  0.58333333  0.40830017
   0.33333333  0.08333333  0.40830017
   0.83333333  0.83333333  0.40830017
   0.91694398  0.16513800  0.50831623
   0.66520460  0.41890613  0.51111545
   0.33333333  0.33333333  0.40830017
   0.16671520  0.16900121  0.50712131
   0.58333333  0.58333333  0.40830017
   0.75333455 -0.00271973  0.61265243
   0.66573481  0.16531683  0.50809707
   0.16976469  0.66409933  0.50963829
   0.24886682  0.49667882  0.61071562
   0.50179862  0.74999655  0.60750125
   0.16950126  0.91499995  0.50739352
   0.66430018  0.91587448  0.50766887
   0.49908169  0.00173001  0.60969210
   0.58333333  0.33333333  0.40830017
   0.49926353  0.49975669  0.61113897
   0.83333333  0.33333333  0.40830017
   0.25058904  0.24934591  0.60361897
   0.16765387  0.41540754  0.50779027
   0.24968001  0.00153175  0.60447582
  -0.00005045  0.74934810  0.60586718
   0.00086884 -0.00028372  0.60593425
  -0.00109736  0.50034464  0.60414483
   0.91653906  0.41744733  0.50733319
   0.08333333  0.33333333  0.40830017
   0.33333333  0.58333333  0.40830017
   0.91639391  0.91570884  0.50871069
   0.33333333  0.83333333  0.40830017
   0.83333333  0.58333333  0.40830017
   0.41603293  0.16683502  0.50735331
   0.41552029  0.41667760  0.50846507
   0.08333333  0.08333333  0.40830017
   0.41734817  0.66685851  0.50777465
   0.75176683  0.50028286  0.60564523
   0.58333333  0.83333333  0.40830017
   0.41878974  0.91445909  0.50720180
   0.66572874  0.66651583  0.50697948
   0.83333333  0.08333333  0.40830017
   0.50062708  0.24927984  0.60507543
   0.58333333  0.08333333  0.40830017
   0.75246412  0.74762347  0.60515025
Direct configuration=    14
   0.24739508  0.75324449  0.61305668
   0.75114991  0.24940454  0.61569448
   0.08333333  0.83333333  0.40830017
   0.00151840  0.25122023  0.61201627
   0.91623480  0.66395045  0.50846436
   0.08333333  0.58333333  0.40830017
   0.33333333  0.08333333  0.40830017
   0.83333333  0.83333333  0.40830017
   0.91697967  0.16498608  0.50832709
   0.66512398  0.41904575  0.51111826
   0.33333333  0.33333333  0.40830017
   0.16685039  0.16899823  0.50713596
   0.58333333  0.58333333  0.40830017
   0.75337011 -0.00276165  0.61264710
   0.66569433  0.16530289  0.50809887
   0.16975949  0.66416915  0.50962604
   0.24888989  0.49662324  0.61073152
   0.50179481  0.75004537  0.60754981
   0.16955045  0.91500021  0.50741279
   0.66429347  0.91579038  0.50764102
   0.49909030  0.00170827  0.60967993
   0.58333333  0.33333333  0.40830017
   0.49928910  0.49969309  0.61117530
   0.83333333  0.33333333  0.40830017
   0.25059214  0.24934880  0.60367625
   0.16762846  0.41525432  0.50781369
   0.24965703  0.00152992  0.60451790
  -0.00011804  0.74935643  0.60590552
   0.00087522 -0.00029468  0.60600698
  -0.00110125  0.50033279  0.60419790
   0.91652843  0.41750780  0.50738759
   0.08333333  0.33333333  0.40830017
   0.33333333  0.58333333  0.40830017
   0.91642508  0.91571700  0.50875096
   0.33333333  0.83333333  0.40830017
   0.83333333  0.58333333  0.40830017
   0.41603720  0.16681656  0.50737809
   0.41558584  0.41664684  0.50849626
   0.08333333  0.08333333  0.40830017
   0.41728270  0.66683008  0.50779835
   0.75186553  0.50021357  0.60572296
   0.58333333  0.83333333  0.40830017
   0.41877353  0.91445964  0.50721096
   0.66575244  0.66648102  0.50700663
   0.83333333  0.08333333  0.40830017
   0.50058853  0.24931863  0.60515314
   0.58333333  0.08333333  0.40830017
   0.75255390  0.74759095  0.60518283
Direct configuration=    15
   0.24743026  0.75322430  0.61303681
   0.75127795  0.24924930  0.61575751
   0.08333333  0.83333333  0.40830017
   0.00156873  0.25124968  0.61195898
   0.91626444  0.66397102  0.50853832
   0.08333333  0.58333333  0.40830017
   0.33333333  0.08333333  0.40830017
   0.83333333  0.83333333  0.40830017
   0.91696189  0.16498947  0.50837280
   0.66529912  0.41905267  0.51125933
   0.33333333  0.33333333  0.40830017
   0.16683741  0.16876320  0.50719369
   0.58333333  0.58333333  0.40830017
   0.75339512 -0.00286731  0.61260361
   0.66555305  0.16536360  0.50818864
   0.16955867  0.66425306  0.50962572
   0.24882453  0.49646672  0.61074976
   0.50187909  0.74993315  0.60771708
   0.16960581  0.91513541  0.50751918
   0.66448268  0.91570888  0.50754511
   0.49908294  0.00166781  0.60966236
   0.58333333  0.33333333  0.40830017
   0.49935824  0.49965890  0.61126297
   0.83333333  0.33333333  0.40830017
   0.25066982  0.24932604  0.60385686
   0.16764895  0.41525996  0.50784492
   0.24966978  0.00152158  0.60459886
  -0.00007172  0.74929307  0.60595668
   0.00084351 -0.00029837  0.60614013
  -0.00104786  0.50034157  0.60441569
   0.91644349  0.41736758  0.50745313
   0.08333333  0.33333333  0.40830017
   0.33333333  0.58333333  0.40830017
   0.91649013  0.91561530  0.50888612
   0.33333333  0.83333333  0.40830017
   0.83333333  0.58333333  0.40830017
   0.41615762  0.16693596  0.50746473
   0.41572798  0.41637046  0.50858096
   0.08333333  0.08333333  0.40830017
   0.41718243  0.66685262  0.50780819
   0.75189520  0.50020581  0.60587266
   0.58333333  0.83333333  0.40830017
   0.41872390  0.91423834  0.50717051
   0.66575382  0.66631048  0.50705970
   0.83333333  0.08333333  0.40830017
   0.50065696  0.24934761  0.60527877
   0.58333333  0.08333333  0.40830017
   0.75264269  0.74751517  0.60526069
Direct configuration=    16
   0.24744474  0.75321598  0.61302863
   0.75133066  0.24918540  0.61578345
   0.08333333  0.83333333  0.40830017
   0.00158945  0.25126180  0.61193540
   0.91627665  0.66397948  0.50856877
   0.08333333  0.58333333  0.40830017
   0.33333333  0.08333333  0.40830017
   0.83333333  0.83333333  0.40830017
   0.91695457  0.16499087  0.50839161
   0.66537121  0.41905551  0.51131739
   0.33333333  0.33333333  0.40830017
   0.16683207  0.16866645  0.50721745
   0.58333333  0.58333333  0.40830017
   0.75340541 -0.00291081  0.61258571
   0.66549490  0.16538860  0.50822559
   0.16947600  0.66428760  0.50962559
   0.24879763  0.49640229  0.61075727
   0.50191378  0.74988695  0.60778593
   0.16962860  0.91519106  0.50756298
   0.66456056  0.91567533  0.50750563
   0.49907991  0.00165116  0.60965513
   0.58333333  0.33333333  0.40830017
   0.49938670  0.49964483  0.61129907
   0.83333333  0.33333333  0.40830017
   0.25070180  0.24931667  0.60393121
   0.16765738  0.41526228  0.50785777
   0.24967503  0.00151815  0.60463219
  -0.00005265  0.74926699  0.60597774
   0.00083045 -0.00029989  0.60619494
  -0.00102588  0.50034519  0.60450533
   0.91640853  0.41730986  0.50748011
   0.08333333  0.33333333  0.40830017
   0.33333333  0.58333333  0.40830017
   0.91651690  0.91557344  0.50894175
   0.33333333  0.83333333  0.40830017
   0.83333333  0.58333333  0.40830017
   0.41620719  0.16698511  0.50750040
   0.41578649  0.41625670  0.50861582
   0.08333333  0.08333333  0.40830017
   0.41714115  0.66686189  0.50781223
   0.75190741  0.50020261  0.60593428
   0.58333333  0.83333333  0.40830017
   0.41870347  0.91414725  0.50715385
   0.66575439  0.66624028  0.50708154
   0.83333333  0.08333333  0.40830017
   0.50068512  0.24935954  0.60533049
   0.58333333  0.08333333  0.40830017
   0.75267924  0.74748397  0.60529275
Direct configuration=    17
   0.24755157  0.75305001  0.61299923
   0.75139192  0.24909222  0.61584541
   0.08333333  0.83333333  0.40830017
   0.00171218  0.25118979  0.61189559