  56  56   0   0
  0.4903395E+02  0.1100258E-08  0.1100258E-08  0.2619179E-08  0.3500000E-15
  1.000000000000000E-004
  CAR 
 unknown system                          
      6.43055440    -21.45621650  301     -1.27477020      1.00000000
    -21.456  0.0000E+00  0.0000E+00
    -21.363  0.0000E+00  0.0000E+00
    -21.270  0.0000E+00  0.0000E+00
    -21.177  0.0000E+00  0.0000E+00
    -21.084  0.0000E+00  0.0000E+00
    -20.991  0.0000E+00  0.0000E+00
    -20.898  0.0000E+00  0.0000E+00
    -20.806  0.0000E+00  0.0000E+00
    -20.713  0.1709E-14  0.1589E-15
    -20.620  0.1584E-10  0.1473E-11
    -20.527  0.2724E-07  0.2534E-08
    -20.434  0.8869E-05  0.8269E-06
    -20.341  0.5671E-03  0.5355E-04
    -20.248  0.7698E-02  0.7692E-03
    -20.155  0.2666E-01  0.3248E-02
    -20.062  0.3477E-01  0.6480E-02
    -19.969  0.3134E-01  0.9393E-02
    -19.876  0.3427E-01  0.1258E-01
    -19.783  0.3173E-01  0.1553E-01
    -19.690  0.3281E-01  0.1858E-01
    -19.597  0.3818E-01  0.2213E-01
    -19.504  0.1813E-01  0.2381E-01
    -19.411  0.8175E-02  0.2457E-01
    -19.318  0.1975E-01  0.2641E-01
    -19.225  0.1652E-01  0.2795E-01
    -19.132  0.1555E-01  0.2939E-01
    -19.039  0.2047E-01  0.3129E-01
    -18.946  0.7065E-02  0.3195E-01
    -18.853  0.5277E-03  0.3200E-01
    -18.760  0.8032E-05  0.3200E-01
    -18.668  0.2375E-07  0.3200E-01
    -18.575  0.1322E-10  0.3200E-01
    -18.482  0.1361E-14  0.3200E-01
    -18.389  0.0000E+00  0.3200E-01
    -18.296  0.0000E+00  0.3200E-01
    -18.203  0.0000E+00  0.3200E-01
    -18.110  0.0000E+00  0.3200E-01
    -18.017  0.0000E+00  0.3200E-01
    -17.924  0.0000E+00  0.3200E-01
    -17.831  0.0000E+00  0.3200E-01
    -17.738  0.0000E+00  0.3200E-01
    -17.645  0.0000E+00  0.3200E-01
    -17.552  0.0000E+00  0.3200E-01
    -17.459  0.0000E+00  0.3200E-01
    -17.366  0.0000E+00  0.3200E-01
    -17.273  0.0000E+00  0.3200E-01
    -17.180  0.0000E+00  0.3200E-01
    -17.087  0.0000E+00  0.3200E-01
    -16.994  0.0000E+00  0.3200E-01
    -16.901  0.0000E+00  0.3200E-01
    -16.808  0.0000E+00  0.3200E-01
    -16.715  0.0000E+00  0.3200E-01
    -16.623  0.0000E+00  0.3200E-01
    -16.530  0.0000E+00  0.3200E-01
    -16.437  0.0000E+00  0.3200E-01
    -16.344  0.0000E+00  0.3200E-01
    -16.251  0.0000E+00  0.3200E-01
    -16.158  0.0000E+00  0.3200E-01
    -16.065  0.0000E+00  0.3200E-01
    -15.972  0.0000E+00  0.3200E-01
    -15.879  0.0000E+00  0.3200E-01
    -15.786  0.0000E+00  0.3200E-01
    -15.693  0.0000E+00  0.3200E-01
    -15.600  0.0000E+00  0.3200E-01
    -15.507  0.0000E+00  0.3200E-01
    -15.414  0.0000E+00  0.3200E-01
    -15.321  0.0000E+00  0.3200E-01
    -15.228  0.0000E+00  0.3200E-01
    -15.135  0.0000E+00  0.3200E-01
    -15.042  0.0000E+00  0.3200E-01
    -14.949  0.0000E+00  0.3200E-01
    -14.856  0.0000E+00  0.3200E-01
    -14.763  0.0000E+00  0.3200E-01
    -14.670  0.0000E+00  0.3200E-01
    -14.577  0.0000E+00  0.3200E-01
    -14.485  0.0000E+00  0.3200E-01
    -14.392  0.0000E+00  0.3200E-01
    -14.299  0.0000E+00  0.3200E-01
    -14.206  0.0000E+00  0.3200E-01
    -14.113  0.0000E+00  0.3200E-01
    -14.020  0.0000E+00  0.3200E-01
    -13.927  0.0000E+00  0.3200E-01
    -13.834  0.0000E+00  0.3200E-01
    -13.741  0.0000E+00  0.3200E-01
    -13.648  0.0000E+00  0.3200E-01
    -13.555  0.0000E+00  0.3200E-01
    -13.462  0.0000E+00  0.3200E-01
    -13.369  0.0000E+00  0.3200E-01
    -13.276  0.0000E+00  0.3200E-01
    -13.183  0.0000E+00  0.3200E-01
    -13.090  0.0000E+00  0.3200E-01
    -12.997  0.0000E+00  0.3200E-01
    -12.904  0.0000E+00  0.3200E-01
    -12.811  0.0000E+00  0.3200E-01
    -12.718  0.0000E+00  0.3200E-01
    -12.625  0.0000E+00  0.3200E-01
    -12.532  0.0000E+00  0.3200E-01
    -12.439  0.0000E+00  0.3200E-01
    -12.347  0.0000E+00  0.3200E-01
    -12.254  0.0000E+00  0.3200E-01
    -12.161  0.0000E+00  0.3200E-01
    -12.068  0.0000E+00  0.3200E-01
    -11.975  0.0000E+00  0.3200E-01
    -11.882  0.0000E+00  0.3200E-01
    -11.789  0.0000E+00  0.3200E-01
    -11.696  0.0000E+00  0.3200E-01
    -11.603  0.0000E+00  0.3200E-01
    -11.510  0.0000E+00  0.3200E-01
    -11.417  0.0000E+00  0.3200E-01
    -11.324  0.0000E+00  0.3200E-01
    -11.231  0.0000E+00  0.3200E-01
    -11.138  0.0000E+00  0.3200E-01
    -11.045  0.0000E+00  0.3200E-01
    -10.952  0.0000E+00  0.3200E-01
    -10.859  0.0000E+00  0.3200E-01
    -10.766  0.0000E+00  0.3200E-01
    -10.673  0.0000E+00  0.3200E-01
    -10.580  0.0000E+00  0.3200E-01
    -10.487  0.0000E+00  0.3200E-01
    -10.394  0.0000E+00  0.3200E-01
    -10.302  0.0000E+00  0.3200E-01
    -10.209  0.0000E+00  0.3200E-01
    -10.116  0.0000E+00  0.3200E-01
    -10.023  0.0000E+00  0.3200E-01
     -9.930  0.0000E+00  0.3200E-01
     -9.837  0.0000E+00  0.3200E-01
     -9.744  0.0000E+00  0.3200E-01
     -9.651  0.2733E-14  0.3200E-01
     -9.558  0.2038E-10  0.3200E-01
     -9.465  0.2844E-07  0.3200E-01
     -9.372  0.7587E-05  0.3200E-01
     -9.279  0.3997E-03  0.3204E-01
     -9.186  0.4375E-02  0.3244E-01
     -9.093  0.1090E-01  0.3346E-01
     -9.000  0.1011E-01  0.3440E-01
     -8.907  0.1080E-01  0.3540E-01
     -8.814  0.5695E-02  0.3593E-01
     -8.721  0.1664E-02  0.3609E-01
     -8.628  0.4215E-02  0.3648E-01
     -8.535  0.8997E-02  0.3731E-01
     -8.442  0.1712E-01  0.3890E-01
     -8.349  0.3155E-01  0.4184E-01
     -8.256  0.3031E-01  0.4466E-01
     -8.164  0.1616E-01  0.4616E-01
     -8.071  0.1771E-01  0.4780E-01
     -7.978  0.3340E-01  0.5091E-01
     -7.885  0.4715E-01  0.5529E-01
     -7.792  0.4606E-01  0.5957E-01
     -7.699  0.4601E-01  0.6385E-01
     -7.606  0.5486E-01  0.6895E-01
     -7.513  0.6625E-01  0.7511E-01
     -7.420  0.8351E-01  0.8287E-01
     -7.327  0.9495E-01  0.9170E-01
     -7.234  0.9764E-01  0.1008E+00
     -7.141  0.9477E-01  0.1096E+00
     -7.048  0.9644E-01  0.1185E+00
     -6.955  0.1092E+00  0.1287E+00
     -6.862  0.1245E+00  0.1403E+00
     -6.769  0.1447E+00  0.1537E+00
     -6.676  0.1500E+00  0.1677E+00
     -6.583  0.1529E+00  0.1819E+00
     -6.490  0.1574E+00  0.1965E+00
     -6.397  0.1529E+00  0.2107E+00
     -6.304  0.1454E+00  0.2242E+00
     -6.211  0.1493E+00  0.2381E+00
     -6.118  0.1583E+00  0.2528E+00
     -6.026  0.1651E+00  0.2682E+00
     -5.933  0.1631E+00  0.2833E+00
     -5.840  0.1607E+00  0.2983E+00
     -5.747  0.1527E+00  0.3125E+00
     -5.654  0.1500E+00  0.3264E+00
     -5.561  0.1595E+00  0.3412E+00
     -5.468  0.1658E+00  0.3567E+00
     -5.375  0.1709E+00  0.3725E+00
     -5.282  0.1744E+00  0.3887E+00
     -5.189  0.1757E+00  0.4051E+00
     -5.096  0.1704E+00  0.4209E+00
     -5.003  0.1646E+00  0.4362E+00
     -4.910  0.1656E+00  0.4516E+00
     -4.817  0.1737E+00  0.4678E+00
     -4.724  0.1825E+00  0.4847E+00
     -4.631  0.1790E+00  0.5014E+00
     -4.538  0.1728E+00  0.5174E+00
     -4.445  0.1736E+00  0.5336E+00
     -4.352  0.1776E+00  0.5501E+00
     -4.259  0.1872E+00  0.5675E+00
     -4.166  0.1920E+00  0.5853E+00
     -4.073  0.1998E+00  0.6039E+00
     -3.981  0.1991E+00  0.6224E+00
     -3.888  0.1897E+00  0.6400E+00
     -3.795  0.1815E+00  0.6569E+00
     -3.702  0.1793E+00  0.6736E+00
     -3.609  0.1795E+00  0.6903E+00
     -3.516  0.1786E+00  0.7069E+00
     -3.423  0.1871E+00  0.7243E+00
     -3.330  0.2005E+00  0.7429E+00
     -3.237  0.1997E+00  0.7615E+00
     -3.144  0.1904E+00  0.7792E+00
     -3.051  0.1905E+00  0.7969E+00
     -2.958  0.2018E+00  0.8156E+00
     -2.865  0.2101E+00  0.8352E+00
     -2.772  0.2104E+00  0.8547E+00
     -2.679  0.2081E+00  0.8740E+00
     -2.586  0.2007E+00  0.8927E+00
     -2.493  0.1839E+00  0.9098E+00
     -2.400  0.1748E+00  0.9260E+00
     -2.307  0.1754E+00  0.9424E+00
     -2.214  0.1830E+00  0.9594E+00
     -2.121  0.1984E+00  0.9778E+00
     -2.028  0.2038E+00  0.9968E+00
     -1.935  0.1981E+00  0.1015E+01
     -1.843  0.1919E+00  0.1033E+01
     -1.750  0.1760E+00  0.1049E+01
     -1.657  0.1604E+00  0.1064E+01
     -1.564  0.1411E+00  0.1077E+01
     -1.471  0.1139E+00  0.1088E+01
     -1.378  0.9026E-01  0.1096E+01
     -1.285  0.7434E-01  0.1103E+01
     -1.192  0.7371E-01  0.1110E+01
     -1.099  0.6834E-01  0.1116E+01
     -1.006  0.5305E-01  0.1121E+01
     -0.913  0.5266E-01  0.1126E+01
     -0.820  0.4707E-01  0.1131E+01
     -0.727  0.4543E-01  0.1135E+01
     -0.634  0.4831E-01  0.1139E+01
     -0.541  0.5345E-01  0.1144E+01
     -0.448  0.5882E-01  0.1150E+01
     -0.355  0.5492E-01  0.1155E+01
     -0.262  0.4234E-01  0.1159E+01
     -0.169  0.3404E-01  0.1162E+01
     -0.076  0.3092E-01  0.1165E+01
      0.017  0.2829E-01  0.1168E+01
      0.110  0.2161E-01  0.1170E+01
      0.203  0.1853E-01  0.1171E+01
      0.295  0.2440E-01  0.1174E+01
      0.388  0.2935E-01  0.1176E+01
      0.481  0.3527E-01  0.1180E+01
      0.574  0.3858E-01  0.1183E+01
      0.667  0.3589E-01  0.1186E+01
      0.760  0.3751E-01  0.1190E+01
      0.853  0.3152E-01  0.1193E+01
      0.946  0.2461E-01  0.1195E+01
      1.039  0.3271E-01  0.1198E+01
      1.132  0.3449E-01  0.1201E+01
      1.225  0.2574E-01  0.1204E+01
      1.318  0.1743E-01  0.1205E+01
      1.411  0.2074E-01  0.1207E+01
      1.504  0.2309E-01  0.1210E+01
      1.597  0.2176E-01  0.1212E+01
      1.690  0.2957E-01  0.1214E+01
      1.783  0.3484E-01  0.1218E+01
      1.876  0.3369E-01  0.1221E+01
      1.969  0.3352E-01  0.1224E+01
      2.062  0.3718E-01  0.1227E+01
      2.155  0.4039E-01  0.1231E+01
      2.248  0.3353E-01  0.1234E+01
      2.340  0.2846E-01  0.1237E+01
      2.433  0.3225E-01  0.1240E+01
      2.526  0.3463E-01  0.1243E+01
      2.619  0.2411E-01  0.1245E+01
      2.712  0.1993E-01  0.1247E+01
      2.805  0.2544E-01  0.1249E+01
      2.898  0.2732E-01  0.1252E+01
      2.991  0.2595E-01  0.1254E+01
      3.084  0.2083E-01  0.1256E+01
      3.177  0.2167E-01  0.1258E+01
      3.270  0.3329E-01  0.1261E+01
      3.363  0.3657E-01  0.1265E+01
      3.456  0.3303E-01  0.1268E+01
      3.549  0.3257E-01  0.1271E+01
      3.642  0.2962E-01  0.1274E+01
      3.735  0.3820E-01  0.1277E+01
      3.828  0.4592E-01  0.1281E+01
      3.921  0.3886E-01  0.1285E+01
      4.014  0.3363E-01  0.1288E+01
      4.107  0.3736E-01  0.1292E+01
      4.200  0.4244E-01  0.1296E+01
      4.293  0.4225E-01  0.1300E+01
      4.386  0.3669E-01  0.1303E+01
      4.478  0.3576E-01  0.1306E+01
      4.571  0.4438E-01  0.1310E+01
      4.664  0.4679E-01  0.1315E+01
      4.757  0.5629E-01  0.1320E+01
      4.850  0.6190E-01  0.1326E+01
      4.943  0.5589E-01  0.1331E+01
      5.036  0.5179E-01  0.1336E+01
      5.129  0.4942E-01  0.1340E+01
      5.222  0.3099E-01  0.1343E+01
      5.315  0.7509E-02  0.1344E+01
      5.408  0.4828E-03  0.1344E+01
      5.501  0.6836E-05  0.1344E+01
      5.594  0.1949E-07  0.1344E+01
      5.687  0.1070E-10  0.1344E+01
      5.780  0.1104E-14  0.1344E+01
      5.873  0.0000E+00  0.1344E+01
      5.966  0.0000E+00  0.1344E+01
      6.059  0.0000E+00  0.1344E+01
      6.152  0.0000E+00  0.1344E+01
      6.245  0.0000E+00  0.1344E+01
      6.338  0.0000E+00  0.1344E+01
      6.431  0.0000E+00  0.1344E+01
