       N       E                     dE             d eps       ncg     rms          rms(c)
DAV:   1     0.359803543212E+04    0.35980E+04   -0.20980E+05  4092   0.112E+03
DAV:   2     0.513329629818E+02   -0.35467E+04   -0.32939E+04  4848   0.270E+02
DAV:   3    -0.253039287604E+03   -0.30437E+03   -0.28302E+03  4644   0.754E+01
DAV:   4    -0.263795919872E+03   -0.10757E+02   -0.10571E+02  4608   0.147E+01
DAV:   5    -0.264079303674E+03   -0.28338E+00   -0.28270E+00  4656   0.236E+00    0.656E+01
RMM:   6    -0.248293177955E+03    0.15786E+02   -0.16474E+02  4037   0.193E+01    0.560E+01
RMM:   7    -0.240227939628E+03    0.80652E+01   -0.46565E+01  4032   0.106E+01    0.383E+01
RMM:   8    -0.252604880611E+03   -0.12377E+02   -0.53321E+01  4032   0.116E+01    0.463E+01
RMM:   9    -0.249783478286E+03    0.28214E+01   -0.43053E+01  4032   0.765E+00    0.394E+01
RMM:  10    -0.239859113833E+03    0.99244E+01   -0.58212E+00  4038   0.389E+00    0.217E+01
RMM:  11    -0.255007903324E+03   -0.15149E+02   -0.13537E+01  4032   0.525E+00    0.483E+01
RMM:  12    -0.235135595321E+03    0.19872E+02   -0.73316E+00  4035   0.386E+00    0.151E+01
RMM:  13    -0.232458025002E+03    0.26776E+01   -0.23139E+00  4038   0.229E+00    0.813E+00
RMM:  14    -0.232239480633E+03    0.21854E+00   -0.51341E-01  4038   0.107E+00    0.648E+00
RMM:  15    -0.232217909267E+03    0.21571E-01   -0.24611E-01  4038   0.756E-01    0.577E+00
RMM:  16    -0.232142443067E+03    0.75466E-01   -0.58457E-02  4038   0.373E-01    0.485E+00
RMM:  17    -0.232053349645E+03    0.89093E-01   -0.12816E-01  4037   0.516E-01    0.391E+00
RMM:  18    -0.231956229437E+03    0.97120E-01   -0.86825E-02  4036   0.433E-01    0.169E+00
RMM:  19    -0.231928971095E+03    0.27258E-01   -0.33282E-02  4036   0.262E-01    0.815E-01
RMM:  20    -0.231926664991E+03    0.23061E-02   -0.82572E-03  4038   0.131E-01    0.749E-01
RMM:  21    -0.231924625969E+03    0.20390E-02   -0.28958E-03  4037   0.803E-02    0.436E-01
RMM:  22    -0.231925259113E+03   -0.63314E-03   -0.28370E-03  4038   0.837E-02    0.386E-01
RMM:  23    -0.231924844872E+03    0.41424E-03   -0.19038E-03  4038   0.645E-02    0.243E-01
RMM:  24    -0.231924696912E+03    0.14796E-03   -0.69912E-04  4038   0.397E-02    0.146E-01
RMM:  25    -0.231924832330E+03   -0.13542E-03   -0.22654E-04  4037   0.223E-02    0.124E-01
RMM:  26    -0.231924953843E+03   -0.12151E-03   -0.98482E-05  4034   0.151E-02    0.101E-01
RMM:  27    -0.231925184116E+03   -0.23027E-03   -0.78241E-05  4037   0.124E-02    0.607E-02
RMM:  28    -0.231925443756E+03   -0.25964E-03   -0.32751E-05  4032   0.785E-03    0.334E-02
RMM:  29    -0.231925756982E+03   -0.31323E-03   -0.23599E-05  4002   0.630E-03    0.221E-02
RMM:  30    -0.231926124864E+03   -0.36788E-03   -0.19813E-05  4024   0.567E-03    0.242E-02
RMM:  31    -0.231926543110E+03   -0.41825E-03   -0.31050E-05  4013   0.677E-03    0.253E-02
RMM:  32    -0.231926686745E+03   -0.14364E-03   -0.86094E-06  3173   0.348E-03    0.238E-02
RMM:  33    -0.231926803000E+03   -0.11625E-03   -0.50223E-06  2934   0.255E-03    0.209E-02
RMM:  34    -0.231926898888E+03   -0.95888E-04   -0.41882E-06  2872   0.245E-03    0.158E-02
RMM:  35    -0.231926978431E+03   -0.79543E-04   -0.38768E-06  2844   0.228E-03    0.925E-03
RMM:  36    -0.231927008039E+03   -0.29607E-04   -0.12741E-06  2445   0.139E-03    0.689E-03
RMM:  37    -0.231927033169E+03   -0.25130E-04   -0.95512E-07  2385   0.119E-03    0.452E-03
RMM:  38    -0.231927048290E+03   -0.15121E-04   -0.52835E-07  2353   0.884E-04    0.286E-03
RMM:  39    -0.231927057670E+03   -0.93798E-05   -0.24473E-07  1655   0.624E-04    0.226E-03
RMM:  40    -0.231927063691E+03   -0.60219E-05   -0.11355E-07  1731   0.506E-04    0.166E-03
RMM:  41    -0.231927070440E+03   -0.67486E-05   -0.14448E-07  1772   0.520E-04    0.121E-03
RMM:  42    -0.231927073387E+03   -0.29468E-05   -0.51217E-08   985   0.381E-04    0.747E-04
RMM:  43    -0.231927075378E+03   -0.19909E-05   -0.86934E-08  1493   0.435E-04    0.417E-04
RMM:  44    -0.231927075921E+03   -0.54327E-06   -0.20677E-08   787   0.303E-04
   1 F= -.23192708E+03 E0= -.23183026E+03  d E =-.231927E+03
       N       E                     dE             d eps       ncg     rms          rms(c)
DAV:   1    -0.231939813749E+03   -0.12738E-01   -0.79997E+00  4176   0.489E+00    0.677E-01
RMM:   2    -0.231970037636E+03   -0.30224E-01   -0.20337E-01  4038   0.745E-01    0.129E+00
RMM:   3    -0.231962709039E+03    0.73286E-02   -0.15060E-02  4039   0.187E-01    0.907E-01
RMM:   4    -0.231959440863E+03    0.32682E-02   -0.67750E-03  4042   0.127E-01    0.634E-01
RMM:   5    -0.231956390349E+03    0.30505E-02   -0.36342E-03  4038   0.933E-02    0.353E-01
RMM:   6    -0.231956412894E+03   -0.22544E-04   -0.20185E-03  4038   0.690E-02    0.317E-01
RMM:   7    -0.231955697152E+03    0.71574E-03   -0.10854E-03  4038   0.527E-02    0.111E-01
RMM:   8    -0.231955619309E+03    0.77842E-04   -0.18456E-04  4038   0.210E-02    0.671E-02
RMM:   9    -0.231955598341E+03    0.20968E-04   -0.37016E-05  4035   0.933E-03    0.427E-02
RMM:  10    -0.231955587925E+03    0.10416E-04   -0.16438E-05  4032   0.620E-03    0.239E-02
RMM:  11    -0.231955587411E+03    0.51386E-06   -0.17288E-05  4032   0.630E-03    0.180E-02
RMM:  12    -0.231955587997E+03   -0.58678E-06   -0.90390E-06  4020   0.440E-03
   2 F= -.23195559E+03 E0= -.23185936E+03  d E =-.285121E-01
       N       E                     dE             d eps       ncg     rms          rms(c)
DAV:   1    -0.231954016661E+03    0.15707E-02   -0.34874E+00  4176   0.323E+00    0.454E-01
RMM:   2    -0.231966701515E+03   -0.12685E-01   -0.88281E-02  4038   0.492E-01    0.815E-01
RMM:   3    -0.231964446548E+03    0.22550E-02   -0.66975E-03  4040   0.125E-01    0.640E-01
RMM:   4    -0.231962432596E+03    0.20140E-02   -0.29579E-03  4041   0.835E-02    0.406E-01
RMM:   5    -0.231961261289E+03    0.11713E-02   -0.16765E-03  4038   0.633E-02    0.241E-01
RMM:   6    -0.231961248343E+03    0.12946E-04   -0.93223E-04  4038   0.469E-02    0.212E-01
RMM:   7    -0.231960939452E+03    0.30889E-03   -0.47684E-04  4038   0.348E-02    0.879E-02
RMM:   8    -0.231960895402E+03    0.44050E-04   -0.90784E-05  4038   0.148E-02    0.504E-02
RMM:   9    -0.231960882319E+03    0.13083E-04   -0.19420E-05  4030   0.676E-03    0.251E-02
RMM:  10    -0.231960880363E+03    0.19556E-05   -0.69247E-06  3798   0.407E-03    0.143E-02
RMM:  11    -0.231960882630E+03   -0.22668E-05   -0.78098E-06  4015   0.423E-03    0.120E-02
RMM:  12    -0.231960884902E+03   -0.22721E-05   -0.36477E-06  2790   0.290E-03    0.481E-03
RMM:  13    -0.231960886713E+03   -0.18112E-05   -0.87152E-07  2210   0.168E-03    0.264E-03
RMM:  14    -0.231960888425E+03   -0.17118E-05   -0.21918E-07  2198   0.844E-04    0.153E-03
RMM:  15    -0.231960889763E+03   -0.13378E-05   -0.39933E-08  1103   0.432E-04    0.101E-03
RMM:  16    -0.231960892545E+03   -0.27820E-05   -0.17179E-07  2133   0.559E-04    0.942E-04
RMM:  17    -0.231960894300E+03   -0.17553E-05   -0.29231E-08   779   0.354E-04    0.577E-04
RMM:  18    -0.231960895848E+03   -0.15481E-05   -0.69526E-08  1059   0.405E-04    0.536E-04
RMM:  19    -0.231960897248E+03   -0.13996E-05   -0.96422E-08  1235   0.429E-04    0.474E-04
RMM:  20    -0.231960898305E+03   -0.10577E-05   -0.96172E-08  1250   0.394E-04    0.381E-04
RMM:  21    -0.231960898809E+03   -0.50398E-06   -0.51951E-08   871   0.321E-04
   3 F= -.23196090E+03 E0= -.23186504E+03  d E =-.338229E-01
       N       E                     dE             d eps       ncg     rms          rms(c)
DAV:   1    -0.231972752631E+03   -0.11854E-01   -0.52841E+00  4056   0.384E+00    0.391E-01
RMM:   2    -0.231985639776E+03   -0.12887E-01   -0.10483E-01  4041   0.566E-01    0.730E-01
RMM:   3    -0.231984136671E+03    0.15031E-02   -0.68550E-03  4045   0.129E-01    0.574E-01
RMM:   4    -0.231983072654E+03    0.10640E-02   -0.26610E-03  4042   0.788E-02    0.438E-01
RMM:   5    -0.231981410551E+03    0.16621E-02   -0.93739E-04  4040   0.473E-02    0.202E-01
RMM:   6    -0.231981437659E+03   -0.27107E-04   -0.66371E-04  4038   0.397E-02    0.196E-01
RMM:   7    -0.231981399052E+03    0.38607E-04   -0.59417E-04  4038   0.369E-02    0.152E-01
RMM:   8    -0.231981231295E+03    0.16776E-03   -0.26933E-04  4038   0.252E-02    0.539E-02
RMM:   9    -0.231981210988E+03    0.20307E-04   -0.38317E-05  4038   0.960E-03    0.239E-02
RMM:  10    -0.231981206374E+03    0.46139E-05   -0.81526E-06  3990   0.431E-03    0.141E-02
RMM:  11    -0.231981205769E+03    0.60573E-06   -0.87878E-06  4005   0.439E-03
   4 F= -.23198121E+03 E0= -.23188568E+03  d E =-.203070E-01
       N       E                     dE             d eps       ncg     rms          rms(c)
DAV:   1    -0.231954383559E+03    0.26823E-01   -0.33108E+01  4032   0.961E+00    0.965E-01
RMM:   2    -0.232032562020E+03   -0.78178E-01   -0.65387E-01  4040   0.141E+00    0.171E+00
RMM:   3    -0.232026870282E+03    0.56917E-02   -0.42766E-02  4043   0.322E-01    0.144E+00
RMM:   4    -0.232018992005E+03    0.78783E-02   -0.15944E-02  4043   0.192E-01    0.107E+00
RMM:   5    -0.232008863405E+03    0.10129E-01   -0.57240E-03  4041   0.116E-01    0.478E-01
RMM:   6    -0.232008925891E+03   -0.62486E-04   -0.40004E-03  4038   0.971E-02    0.473E-01
RMM:   7    -0.232008705440E+03    0.22045E-03   -0.36238E-03  4038   0.908E-02    0.380E-01
RMM:   8    -0.232007660440E+03    0.10450E-02   -0.16963E-03  4038   0.632E-02    0.139E-01
RMM:   9    -0.232007526295E+03    0.13415E-03   -0.24339E-04  4039   0.243E-02    0.668E-02
RMM:  10    -0.232007491117E+03    0.35178E-04   -0.51560E-05  4038   0.109E-02    0.363E-02
RMM:  11    -0.232007488259E+03    0.28578E-05   -0.49895E-05  4032   0.105E-02    0.335E-02
RMM:  12    -0.232007483407E+03    0.48526E-05   -0.39148E-05  4038   0.913E-03    0.165E-02
RMM:  13    -0.232007482878E+03    0.52868E-06   -0.71756E-06  3529   0.418E-03
   5 F= -.23200748E+03 E0= -.23191274E+03  d E =-.465841E-01
       N       E                     dE             d eps       ncg     rms          rms(c)
DAV:   1    -0.232005232610E+03    0.22508E-02   -0.21084E+00  4128   0.243E+00    0.242E-01
RMM:   2    -0.232010253724E+03   -0.50211E-02   -0.41770E-02  4041   0.357E-01    0.435E-01
RMM:   3    -0.232009822648E+03    0.43108E-03   -0.27228E-03  4046   0.813E-02    0.369E-01
RMM:   4    -0.232009233699E+03    0.58895E-03   -0.99227E-04  4042   0.482E-02    0.256E-01
RMM:   5    -0.232008678675E+03    0.55502E-03   -0.35971E-04  4041   0.293E-02    0.123E-01
RMM:   6    -0.232008686098E+03   -0.74224E-05   -0.25589E-04  4038   0.246E-02    0.118E-01
RMM:   7    -0.232008678015E+03    0.80825E-05   -0.23194E-04  4037   0.230E-02    0.927E-02
RMM:   8    -0.232008616367E+03    0.61649E-04   -0.10212E-04  4037   0.155E-02    0.319E-02
RMM:   9    -0.232008609562E+03    0.68048E-05   -0.13934E-05  4028   0.580E-03    0.143E-02
RMM:  10    -0.232008608364E+03    0.11979E-05   -0.27262E-06  2413   0.262E-03    0.900E-03
RMM:  11    -0.232008608792E+03   -0.42854E-06   -0.36810E-06  2777   0.310E-03
   6 F= -.23200861E+03 E0= -.23191405E+03  d E =-.477100E-01
       N       E                     dE             d eps       ncg     rms          rms(c)
DAV:   1    -0.232013194347E+03   -0.45860E-02   -0.96131E+00  4032   0.538E+00    0.590E-01
RMM:   2    -0.232039164186E+03   -0.25970E-01   -0.21618E-01  4039   0.784E-01    0.978E-01
RMM:   3    -0.232032855006E+03    0.63092E-02   -0.13717E-02  4042   0.187E-01    0.525E-01
RMM:   4    -0.232036267560E+03   -0.34126E-02   -0.47285E-03  4045   0.103E-01    0.790E-01
RMM:   5    -0.232030904987E+03    0.53626E-02   -0.17068E-03  4044   0.607E-02    0.332E-01
RMM:   6    -0.232030984562E+03   -0.79575E-04   -0.13612E-03  4038   0.574E-02    0.285E-01
RMM:   7    -0.232030540172E+03    0.44439E-03   -0.11707E-03  4038   0.527E-02    0.142E-01
RMM:   8    -0.232030379181E+03    0.16099E-03   -0.31987E-04  4038   0.277E-02    0.566E-02
RMM:   9    -0.232030359526E+03    0.19656E-04   -0.43786E-05  4039   0.102E-02    0.341E-02
RMM:  10    -0.232030350709E+03    0.88165E-05   -0.13823E-05  4032   0.568E-03    0.197E-02
RMM:  11    -0.232030348824E+03    0.18849E-05   -0.12927E-05  4029   0.544E-03    0.148E-02
RMM:  12    -0.232030348595E+03    0.22951E-06   -0.91779E-06  4011   0.443E-03
   7 F= -.23203035E+03 E0= -.23193640E+03  d E =-.217398E-01
       N       E                     dE             d eps       ncg     rms          rms(c)
DAV:   1    -0.231996977357E+03    0.33371E-01   -0.28265E+01  4032   0.923E+00    0.101E+00
RMM:   2    -0.232072618904E+03   -0.75642E-01   -0.63509E-01  4040   0.134E+00    0.163E+00
RMM:   3    -0.232056462656E+03    0.16156E-01   -0.40027E-02  4042   0.317E-01    0.942E-01
RMM:   4    -0.232069370102E+03   -0.12907E-01   -0.15739E-02  4043   0.184E-01    0.150E+00
RMM:   5    -0.232049009993E+03    0.20360E-01   -0.56895E-03  4044   0.112E-01    0.562E-01
RMM:   6    -0.232049481163E+03   -0.47117E-03   -0.40885E-03  4038   0.999E-02    0.491E-01
RMM:   7    -0.232048017808E+03    0.14634E-02   -0.34309E-03  4038   0.901E-02    0.228E-01
RMM:   8    -0.232047602841E+03    0.41497E-03   -0.89526E-04  4038   0.464E-02    0.899E-02
RMM:   9    -0.232047556533E+03    0.46308E-04   -0.11795E-04  4039   0.166E-02    0.600E-02
RMM:  10    -0.232047528937E+03    0.27596E-04   -0.38883E-05  4034   0.957E-03    0.338E-02
RMM:  11    -0.232047524554E+03    0.43834E-05   -0.38684E-05  4036   0.941E-03    0.264E-02
RMM:  12    -0.232047523088E+03    0.14653E-05   -0.26707E-05  4034   0.757E-03    0.146E-02
RMM:  13    -0.232047522545E+03    0.54308E-06   -0.44409E-06  3030   0.332E-03
   8 F= -.23204752E+03 E0= -.23195457E+03  d E =-.389138E-01
       N       E                     dE             d eps       ncg     rms          rms(c)
DAV:   1    -0.232046437655E+03    0.10854E-02   -0.82156E-01  4152   0.157E+00    0.173E-01
RMM:   2    -0.232048612510E+03   -0.21749E-02   -0.18468E-02  4039   0.229E-01    0.274E-01
RMM:   3    -0.232048129953E+03    0.48256E-03   -0.11480E-03  4042   0.539E-02    0.157E-01
RMM:   4    -0.232048503293E+03   -0.37334E-03   -0.44400E-04  4045   0.312E-02    0.252E-01
RMM:   5    -0.232047939988E+03    0.56331E-03   -0.15996E-04  4044   0.187E-02    0.974E-02
RMM:   6    -0.232047962554E+03   -0.22566E-04   -0.12113E-04  4038   0.172E-02    0.852E-02
RMM:   7    -0.232047923022E+03    0.39532E-04   -0.10151E-04  4037   0.155E-02    0.400E-02
RMM:   8    -0.232047911527E+03    0.11495E-04   -0.25657E-05  4032   0.784E-03    0.150E-02
RMM:   9    -0.232047910458E+03    0.10692E-05   -0.31498E-06  2660   0.283E-03    0.969E-03
RMM:  10    -0.232047910221E+03    0.23661E-06   -0.12048E-06  2198   0.187E-03
   9 F= -.23204791E+03 E0= -.23195510E+03  d E =-.393014E-01
       N       E                     dE             d eps       ncg     rms          rms(c)
DAV:   1    -0.232051598527E+03   -0.36881E-02   -0.49673E+00  4032   0.365E+00    0.396E-01
RMM:   2    -0.232062247586E+03   -0.10649E-01   -0.94802E-02  4038   0.544E-01    0.603E-01
RMM:   3    -0.232060976286E+03    0.12713E-02   -0.63006E-03  4041   0.125E-01    0.477E-01
RMM:   4    -0.232061485779E+03   -0.50949E-03   -0.21846E-03  4047   0.700E-02    0.472E-01
RMM:   5    -0.232059481609E+03    0.20042E-02   -0.12503E-03  4039   0.528E-02    0.230E-01
RMM:   6    -0.232059451287E+03    0.30322E-04   -0.76855E-04  4038   0.423E-02    0.225E-01
RMM:   7    -0.232059277556E+03    0.17373E-03   -0.58597E-04  4038   0.370E-02    0.137E-01
RMM:   8    -0.232059148251E+03    0.12931E-03   -0.24205E-04  4038   0.237E-02    0.609E-02
RMM:   9    -0.232059120798E+03    0.27452E-04   -0.43040E-05  4035   0.992E-03    0.243E-02
RMM:  10    -0.232059116122E+03    0.46763E-05   -0.77881E-06  3988   0.426E-03    0.146E-02
RMM:  11    -0.232059115024E+03    0.10976E-05   -0.85965E-06  4008   0.437E-03    0.113E-02
RMM:  12    -0.232059114788E+03    0.23668E-06   -0.62008E-06  3768   0.367E-03
  10 F= -.23205911E+03 E0= -.23196672E+03  d E =-.112046E-01
       N       E                     dE             d eps       ncg     rms          rms(c)
DAV:   1    -0.232052626843E+03    0.64882E-02   -0.90108E+00  4032   0.492E+00    0.533E-01
RMM:   2    -0.232071646659E+03   -0.19020E-01   -0.17155E-01  4038   0.733E-01    0.787E-01
RMM:   3    -0.232069244659E+03    0.24020E-02   -0.11310E-02  4041   0.167E-01    0.611E-01
RMM:   4    -0.232070635705E+03   -0.13910E-02   -0.37765E-03  4048   0.919E-02    0.642E-01
RMM:   5    -0.232066960876E+03    0.36748E-02   -0.23338E-03  4039   0.717E-02    0.318E-01
RMM:   6    -0.232066861556E+03    0.99320E-04   -0.14181E-03  4038   0.575E-02    0.308E-01
RMM:   7    -0.232066499963E+03    0.36159E-03   -0.10684E-03  4038   0.500E-02    0.179E-01
RMM:   8    -0.232066278950E+03    0.22101E-03   -0.42519E-04  4038   0.314E-02    0.823E-02
RMM:   9    -0.232066229228E+03    0.49722E-04   -0.76129E-05  4039   0.132E-02    0.329E-02
RMM:  10    -0.232066221018E+03    0.82104E-05   -0.14422E-05  4030   0.579E-03    0.197E-02
RMM:  11    -0.232066219833E+03    0.11846E-05   -0.16091E-05  4032   0.597E-03    0.154E-02
RMM:  12    -0.232066220315E+03   -0.48192E-06   -0.11421E-05  3996   0.496E-03    0.876E-03
RMM:  13    -0.232066220803E+03   -0.48787E-06   -0.17013E-06  2287   0.215E-03
  11 F= -.23206622E+03 E0= -.23197435E+03  d E =-.183106E-01
       N       E                     dE             d eps       ncg     rms          rms(c)
DAV:   1    -0.232068464746E+03   -0.22444E-02   -0.58793E+00  4032   0.409E+00    0.417E-01
RMM:   2    -0.232080387095E+03   -0.11922E-01   -0.11903E-01  4040   0.597E-01    0.412E-01
RMM:   3    -0.232080566884E+03   -0.17979E-03   -0.67914E-03  4043   0.132E-01    0.468E-01
RMM:   4    -0.232080889723E+03   -0.32284E-03   -0.25324E-03  4045   0.741E-02    0.503E-01
RMM:   5    -0.232078815430E+03    0.20743E-02   -0.11883E-03  4040   0.503E-02    0.308E-01
RMM:   6    -0.232078413055E+03    0.40237E-03   -0.59417E-04  4038   0.374E-02    0.164E-01
RMM:   7    -0.232078405744E+03    0.73112E-05   -0.65657E-04  4038   0.395E-02    0.141E-01
RMM:   8    -0.232078261604E+03    0.14414E-03   -0.20950E-04  4038   0.225E-02    0.489E-02
RMM:   9    -0.232078249718E+03    0.11886E-04   -0.31314E-05  4036   0.881E-03    0.279E-02
RMM:  10    -0.232078242859E+03    0.68591E-05   -0.88160E-06  4009   0.452E-03    0.169E-02
RMM:  11    -0.232078241565E+03    0.12943E-05   -0.88255E-06  3996   0.445E-03    0.142E-02
RMM:  12    -0.232078240731E+03    0.83394E-06   -0.66928E-06  3865   0.380E-03
  12 F= -.23207824E+03 E0= -.23198667E+03  d E =-.120199E-01
       N       E                     dE             d eps       ncg     rms          rms(c)
DAV:   1    -0.232047184566E+03    0.31057E-01   -0.24739E+01  4032   0.840E+00    0.850E-01
RMM:   2    -0.232097297372E+03   -0.50113E-01   -0.50138E-01  4041   0.122E+00    0.836E-01
RMM:   3    -0.232096454453E+03    0.84292E-03   -0.27980E-02  4044   0.268E-01    0.868E-01
RMM:   4    -0.232098082744E+03   -0.16283E-02   -0.98791E-03  4047   0.149E-01    0.962E-01
RMM:   5    -0.232091296254E+03    0.67865E-02   -0.44707E-03  4041   0.960E-02    0.645E-01
RMM:   6    -0.232089133780E+03    0.21625E-02   -0.24102E-03  4038   0.746E-02    0.331E-01
RMM:   7    -0.232089028396E+03    0.10538E-03   -0.27110E-03  4038   0.803E-02    0.274E-01
RMM:   8    -0.232088479083E+03    0.54931E-03   -0.83529E-04  4038   0.448E-02    0.981E-02
RMM:   9    -0.232088430982E+03    0.48101E-04   -0.12298E-04  4039   0.174E-02    0.587E-02
RMM:  10    -0.232088401404E+03    0.29578E-04   -0.37071E-05  4036   0.928E-03    0.342E-02
RMM:  11    -0.232088398115E+03    0.32897E-05   -0.38315E-05  4034   0.926E-03    0.299E-02
RMM:  12    -0.232088396245E+03    0.18693E-05   -0.27635E-05  4036   0.770E-03    0.137E-02
RMM:  13    -0.232088396809E+03   -0.56402E-06   -0.45381E-06  3028   0.336E-03
  13 F= -.23208840E+03 E0= -.23199737E+03  d E =-.221760E-01
       N       E                     dE             d eps       ncg     rms          rms(c)
DAV:   1    -0.232085479808E+03    0.29164E-02   -0.76646E+00  4032   0.456E+00    0.419E-01
RMM:   2    -0.232099522917E+03   -0.14043E-01   -0.14133E-01  4041   0.668E-01    0.410E-01
RMM:   3    -0.232099303295E+03    0.21962E-03   -0.79860E-03  4044   0.141E-01    0.504E-01
RMM:   4    -0.232098612142E+03    0.69115E-03   -0.17545E-03  4052   0.653E-02    0.370E-01
RMM:   5    -0.232097876208E+03    0.73593E-03   -0.10056E-03  4045   0.469E-02    0.272E-01
RMM:   6    -0.232097397613E+03    0.47859E-03   -0.66569E-04  4039   0.389E-02    0.169E-01
RMM:   7    -0.232097382086E+03    0.15527E-04   -0.73507E-04  4038   0.411E-02    0.141E-01
RMM:   8    -0.232097237785E+03    0.14430E-03   -0.26876E-04  4038   0.251E-02    0.525E-02
RMM:   9    -0.232097222243E+03    0.15542E-04   -0.34755E-05  4039   0.917E-03    0.286E-02
RMM:  10    -0.232097213616E+03    0.86277E-05   -0.10087E-05  4025   0.484E-03    0.170E-02
RMM:  11    -0.232097212441E+03    0.11750E-05   -0.11294E-05  4022   0.495E-03    0.146E-02
RMM:  12    -0.232097212372E+03    0.68438E-07   -0.85934E-06  3983   0.424E-03
  14 F= -.23209721E+03 E0= -.23200647E+03  d E =-.881556E-02
       N       E                     dE             d eps       ncg     rms          rms(c)
DAV:   1    -0.232074721767E+03    0.22491E-01   -0.19206E+01  4032   0.722E+00    0.663E-01
RMM:   2    -0.232109843318E+03   -0.35122E-01   -0.35360E-01  4040   0.106E+00    0.646E-01
RMM:   3    -0.232109118438E+03    0.72488E-03   -0.19936E-02  4044   0.224E-01    0.773E-01
RMM:   4    -0.232107529308E+03    0.15891E-02   -0.42449E-03  4052   0.102E-01    0.574E-01
RMM:   5    -0.232105920368E+03    0.16089E-02   -0.24995E-03  4045   0.735E-02    0.440E-01
RMM:   6    -0.232104619662E+03    0.13007E-02   -0.16738E-03  4040   0.616E-02    0.272E-01
RMM:   7    -0.232104525327E+03    0.94335E-04   -0.18219E-03  4038   0.647E-02    0.221E-01
RMM:   8    -0.232104173671E+03    0.35166E-03   -0.67075E-04  4038   0.397E-02    0.831E-02
RMM:   9    -0.232104133828E+03    0.39842E-04   -0.87084E-05  4039   0.145E-02    0.456E-02
RMM:  10    -0.232104112498E+03    0.21330E-04   -0.25602E-05  4033   0.771E-03    0.266E-02
RMM:  11    -0.232104110723E+03    0.17754E-05   -0.28340E-05  4037   0.784E-03    0.232E-02
RMM:  12    -0.232104111904E+03   -0.11808E-05   -0.21590E-05  4032   0.671E-03    0.139E-02
RMM:  13    -0.232104112154E+03   -0.25079E-06   -0.33072E-06  2727   0.293E-03
  15 F= -.23210411E+03 E0= -.23201378E+03  d E =-.157153E-01
       N       E                     dE             d eps       ncg     rms          rms(c)
DAV:   1    -0.232102153771E+03    0.19581E-02   -0.15064E+00  4128   0.202E+00    0.185E-01
RMM:   2    -0.232104904179E+03   -0.27504E-02   -0.27707E-02  4040   0.296E-01    0.184E-01
RMM:   3    -0.232104866626E+03    0.37554E-04   -0.15618E-03  4044   0.626E-02    0.226E-01
RMM:   4    -0.232104724592E+03    0.14203E-03   -0.34988E-04  4052   0.291E-02    0.165E-01
RMM:   5    -0.232104576640E+03    0.14795E-03   -0.20167E-04  4045   0.211E-02    0.121E-01
RMM:   6    -0.232104486913E+03    0.89727E-04   -0.13105E-04  4043   0.173E-02    0.749E-02
RMM:   7    -0.232104487715E+03   -0.80182E-06   -0.14700E-04  4038   0.184E-02    0.609E-02
RMM:   8    -0.232104462341E+03    0.25374E-04   -0.51962E-05  4038   0.110E-02    0.234E-02
RMM:   9    -0.232104459898E+03    0.24431E-05   -0.65835E-06  3644   0.402E-03    0.129E-02
RMM:  10    -0.232104458801E+03    0.10969E-05   -0.18696E-06  2228   0.221E-03    0.787E-03
RMM:  11    -0.232104459446E+03   -0.64478E-06   -0.23401E-06  2270   0.252E-03
  16 F= -.23210446E+03 E0= -.23201423E+03  d E =-.160626E-01
       N       E                     dE             d eps       ncg     rms          rms(c)
DAV:   1    -0.232100475886E+03    0.39829E-02   -0.74198E+00  4032   0.465E+00    0.466E-01
RMM:   2    -0.232115880289E+03   -0.15404E-01   -0.15312E-01  4038   0.675E-01    0.457E-01
RMM:   3    -0.232115097444E+03    0.78285E-03   -0.83083E-03  4042   0.146E-01    0.467E-01
RMM:   4    -0.232114432094E+03    0.66535E-03   -0.19420E-03  4046   0.698E-02    0.374E-01
RMM:   5    -0.232114358366E+03    0.73729E-04   -0.11635E-03  4041   0.503E-02    0.357E-01
RMM:   6    -0.232113476982E+03    0.88138E-03   -0.70744E-04  4039   0.398E-02    0.200E-01
RMM:   7    -0.232113340280E+03    0.13670E-03   -0.79287E-04  4037   0.430E-02    0.117E-01
RMM:   8    -0.232113219285E+03    0.12100E-03   -0.21414E-04  4037   0.224E-02    0.412E-02
RMM:   9    -0.232113205898E+03    0.13386E-04   -0.25212E-05  4034   0.781E-03    0.258E-02
RMM:  10    -0.232113198759E+03    0.71394E-05   -0.99479E-06  4027   0.476E-03    0.165E-02
RMM:  11    -0.232113197603E+03    0.11560E-05   -0.81647E-06  4008   0.416E-03    0.141E-02
RMM:  12    -0.232113197049E+03    0.55334E-06   -0.66011E-06  3869   0.375E-03
  17 F= -.23211320E+03 E0= -.23202329E+03  d E =-.873760E-02
       N       E                     dE             d eps       ncg     rms          rms(c)
DAV:   1    -0.232085114554E+03    0.28083E-01   -0.21093E+01  4032   0.784E+00    0.789E-01
RMM:   2    -0.232128782391E+03   -0.43668E-01   -0.43452E-01  4038   0.114E+00    0.763E-01
RMM:   3    -0.232126658190E+03    0.21242E-02   -0.23590E-02  4042   0.246E-01    0.778E-01
RMM:   4    -0.232124257919E+03    0.24003E-02   -0.54355E-03  4046   0.117E-01    0.592E-01
RMM:   5    -0.232124635655E+03   -0.37774E-03   -0.31362E-03  4042   0.829E-02    0.600E-01
RMM:   6    -0.232122186445E+03    0.24492E-02   -0.20218E-03  4040   0.667E-02    0.350E-01
RMM:   7    -0.232121665939E+03    0.52051E-03   -0.22209E-03  4038   0.721E-02    0.193E-01
RMM:   8    -0.232121338622E+03    0.32732E-03   -0.58968E-04  4038   0.372E-02    0.728E-02
RMM:   9    -0.232121296744E+03    0.41878E-04   -0.72740E-05  4039   0.132E-02    0.450E-02
RMM:  10    -0.232121275316E+03    0.21428E-04   -0.28726E-05  4032   0.808E-03    0.278E-02
RMM:  11    -0.232121271454E+03    0.38622E-05   -0.23865E-05  4032   0.712E-03    0.233E-02
RMM:  12    -0.232121269058E+03    0.23961E-05   -0.18404E-05  4032   0.624E-03    0.140E-02
RMM:  13    -0.232121267480E+03    0.15774E-05   -0.33498E-06  2746   0.293E-03    0.452E-03
RMM:  14    -0.232121267585E+03   -0.10453E-06   -0.66294E-07  2163   0.147E-03
  18 F= -.23212127E+03 E0= -.23203186E+03  d E =-.168081E-01
       N       E                     dE             d eps       ncg     rms          rms(c)
DAV:   1    -0.232113608230E+03    0.76593E-02   -0.50519E+00  4032   0.383E+00    0.388E-01
RMM:   2    -0.232124060047E+03   -0.10452E-01   -0.10411E-01  4038   0.556E-01    0.376E-01
RMM:   3    -0.232123593418E+03    0.46663E-03   -0.56649E-03  4042   0.120E-01    0.393E-01
RMM:   4    -0.232123230739E+03    0.36268E-03   -0.13776E-03  4046   0.584E-02    0.327E-01
RMM:   5    -0.232123038845E+03    0.19189E-03   -0.84595E-04  4041   0.428E-02    0.297E-01
RMM:   6    -0.232122435222E+03    0.60362E-03   -0.49957E-04  4038   0.337E-02    0.162E-01
RMM:   7    -0.232122356856E+03    0.78366E-04   -0.53275E-04  4039   0.353E-02    0.979E-02
RMM:   8    -0.232122274348E+03    0.82508E-04   -0.14723E-04  4038   0.186E-02    0.367E-02
RMM:   9    -0.232122264503E+03    0.98450E-05   -0.18115E-05  4032   0.664E-03    0.221E-02
RMM:  10    -0.232122259251E+03    0.52522E-05   -0.68526E-06  3962   0.394E-03    0.137E-02
RMM:  11    -0.232122258237E+03    0.10131E-05   -0.56853E-06  3703   0.352E-03    0.111E-02
RMM:  12    -0.232122257854E+03    0.38381E-06   -0.44107E-06  3105   0.318E-03
  19 F= -.23212226E+03 E0= -.23203308E+03  d E =-.177984E-01
       N       E                     dE             d eps       ncg     rms          rms(c)
DAV:   1    -0.232117061672E+03    0.51966E-02   -0.87862E+00  4032   0.484E+00    0.438E-01
RMM:   2    -0.232134626398E+03   -0.17565E-01   -0.15822E-01  4038   0.716E-01    0.630E-01
RMM:   3    -0.232135839530E+03   -0.12131E-02   -0.10394E-02  4043   0.159E-01    0.724E-01
RMM:   4    -0.232131338817E+03    0.45007E-02   -0.32106E-03  4043   0.866E-02    0.351E-01
RMM:   5    -0.232130315422E+03    0.10234E-02   -0.10561E-03  4041   0.515E-02    0.184E-01
RMM:   6    -0.232130442827E+03   -0.12741E-03   -0.95336E-04  4038   0.466E-02    0.206E-01
RMM:   7    -0.232130229011E+03    0.21382E-03   -0.70658E-04  4038   0.402E-02    0.961E-02
RMM:   8    -0.232130151581E+03    0.77431E-04   -0.14674E-04  4040   0.186E-02    0.370E-02
RMM:   9    -0.232130139367E+03    0.12214E-04   -0.18816E-05  4035   0.677E-03    0.243E-02
RMM:  10    -0.232130133468E+03    0.58985E-05   -0.15511E-05  4023   0.586E-03    0.188E-02
RMM:  11    -0.232130133270E+03    0.19824E-06   -0.13372E-05  4032   0.536E-03    0.202E-02
RMM:  12    -0.232130131314E+03    0.19566E-05   -0.54285E-06  3507   0.352E-03    0.108E-02
RMM:  13    -0.232130130516E+03    0.79776E-06   -0.13111E-06  2183   0.199E-03
  20 F= -.23213013E+03 E0= -.23204117E+03  d E =-.787266E-02
       N       E                     dE             d eps       ncg     rms          rms(c)
DAV:   1    -0.232123068767E+03    0.70625E-02   -0.67397E+00  4032   0.424E+00    0.383E-01
RMM:   2    -0.232136494751E+03   -0.13426E-01   -0.12132E-01  4038   0.627E-01    0.545E-01
RMM:   3    -0.232137550108E+03   -0.10554E-02   -0.79932E-03  4043   0.139E-01    0.641E-01
RMM:   4    -0.232133966094E+03    0.35840E-02   -0.24414E-03  4043   0.755E-02    0.302E-01
RMM:   5    -0.232133224347E+03    0.74175E-03   -0.79720E-04  4041   0.449E-02    0.158E-01
RMM:   6    -0.232133329573E+03   -0.10523E-03   -0.73537E-04  4038   0.409E-02    0.179E-01
RMM:   7    -0.232133169860E+03    0.15971E-03   -0.53795E-04  4038   0.350E-02    0.854E-02
RMM:   8    -0.232133109830E+03    0.60030E-04   -0.11137E-04  4040   0.162E-02    0.328E-02
RMM:   9    -0.232133101451E+03    0.83785E-05   -0.15509E-05  4032   0.614E-03    0.252E-02
RMM:  10    -0.232133096431E+03    0.50206E-05   -0.85920E-06  3996   0.440E-03    0.182E-02
RMM:  11    -0.232133095300E+03    0.11308E-05   -0.10762E-05  4026   0.481E-03    0.167E-02
RMM:  12    -0.232133094106E+03    0.11938E-05   -0.57546E-06  3644   0.359E-03    0.804E-03
RMM:  13    -0.232133093596E+03    0.51055E-06   -0.10913E-06  2171   0.179E-03
  21 F= -.23213309E+03 E0= -.23204432E+03  d E =-.108357E-01
       N       E                     dE             d eps       ncg     rms          rms(c)
DAV:   1    -0.232131682200E+03    0.14119E-02   -0.45665E+00  4032   0.353E+00    0.380E-01
RMM:   2    -0.232142400919E+03   -0.10719E-01   -0.90167E-02  4038   0.531E-01    0.609E-01
RMM:   3    -0.232141825698E+03    0.57522E-03   -0.61558E-03  4041   0.123E-01    0.550E-01
RMM:   4    -0.232140205577E+03    0.16201E-02   -0.22699E-03  4044   0.721E-02    0.365E-01
RMM:   5    -0.232139124786E+03    0.10808E-02   -0.10342E-03  4038   0.496E-02    0.210E-01
RMM:   6    -0.232139034896E+03    0.89890E-04   -0.61384E-04  4039   0.376E-02    0.178E-01
RMM:   7    -0.232139008383E+03    0.26512E-04   -0.57412E-04  4038   0.371E-02    0.143E-01
RMM:   8    -0.232138845576E+03    0.16281E-03   -0.17507E-04  4038   0.201E-02    0.439E-02
RMM:   9    -0.232138833124E+03    0.12453E-04   -0.30824E-05  4032   0.849E-03    0.236E-02
RMM:  10    -0.232138828665E+03    0.44585E-05   -0.84231E-06  3986   0.434E-03    0.155E-02
RMM:  11    -0.232138827391E+03    0.12742E-05   -0.97402E-06  4012   0.464E-03    0.110E-02
RMM:  12    -0.232138827473E+03   -0.82553E-07   -0.38422E-06  2842   0.300E-03
  22 F= -.23213883E+03 E0= -.23205033E+03  d E =-.573388E-02
       N       E                     dE             d eps       ncg     rms          rms(c)
DAV:   1    -0.232136540097E+03    0.22873E-02   -0.22404E+00  4032   0.247E+00    0.268E-01
RMM:   2    -0.232141752515E+03   -0.52124E-02   -0.44283E-02  4038   0.372E-01    0.417E-01
RMM:   3    -0.232141569090E+03    0.18343E-03   -0.30388E-03  4041   0.864E-02    0.393E-01
RMM:   4    -0.232140705238E+03    0.86385E-03   -0.11150E-03  4044   0.505E-02    0.254E-01
RMM:   5    -0.232140192723E+03    0.51252E-03   -0.51194E-04  4039   0.349E-02    0.147E-01
RMM:   6    -0.232140151042E+03    0.41681E-04   -0.30430E-04  4038   0.264E-02    0.125E-01
RMM:   7    -0.232140137397E+03    0.13644E-04   -0.27994E-04  4038   0.259E-02    0.985E-02
RMM:   8    -0.232140060088E+03    0.77309E-04   -0.83521E-05  4038   0.139E-02    0.305E-02
RMM:   9    -0.232140054260E+03    0.58276E-05   -0.14684E-05  4028   0.587E-03    0.160E-02
RMM:  10    -0.232140052533E+03    0.17272E-05   -0.38307E-06  2859   0.302E-03    0.106E-02
RMM:  11    -0.232140052517E+03    0.15752E-07   -0.50727E-06  3541   0.350E-03
  23 F= -.23214005E+03 E0= -.23205172E+03  d E =-.695892E-02
       N       E                     dE             d eps       ncg     rms          rms(c)
DAV:   1    -0.232137008491E+03    0.30440E-02   -0.57594E+00  4032   0.385E+00    0.347E-01
RMM:   2    -0.232147138629E+03   -0.10130E-01   -0.97907E-02  4038   0.573E-01    0.418E-01
RMM:   3    -0.232147687741E+03   -0.54911E-03   -0.57481E-03  4042   0.121E-01    0.517E-01
RMM:   4    -0.232146425074E+03    0.12627E-02   -0.18011E-03  4042   0.645E-02    0.359E-01
RMM:   5    -0.232145294638E+03    0.11304E-02   -0.66071E-04  4039   0.395E-02    0.174E-01
RMM:   6    -0.232145184627E+03    0.11001E-03   -0.46982E-04  4038   0.327E-02    0.126E-01
RMM:   7    -0.232145192618E+03   -0.79914E-05   -0.59066E-04  4037   0.367E-02    0.115E-01
RMM:   8    -0.232145081833E+03    0.11078E-03   -0.15239E-04  4037   0.189E-02    0.408E-02
RMM:   9    -0.232145071786E+03    0.10047E-04   -0.21246E-05  4032   0.722E-03    0.237E-02
RMM:  10    -0.232145066330E+03    0.54566E-05   -0.75208E-06  3963   0.410E-03    0.142E-02
RMM:  11    -0.232145065661E+03    0.66865E-06   -0.83721E-06  4011   0.417E-03
  24 F= -.23214507E+03 E0= -.23205690E+03  d E =-.501314E-02
       N       E                     dE             d eps       ncg     rms          rms(c)
DAV:   1    -0.232140008331E+03    0.50580E-02   -0.51373E+00  4032   0.364E+00    0.328E-01
RMM:   2    -0.232149011625E+03   -0.90033E-02   -0.87274E-02  4038   0.541E-01    0.388E-01
RMM:   3    -0.232149468919E+03   -0.45729E-03   -0.51063E-03  4042   0.114E-01    0.484E-01
RMM:   4    -0.232148418221E+03    0.10507E-02   -0.15738E-03  4042   0.604E-02    0.340E-01
RMM:   5    -0.232147403105E+03    0.10151E-02   -0.58541E-04  4038   0.371E-02    0.163E-01
RMM:   6    -0.232147309367E+03    0.93737E-04   -0.41706E-04  4037   0.308E-02    0.120E-01
RMM:   7    -0.232147317893E+03   -0.85256E-05   -0.52209E-04  4037   0.345E-02    0.110E-01
RMM:   8    -0.232147214249E+03    0.10364E-03   -0.14051E-04  4037   0.182E-02    0.369E-02
RMM:   9    -0.232147206366E+03    0.78828E-05   -0.18474E-05  4032   0.674E-03    0.228E-02
RMM:  10    -0.232147201329E+03    0.50371E-05   -0.67678E-06  3935   0.390E-03    0.136E-02
RMM:  11    -0.232147200611E+03    0.71801E-06   -0.70249E-06  3970   0.385E-03
  25 F= -.23214720E+03 E0= -.23205915E+03  d E =-.714809E-02
       N       E                     dE             d eps       ncg     rms          rms(c)
DAV:   1    -0.232146606527E+03    0.59480E-03   -0.54727E-01  4176   0.119E+00    0.107E-01
RMM:   2    -0.232147564399E+03   -0.95787E-03   -0.93023E-03  4038   0.177E-01    0.125E-01
RMM:   3    -0.232147613382E+03   -0.48983E-04   -0.54158E-04  4042   0.371E-02    0.159E-01
RMM:   4    -0.232147499204E+03    0.11418E-03   -0.16690E-04  4041   0.197E-02    0.111E-01
RMM:   5    -0.232147394457E+03    0.10475E-03   -0.62365E-05  4038   0.122E-02    0.535E-02
RMM:   6    -0.232147385745E+03    0.87117E-05   -0.45344E-05  4037   0.101E-02    0.394E-02
RMM:   7    -0.232147387903E+03   -0.21583E-05   -0.55829E-05  4034   0.113E-02    0.354E-02
RMM:   8    -0.232147376747E+03    0.11156E-04   -0.14821E-05  4022   0.592E-03    0.106E-02
RMM:   9    -0.232147376131E+03    0.61644E-06   -0.15671E-06  2253   0.208E-03
  26 F= -.23214738E+03 E0= -.23205936E+03  d E =-.732361E-02
       N       E                     dE             d eps       ncg     rms          rms(c)
DAV:   1    -0.232143474837E+03    0.39019E-02   -0.56633E+00  4032   0.383E+00    0.387E-01
RMM:   2    -0.232153932380E+03   -0.10458E-01   -0.10063E-01  4038   0.577E-01    0.456E-01
RMM:   3    -0.232154074861E+03   -0.14248E-03   -0.58766E-03  4042   0.123E-01    0.474E-01
RMM:   4    -0.232153936830E+03    0.13803E-03   -0.22378E-03  4042   0.693E-02    0.466E-01
RMM:   5    -0.232151970829E+03    0.19660E-02   -0.12328E-03  4038   0.534E-02    0.220E-01
RMM:   6    -0.232151911997E+03    0.58832E-04   -0.79954E-04  4039   0.431E-02    0.179E-01
RMM:   7    -0.232151853337E+03    0.58660E-04   -0.61100E-04  4038   0.378E-02    0.145E-01
RMM:   8    -0.232151676431E+03    0.17691E-03   -0.16118E-04  4038   0.196E-02    0.413E-02
RMM:   9    -0.232151670690E+03    0.57414E-05   -0.22714E-05  4032   0.729E-03    0.299E-02
RMM:  10    -0.232151662605E+03    0.80852E-05   -0.91251E-06  4026   0.448E-03    0.176E-02
RMM:  11    -0.232151660914E+03    0.16904E-05   -0.10298E-05  4015   0.467E-03    0.136E-02
RMM:  12    -0.232151659861E+03    0.10534E-05   -0.70052E-06  3908   0.380E-03    0.574E-03
RMM:  13    -0.232151659930E+03   -0.69558E-07   -0.84005E-07  2181   0.155E-03
  27 F= -.23215166E+03 E0= -.23206373E+03  d E =-.428380E-02
       N       E                     dE             d eps       ncg     rms          rms(c)
DAV:   1    -0.232148284656E+03    0.33752E-02   -0.30686E+00  4032   0.282E+00    0.285E-01
RMM:   2    -0.232153944156E+03   -0.56595E-02   -0.54439E-02  4038   0.425E-01    0.338E-01
RMM:   3    -0.232154035989E+03   -0.91833E-04   -0.31804E-03  4042   0.902E-02    0.353E-01
RMM:   4    -0.232153891954E+03    0.14404E-03   -0.12107E-03  4042   0.510E-02    0.338E-01
RMM:   5    -0.232152871216E+03    0.10207E-02   -0.67355E-04  4038   0.395E-02    0.164E-01
RMM:   6    -0.232152838165E+03    0.33051E-04   -0.44129E-04  4039   0.320E-02    0.133E-01
RMM:   7    -0.232152804950E+03    0.33214E-04   -0.33369E-04  4038   0.279E-02    0.106E-01
RMM:   8    -0.232152709717E+03    0.95233E-04   -0.86798E-05  4038   0.144E-02    0.303E-02
RMM:   9    -0.232152706791E+03    0.29265E-05   -0.12156E-05  4031   0.533E-03    0.218E-02
RMM:  10    -0.232152702506E+03    0.42849E-05   -0.49439E-06  3456   0.334E-03    0.130E-02
RMM:  11    -0.232152701787E+03    0.71939E-06   -0.58401E-06  3850   0.360E-03
  28 F= -.23215270E+03 E0= -.23206483E+03  d E =-.532566E-02
       N       E                     dE             d eps       ncg     rms          rms(c)
DAV:   1    -0.232147809015E+03    0.48935E-02   -0.69935E+00  4032   0.421E+00    0.369E-01
RMM:   2    -0.232159297970E+03   -0.11489E-01   -0.11532E-01  4040   0.628E-01    0.371E-01
RMM:   3    -0.232159538303E+03   -0.24033E-03   -0.63077E-03  4043   0.129E-01    0.420E-01
RMM:   4    -0.232159429119E+03    0.10918E-03   -0.19942E-03  4043   0.657E-02    0.450E-01
RMM:   5    -0.232157579125E+03    0.18500E-02   -0.71735E-04  4040   0.411E-02    0.195E-01
RMM:   6    -0.232157539916E+03    0.39209E-04   -0.61507E-04  4038   0.373E-02    0.155E-01
RMM:   7    -0.232157541772E+03   -0.18562E-05   -0.72780E-04  4037   0.409E-02    0.142E-01
RMM:   8    -0.232157392679E+03    0.14909E-03   -0.17552E-04  4036   0.203E-02    0.511E-02
RMM:   9    -0.232157375448E+03    0.17230E-04   -0.33419E-05  4032   0.905E-03    0.275E-02
RMM:  10    -0.232157367145E+03    0.83038E-05   -0.11220E-05  3996   0.507E-03    0.151E-02
RMM:  11    -0.232157365943E+03    0.12015E-05   -0.14181E-05  4032   0.544E-03    0.122E-02
RMM:  12    -0.232157365578E+03    0.36471E-06   -0.56937E-06  3605   0.353E-03
  29 F= -.23215737E+03 E0= -.23206947E+03  d E =-.466379E-02
       N       E                     dE             d eps       ncg     rms          rms(c)
DAV:   1    -0.232150571572E+03    0.67944E-02   -0.66946E+00  4032   0.412E+00    0.360E-01
RMM:   2    -0.232161616881E+03   -0.11045E-01   -0.11034E-01  4040   0.615E-01    0.375E-01
RMM:   3    -0.232161769054E+03   -0.15217E-03   -0.60574E-03  4043   0.126E-01    0.409E-01
RMM:   4    -0.232161723789E+03    0.45265E-04   -0.19349E-03  4044   0.648E-02    0.445E-01
RMM:   5    -0.232159914973E+03    0.18088E-02   -0.69771E-04  4040   0.404E-02    0.195E-01
RMM:   6    -0.232159863236E+03    0.51737E-04   -0.58576E-04  4038   0.364E-02    0.150E-01
RMM:   7    -0.232159885028E+03   -0.21792E-04   -0.70498E-04  4037   0.403E-02    0.146E-01
RMM:   8    -0.232159727948E+03    0.15708E-03   -0.17901E-04  4037   0.205E-02    0.499E-02
RMM:   9    -0.232159711647E+03    0.16302E-04   -0.33058E-05  4032   0.901E-03    0.269E-02
RMM:  10    -0.232159703571E+03    0.80754E-05   -0.10851E-05  3997   0.497E-03    0.148E-02
RMM:  11    -0.232159702282E+03    0.12890E-05   -0.14072E-05  4031   0.541E-03    0.112E-02
RMM:  12    -0.232159702120E+03    0.16254E-06   -0.52128E-06  3450   0.340E-03
  30 F= -.23215970E+03 E0= -.23207178E+03  d E =-.700033E-02
       N       E                     dE             d eps       ncg     rms          rms(c)
DAV:   1    -0.232157119401E+03    0.25829E-02   -0.50352E+00  4032   0.360E+00    0.322E-01
RMM:   2    -0.232165558673E+03   -0.84393E-02   -0.85972E-02  4038   0.537E-01    0.300E-01
RMM:   3    -0.232164859599E+03    0.69907E-03   -0.43806E-03  4041   0.109E-01    0.247E-01
RMM:   4    -0.232164598409E+03    0.26119E-03   -0.88144E-04  4046   0.486E-02    0.228E-01
RMM:   5    -0.232164386261E+03    0.21215E-03   -0.40601E-04  4040   0.310E-02    0.164E-01
RMM:   6    -0.232164943146E+03   -0.55689E-03   -0.55135E-04  4039   0.336E-02    0.273E-01
RMM:   7    -0.232164317615E+03    0.62553E-03   -0.53705E-04  4038   0.340E-02    0.110E-01
RMM:   8    -0.232164207307E+03    0.11031E-03   -0.12711E-04  4038   0.169E-02    0.324E-02
RMM:   9    -0.232164200563E+03    0.67439E-05   -0.19138E-05  4032   0.678E-03    0.227E-02
RMM:  10    -0.232164195519E+03    0.50436E-05   -0.72302E-06  3902   0.412E-03    0.130E-02
RMM:  11    -0.232164195498E+03    0.21064E-07   -0.81208E-06  3997   0.413E-03
  31 F= -.23216420E+03 E0= -.23207638E+03  d E =-.449338E-02
       N       E                     dE             d eps       ncg     rms          rms(c)
DAV:   1    -0.232153131559E+03    0.11064E-01   -0.95778E+00  4032   0.497E+00    0.445E-01
RMM:   2    -0.232169180087E+03   -0.16049E-01   -0.16358E-01  4038   0.741E-01    0.410E-01
RMM:   3    -0.232167855123E+03    0.13250E-02   -0.83258E-03  4040   0.151E-01    0.334E-01
RMM:   4    -0.232167335074E+03    0.52005E-03   -0.16759E-03  4046   0.672E-02    0.304E-01
RMM:   5    -0.232166806010E+03    0.52906E-03   -0.77271E-04  4040   0.431E-02    0.179E-01
RMM:   6    -0.232167012322E+03   -0.20631E-03   -0.12196E-03  4038   0.527E-02    0.209E-01
RMM:   7    -0.232166930495E+03    0.81827E-04   -0.47636E-04  4038   0.318E-02    0.173E-01
RMM:   8    -0.232166658039E+03    0.27246E-03   -0.15238E-04  4039   0.181E-02    0.625E-02
RMM:   9    -0.232166625880E+03    0.32159E-04   -0.36972E-05  4033   0.952E-03    0.305E-02
RMM:  10    -0.232166616598E+03    0.92821E-05   -0.14532E-05  4026   0.580E-03    0.179E-02
RMM:  11    -0.232166616684E+03   -0.86111E-07   -0.16539E-05  4026   0.586E-03    0.187E-02
RMM:  12    -0.232166615442E+03    0.12419E-05   -0.79192E-06  3976   0.414E-03    0.890E-03
RMM:  13    -0.232166615411E+03    0.31308E-07   -0.12092E-06  2213   0.184E-03
  32 F= -.23216662E+03 E0= -.23207898E+03  d E =-.691329E-02
       N       E                     dE             d eps       ncg     rms          rms(c)
DAV:   1    -0.232163341188E+03    0.32743E-02   -0.45732E+00  4032   0.343E+00    0.299E-01
RMM:   2    -0.232170754029E+03   -0.74128E-02   -0.76731E-02  4038   0.508E-01    0.236E-01
RMM:   3    -0.232170326572E+03    0.42746E-03   -0.37724E-03  4042   0.101E-01    0.240E-01
RMM:   4    -0.232170517085E+03   -0.19051E-03   -0.77236E-04  4049   0.434E-02    0.281E-01
RMM:   5    -0.232169840648E+03    0.67644E-03   -0.36028E-04  4041   0.276E-02    0.138E-01
RMM:   6    -0.232169912671E+03   -0.72023E-04   -0.38834E-04  4039   0.298E-02    0.160E-01
RMM:   7    -0.232169768734E+03    0.14394E-03   -0.39244E-04  4036   0.298E-02    0.869E-02
RMM:   8    -0.232169720456E+03    0.48277E-04   -0.93078E-05  4036   0.148E-02    0.338E-02
RMM:   9    -0.232169713692E+03    0.67640E-05   -0.15401E-05  4032   0.621E-03    0.221E-02
RMM:  10    -0.232169709243E+03    0.44490E-05   -0.53056E-06  3533   0.362E-03    0.121E-02
RMM:  11    -0.232169708827E+03    0.41599E-06   -0.68355E-06  3908   0.382E-03
  33 F= -.23216971E+03 E0= -.23208209E+03  d E =-.309342E-02
       N       E                     dE             d eps       ncg     rms          rms(c)
DAV:   1    -0.232161319002E+03    0.83902E-02   -0.77095E+00  4032   0.446E+00    0.388E-01
RMM:   2    -0.232173817361E+03   -0.12498E-01   -0.12938E-01  4038   0.660E-01    0.307E-01
RMM:   3    -0.232173119620E+03    0.69774E-03   -0.63514E-03  4042   0.131E-01    0.314E-01
RMM:   4    -0.232173478745E+03   -0.35912E-03   -0.13154E-03  4049   0.566E-02    0.370E-01
RMM:   5    -0.232172287038E+03    0.11917E-02   -0.61746E-04  4041   0.361E-02    0.178E-01
RMM:   6    -0.232172404804E+03   -0.11777E-03   -0.66594E-04  4038   0.391E-02    0.205E-01
RMM:   7    -0.232172175275E+03    0.22953E-03   -0.65824E-04  4038   0.387E-02    0.117E-01
RMM:   8    -0.232172086443E+03    0.88832E-04   -0.15719E-04  4037   0.193E-02    0.442E-02
RMM:   9    -0.232172074795E+03    0.11648E-04   -0.26246E-05  4034   0.812E-03    0.287E-02
RMM:  10    -0.232172067236E+03    0.75596E-05   -0.91339E-06  3984   0.470E-03    0.160E-02
RMM:  11    -0.232172066235E+03    0.10013E-05   -0.11051E-05  4008   0.480E-03    0.153E-02
RMM:  12    -0.232172065009E+03    0.12257E-05   -0.75729E-06  3944   0.401E-03    0.748E-03
RMM:  13    -0.232172064726E+03    0.28325E-06   -0.94949E-07  2170   0.164E-03
  34 F= -.23217206E+03 E0= -.23208451E+03  d E =-.544931E-02
       N       E                     dE             d eps       ncg     rms          rms(c)
DAV:   1    -0.232127949431E+03    0.44116E-01   -0.30884E+01  4032   0.893E+00    0.773E-01
RMM:   2    -0.232178083557E+03   -0.50134E-01   -0.51755E-01  4038   0.132E+00    0.618E-01
RMM:   3    -0.232176035546E+03    0.20480E-02   -0.25633E-02  4042   0.263E-01    0.680E-01
RMM:   4    -0.232177448258E+03   -0.14127E-02   -0.55867E-03  4048   0.115E-01    0.777E-01
RMM:   5    -0.232171872890E+03    0.55754E-02   -0.25948E-03  4041   0.749E-02    0.331E-01
RMM:   6    -0.232172434956E+03   -0.56207E-03   -0.28052E-03  4038   0.801E-02    0.397E-01
RMM:   7    -0.232171532328E+03    0.90263E-03   -0.26310E-03  4039   0.775E-02    0.230E-01
RMM:   8    -0.232171197061E+03    0.33527E-03   -0.62081E-04  4038   0.383E-02    0.100E-01
RMM:   9    -0.232171135358E+03    0.61703E-04   -0.11396E-04  4038   0.169E-02    0.609E-02
RMM:  10    -0.232171102671E+03    0.32688E-04   -0.37667E-05  4037   0.958E-03    0.324E-02
RMM:  11    -0.232171097490E+03    0.51808E-05   -0.45825E-05  4034   0.978E-03    0.302E-02
RMM:  12    -0.232171092460E+03    0.50300E-05   -0.31583E-05  4036   0.817E-03    0.157E-02
RMM:  13    -0.232171090969E+03    0.14909E-05   -0.42494E-06  2973   0.332E-03    0.600E-03
RMM:  14    -0.232171090830E+03    0.13888E-06   -0.90615E-07  2172   0.167E-03
  35 F= -.23217109E+03 E0= -.23208358E+03  d E =-.447542E-02
       N       E                     dE             d eps       ncg     rms          rms(c)
DAV:   1    -0.232155045444E+03    0.16046E-01   -0.12626E+01  4032   0.571E+00    0.505E-01
RMM:   2    -0.232175695205E+03   -0.20650E-01   -0.21272E-01  4039   0.844E-01    0.426E-01
RMM:   3    -0.232173865685E+03    0.18295E-02   -0.10358E-02  4042   0.166E-01    0.350E-01
RMM:   4    -0.232173159688E+03    0.70600E-03   -0.15283E-03  4049   0.641E-02    0.257E-01
RMM:   5    -0.232173057886E+03    0.10180E-03   -0.93291E-04  4040   0.465E-02    0.231E-01
RMM:   6    -0.232174879729E+03   -0.18218E-02   -0.14533E-03  4038   0.534E-02    0.456E-01
RMM:   7    -0.232172753961E+03    0.21258E-02   -0.11149E-03  4039   0.487E-02    0.160E-01
RMM:   8    -0.232172636552E+03    0.11741E-03   -0.23629E-04  4038   0.245E-02    0.644E-02
RMM:   9    -0.232172615957E+03    0.20595E-04   -0.46575E-05  4034   0.108E-02    0.380E-02
RMM:  10    -0.232172601904E+03    0.14054E-04   -0.17136E-05  4014   0.633E-03    0.197E-02
RMM:  11    -0.232172600501E+03    0.14024E-05   -0.19220E-05  4026   0.634E-03    0.193E-02
RMM:  12    -0.232172598080E+03    0.24215E-05   -0.11260E-05  4002   0.490E-03    0.965E-03
RMM:  13    -0.232172597347E+03    0.73310E-06   -0.15122E-06  2243   0.205E-03
  36 F= -.23217260E+03 E0= -.23208507E+03  d E =-.598194E-02
       N       E                     dE             d eps       ncg     rms          rms(c)
DAV:   1    -0.232170374291E+03    0.22238E-02   -0.40778E+00  4032   0.326E+00    0.302E-01
RMM:   2    -0.232177464967E+03   -0.70907E-02   -0.70421E-02  4039   0.484E-01    0.324E-01
RMM:   3    -0.232177661648E+03   -0.19668E-03   -0.39579E-03  4043   0.102E-01    0.370E-01
RMM:   4    -0.232177355518E+03    0.30613E-03   -0.12688E-03  4045   0.527E-02    0.347E-01
RMM:   5    -0.232176313506E+03    0.10420E-02   -0.54364E-04  4040   0.354E-02    0.173E-01
RMM:   6    -0.232176290484E+03    0.23023E-04   -0.43993E-04  4038   0.327E-02    0.137E-01
RMM:   7    -0.232176292783E+03   -0.22997E-05   -0.44609E-04  4037   0.322E-02    0.120E-01
RMM:   8    -0.232176179399E+03    0.11338E-03   -0.13112E-04  4037   0.176E-02    0.369E-02
RMM:   9    -0.232176170679E+03    0.87203E-05   -0.19482E-05  4032   0.674E-03    0.223E-02
RMM:  10    -0.232176166114E+03    0.45647E-05   -0.56168E-06  3721   0.359E-03    0.134E-02
RMM:  11    -0.232176165260E+03    0.85445E-06   -0.70826E-06  3963   0.393E-03
  37 F= -.23217617E+03 E0= -.23208855E+03  d E =-.356791E-02
       N       E                     dE             d eps       ncg     rms          rms(c)
DAV:   1    -0.232159464991E+03    0.16701E-01   -0.13768E+01  4032   0.599E+00    0.554E-01
RMM:   2    -0.232183383915E+03   -0.23919E-01   -0.23740E-01  4039   0.889E-01    0.595E-01
RMM:   3    -0.232183838916E+03   -0.45500E-03   -0.13263E-02  4043   0.186E-01    0.663E-01
RMM:   4    -0.232183316035E+03    0.52288E-03   -0.42674E-03  4045   0.968E-02    0.651E-01
RMM:   5    -0.232179618260E+03    0.36978E-02   -0.18733E-03  4040   0.653E-02    0.327E-01
RMM:   6    -0.232179475196E+03    0.14306E-03   -0.15109E-03  4038   0.607E-02    0.252E-01
RMM:   7    -0.232179484177E+03   -0.89812E-05   -0.15121E-03  4037   0.592E-02    0.223E-01
RMM:   8    -0.232179094445E+03    0.38973E-03   -0.44812E-04  4037   0.326E-02    0.686E-02
RMM:   9    -0.232179064692E+03    0.29753E-04   -0.66793E-05  4037   0.125E-02    0.419E-02
RMM:  10    -0.232179049621E+03    0.15071E-04   -0.19397E-05  4032   0.664E-03    0.249E-02
RMM:  11    -0.232179047279E+03    0.23412E-05   -0.23902E-05  4034   0.715E-03    0.221E-02
RMM:  12    -0.232179045004E+03    0.22753E-05   -0.16698E-05  4031   0.584E-03    0.849E-03
RMM:  13    -0.232179045406E+03   -0.40147E-06   -0.15818E-06  2323   0.212E-03
  38 F= -.23217905E+03 E0= -.23209121E+03  d E =-.644806E-02
       N       E                     dE             d eps       ncg     rms          rms(c)
DAV:   1    -0.232176040011E+03    0.30050E-02   -0.45039E+00  4032   0.341E+00    0.306E-01
RMM:   2    -0.232184284718E+03   -0.82447E-02   -0.77912E-02  4039   0.509E-01    0.388E-01
RMM:   3    -0.232184814909E+03   -0.53019E-03   -0.46945E-03  4041   0.109E-01    0.476E-01
RMM:   4    -0.232183244268E+03    0.15706E-02   -0.14150E-03  4049   0.567E-02    0.298E-01
RMM:   5    -0.232182617969E+03    0.62630E-03   -0.57726E-04  4040   0.375E-02    0.161E-01
RMM:   6    -0.232182592072E+03    0.25897E-04   -0.45698E-04  4038   0.321E-02    0.143E-01
RMM:   7    -0.232182561335E+03    0.30738E-04   -0.48736E-04  4039   0.339E-02    0.113E-01
RMM:   8    -0.232182479409E+03    0.81926E-04   -0.13152E-04  4039   0.177E-02    0.455E-02
RMM:   9    -0.232182466982E+03    0.12427E-04   -0.23752E-05  4032   0.762E-03    0.247E-02
RMM:  10    -0.232182461342E+03    0.56398E-05   -0.69041E-06  3970   0.400E-03    0.137E-02
RMM:  11    -0.232182460805E+03    0.53764E-06   -0.10174E-05  4020   0.464E-03    0.111E-02
RMM:  12    -0.232182460564E+03    0.24113E-06   -0.46400E-06  3319   0.322E-03
  39 F= -.23218246E+03 E0= -.23209446E+03  d E =-.341516E-02
       N       E                     dE             d eps       ncg     rms          rms(c)
DAV:   1    -0.232177822707E+03    0.46381E-02   -0.40779E+00  4032   0.325E+00    0.291E-01
RMM:   2    -0.232185287626E+03   -0.74649E-02   -0.70523E-02  4039   0.484E-01    0.369E-01
RMM:   3    -0.232185773378E+03   -0.48575E-03   -0.42612E-03  4041   0.104E-01    0.454E-01
RMM:   4    -0.232184335286E+03    0.14381E-02   -0.12741E-03  4049   0.539E-02    0.282E-01
RMM:   5    -0.232183774547E+03    0.56074E-03   -0.52151E-04  4040   0.357E-02    0.152E-01
RMM:   6    -0.232183752022E+03    0.22525E-04   -0.41554E-04  4038   0.306E-02    0.136E-01
RMM:   7    -0.232183726103E+03    0.25919E-04   -0.44416E-04  4039   0.324E-02    0.107E-01
RMM:   8    -0.232183650348E+03    0.75755E-04   -0.11784E-04  4039   0.167E-02    0.436E-02
RMM:   9    -0.232183639353E+03    0.10996E-04   -0.21471E-05  4032   0.725E-03    0.234E-02
RMM:  10    -0.232183634140E+03    0.52125E-05   -0.63104E-06  3919   0.382E-03    0.129E-02
RMM:  11    -0.232183633472E+03    0.66787E-06   -0.96055E-06  4013   0.451E-03
  40 F= -.23218363E+03 E0= -.23209548E+03  d E =-.458807E-02
       N       E                     dE             d eps       ncg     rms          rms(c)
DAV:   1    -0.232180683364E+03    0.29508E-02   -0.35137E+00  4032   0.309E+00    0.290E-01
RMM:   2    -0.232187081383E+03   -0.63980E-02   -0.65412E-02  4038   0.456E-01    0.245E-01
RMM:   3    -0.232186800141E+03    0.28124E-03   -0.33128E-03  4041   0.936E-02    0.254E-01
RMM:   4    -0.232186711339E+03    0.88803E-04   -0.75527E-04  4048   0.430E-02    0.235E-01
RMM:   5    -0.232186401501E+03    0.30984E-03   -0.34452E-04  4047   0.267E-02    0.177E-01
RMM:   6    -0.232186319637E+03    0.81864E-04   -0.38368E-04  4039   0.298E-02    0.141E-01
RMM:   7    -0.232186206894E+03    0.11274E-03   -0.34720E-04  4038   0.288E-02    0.555E-02
RMM:   8    -0.232186189270E+03    0.17624E-04   -0.53392E-05  4038   0.113E-02    0.340E-02
RMM:   9    -0.232186182246E+03    0.70233E-05   -0.10079E-05  4005   0.491E-03    0.224E-02
RMM:  10    -0.232186178329E+03    0.39171E-05   -0.36929E-06  2789   0.310E-03    0.119E-02
RMM:  11    -0.232186177857E+03    0.47258E-06   -0.53048E-06  3709   0.351E-03
  41 F= -.23218618E+03 E0= -.23209787E+03  d E =-.254438E-02
       N       E                     dE             d eps       ncg     rms          rms(c)
DAV:   1    -0.232183954230E+03    0.22241E-02   -0.18301E+00  4032   0.223E+00    0.209E-01
RMM:   2    -0.232187299296E+03   -0.33451E-02   -0.34103E-02  4038   0.329E-01    0.182E-01
RMM:   3    -0.232187158395E+03    0.14090E-03   -0.17421E-03  4041   0.678E-02    0.186E-01
RMM:   4    -0.232187164568E+03   -0.61726E-05   -0.42287E-04  4048   0.318E-02    0.189E-01
RMM:   5    -0.232186898242E+03    0.26633E-03   -0.18190E-04  4047   0.195E-02    0.118E-01
RMM:   6    -0.232186883895E+03    0.14347E-04   -0.19705E-04  4038   0.215E-02    0.991E-02
RMM:   7    -0.232186838252E+03    0.45644E-04   -0.18309E-04  4039   0.209E-02    0.491E-02
RMM:   8    -0.232186823512E+03    0.14739E-04   -0.30130E-05  4035   0.849E-03    0.257E-02
RMM:   9    -0.232186819679E+03    0.38335E-05   -0.64600E-06  3685   0.394E-03    0.164E-02
RMM:  10    -0.232186817464E+03    0.22146E-05   -0.19858E-06  2262   0.234E-03    0.887E-03
RMM:  11    -0.232186817183E+03    0.28119E-06   -0.24376E-06  2223   0.255E-03
  42 F= -.23218682E+03 E0= -.23209841E+03  d E =-.318371E-02
       N       E                     dE             d eps       ncg     rms          rms(c)
DAV:   1    -0.232186536448E+03    0.28102E-03   -0.12290E+00  4056   0.180E+00    0.168E-01
RMM:   2    -0.232188671036E+03   -0.21346E-02   -0.21725E-02  4040   0.268E-01    0.152E-01
RMM:   3    -0.232188950569E+03   -0.27953E-03   -0.12432E-03  4042   0.572E-02    0.238E-01
RMM:   4    -0.232188625035E+03    0.32553E-03   -0.37039E-04  4045   0.285E-02    0.162E-01
RMM:   5    -0.232188405113E+03    0.21992E-03   -0.18931E-04  4039   0.213E-02    0.871E-02
RMM:   6    -0.232188404331E+03    0.78155E-06   -0.12367E-04  4038   0.167E-02    0.786E-02
RMM:   7    -0.232188386747E+03    0.17584E-04   -0.10490E-04  4036   0.154E-02    0.445E-02
RMM:   8    -0.232188374748E+03    0.11998E-04   -0.21864E-05  4032   0.740E-03    0.197E-02
RMM:   9    -0.232188372561E+03    0.21877E-05   -0.37349E-06  2826   0.310E-03    0.137E-02
RMM:  10    -0.232188371023E+03    0.15375E-05   -0.18620E-06  2199   0.231E-03    0.833E-03
RMM:  11    -0.232188370569E+03    0.45425E-06   -0.20356E-06  2180   0.235E-03
  43 F= -.23218837E+03 E0= -.23210005E+03  d E =-.155339E-02
       N       E                     dE             d eps       ncg     rms          rms(c)
DAV:   1    -0.232187259759E+03    0.11113E-02   -0.12595E+00  4032   0.182E+00    0.170E-01
RMM:   2    -0.232189438445E+03   -0.21787E-02   -0.22244E-02  4040   0.271E-01    0.151E-01
RMM:   3    -0.232189747832E+03   -0.30939E-03   -0.12645E-03  4042   0.577E-02    0.244E-01
RMM:   4    -0.232189389027E+03    0.35880E-03   -0.37707E-04  4046   0.288E-02    0.160E-01
RMM:   5    -0.232189174558E+03    0.21447E-03   -0.18821E-04  4039   0.213E-02    0.854E-02
RMM:   6    -0.232189177523E+03   -0.29650E-05   -0.13035E-04  4038   0.172E-02    0.808E-02
RMM:   7    -0.232189157953E+03    0.19570E-04   -0.10397E-04  4036   0.153E-02    0.464E-02
RMM:   8    -0.232189144915E+03    0.13038E-04   -0.21624E-05  4032   0.736E-03    0.197E-02
RMM:   9    -0.232189142777E+03    0.21382E-05   -0.38309E-06  2872   0.315E-03    0.134E-02
RMM:  10    -0.232189141293E+03    0.14836E-05   -0.19071E-06  2208   0.233E-03    0.825E-03
RMM:  11    -0.232189140929E+03    0.36423E-06   -0.21020E-06  2188   0.238E-03
  44 F= -.23218914E+03 E0= -.23210089E+03  d E =-.232375E-02
       N       E                     dE             d eps       ncg     rms          rms(c)
DAV:   1    -0.232188846433E+03    0.29486E-03   -0.26400E-01  4128   0.835E-01    0.783E-02
RMM:   2    -0.232189301520E+03   -0.45509E-03   -0.46699E-03  4040   0.124E-01    0.681E-02
RMM:   3    -0.232189362107E+03   -0.60587E-04   -0.26364E-04  4042   0.264E-02    0.110E-01
RMM:   4    -0.232189292693E+03    0.69414E-04   -0.78446E-05  4047   0.131E-02    0.741E-02
RMM:   5    -0.232189246968E+03    0.45725E-04   -0.39169E-05  4039   0.966E-03    0.390E-02
RMM:   6    -0.232189248915E+03   -0.19476E-05   -0.27805E-05  4032   0.794E-03    0.373E-02
RMM:   7    -0.232189245626E+03    0.32895E-05   -0.22250E-05  4032   0.710E-03    0.228E-02
RMM:   8    -0.232189242412E+03    0.32137E-05   -0.44548E-06  3070   0.341E-03    0.865E-03
RMM:   9    -0.232189242081E+03    0.33122E-06   -0.87282E-07  2161   0.160E-03
  45 F= -.23218924E+03 E0= -.23210103E+03  d E =-.242490E-02
       N       E                     dE             d eps       ncg     rms          rms(c)
DAV:   1    -0.232187551566E+03    0.16908E-02   -0.20436E+00  4032   0.233E+00    0.212E-01
RMM:   2    -0.232191402921E+03   -0.38514E-02   -0.37132E-02  4039   0.349E-01    0.272E-01
RMM:   3    -0.232191038645E+03    0.36428E-03   -0.19678E-03  4043   0.724E-02    0.207E-01
RMM:   4    -0.232191103487E+03   -0.64843E-04   -0.48255E-04  4045   0.344E-02    0.226E-01
RMM:   5    -0.232190850751E+03    0.25274E-03   -0.26019E-04  4041   0.237E-02    0.158E-01
RMM:   6    -0.232190736483E+03    0.11427E-03   -0.23854E-04  4038   0.230E-02    0.102E-01
RMM:   7    -0.232190715099E+03    0.21384E-04   -0.24401E-04  4036   0.239E-02    0.730E-02
RMM:   8    -0.232190675752E+03    0.39347E-04   -0.57476E-05  4036   0.117E-02    0.252E-02
RMM:   9    -0.232190672444E+03    0.33081E-05   -0.78717E-06  3899   0.440E-03    0.168E-02
RMM:  10    -0.232190669799E+03    0.26442E-05   -0.28578E-06  2346   0.269E-03    0.998E-03
RMM:  11    -0.232190669412E+03    0.38724E-06   -0.62183E-06  3922   0.375E-03
  46 F= -.23219067E+03 E0= -.23210240E+03  d E =-.142733E-02
       N       E                     dE             d eps       ncg     rms          rms(c)
DAV:   1    -0.232189940502E+03    0.72930E-03   -0.65317E-01  4032   0.132E+00    0.119E-01
RMM:   2    -0.232191166030E+03   -0.12255E-02   -0.11858E-02  4039   0.198E-01    0.154E-01
RMM:   3    -0.232191056099E+03    0.10993E-03   -0.62295E-04  4043   0.407E-02    0.121E-01
RMM:   4    -0.232191100804E+03   -0.44705E-04   -0.16478E-04  4044   0.198E-02    0.138E-01
RMM:   5    -0.232190977323E+03    0.12348E-03   -0.90925E-05  4040   0.141E-02    0.857E-02
RMM:   6    -0.232190949687E+03    0.27636E-04   -0.75955E-05  4038   0.130E-02    0.562E-02
RMM:   7    -0.232190945644E+03    0.40432E-05   -0.81438E-05  4033   0.138E-02    0.394E-02
RMM:   8    -0.232190933697E+03    0.11947E-04   -0.17591E-05  4032   0.646E-03    0.137E-02
RMM:   9    -0.232190932942E+03    0.75508E-06   -0.21310E-06  2424   0.240E-03
  47 F= -.23219093E+03 E0= -.23210262E+03  d E =-.169086E-02
       N       E                     dE             d eps       ncg     rms          rms(c)
DAV:   1    -0.232189608662E+03    0.13250E-02   -0.19786E+00  4032   0.225E+00    0.211E-01
RMM:   2    -0.232193313967E+03   -0.37053E-02   -0.33256E-02  4040   0.337E-01    0.338E-01
RMM:   3    -0.232192526653E+03    0.78731E-03   -0.20254E-03  4044   0.727E-02    0.159E-01
RMM:   4    -0.232192926456E+03   -0.39980E-03   -0.45561E-04  4041   0.334E-02    0.246E-01
RMM:   5    -0.232192468746E+03    0.45771E-03   -0.26180E-04  4038   0.234E-02    0.138E-01
RMM:   6    -0.232192414164E+03    0.54582E-04   -0.23987E-04  4037   0.236E-02    0.968E-02
RMM:   7    -0.232192414557E+03   -0.39257E-06   -0.21810E-04  4035   0.227E-02    0.855E-02
RMM:   8    -0.232192359496E+03    0.55061E-04   -0.62628E-05  4035   0.119E-02    0.292E-02
RMM:   9    -0.232192356495E+03    0.30014E-05   -0.98745E-06  3983   0.499E-03    0.150E-02
RMM:  10    -0.232192354238E+03    0.22568E-05   -0.29334E-06  2445   0.277E-03    0.989E-03
RMM:  11    -0.232192353675E+03    0.56266E-06   -0.44896E-06  3254   0.334E-03
  48 F= -.23219235E+03 E0= -.23210386E+03  d E =-.142073E-02
       N       E                     dE             d eps       ncg     rms          rms(c)
DAV:   1    -0.232190756750E+03    0.15975E-02   -0.14340E+00  4032   0.191E+00    0.179E-01
RMM:   2    -0.232193416754E+03   -0.26600E-02   -0.24003E-02  4040   0.286E-01    0.283E-01
RMM:   3    -0.232192836890E+03    0.57986E-03   -0.14460E-03  4044   0.615E-02    0.124E-01
RMM:   4    -0.232192876624E+03   -0.39734E-04   -0.24816E-04  4043   0.259E-02    0.141E-01
RMM:   5    -0.232192939053E+03   -0.62430E-04   -0.16111E-04  4039   0.184E-02    0.152E-01
RMM:   6    -0.232192790193E+03    0.14886E-03   -0.18667E-04  4038   0.200E-02    0.935E-02
RMM:   7    -0.232192777147E+03    0.13046E-04   -0.16060E-04  4032   0.195E-02    0.733E-02
RMM:   8    -0.232192736043E+03    0.41104E-04   -0.44862E-05  4032   0.101E-02    0.242E-02
RMM:   9    -0.232192733937E+03    0.21060E-05   -0.66371E-06  3532   0.411E-03    0.130E-02
RMM:  10    -0.232192732338E+03    0.15980E-05   -0.22514E-06  2306   0.246E-03    0.865E-03
RMM:  11    -0.232192732005E+03    0.33387E-06   -0.32269E-06  2474   0.292E-03
  49 F= -.23219273E+03 E0= -.23210409E+03  d E =-.179906E-02
       N       E                     dE             d eps       ncg     rms          rms(c)
DAV:   1    -0.232190025003E+03    0.27073E-02   -0.26085E+00  4032   0.263E+00    0.225E-01
RMM:   2    -0.232194602041E+03   -0.45770E-02   -0.45163E-02  4040   0.386E-01    0.238E-01
RMM:   3    -0.232194425066E+03    0.17698E-03   -0.24298E-03  4045   0.800E-02    0.247E-01
RMM:   4    -0.232194268976E+03    0.15609E-03   -0.56469E-04  4041   0.378E-02    0.203E-01
RMM:   5    -0.232194011735E+03    0.25724E-03   -0.22195E-04  4039   0.214E-02    0.142E-01
RMM:   6    -0.232193938423E+03    0.73312E-04   -0.19071E-04  4038   0.210E-02    0.100E-01
RMM:   7    -0.232193912871E+03    0.25551E-04   -0.26549E-04  4037   0.249E-02    0.676E-02
RMM:   8    -0.232193879969E+03    0.32902E-04   -0.70056E-05  4037   0.128E-02    0.285E-02
RMM:   9    -0.232193874321E+03    0.56488E-05   -0.80334E-06  3899   0.447E-03    0.163E-02
RMM:  10    -0.232193871756E+03    0.25649E-05   -0.28121E-06  2397   0.271E-03    0.103E-02
RMM:  11    -0.232193871086E+03    0.66990E-06   -0.37562E-06  2799   0.313E-03
  50 F= -.23219387E+03 E0= -.23210520E+03  d E =-.113908E-02
       N       E                     dE             d eps       ncg     rms          rms(c)
DAV:   1    -0.232192752284E+03    0.11195E-02   -0.92719E-01  4032   0.157E+00    0.135E-01
RMM:   2    -0.232194381578E+03   -0.16293E-02   -0.16104E-02  4040   0.230E-01    0.143E-01
RMM:   3    -0.232194295118E+03    0.86460E-04   -0.86228E-04  4045   0.478E-02    0.142E-01
RMM:   4    -0.232194211447E+03    0.83671E-04   -0.18014E-04  4041   0.219E-02    0.101E-01
RMM:   5    -0.232194189733E+03    0.21714E-04   -0.76814E-05  4038   0.127E-02    0.923E-02
RMM:   6    -0.232194151284E+03    0.38449E-04   -0.67086E-05  4038   0.122E-02    0.660E-02
RMM:   7    -0.232194138684E+03    0.12600E-04   -0.95243E-05  4035   0.149E-02    0.419E-02
RMM:   8    -0.232194125379E+03    0.13305E-04   -0.26108E-05  4032   0.777E-03    0.155E-02
RMM:   9    -0.232194123831E+03    0.15478E-05   -0.24803E-06  2486   0.261E-03    0.962E-03
RMM:  10    -0.232194123014E+03    0.81696E-06   -0.10839E-06  2152   0.180E-03
  51 F= -.23219412E+03 E0= -.23210542E+03  d E =-.139101E-02
       N       E                     dE             d eps       ncg     rms          rms(c)
DAV:   1    -0.232191587898E+03    0.25359E-02   -0.18749E+00  4032   0.234E+00    0.239E-01
RMM:   2    -0.232195420942E+03   -0.38330E-02   -0.39179E-02  4039   0.342E-01    0.174E-01
RMM:   3    -0.232196528412E+03   -0.11075E-02   -0.21043E-03  4041   0.732E-02    0.386E-01
RMM:   4    -0.232195215616E+03    0.13128E-02   -0.71207E-04  4047   0.391E-02    0.176E-01
RMM:   5    -0.232195062593E+03    0.15302E-03   -0.31857E-04  4039   0.278E-02    0.152E-01
RMM:   6    -0.232195002527E+03    0.60066E-04   -0.19481E-04  4038   0.215E-02    0.102E-01
RMM:   7    -0.232194939842E+03    0.62685E-04   -0.16512E-04  4038   0.199E-02    0.473E-02
RMM:   8    -0.232194930354E+03    0.94886E-05   -0.30118E-05  4032   0.839E-03    0.243E-02
RMM:   9    -0.232194926435E+03    0.39188E-05   -0.57056E-06  3416   0.378E-03    0.137E-02
RMM:  10    -0.232194924571E+03    0.18638E-05   -0.24650E-06  2359   0.260E-03    0.821E-03
RMM:  11    -0.232194924512E+03    0.59044E-07   -0.25759E-06  2249   0.260E-03
  52 F= -.23219492E+03 E0= -.23210617E+03  d E =-.801498E-03
       N       E                     dE             d eps       ncg     rms          rms(c)
DAV:   1    -0.232194924180E+03    0.39084E-06   -0.49186E-04  4188   0.381E-02    0.573E-03
RMM:   2    -0.232194926273E+03   -0.20927E-05   -0.12906E-05  4031   0.635E-03    0.933E-03
RMM:   3    -0.232194925963E+03    0.30985E-06   -0.12099E-06  2237   0.184E-03
  53 F= -.23219493E+03 E0= -.23210619E+03  d E =-.802949E-03
       N       E                     dE             d eps       ncg     rms          rms(c)
DAV:   1    -0.232193173534E+03    0.17527E-02   -0.16407E+00  4032   0.210E+00    0.197E-01
RMM:   2    -0.232196372653E+03   -0.31991E-02   -0.29727E-02  4044   0.310E-01    0.250E-01
RMM:   3    -0.232196941385E+03   -0.56873E-03   -0.19479E-03  4048   0.687E-02    0.352E-01
RMM:   4    -0.232195879491E+03    0.10619E-02   -0.62468E-04  4045   0.378E-02    0.153E-01
RMM:   5    -0.232195715484E+03    0.16401E-03   -0.21141E-04  4039   0.228E-02    0.925E-02
RMM:   6    -0.232195708253E+03    0.72308E-05   -0.17313E-04  4038   0.199E-02    0.819E-02
RMM:   7    -0.232195700177E+03    0.80759E-05   -0.14919E-04  4039   0.184E-02    0.733E-02
RMM:   8    -0.232195662607E+03    0.37571E-04   -0.44458E-05  4032   0.105E-02    0.228E-02
RMM:   9    -0.232195660327E+03    0.22798E-05   -0.60508E-06  3562   0.388E-03    0.150E-02
RMM:  10    -0.232195658597E+03    0.17297E-05   -0.18184E-06  2217   0.218E-03    0.943E-03
RMM:  11    -0.232195657903E+03    0.69439E-06   -0.24431E-06  2246   0.259E-03
  54 F= -.23219566E+03 E0= -.23210683E+03  d E =-.731940E-03
       N       E                     dE             d eps       ncg     rms          rms(c)
DAV:   1    -0.232195489565E+03    0.16903E-03   -0.14896E-01  4032   0.632E-01    0.592E-02
RMM:   2    -0.232195766061E+03   -0.27650E-03   -0.27128E-03  4045   0.938E-02    0.624E-02
RMM:   3    -0.232195825902E+03   -0.59841E-04   -0.16918E-04  4049   0.204E-02    0.103E-01
RMM:   4    -0.232195739816E+03    0.86086E-04   -0.54858E-05  4045   0.111E-02    0.497E-02
RMM:   5    -0.232195722116E+03    0.17699E-04   -0.19929E-05  4034   0.698E-03    0.283E-02
RMM:   6    -0.232195721209E+03    0.90692E-06   -0.15309E-05  4032   0.595E-03    0.236E-02
RMM:   7    -0.232195721302E+03   -0.92827E-07   -0.13782E-05  4027   0.558E-03    0.228E-02
RMM:   8    -0.232195717536E+03    0.37660E-05   -0.36763E-06  2870   0.309E-03    0.619E-03
RMM:   9    -0.232195717470E+03    0.66422E-07   -0.64947E-07  2141   0.143E-03
  55 F= -.23219572E+03 E0= -.23210687E+03  d E =-.791507E-03
       N       E                     dE             d eps       ncg     rms          rms(c)
DAV:   1    -0.232194757599E+03    0.95994E-03   -0.11429E+00  4032   0.175E+00    0.177E-01
RMM:   2    -0.232197204211E+03   -0.24466E-02   -0.21459E-02  4041   0.260E-01    0.279E-01
RMM:   3    -0.232196648080E+03    0.55613E-03   -0.13274E-03  4042   0.584E-02    0.147E-01
RMM:   4    -0.232196855534E+03   -0.20745E-03   -0.37524E-04  4048   0.299E-02    0.197E-01
RMM:   5    -0.232196577236E+03    0.27830E-03   -0.17998E-04  4039   0.192E-02    0.125E-01
RMM:   6    -0.232196519448E+03    0.57789E-04   -0.14091E-04  4038   0.182E-02    0.853E-02
RMM:   7    -0.232196513031E+03    0.64169E-05   -0.13318E-04  4032   0.178E-02    0.729E-02
RMM:   8    -0.232196474516E+03    0.38515E-04   -0.54435E-05  4032   0.112E-02    0.255E-02
RMM:   9    -0.232196469921E+03    0.45952E-05   -0.78803E-06  3765   0.444E-03    0.985E-03
RMM:  10    -0.232196468958E+03    0.96262E-06   -0.18681E-06  2212   0.220E-03
  56 F= -.23219647E+03 E0= -.23210740E+03  d E =-.751488E-03
       N       E                     dE             d eps       ncg     rms          rms(c)
DAV:   1    -0.232196099250E+03    0.37067E-03   -0.36487E-01  4032   0.990E-01    0.101E-01
RMM:   2    -0.232196887190E+03   -0.78794E-03   -0.68892E-03  4041   0.147E-01    0.159E-01
RMM:   3    -0.232196706932E+03    0.18026E-03   -0.42717E-04  4042   0.331E-02    0.838E-02
RMM:   4    -0.232196787701E+03   -0.80770E-04   -0.12553E-04  4048   0.172E-02    0.118E-01
RMM:   5    -0.232196679489E+03    0.10821E-03   -0.59661E-05  4039   0.111E-02    0.692E-02
RMM:   6    -0.232196665126E+03    0.14363E-04   -0.45810E-05  4032   0.105E-02    0.482E-02
RMM:   7    -0.232196664179E+03    0.94742E-06   -0.42614E-05  4033   0.100E-02    0.424E-02
RMM:   8    -0.232196650883E+03    0.13296E-04   -0.17647E-05  4030   0.640E-03    0.139E-02
RMM:   9    -0.232196649574E+03    0.13093E-05   -0.23018E-06  2464   0.250E-03    0.554E-03
RMM:  10    -0.232196649309E+03    0.26482E-06   -0.69783E-07  2145   0.144E-03
  57 F= -.23219665E+03 E0= -.23210745E+03  d E =-.931839E-03
       N       E                     dE             d eps       ncg     rms          rms(c)
DAV:   1    -0.232194380356E+03    0.22692E-02   -0.14596E+00  4032   0.198E+00    0.200E-01
RMM:   2    -0.232197520043E+03   -0.31397E-02   -0.27421E-02  4041   0.294E-01    0.319E-01
RMM:   3    -0.232196790248E+03    0.72980E-03   -0.16996E-03  4042   0.661E-02    0.165E-01
RMM:   4    -0.232197063231E+03   -0.27298E-03   -0.47816E-04  4048   0.338E-02    0.224E-01
RMM:   5    -0.232196700180E+03    0.36305E-03   -0.23032E-04  4039   0.217E-02    0.141E-01
RMM:   6    -0.232196626386E+03    0.73793E-04   -0.18036E-04  4038   0.207E-02    0.965E-02
RMM:   7    -0.232196620450E+03    0.59360E-05   -0.17108E-04  4038   0.201E-02    0.843E-02
RMM:   8    -0.232196568742E+03    0.51708E-04   -0.71221E-05  4035   0.128E-02    0.285E-02
RMM:   9    -0.232196563093E+03    0.56491E-05   -0.10216E-05  3965   0.505E-03    0.112E-02
RMM:  10    -0.232196561841E+03    0.12522E-05   -0.23513E-06  2340   0.245E-03    0.790E-03
RMM:  11    -0.232196561383E+03    0.45772E-06   -0.25739E-06  2258   0.270E-03
  58 F= -.23219656E+03 E0= -.23210711E+03  d E =-.843913E-03
       N       E                     dE             d eps       ncg     rms          rms(c)
DAV:   1    -0.232195658906E+03    0.90294E-03   -0.68726E-01  4032   0.136E+00    0.137E-01
RMM:   2    -0.232197144370E+03   -0.14855E-02   -0.12886E-02  4042   0.202E-01    0.222E-01
RMM:   3    -0.232196790200E+03    0.35417E-03   -0.80427E-04  4044   0.454E-02    0.114E-01
RMM:   4    -0.232196938577E+03   -0.14838E-03   -0.23320E-04  4047   0.234E-02    0.160E-01
RMM:   5    -0.232196738809E+03    0.19977E-03   -0.10909E-04  4039   0.150E-02    0.936E-02
RMM:   6    -0.232196713796E+03    0.25012E-04   -0.83708E-05  4038   0.141E-02    0.659E-02
RMM:   7    -0.232196710643E+03    0.31534E-05   -0.80142E-05  4032   0.138E-02    0.576E-02
RMM:   8    -0.232196687668E+03    0.22975E-04   -0.33579E-05  4032   0.882E-03    0.200E-02
RMM:   9    -0.232196684927E+03    0.27405E-05   -0.48382E-06  3157   0.352E-03    0.745E-03
RMM:  10    -0.232196684341E+03    0.58631E-06   -0.11730E-06  2154   0.179E-03
  59 F= -.23219668E+03 E0= -.23210740E+03  d E =-.966871E-03
       N       E                     dE             d eps       ncg     rms          rms(c)
DAV:   1    -0.232195418751E+03    0.12662E-02   -0.11713E+00  4032   0.181E+00    0.163E-01
RMM:   2    -0.232197690251E+03   -0.22715E-02   -0.22350E-02  4038   0.263E-01    0.161E-01
RMM:   3    -0.232197869108E+03   -0.17886E-03   -0.12372E-03  4043   0.560E-02    0.228E-01
RMM:   4    -0.232197630476E+03    0.23863E-03   -0.39157E-04  4045   0.291E-02    0.193E-01
RMM:   5    -0.232197301397E+03    0.32908E-03   -0.12384E-04  4039   0.174E-02    0.641E-02
RMM:   6    -0.232197331618E+03   -0.30221E-04   -0.96457E-05  4039   0.149E-02    0.847E-02
RMM:   7    -0.232197309345E+03    0.22273E-04   -0.11390E-04  4032   0.162E-02    0.530E-02
RMM:   8    -0.232197289161E+03    0.20184E-04   -0.32313E-05  4032   0.856E-03    0.227E-02
RMM:   9    -0.232197286501E+03    0.26606E-05   -0.47728E-06  3174   0.352E-03    0.118E-02
RMM:  10    -0.232197285507E+03    0.99390E-06   -0.14803E-06  2179   0.203E-03
  60 F= -.23219729E+03 E0= -.23210788E+03  d E =-.601166E-03
       N       E                     dE             d eps       ncg     rms          rms(c)
DAV:   1    -0.232196872278E+03    0.41422E-03   -0.32433E-01  4032   0.953E-01    0.872E-02
RMM:   2    -0.232197500791E+03   -0.62851E-03   -0.62503E-03  4038   0.139E-01    0.806E-02
RMM:   3    -0.232197527670E+03   -0.26879E-04   -0.34271E-04  4042   0.296E-02    0.109E-01
RMM:   4    -0.232197498443E+03    0.29227E-04   -0.10209E-04  4046   0.149E-02    0.104E-01
RMM:   5    -0.232197401018E+03    0.97425E-04   -0.31886E-05  4037   0.868E-03    0.332E-02
RMM:   6    -0.232197411821E+03   -0.10803E-04   -0.25569E-05  4032   0.769E-03    0.448E-02
RMM:   7    -0.232197405118E+03    0.67024E-05   -0.31985E-05  4032   0.860E-03    0.270E-02
RMM:   8    -0.232197400405E+03    0.47136E-05   -0.85250E-06  3985   0.443E-03    0.126E-02
RMM:   9    -0.232197399570E+03    0.83438E-06   -0.13505E-06  2238   0.193E-03
  61 F= -.23219740E+03 E0= -.23210793E+03  d E =-.715230E-03
       N       E                     dE             d eps       ncg     rms          rms(c)
DAV:   1    -0.232196275956E+03    0.11244E-02   -0.11340E+00  4032   0.176E+00    0.168E-01
RMM:   2    -0.232198725513E+03   -0.24496E-02   -0.21157E-02  4040   0.257E-01    0.259E-01
RMM:   3    -0.232198785164E+03   -0.59651E-04   -0.13334E-03  4042   0.570E-02    0.277E-01
RMM:   4    -0.232198251178E+03    0.53399E-03   -0.46559E-04  4043   0.327E-02    0.154E-01
RMM:   5    -0.232198061973E+03    0.18921E-03   -0.14888E-04  4039   0.190E-02    0.751E-02
RMM:   6    -0.232198079850E+03   -0.17877E-04   -0.11079E-04  4038   0.161E-02    0.839E-02
RMM:   7    -0.232198049755E+03    0.30095E-04   -0.11033E-04  4035   0.163E-02    0.419E-02
RMM:   8    -0.232198038482E+03    0.11273E-04   -0.29280E-05  4032   0.833E-03    0.227E-02
RMM:   9    -0.232198035015E+03    0.34669E-05   -0.38290E-06  2883   0.314E-03    0.926E-03
RMM:  10    -0.232198034135E+03    0.87995E-06   -0.15790E-06  2173   0.204E-03
  62 F= -.23219803E+03 E0= -.23210858E+03  d E =-.634565E-03
       N       E                     dE             d eps       ncg     rms          rms(c)
DAV:   1    -0.232197714317E+03    0.32070E-03   -0.29522E-01  4032   0.897E-01    0.863E-02
RMM:   2    -0.232198342113E+03   -0.62780E-03   -0.55235E-03  4040   0.131E-01    0.128E-01
RMM:   3    -0.232198369481E+03   -0.27368E-04   -0.34601E-04  4042   0.291E-02    0.143E-01
RMM:   4    -0.232198233683E+03    0.13580E-03   -0.12353E-04  4043   0.168E-02    0.811E-02
RMM:   5    -0.232198180885E+03    0.52799E-04   -0.40155E-05  4038   0.986E-03    0.386E-02
RMM:   6    -0.232198186251E+03   -0.53662E-05   -0.29172E-05  4032   0.824E-03    0.428E-02
RMM:   7    -0.232198179196E+03    0.70544E-05   -0.29304E-05  4032   0.841E-03    0.225E-02
RMM:   8    -0.232198175997E+03    0.31989E-05   -0.74675E-06  3781   0.422E-03    0.118E-02
RMM:   9    -0.232198175124E+03    0.87356E-06   -0.10559E-06  2165   0.172E-03
  63 F= -.23219818E+03 E0= -.23210873E+03  d E =-.775554E-03
       N       E                     dE             d eps       ncg     rms          rms(c)
DAV:   1    -0.232196236550E+03    0.19394E-02   -0.11809E+00  4032   0.179E+00    0.172E-01
RMM:   2    -0.232198751410E+03   -0.25149E-02   -0.22019E-02  4040   0.262E-01    0.259E-01
RMM:   3    -0.232198839777E+03   -0.88367E-04   -0.13740E-03  4042   0.580E-02    0.282E-01
RMM:   4    -0.232198308053E+03    0.53172E-03   -0.48743E-04  4043   0.334E-02    0.161E-01
RMM:   5    -0.232198095279E+03    0.21277E-03   -0.15835E-04  4039   0.196E-02    0.771E-02
RMM:   6    -0.232198114601E+03   -0.19322E-04   -0.11584E-04  4038   0.164E-02    0.863E-02
RMM:   7    -0.232198082384E+03    0.32217E-04   -0.11551E-04  4035   0.167E-02    0.433E-02
RMM:   8    -0.232198070677E+03    0.11707E-04   -0.30658E-05  4032   0.853E-03    0.236E-02
RMM:   9    -0.232198066900E+03    0.37766E-05   -0.41720E-06  2988   0.326E-03    0.941E-03
RMM:  10    -0.232198066042E+03    0.85829E-06   -0.16529E-06  2175   0.208E-03
  64 F= -.23219807E+03 E0= -.23210865E+03  d E =-.666471E-03
       N       E                     dE             d eps       ncg     rms          rms(c)
DAV:   1    -0.232197289653E+03    0.77725E-03   -0.59375E-01  4032   0.127E+00    0.120E-01
RMM:   2    -0.232198529666E+03   -0.12400E-02   -0.10983E-02  4038   0.186E-01    0.180E-01
RMM:   3    -0.232198574929E+03   -0.45264E-04   -0.67804E-04  4042   0.408E-02    0.196E-01
RMM:   4    -0.232198317177E+03    0.25775E-03   -0.23900E-04  4045   0.234E-02    0.114E-01
RMM:   5    -0.232198209889E+03    0.10729E-03   -0.78859E-05  4039   0.138E-02    0.535E-02
RMM:   6    -0.232198221232E+03   -0.11343E-04   -0.58039E-05  4038   0.116E-02    0.609E-02
RMM:   7    -0.232198205803E+03    0.15429E-04   -0.59107E-05  4033   0.119E-02    0.321E-02
RMM:   8    -0.232198198970E+03    0.68331E-05   -0.16383E-05  4032   0.624E-03    0.170E-02
RMM:   9    -0.232198196783E+03    0.21869E-05   -0.20768E-06  2386   0.236E-03    0.674E-03
RMM:  10    -0.232198196303E+03    0.48036E-06   -0.94118E-07  2153   0.162E-03
  65 F= -.23219820E+03 E0= -.23210877E+03  d E =-.796732E-03
       N       E                     dE             d eps       ncg     rms          rms(c)
DAV:   1    -0.232196424712E+03    0.17721E-02   -0.15134E+00  4032   0.204E+00    0.175E-01
RMM:   2    -0.232199194444E+03   -0.27697E-02   -0.27331E-02  4038   0.294E-01    0.168E-01
RMM:   3    -0.232199782265E+03   -0.58782E-03   -0.14775E-03  4042   0.608E-02    0.336E-01
RMM:   4    -0.232198911346E+03    0.87092E-03   -0.42797E-04  4047   0.318E-02    0.142E-01
RMM:   5    -0.232198793221E+03    0.11812E-03   -0.12718E-04  4041   0.180E-02    0.705E-02
RMM:   6    -0.232198805712E+03   -0.12490E-04   -0.12172E-04  4039   0.168E-02    0.793E-02
RMM:   7    -0.232198778805E+03    0.26906E-04   -0.14381E-04  4033   0.183E-02    0.425E-02
RMM:   8    -0.232198764021E+03    0.14785E-04   -0.28146E-05  4032   0.800E-03    0.161E-02
RMM:   9    -0.232198762097E+03    0.19237E-05   -0.32085E-06  2693   0.292E-03    0.993E-03
RMM:  10    -0.232198760872E+03    0.12248E-05   -0.20191E-06  2183   0.242E-03    0.667E-03
RMM:  11    -0.232198760721E+03    0.15120E-06   -0.25456E-06  2278   0.257E-03
  66 F= -.23219876E+03 E0= -.23210931E+03  d E =-.564419E-03
       N       E                     dE             d eps       ncg     rms          rms(c)
DAV:   1    -0.232197664533E+03    0.10963E-02   -0.82756E-01  4032   0.151E+00    0.130E-01
RMM:   2    -0.232199175137E+03   -0.15106E-02   -0.14984E-02  4038   0.217E-01    0.121E-01
RMM:   3    -0.232199492945E+03   -0.31781E-03   -0.79917E-04  4042   0.447E-02    0.248E-01
RMM:   4    -0.232199026084E+03    0.46686E-03   -0.22995E-04  4047   0.234E-02    0.105E-01
RMM:   5    -0.232198964816E+03    0.61268E-04   -0.67589E-05  4041   0.131E-02    0.518E-02
RMM:   6    -0.232198973100E+03   -0.82844E-05   -0.68565E-05  4038   0.126E-02    0.587E-02
RMM:   7    -0.232198958304E+03    0.14797E-04   -0.78254E-05  4033   0.135E-02    0.309E-02
RMM:   8    -0.232198950501E+03    0.78027E-05   -0.14848E-05  4032   0.587E-03    0.120E-02
RMM:   9    -0.232198949473E+03    0.10278E-05   -0.17159E-06  2279   0.217E-03    0.782E-03
RMM:  10    -0.232198948804E+03    0.66966E-06   -0.10245E-06  2146   0.176E-03
  67 F= -.23219895E+03 E0= -.23210947E+03  d E =-.752501E-03
       N       E                     dE             d eps       ncg     rms          rms(c)
DAV:   1    -0.232196872223E+03    0.20773E-02   -0.19420E+00  4032   0.223E+00    0.199E-01
RMM:   2    -0.232200145147E+03   -0.32729E-02   -0.32141E-02  4038   0.328E-01    0.199E-01
RMM:   3    -0.232200961282E+03   -0.81613E-03   -0.18707E-03  4043   0.687E-02    0.349E-01
RMM:   4    -0.232199820706E+03    0.11406E-02   -0.60320E-04  4044   0.366E-02    0.163E-01
RMM:   5    -0.232199730261E+03    0.90445E-04   -0.23226E-04  4039   0.237E-02    0.126E-01
RMM:   6    -0.232199704171E+03    0.26091E-04   -0.21152E-04  4039   0.225E-02    0.108E-01
RMM:   7    -0.232199651349E+03    0.52822E-04   -0.18673E-04  4033   0.211E-02    0.489E-02
RMM:   8    -0.232199634959E+03    0.16390E-04   -0.38436E-05  4032   0.972E-03    0.197E-02
RMM:   9    -0.232199632408E+03    0.25502E-05   -0.43089E-06  3088   0.338E-03    0.142E-02
RMM:  10    -0.232199630290E+03    0.21182E-05   -0.30191E-06  2499   0.279E-03    0.100E-02
RMM:  11    -0.232199629820E+03    0.47016E-06   -0.41663E-06  3077   0.321E-03
  68 F= -.23219963E+03 E0= -.23211013E+03  d E =-.681016E-03
       N       E                     dE             d eps       ncg     rms          rms(c)
DAV:   1    -0.232199549009E+03    0.81281E-04   -0.83292E-02  4056   0.462E-01    0.417E-02
RMM:   2    -0.232199688681E+03   -0.13967E-03   -0.13828E-03  4038   0.681E-02    0.402E-02
RMM:   3    -0.232199722908E+03   -0.34227E-04   -0.79617E-05  4043   0.142E-02    0.718E-02
RMM:   4    -0.232199675898E+03    0.47010E-04   -0.25744E-05  4044   0.754E-03    0.351E-02
RMM:   5    -0.232199670784E+03    0.51142E-05   -0.98663E-06  4012   0.488E-03    0.239E-02
RMM:   6    -0.232199670990E+03   -0.20603E-06   -0.99181E-06  3985   0.487E-03
  69 F= -.23219967E+03 E0= -.23211015E+03  d E =-.722186E-03
       N       E                     dE             d eps       ncg     rms          rms(c)
DAV:   1    -0.232197328624E+03    0.23422E-02   -0.20928E+00  4032   0.232E+00    0.199E-01
RMM:   2    -0.232200959102E+03   -0.36305E-02   -0.34972E-02  4040   0.339E-01    0.242E-01
RMM:   3    -0.232200620672E+03    0.33843E-03   -0.18715E-03  4043   0.701E-02    0.203E-01
RMM:   4    -0.232200472089E+03    0.14858E-03   -0.32489E-04  4046   0.299E-02    0.143E-01
RMM:   5    -0.232200558199E+03   -0.86110E-04   -0.20619E-04  4040   0.210E-02    0.166E-01
RMM:   6    -0.232200392510E+03    0.16569E-03   -0.19099E-04  4038   0.203E-02    0.103E-01
RMM:   7    -0.232200361789E+03    0.30721E-04   -0.21841E-04  4038   0.225E-02    0.743E-02
RMM:   8    -0.232200321409E+03    0.40380E-04   -0.62144E-05  4036   0.118E-02    0.266E-02
RMM:   9    -0.232200317161E+03    0.42481E-05   -0.80206E-06  3797   0.453E-03    0.143E-02
RMM:  10    -0.232200315093E+03    0.20680E-05   -0.26751E-06  2406   0.259E-03    0.990E-03
RMM:  11    -0.232200314323E+03    0.76953E-06   -0.35294E-06  2701   0.299E-03
  70 F= -.23220031E+03 E0= -.23211077E+03  d E =-.643333E-03
       N       E                     dE             d eps       ncg     rms          rms(c)
DAV:   1    -0.232200062526E+03    0.25257E-03   -0.23784E-01  4032   0.782E-01    0.675E-02
RMM:   2    -0.232200477653E+03   -0.41513E-03   -0.40072E-03  4040   0.115E-01    0.822E-02
RMM:   3    -0.232200439117E+03    0.38536E-04   -0.21285E-04  4043   0.236E-02    0.697E-02
RMM:   4    -0.232200412301E+03    0.26816E-04   -0.37238E-05  4045   0.103E-02    0.391E-02
RMM:   5    -0.232200426529E+03   -0.14228E-04   -0.22452E-05  4035   0.709E-03    0.517E-02
RMM:   6    -0.232200418854E+03    0.76743E-05   -0.20783E-05  4029   0.647E-03    0.419E-02
RMM:   7    -0.232200410188E+03    0.86668E-05   -0.25279E-05  4032   0.760E-03    0.273E-02
RMM:   8    -0.232200404515E+03    0.56726E-05   -0.70812E-06  3821   0.408E-03    0.798E-03
RMM:   9    -0.232200404212E+03    0.30268E-06   -0.74083E-07  2149   0.147E-03
  71 F= -.23220040E+03 E0= -.23211083E+03  d E =-.733223E-03
       N       E                     dE             d eps       ncg     rms          rms(c)
DAV:   1    -0.232198529715E+03    0.18748E-02   -0.17005E+00  4032   0.212E+00    0.183E-01
RMM:   2    -0.232201476356E+03   -0.29466E-02   -0.29459E-02  4037   0.309E-01    0.162E-01
RMM:   3    -0.232201899495E+03   -0.42314E-03   -0.15574E-03  4044   0.639E-02    0.281E-01
RMM:   4    -0.232201351282E+03    0.54821E-03   -0.44582E-04  4045   0.315E-02    0.172E-01
RMM:   5    -0.232201137257E+03    0.21403E-03   -0.19830E-04  4039   0.217E-02    0.107E-01
RMM:   6    -0.232201134422E+03    0.28353E-05   -0.15569E-04  4038   0.191E-02    0.911E-02
RMM:   7    -0.232201095280E+03    0.39142E-04   -0.15655E-04  4035   0.190E-02    0.512E-02
RMM:   8    -0.232201083414E+03    0.11866E-04   -0.34091E-05  4032   0.915E-03    0.248E-02
RMM:   9    -0.232201079045E+03    0.43692E-05   -0.55740E-06  3467   0.379E-03    0.132E-02
RMM:  10    -0.232201077396E+03    0.16484E-05   -0.18864E-06  2195   0.227E-03    0.881E-03
RMM:  11    -0.232201076798E+03    0.59845E-06   -0.24363E-06  2234   0.254E-03
  72 F= -.23220108E+03 E0= -.23211151E+03  d E =-.672586E-03
