unknown system                          
           1
    11.002582    0.000000    0.000000
     5.501291    9.528515    0.000000
     0.000000    0.000000   26.191785
   Au   O    Pd
  24   8  24
Direct configuration=     1
   0.91679727  0.91241765  0.47615188
   0.08333333  0.83333333  0.38179910
   0.67154640  0.90719831  0.47551013
   0.77479761  0.45645780  0.60286746
   0.08333333  0.33333333  0.38179910
   0.91588335  0.41599851  0.47579540
   0.83333333  0.58333333  0.38179910
   0.75706875  0.24725960  0.56647925
   0.66431717  0.41465505  0.47620929
   0.74983090  0.00814975  0.57246113
   0.83333333  0.08333333  0.38179910
   0.74666309  0.74890310  0.56737393
   0.50304691  0.75831233  0.57314435
   0.01141941  0.72830076  0.58373837
   0.41696810  0.91177878  0.47157805
   0.58333333  0.83333333  0.38179910
   0.48896425  0.51095652  0.57365082
   0.40956267  0.66606452  0.48007037
   0.58333333  0.58333333  0.38179910
   0.50208559  0.24410965  0.57601887
   0.58333333  0.33333333  0.38179910
   0.50111956  0.99956969  0.56445816
   0.41122467  0.17198430  0.47686052
   0.58333333  0.08333333  0.38179910
   0.08277531  0.31510279  0.61172396
   0.07057140  0.86380076  0.61561776
   0.30942277  0.36671459  0.61477598
   0.82515303  0.84247734  0.62403923
   0.31125139  0.87090677  0.61403058
   0.85410275  0.57714723  0.62692247
   0.61150939  0.31756237  0.62418414
   0.57886509  0.59447818  0.62988385
   0.33333333  0.08333333  0.38179910
   0.41454510  0.41732245  0.47321230
   0.25529924  0.24289400  0.57268208
   0.24990750  0.50403104  0.55914153
   0.16504920  0.41681143  0.47415863
   0.33333333  0.33333333  0.38179910
   0.25039628  0.74761500  0.57910257
   0.24608215  0.00633578  0.55698100
   0.16471855  0.16544021  0.47200094
   0.08333333  0.08333333  0.38179910
   0.33333333  0.83333333  0.38179910
   0.00334486  0.49954561  0.57066710
   0.66434006  0.16258752  0.48000996
   0.92011630  0.66165340  0.47798286
   0.83333333  0.33333333  0.38179910
   0.08333333  0.58333333  0.38179910
   0.99827681  0.24942131  0.56109211
   0.66741651  0.65891268  0.48365180
   0.00006888  0.00347420  0.56081601
   0.83333333  0.83333333  0.38179910
   0.91332011  0.16692096  0.47562042
   0.16414832  0.91533622  0.47072787
   0.33333333  0.58333333  0.38179910
   0.16291198  0.66684332  0.47764546
Direct configuration=     2
   0.91692329  0.91252133  0.47604166
   0.08333333  0.83333333  0.38179910
   0.67149441  0.90741253  0.47519614
   0.77529539  0.45631688  0.60336753
   0.08333333  0.33333333  0.38179910
   0.91572523  0.41633191  0.47562573
   0.83333333  0.58333333  0.38179910
   0.75739860  0.24769343  0.56644760
   0.66430417  0.41465210  0.47614804
   0.74979800  0.00784124  0.57233936
   0.83333333  0.08333333  0.38179910
   0.74722334  0.74831149  0.56741313
   0.50283966  0.75833580  0.57307065
   0.01177018  0.72780894  0.58385336
   0.41658400  0.91199611  0.47149417
   0.58333333  0.83333333  0.38179910
   0.48929270  0.51024588  0.57364248
   0.40955900  0.66614119  0.47989632
   0.58333333  0.58333333  0.38179910
   0.50165906  0.24401213  0.57609337
   0.58333333  0.33333333  0.38179910
   0.50043735  0.00047574  0.56456788
   0.41089929  0.17218323  0.47657662
   0.58333333  0.08333333  0.38179910
   0.08278668  0.31487736  0.61180317
   0.07110492  0.86420469  0.61583189
   0.30946575  0.36627046  0.61472845
   0.82516052  0.84252938  0.62409730
   0.31084915  0.87132630  0.61414258
   0.85450192  0.57682151  0.62649501
   0.61145567  0.31764439  0.62416953
   0.57868377  0.59444620  0.62979245
   0.33333333  0.08333333  0.38179910
   0.41447159  0.41717530  0.47314110
   0.25626384  0.24267178  0.57258074
   0.24885596  0.50484190  0.55911367
   0.16480014  0.41699695  0.47407909
   0.33333333  0.33333333  0.38179910
   0.24993947  0.74789729  0.57899544
   0.24504885  0.00686750  0.55706188
   0.16488549  0.16516450  0.47211069
   0.08333333  0.08333333  0.38179910
   0.33333333  0.83333333  0.38179910
   0.00269331  0.49975663  0.57080581
   0.66426445  0.16260199  0.47984730
   0.92066987  0.66125030  0.47781972
   0.83333333  0.33333333  0.38179910
   0.08333333  0.58333333  0.38179910
   0.99887590  0.24869274  0.56133218
   0.66717950  0.65939255  0.48346470
   0.00059583  0.00384965  0.56070510
   0.83333333  0.83333333  0.38179910
   0.91396755  0.16650251  0.47557827
   0.16406256  0.91561294  0.47077891
   0.33333333  0.58333333  0.38179910
   0.16311890  0.66633358  0.47753629
Direct configuration=     3
   0.91705755  0.91263179  0.47592423
   0.08333333  0.83333333  0.38179910
   0.67143903  0.90764077  0.47486161
   0.77582573  0.45616675  0.60390032
   0.08333333  0.33333333  0.38179910
   0.91555676  0.41668712  0.47544496
   0.83333333  0.58333333  0.38179910
   0.75775003  0.24815564  0.56641389
   0.66429032  0.41464894  0.47608277
   0.74976296  0.00751255  0.57220962
   0.83333333  0.08333333  0.38179910
   0.74782023  0.74768118  0.56745489
   0.50261886  0.75836080  0.57299213
   0.01214390  0.72728495  0.58397587
   0.41617477  0.91222766  0.47140479
   0.58333333  0.83333333  0.38179910
   0.48964263  0.50948876  0.57363360
   0.40955510  0.66622287  0.47971089
   0.58333333  0.58333333  0.38179910
   0.50120462  0.24390824  0.57617275
   0.58333333  0.33333333  0.38179910
   0.49971052  0.00144105  0.56468478
   0.41055262  0.17239518  0.47627414
   0.58333333  0.08333333  0.38179910
   0.08279880  0.31463718  0.61188755
   0.07167334  0.86463504  0.61606002
   0.30951153  0.36579729  0.61467781
   0.82516850  0.84258482  0.62415917
   0.31042061  0.87177327  0.61426191
   0.85492720  0.57647448  0.62603959
   0.61139842  0.31773176  0.62415397
   0.57849059  0.59441212  0.62969506
   0.33333333  0.08333333  0.38179910
   0.41439328  0.41701851  0.47306525
   0.25729155  0.24243501  0.57247278
   0.24773565  0.50570579  0.55908398
   0.16453479  0.41719461  0.47399434
   0.33333333  0.33333333  0.38179910
   0.24945279  0.74819804  0.57888130
   0.24394795  0.00743401  0.55714805
   0.16506334  0.16487075  0.47222761
   0.08333333  0.08333333  0.38179910
   0.33333333  0.83333333  0.38179910
   0.00199914  0.49998146  0.57095358
   0.66418390  0.16261741  0.47967399
   0.92125964  0.66082083  0.47764590
   0.83333333  0.33333333  0.38179910
   0.08333333  0.58333333  0.38179910
   0.99951417  0.24791652  0.56158795
   0.66692699  0.65990381  0.48326537
   0.00115726  0.00424965  0.56058694
   0.83333333  0.83333333  0.38179910
   0.91465735  0.16605670  0.47553337
   0.16397119  0.91590775  0.47083330
   0.33333333  0.58333333  0.38179910
   0.16333935  0.66579049  0.47741998
Direct configuration=     4
   0.91728857  0.91261853  0.47580878
   0.08333333  0.83333333  0.38179910
   0.67138363  0.90779736  0.47457323
   0.77627140  0.45497243  0.60459886
   0.08333333  0.33333333  0.38179910
   0.91539919  0.41675140  0.47532237
   0.83333333  0.58333333  0.38179910
   0.75796760  0.24833163  0.56638032
   0.66438565  0.41460169  0.47599793
   0.74980430  0.00734563  0.57191768
   0.83333333  0.08333333  0.38179910
   0.74742030  0.74798593  0.56719317
   0.50215768  0.75880665  0.57281831
   0.01197298  0.72783993  0.58441885
   0.41575979  0.91257893  0.47142188
   0.58333333  0.83333333  0.38179910
   0.48950186  0.50903799  0.57350916
   0.40951872  0.66622455  0.47949500
   0.58333333  0.58333333  0.38179910
   0.50160176  0.24390236  0.57629246
   0.58333333  0.33333333  0.38179910
   0.49949110  0.00122582  0.56471881
   0.41021274  0.17253810  0.47582995
   0.58333333  0.08333333  0.38179910
   0.08368987  0.31402735  0.61191513
   0.07195605  0.86539408  0.61617481
   0.30920663  0.36574786  0.61455710
   0.82536718  0.84263389  0.62420153
   0.30980018  0.87236881  0.61429169
   0.85542809  0.57664069  0.62591354
   0.61144798  0.31765359  0.62403615
   0.57816013  0.59442581  0.62955260
   0.33333333  0.08333333  0.38179910
   0.41433062  0.41686645  0.47302912
   0.25689669  0.24291940  0.57244934
   0.24709601  0.50591269  0.55911571
   0.16432821  0.41718806  0.47388938
   0.33333333  0.33333333  0.38179910
   0.24953389  0.74843938  0.57869288
   0.24348048  0.00763311  0.55736444
   0.16502057  0.16488191  0.47237802
   0.08333333  0.08333333  0.38179910
   0.33333333  0.83333333  0.38179910
   0.00230567  0.49924403  0.57086200
   0.66415529  0.16272697  0.47951188
   0.92159213  0.66074259  0.47741409
   0.83333333  0.33333333  0.38179910
   0.08333333  0.58333333  0.38179910
   0.99992230  0.24767918  0.56186956
   0.66661047  0.66064003  0.48297754
   0.00161024  0.00406490  0.56063355
   0.83333333  0.83333333  0.38179910
   0.91526404  0.16591545  0.47545279
   0.16400877  0.91590934  0.47085051
   0.33333333  0.58333333  0.38179910
   0.16361812  0.66535504  0.47720359
Direct configuration=     5
   0.91759227  0.91260110  0.47565700
   0.08333333  0.83333333  0.38179910
   0.67131080  0.90800320  0.47419412
   0.77685728  0.45340239  0.60551715
   0.08333333  0.33333333  0.38179910
   0.91519206  0.41683592  0.47516121
   0.83333333  0.58333333  0.38179910
   0.75825363  0.24856299  0.56633618
   0.66451096  0.41453956  0.47588641
   0.74985865  0.00712620  0.57153389
   0.83333333  0.08333333  0.38179910
   0.74689456  0.74838656  0.56684910
   0.50155143  0.75939275  0.57258981
   0.01174829  0.72856950  0.58500118
   0.41521426  0.91304070  0.47144435
   0.58333333  0.83333333  0.38179910
   0.48931682  0.50844543  0.57334558
   0.40947089  0.66622675  0.47921121
   0.58333333  0.58333333  0.38179910
   0.50212384  0.24389462  0.57644983
   0.58333333  0.33333333  0.38179910
   0.49920264  0.00094287  0.56476355
   0.40976593  0.17272598  0.47524602
   0.58333333  0.08333333  0.38179910
   0.08486125  0.31322567  0.61195139
   0.07232769  0.86639191  0.61632570
   0.30880581  0.36568289  0.61439842
   0.82562837  0.84269838  0.62425722
   0.30898457  0.87315171  0.61433083
   0.85608655  0.57685920  0.62574784
   0.61151314  0.31755081  0.62388127
   0.57772571  0.59444381  0.62936532
   0.33333333  0.08333333  0.38179910
   0.41424824  0.41666655  0.47298162
   0.25637761  0.24355616  0.57241852
   0.24625516  0.50618468  0.55915742
   0.16405664  0.41717945  0.47375141
   0.33333333  0.33333333  0.38179910
   0.24964050  0.74875664  0.57844518
   0.24286595  0.00789484  0.55764891
   0.16496435  0.16489659  0.47257574
   0.08333333  0.08333333  0.38179910
   0.33333333  0.83333333  0.38179910
   0.00270863  0.49827462  0.57074161
   0.66411768  0.16287100  0.47929876
   0.92202921  0.66063972  0.47710934
   0.83333333  0.33333333  0.38179910
   0.08333333  0.58333333  0.38179910
   0.00045882  0.24736717  0.56223976
   0.66619439  0.66160786  0.48259915
   0.00220572  0.00382202  0.56069482
   0.83333333  0.83333333  0.38179910
   0.91606159  0.16572975  0.47534686
   0.16405816  0.91591142  0.47087314
   0.33333333  0.58333333  0.38179910
   0.16398457  0.66478262  0.47691912
Direct configuration=     6
   0.91784344  0.91253017  0.47558613
   0.08333333  0.83333333  0.38179910
   0.67126944  0.90825361  0.47401478
   0.77753945  0.45265606  0.60653917
   0.08333333  0.33333333  0.38179910
   0.91496278  0.41680894  0.47517407
   0.83333333  0.58333333  0.38179910
   0.75864630  0.24798153  0.56614893
   0.66462954  0.41458226  0.47582105
   0.75008705  0.00694554  0.57113768
   0.83333333  0.08333333  0.38179910
   0.74678809  0.74856855  0.56647833
   0.50119429  0.75922084  0.57242192
   0.01177675  0.72874736  0.58552064
   0.41482324  0.91346451  0.47154711
   0.58333333  0.83333333  0.38179910
   0.48872725  0.50886065  0.57310740
   0.40950656  0.66609623  0.47900912
   0.58333333  0.58333333  0.38179910
   0.50238625  0.24340806  0.57645458
   0.58333333  0.33333333  0.38179910
   0.49894909  0.00112428  0.56464315
   0.40972130  0.17261511  0.47492838
   0.58333333  0.08333333  0.38179910
   0.08557065  0.31283917  0.61228820
   0.07268931  0.86693803  0.61647113
   0.30853137  0.36594882  0.61434404
   0.82536582  0.84318782  0.62428346
   0.30849313  0.87355990  0.61442796
   0.85622699  0.57680993  0.62564633
   0.61182603  0.31743012  0.62384767
   0.57730212  0.59442662  0.62905150
   0.33333333  0.08333333  0.38179910
   0.41422927  0.41656216  0.47302706
   0.25680867  0.24339545  0.57209254
   0.24580178  0.50639576  0.55912434
   0.16395997  0.41699554  0.47365732
   0.33333333  0.33333333  0.38179910
   0.24983249  0.74875702  0.57821153
   0.24289612  0.00816277  0.55780383
   0.16471150  0.16516911  0.47275882
   0.08333333  0.08333333  0.38179910
   0.33333333  0.83333333  0.38179910
   0.00276282  0.49842239  0.57053838
   0.66423809  0.16300475  0.47916686
   0.92201352  0.66086247  0.47690993
   0.83333333  0.33333333  0.38179910
   0.08333333  0.58333333  0.38179910
   0.00020165  0.24748781  0.56240735
   0.66591116  0.66213108  0.48220370
   0.00199416  0.00385511  0.56066968
   0.83333333  0.83333333  0.38179910
   0.91637737  0.16582798  0.47533539
   0.16423267  0.91564724  0.47086808
   0.33333333  0.58333333  0.38179910
   0.16424660  0.66453365  0.47669236
Direct configuration=     7
   0.91826271  0.91241177  0.47546785
   0.08333333  0.83333333  0.38179910
   0.67120039  0.90867160  0.47371542
   0.77867818  0.45141023  0.60824521
   0.08333333  0.33333333  0.38179910
   0.91458005  0.41676391  0.47519554
   0.83333333  0.58333333  0.38179910
   0.75930178  0.24701091  0.56583636
   0.66482749  0.41465353  0.47571196
   0.75046831  0.00664396  0.57047629
   0.83333333  0.08333333  0.38179910
   0.74661036  0.74887235  0.56585941
   0.50059812  0.75893387  0.57214166
   0.01182427  0.72904424  0.58638777
   0.41417053  0.91417198  0.47171863
   0.58333333  0.83333333  0.38179910
   0.48774309  0.50955377  0.57270982
   0.40956611  0.66587835  0.47867178
   0.58333333  0.58333333  0.38179910
   0.50282428  0.24259586  0.57646251
   0.58333333  0.33333333  0.38179910
   0.49852583  0.00142710  0.56444215
   0.40964679  0.17243004  0.47439814
   0.58333333  0.08333333  0.38179910
   0.08675482  0.31219399  0.61285042
   0.07329295  0.86784965  0.61671389
   0.30807327  0.36639274  0.61425328
   0.82492754  0.84400483  0.62432726
   0.30767277  0.87424128  0.61459011
   0.85646143  0.57672769  0.62547689
   0.61234834  0.31722865  0.62379159
   0.57659504  0.59439792  0.62852767
   0.33333333  0.08333333  0.38179910
   0.41419759  0.41638790  0.47310291
   0.25752822  0.24312718  0.57154839
   0.24504498  0.50674810  0.55906914
   0.16379860  0.41668855  0.47350026
   0.33333333  0.33333333  0.38179910
   0.25015299  0.74875765  0.57782152
   0.24294649  0.00861000  0.55806245
   0.16428942  0.16562402  0.47306443
   0.08333333  0.08333333  0.38179910
   0.33333333  0.83333333  0.38179910
   0.00285326  0.49866907  0.57019914
   0.66443908  0.16322801  0.47894667
   0.92198733  0.66123429  0.47657706
   0.83333333  0.33333333  0.38179910
   0.08333333  0.58333333  0.38179910
  -0.00022763  0.24768920  0.56268711
   0.66543837  0.66300446  0.48154358
   0.00164102  0.00391034  0.56062770
   0.83333333  0.83333333  0.38179910
   0.91690448  0.16599193  0.47531625
   0.16452398  0.91520626  0.47085963
   0.33333333  0.58333333  0.38179910
   0.16468399  0.66411807  0.47631384
Direct configuration=     8
   0.91850917  0.91234258  0.47542309
   0.08333333  0.83333333  0.38179910
   0.67114734  0.90910276  0.47362840
   0.77901418  0.45019559  0.60946086
   0.08333333  0.33333333  0.38179910
   0.91429697  0.41700806  0.47535603
   0.83333333  0.58333333  0.38179910
   0.75903631  0.24737355  0.56576974
   0.66484294  0.41482475  0.47570756
   0.75088207  0.00595093  0.57004943
   0.83333333  0.08333333  0.38179910
   0.74685925  0.74872444  0.56543733
   0.50068690  0.75865491  0.57186943
   0.01229687  0.72868845  0.58703606
   0.41387076  0.91445651  0.47182961
   0.58333333  0.83333333  0.38179910
   0.48750973  0.50953709  0.57242223
   0.40974562  0.66576359  0.47842620
   0.58333333  0.58333333  0.38179910
   0.50289267  0.24246803  0.57648563
   0.58333333  0.33333333  0.38179910
   0.49870915  0.00128789  0.56419921
   0.40997066  0.17217652  0.47424031
   0.58333333  0.08333333  0.38179910
   0.08737797  0.31183132  0.61287855
   0.07384698  0.86792331  0.61673845
   0.30800325  0.36666080  0.61412162
   0.82402138  0.84503964  0.62428238
   0.30740126  0.87431654  0.61469483
   0.85655674  0.57663268  0.62534337
   0.61299794  0.31720508  0.62359400
   0.57625549  0.59418011  0.62809885
   0.33333333  0.08333333  0.38179910
   0.41429156  0.41621092  0.47324333
   0.25731991  0.24342614  0.57123557
   0.24480048  0.50703067  0.55893395
   0.16371077  0.41653800  0.47344842
   0.33333333  0.33333333  0.38179910
   0.24946738  0.74933501  0.57767056
   0.24294560  0.00904702  0.55817614
   0.16395340  0.16595523  0.47325053
   0.08333333  0.08333333  0.38179910
   0.33333333  0.83333333  0.38179910
   0.00253868  0.49936893  0.57008840
   0.66467268  0.16336558  0.47878595
   0.92178575  0.66147938  0.47640921
   0.83333333  0.33333333  0.38179910
   0.08333333  0.58333333  0.38179910
  -0.00024738  0.24847994  0.56307982
   0.66520254  0.66316739  0.48102985
   0.00160468  0.00369641  0.56056658
   0.83333333  0.83333333  0.38179910
   0.91693367  0.16601379  0.47534173
   0.16472123  0.91495187  0.47087892
   0.33333333  0.58333333  0.38179910
   0.16478428  0.66399756  0.47612468
Direct configuration=     9
   0.91897010  0.91221318  0.47533937
   0.08333333  0.83333333  0.38179910
   0.67104813  0.90990914  0.47346565
   0.77964260  0.44792392  0.61173442
   0.08333333  0.33333333  0.38179910
   0.91376754  0.41746467  0.47565617
   0.83333333  0.58333333  0.38179910
   0.75853981  0.24805178  0.56564515
   0.66487184  0.41514497  0.47569935
   0.75165589  0.00465482  0.56925111
   0.83333333  0.08333333  0.38179910
   0.74732474  0.74844782  0.56464794
   0.50085295  0.75813319  0.57136029
   0.01318075  0.72802304  0.58824852
   0.41331014  0.91498866  0.47203717
   0.58333333  0.83333333  0.38179910
   0.48707328  0.50950589  0.57188436
   0.41008134  0.66554896  0.47796692
   0.58333333  0.58333333  0.38179910
   0.50302057  0.24222895  0.57652885
   0.58333333  0.33333333  0.38179910
   0.49905199  0.00102756  0.56374486
   0.41057638  0.17170238  0.47394513
   0.58333333  0.08333333  0.38179910
   0.08854342  0.31115304  0.61293115
   0.07488314  0.86806105  0.61678438
   0.30787229  0.36716214  0.61387537
   0.82232665  0.84697498  0.62419843
   0.30689345  0.87445729  0.61489070
   0.85673500  0.57645499  0.62509367
   0.61421283  0.31716099  0.62322446
   0.57562045  0.59377275  0.62729686
   0.33333333  0.08333333  0.38179910
   0.41446731  0.41587994  0.47350594
   0.25693031  0.24398527  0.57065051
   0.24434323  0.50755915  0.55868112
   0.16354651  0.41625645  0.47335148
   0.33333333  0.33333333  0.38179910
   0.24818514  0.75041480  0.57738823
   0.24294394  0.00986435  0.55838877
   0.16332496  0.16657467  0.47359859
   0.08333333  0.08333333  0.38179910
   0.33333333  0.83333333  0.38179910
   0.00195035  0.50067784  0.56988129
   0.66510957  0.16362287  0.47848536
   0.92140875  0.66193776  0.47609531
   0.83333333  0.33333333  0.38179910
   0.08333333  0.58333333  0.38179910
  -0.00028433  0.24995881  0.56381428
   0.66476148  0.66347210  0.48006907
   0.00153674  0.00329629  0.56045228
   0.83333333  0.83333333  0.38179910
   0.91698827  0.16605466  0.47538938
   0.16509013  0.91447610  0.47091500
   0.33333333  0.58333333  0.38179910
   0.16497186  0.66377218  0.47577091
Direct configuration=    10
   0.91920661  0.91213586  0.47525102
   0.08333333  0.83333333  0.38179910
   0.67101363  0.91026332  0.47337533
   0.78001639  0.44628289  0.61321089
   0.08333333  0.33333333  0.38179910
   0.91361282  0.41793106  0.47599822
   0.83333333  0.58333333  0.38179910
   0.75909514  0.24836923  0.56536168
   0.66478810  0.41526304  0.47573812
   0.75186792  0.00443150  0.56870782
   0.83333333  0.08333333  0.38179910
   0.74799569  0.74744984  0.56419724
   0.50123733  0.75803746  0.57093719
   0.01317684  0.72742791  0.58931178
   0.41319725  0.91499117  0.47202654
   0.58333333  0.83333333  0.38179910
   0.48680093  0.50938906  0.57141589
   0.41013875  0.66561226  0.47770080
   0.58333333  0.58333333  0.38179910
   0.50320838  0.24224750  0.57650347
   0.58333333  0.33333333  0.38179910
   0.49952908  0.00062428  0.56351458
   0.41091296  0.17171675  0.47401067
   0.58333333  0.08333333  0.38179910
   0.08927276  0.31173510  0.61294262
   0.07472860  0.86799691  0.61689008
   0.30799306  0.36733041  0.61359991
   0.82129679  0.84804512  0.62407225
   0.30715192  0.87421003  0.61471160
   0.85634838  0.57610488  0.62494213
   0.61464840  0.31772255  0.62325665
   0.57494227  0.59361241  0.62688534
   0.33333333  0.08333333  0.38179910
   0.41473046  0.41556067  0.47369840
   0.25655670  0.24505298  0.57034327
   0.24426735  0.50794776  0.55838614
   0.16347696  0.41635392  0.47334783
   0.33333333  0.33333333  0.38179910
   0.24829595  0.75076145  0.57718979
   0.24272812  0.00996434  0.55866097
   0.16303639  0.16680676  0.47369954
   0.08333333  0.08333333  0.38179910
   0.33333333  0.83333333  0.38179910
   0.00138244  0.50154286  0.56991043
   0.66555969  0.16376252  0.47835815
   0.92125477  0.66201901  0.47591121
   0.83333333  0.33333333  0.38179910
   0.08333333  0.58333333  0.38179910
  -0.00096330  0.25042053  0.56408831
   0.66462245  0.66350899  0.47939690
   0.00138340  0.00395777  0.56031311
   0.83333333  0.83333333  0.38179910
   0.91683262  0.16605799  0.47558332
   0.16517099  0.91458262  0.47098832
   0.33333333  0.58333333  0.38179910
   0.16486923  0.66370175  0.47564535
Direct configuration=    11
   0.91943988  0.91205960  0.47516387
   0.08333333  0.83333333  0.38179910
   0.67097961  0.91061263  0.47328625
   0.78038506  0.44466438  0.61466711
   0.08333333  0.33333333  0.38179910
   0.91346022  0.41839105  0.47633558
   0.83333333  0.58333333  0.38179910
   0.75964285  0.24868232  0.56508209
   0.66470550  0.41537949  0.47577635
   0.75207705  0.00421125  0.56817199
   0.83333333  0.08333333  0.38179910
   0.74865743  0.74646555  0.56375272
   0.50161643  0.75794305  0.57051990
   0.01317298  0.72684094  0.59036045
   0.41308592  0.91499365  0.47201606
   0.58333333  0.83333333  0.38179910
   0.48653231  0.50927384  0.57095385
   0.41019537  0.66567468  0.47743834
   0.58333333  0.58333333  0.38179910
   0.50339360  0.24226579  0.57647844
   0.58333333  0.33333333  0.38179910
   0.49999962  0.00022654  0.56328746
   0.41124493  0.17173093  0.47407531
   0.58333333  0.08333333  0.38179910
   0.08999209  0.31230918  0.61295395
   0.07457617  0.86793365  0.61699433
   0.30811217  0.36749636  0.61332823
   0.82028106  0.84910058  0.62394779
   0.30740684  0.87396617  0.61453496
   0.85596707  0.57575958  0.62479266
   0.61507799  0.31827640  0.62328839
   0.57427340  0.59345427  0.62647946
   0.33333333  0.08333333  0.38179910
   0.41498999  0.41524577  0.47388823
   0.25618821  0.24610603  0.57004025
   0.24419252  0.50833104  0.55809521
   0.16340836  0.41645005  0.47334423
   0.33333333  0.33333333  0.38179910
   0.24840524  0.75110334  0.57699406
   0.24251527  0.01006295  0.55892943
   0.16275177  0.16703566  0.47379910
   0.08333333  0.08333333  0.38179910
   0.33333333  0.83333333  0.38179910
   0.00082232  0.50239601  0.56993918
   0.66600364  0.16390025  0.47823269
   0.92110290  0.66209915  0.47572964
   0.83333333  0.33333333  0.38179910
   0.08333333  0.58333333  0.38179910
  -0.00163295  0.25087591  0.56435859
   0.66448534  0.66354538  0.47873396
   0.00123217  0.00461017  0.56017585
   0.83333333  0.83333333  0.38179910
   0.91667910  0.16606128  0.47577461
   0.16525075  0.91468768  0.47106063
   0.33333333  0.58333333  0.38179910
   0.16476801  0.66363229  0.47552151
Direct configuration=    12
   0.91969003  0.91189547  0.47503324
   0.08333333  0.83333333  0.38179910
   0.67105270  0.91058625  0.47315490
   0.77985203  0.44356765  0.61625618
   0.08333333  0.33333333  0.38179910
   0.91356643  0.41855082  0.47671682
   0.83333333  0.58333333  0.38179910
   0.75937983  0.24887843  0.56489723
   0.66465594  0.41549097  0.47576291
   0.75203713  0.00466739  0.56768010
   0.83333333  0.08333333  0.38179910
   0.74926493  0.74524496  0.56330664
   0.50236494  0.75749683  0.57005571
   0.01339192  0.72629050  0.59165307
   0.41302396  0.91511432  0.47189330
   0.58333333  0.83333333  0.38179910
   0.48674115  0.50915953  0.57049032
   0.40981531  0.66589080  0.47719158
   0.58333333  0.58333333  0.38179910
   0.50434368  0.24215992  0.57640771
   0.58333333  0.33333333  0.38179910
   0.50005880  0.00036848  0.56324265
   0.41118565  0.17202112  0.47428661
   0.58333333  0.08333333  0.38179910
   0.08969184  0.31383433  0.61276752
   0.07377484  0.86802585  0.61682326
   0.30837649  0.36781062  0.61304803
   0.81927763  0.84993939  0.62382554
   0.30843371  0.87315606  0.61429653
   0.85484259  0.57516995  0.62483335
   0.61573055  0.31923946  0.62333289
   0.57353762  0.59335978  0.62613765
   0.33333333  0.08333333  0.38179910
   0.41530052  0.41504629  0.47396911
   0.25634015  0.24668598  0.56962121
   0.24347881  0.50937402  0.55786244
   0.16343661  0.41670413  0.47330395
   0.33333333  0.33333333  0.38179910
   0.24848837  0.75100457  0.57683868
   0.24203319  0.01079823  0.55906717
   0.16268610  0.16708653  0.47384884
   0.08333333  0.08333333  0.38179910
   0.33333333  0.83333333  0.38179910
   0.00068937  0.50234845  0.57009083
   0.66642245  0.16400083  0.47814973
   0.92115341  0.66209661  0.47552220
   0.83333333  0.33333333  0.38179910
   0.08333333  0.58333333  0.38179910
  -0.00130714  0.25115076  0.56473278
   0.66450801  0.66368036  0.47806265
   0.00161506  0.00451575  0.56038049
   0.83333333  0.83333333  0.38179910
   0.91675099  0.16631471  0.47582857
   0.16510477  0.91511222  0.47113921
   0.33333333  0.58333333  0.38179910
   0.16463755  0.66372483  0.47544481
Direct configuration=    13
   0.91997809  0.91170646  0.47488281
   0.08333333  0.83333333  0.38179910
   0.67113687  0.91055587  0.47300363
   0.77923821  0.44230468  0.61808614
   0.08333333  0.33333333  0.38179910
   0.91368874  0.41873481  0.47715585
   0.83333333  0.58333333  0.38179910
   0.75907695  0.24910428  0.56468434
   0.66459887  0.41561935  0.47574742
   0.75199115  0.00519268  0.56711364
   0.83333333  0.08333333  0.38179910
   0.74996453  0.74383934  0.56279295
   0.50322692  0.75698295  0.56952115
   0.01364405  0.72565661  0.59314164
   0.41295260  0.91525328  0.47175193
   0.58333333  0.83333333  0.38179910
   0.48698165  0.50902790  0.56995653
   0.40937764  0.66613968  0.47690742
   0.58333333  0.58333333  0.38179910
   0.50543779  0.24203800  0.57632627
   0.58333333  0.33333333  0.38179910
   0.50012695  0.00053194  0.56319103
   0.41111739  0.17235529  0.47452995
   0.58333333  0.08333333  0.38179910
   0.08934607  0.31559069  0.61255282
   0.07285204  0.86813204  0.61662625
   0.30868088  0.36817251  0.61272537
   0.81812209  0.85090536  0.62368475
   0.30961624  0.87222315  0.61402196
   0.85354765  0.57449094  0.62488021
   0.61648204  0.32034852  0.62338413
   0.57269031  0.59325098  0.62574403
   0.33333333  0.08333333  0.38179910
   0.41565813  0.41481657  0.47406226
   0.25651513  0.24735384  0.56913864
   0.24265690  0.51057512  0.55759438
   0.16346913  0.41699672  0.47325757
   0.33333333  0.33333333  0.38179910
   0.24858409  0.75089084  0.57665974
   0.24147803  0.01164496  0.55922579
   0.16261048  0.16714511  0.47390612
   0.08333333  0.08333333  0.38179910
   0.33333333  0.83333333  0.38179910
   0.00053627  0.50229367  0.57026546
   0.66690474  0.16411666  0.47805419
   0.92121157  0.66209369  0.47528331
   0.83333333  0.33333333  0.38179910
   0.08333333  0.58333333  0.38179910
  -0.00093193  0.25146729  0.56516369
   0.66453412  0.66383580  0.47728958
   0.00205598  0.00440702  0.56061616
   0.83333333  0.83333333  0.38179910
   0.91683379  0.16660655  0.47589072
   0.16493667  0.91560112  0.47122969
   0.33333333  0.58333333  0.38179910
   0.16448733  0.66383138  0.47535647
Direct configuration=    14
   0.92019191  0.91170630  0.47481300
   0.08333333  0.83333333  0.38179910
   0.67122445  0.91044135  0.47290027
   0.77797945  0.44093083  0.61956578
   0.08333333  0.33333333  0.38179910
   0.91390549  0.41853681  0.47746412
   0.83333333  0.58333333  0.38179910
   0.75945700  0.24902441  0.56446811
   0.66474041  0.41588932  0.47563443
   0.75248155  0.00462502  0.56689678
   0.83333333  0.08333333  0.38179910
   0.75059389  0.74324863  0.56242531
   0.50359960  0.75669983  0.56899413
   0.01374388  0.72434313  0.59434414
   0.41283328  0.91565144  0.47168351
   0.58333333  0.83333333  0.38179910
   0.48730025  0.50909187  0.56945175
   0.40882767  0.66647373  0.47669778
   0.58333333  0.58333333  0.38179910
   0.50579292  0.24243700  0.57629612
   0.58333333  0.33333333  0.38179910
   0.50002193  0.00075854  0.56333551
   0.41092960  0.17263152  0.47467974
   0.58333333  0.08333333  0.38179910
   0.08921618  0.31767784  0.61241660
   0.07270958  0.86809460  0.61663606
   0.30909723  0.36872325  0.61232274
   0.81691661  0.85169487  0.62346564
   0.31104663  0.87123256  0.61363668
   0.85226485  0.57379484  0.62504832
   0.61754392  0.32180329  0.62365934
   0.57167395  0.59357055  0.62559584
   0.33333333  0.08333333  0.38179910
   0.41578303  0.41491194  0.47400978
   0.25691941  0.24766746  0.56880919
   0.24171537  0.51153494  0.55768235
   0.16353362  0.41730686  0.47309798
   0.33333333  0.33333333  0.38179910
   0.24848684  0.75052475  0.57661776
   0.24170758  0.01200969  0.55934364
   0.16267287  0.16726990  0.47389877
   0.08333333  0.08333333  0.38179910
   0.33333333  0.83333333  0.38179910
   0.00030222  0.50239915  0.57058110
   0.66712876  0.16406227  0.47785041