  48  48   0   0
  0.5349325E+02  0.1100258E-08  0.1100258E-08  0.2449179E-08  0.3500000E-15
  1.000000000000000E-004
  CAR 
 unknown system                          
      6.37835542     -9.78119791  301     -1.08887003      1.00000000
     -9.781  0.0000E+00  0.0000E+00
     -9.727  0.0000E+00  0.0000E+00
     -9.673  0.0000E+00  0.0000E+00
     -9.620  0.0000E+00  0.0000E+00
     -9.566  0.0000E+00  0.0000E+00
     -9.512  0.0000E+00  0.0000E+00
     -9.458  0.0000E+00  0.0000E+00
     -9.404  0.0000E+00  0.0000E+00
     -9.350  0.1031E-16  0.5551E-18
     -9.296  0.4095E-14  0.2212E-15
     -9.243  0.8954E-12  0.4845E-13
     -9.189  0.1110E-09  0.6027E-11
     -9.135  0.7814E-08  0.4269E-09
     -9.081  0.3132E-06  0.1730E-07
     -9.027  0.7165E-05  0.4032E-06
     -8.973  0.9378E-04  0.5455E-05
     -8.919  0.7045E-03  0.4340E-04
     -8.865  0.3047E-02  0.2075E-03
     -8.812  0.7637E-02  0.6189E-03
     -8.758  0.1138E-01  0.1232E-02
     -8.704  0.1131E-01  0.1841E-02
     -8.650  0.1059E-01  0.2411E-02
     -8.596  0.1144E-01  0.3028E-02
     -8.542  0.1010E-01  0.3571E-02
     -8.488  0.5660E-02  0.3876E-02
     -8.435  0.1889E-02  0.3978E-02
     -8.381  0.4151E-03  0.4000E-02
     -8.327  0.4193E-03  0.4023E-02
     -8.273  0.1739E-02  0.4117E-02
     -8.219  0.4716E-02  0.4371E-02
     -8.165  0.7919E-02  0.4797E-02
     -8.111  0.9449E-02  0.5306E-02
     -8.058  0.1062E-01  0.5878E-02
     -8.004  0.1306E-01  0.6582E-02
     -7.950  0.1522E-01  0.7402E-02
     -7.896  0.1576E-01  0.8251E-02
     -7.842  0.1607E-01  0.9117E-02
     -7.788  0.1697E-01  0.1003E-01
     -7.734  0.1659E-01  0.1092E-01
     -7.680  0.1526E-01  0.1175E-01
     -7.627  0.1694E-01  0.1266E-01
     -7.573  0.2158E-01  0.1382E-01
     -7.519  0.2199E-01  0.1501E-01
     -7.465  0.1681E-01  0.1591E-01
     -7.411  0.1380E-01  0.1665E-01
     -7.357  0.1541E-01  0.1748E-01
     -7.303  0.1791E-01  0.1845E-01
     -7.250  0.2044E-01  0.1955E-01
     -7.196  0.2429E-01  0.2086E-01
     -7.142  0.2943E-01  0.2244E-01
     -7.088  0.3476E-01  0.2432E-01
     -7.034  0.4060E-01  0.2650E-01
     -6.980  0.5115E-01  0.2926E-01
     -6.926  0.6906E-01  0.3298E-01
     -6.872  0.8749E-01  0.3769E-01
     -6.819  0.9635E-01  0.4288E-01
     -6.765  0.9623E-01  0.4806E-01
     -6.711  0.9612E-01  0.5324E-01
     -6.657  0.9922E-01  0.5859E-01
     -6.603  0.1007E+00  0.6401E-01
     -6.549  0.9666E-01  0.6922E-01
     -6.495  0.9140E-01  0.7414E-01
     -6.442  0.9531E-01  0.7928E-01
     -6.388  0.1113E+00  0.8527E-01
     -6.334  0.1298E+00  0.9226E-01
     -6.280  0.1413E+00  0.9987E-01
     -6.226  0.1446E+00  0.1077E+00
     -6.172  0.1422E+00  0.1153E+00
     -6.118  0.1408E+00  0.1229E+00
     -6.065  0.1463E+00  0.1308E+00
     -6.011  0.1550E+00  0.1391E+00
     -5.957  0.1586E+00  0.1477E+00
     -5.903  0.1544E+00  0.1560E+00
     -5.849  0.1459E+00  0.1639E+00
     -5.795  0.1368E+00  0.1712E+00
     -5.741  0.1301E+00  0.1782E+00
     -5.687  0.1275E+00  0.1851E+00
     -5.634  0.1283E+00  0.1920E+00
     -5.580  0.1308E+00  0.1991E+00
     -5.526  0.1340E+00  0.2063E+00
     -5.472  0.1391E+00  0.2138E+00
     -5.418  0.1470E+00  0.2217E+00
     -5.364  0.1555E+00  0.2301E+00
     -5.310  0.1628E+00  0.2388E+00
     -5.257  0.1686E+00  0.2479E+00
     -5.203  0.1711E+00  0.2571E+00
     -5.149  0.1696E+00  0.2663E+00
     -5.095  0.1669E+00  0.2752E+00
     -5.041  0.1679E+00  0.2843E+00
     -4.987  0.1713E+00  0.2935E+00
     -4.933  0.1722E+00  0.3028E+00
     -4.879  0.1712E+00  0.3120E+00
     -4.826  0.1718E+00  0.3213E+00
     -4.772  0.1719E+00  0.3305E+00
     -4.718  0.1702E+00  0.3397E+00
     -4.664  0.1703E+00  0.3489E+00
     -4.610  0.1723E+00  0.3582E+00
     -4.556  0.1733E+00  0.3675E+00
     -4.502  0.1713E+00  0.3767E+00
     -4.449  0.1663E+00  0.3857E+00
     -4.395  0.1638E+00  0.3945E+00
     -4.341  0.1687E+00  0.4036E+00
     -4.287  0.1767E+00  0.4131E+00
     -4.233  0.1825E+00  0.4229E+00
     -4.179  0.1839E+00  0.4329E+00
     -4.125  0.1805E+00  0.4426E+00
     -4.071  0.1758E+00  0.4520E+00
     -4.018  0.1753E+00  0.4615E+00
     -3.964  0.1774E+00  0.4710E+00
     -3.910  0.1769E+00  0.4806E+00
     -3.856  0.1766E+00  0.4901E+00
     -3.802  0.1825E+00  0.4999E+00
     -3.748  0.1922E+00  0.5103E+00
     -3.694  0.1980E+00  0.5209E+00
     -3.641  0.1961E+00  0.5315E+00
     -3.587  0.1905E+00  0.5418E+00
     -3.533  0.1875E+00  0.5519E+00
     -3.479  0.1895E+00  0.5621E+00
     -3.425  0.1936E+00  0.5725E+00
     -3.371  0.1960E+00  0.5830E+00
     -3.317  0.1954E+00  0.5936E+00
     -3.264  0.1918E+00  0.6039E+00
     -3.210  0.1881E+00  0.6140E+00
     -3.156  0.1861E+00  0.6241E+00
     -3.102  0.1850E+00  0.6340E+00
     -3.048  0.1852E+00  0.6440E+00
     -2.994  0.1860E+00  0.6540E+00
     -2.940  0.1865E+00  0.6641E+00
     -2.886  0.1875E+00  0.6742E+00
     -2.833  0.1875E+00  0.6843E+00
     -2.779  0.1859E+00  0.6943E+00
     -2.725  0.1853E+00  0.7043E+00
     -2.671  0.1878E+00  0.7144E+00
     -2.617  0.1913E+00  0.7247E+00
     -2.563  0.1890E+00  0.7349E+00
     -2.509  0.1821E+00  0.7447E+00
     -2.456  0.1797E+00  0.7544E+00
     -2.402  0.1841E+00  0.7643E+00
     -2.348  0.1896E+00  0.7745E+00
     -2.294  0.1926E+00  0.7849E+00
     -2.240  0.1929E+00  0.7953E+00
     -2.186  0.1923E+00  0.8056E+00
     -2.132  0.1930E+00  0.8160E+00
     -2.078  0.1939E+00  0.8265E+00
     -2.025  0.1914E+00  0.8368E+00
     -1.971  0.1868E+00  0.8468E+00
     -1.917  0.1858E+00  0.8568E+00
     -1.863  0.1882E+00  0.8670E+00
     -1.809  0.1879E+00  0.8771E+00
     -1.755  0.1858E+00  0.8871E+00
     -1.701  0.1876E+00  0.8972E+00
     -1.648  0.1925E+00  0.9076E+00
     -1.594  0.1969E+00  0.9182E+00
     -1.540  0.2007E+00  0.9290E+00
     -1.486  0.2029E+00  0.9399E+00
     -1.432  0.2012E+00  0.9508E+00
     -1.378  0.1963E+00  0.9613E+00
     -1.324  0.1915E+00  0.9716E+00
     -1.270  0.1866E+00  0.9817E+00
     -1.217  0.1753E+00  0.9911E+00
     -1.163  0.1528E+00  0.9994E+00
     -1.109  0.1225E+00  0.1006E+01
     -1.055  0.9288E-01  0.1011E+01
     -1.001  0.7011E-01  0.1015E+01
     -0.947  0.5041E-01  0.1017E+01
     -0.893  0.3124E-01  0.1019E+01
     -0.840  0.1818E-01  0.1020E+01
     -0.786  0.1435E-01  0.1021E+01
     -0.732  0.1579E-01  0.1022E+01
     -0.678  0.1884E-01  0.1023E+01
     -0.624  0.2341E-01  0.1024E+01
     -0.570  0.2981E-01  0.1026E+01
     -0.516  0.3756E-01  0.1028E+01
     -0.463  0.4484E-01  0.1030E+01
     -0.409  0.4665E-01  0.1033E+01
     -0.355  0.3903E-01  0.1035E+01
     -0.301  0.2978E-01  0.1036E+01
     -0.247  0.3081E-01  0.1038E+01
     -0.193  0.3905E-01  0.1040E+01
     -0.139  0.4174E-01  0.1042E+01
     -0.085  0.3475E-01  0.1044E+01
     -0.032  0.2480E-01  0.1046E+01
      0.022  0.2085E-01  0.1047E+01
      0.076  0.2496E-01  0.1048E+01
      0.130  0.3048E-01  0.1050E+01
      0.184  0.3355E-01  0.1051E+01
      0.238  0.3511E-01  0.1053E+01
      0.292  0.3455E-01  0.1055E+01
      0.345  0.3356E-01  0.1057E+01
      0.399  0.3628E-01  0.1059E+01
      0.453  0.4108E-01  0.1061E+01
      0.507  0.4241E-01  0.1063E+01
      0.561  0.4208E-01  0.1066E+01
      0.615  0.4483E-01  0.1068E+01
      0.669  0.4659E-01  0.1071E+01
      0.723  0.4329E-01  0.1073E+01
      0.776  0.3794E-01  0.1075E+01
      0.830  0.3126E-01  0.1077E+01
      0.884  0.2349E-01  0.1078E+01
      0.938  0.1999E-01  0.1079E+01
      0.992  0.2146E-01  0.1080E+01
      1.046  0.2287E-01  0.1081E+01
      1.100  0.2345E-01  0.1083E+01
      1.153  0.2446E-01  0.1084E+01
      1.207  0.2312E-01  0.1085E+01
      1.261  0.1818E-01  0.1086E+01
      1.315  0.1299E-01  0.1087E+01
      1.369  0.1086E-01  0.1088E+01
      1.423  0.1296E-01  0.1088E+01
      1.477  0.1859E-01  0.1089E+01
      1.530  0.2591E-01  0.1091E+01
      1.584  0.3161E-01  0.1092E+01
      1.638  0.3213E-01  0.1094E+01
      1.692  0.2933E-01  0.1096E+01
      1.746  0.2977E-01  0.1097E+01
      1.800  0.3480E-01  0.1099E+01
      1.854  0.3688E-01  0.1101E+01
      1.908  0.3025E-01  0.1103E+01
      1.961  0.2049E-01  0.1104E+01
      2.015  0.1710E-01  0.1105E+01
      2.069  0.2151E-01  0.1106E+01
      2.123  0.2839E-01  0.1107E+01
      2.177  0.3426E-01  0.1109E+01
      2.231  0.3857E-01  0.1111E+01
      2.285  0.4106E-01  0.1114E+01
      2.338  0.4226E-01  0.1116E+01
      2.392  0.4328E-01  0.1118E+01
      2.446  0.4223E-01  0.1120E+01
      2.500  0.3910E-01  0.1123E+01
      2.554  0.3913E-01  0.1125E+01
      2.608  0.4372E-01  0.1127E+01
      2.662  0.4997E-01  0.1130E+01
      2.716  0.5349E-01  0.1133E+01
      2.769  0.4812E-01  0.1135E+01
      2.823  0.3428E-01  0.1137E+01
      2.877  0.2146E-01  0.1138E+01
      2.931  0.1517E-01  0.1139E+01
      2.985  0.1132E-01  0.1140E+01
      3.039  0.7916E-02  0.1140E+01
      3.093  0.8433E-02  0.1140E+01
      3.146  0.1283E-01  0.1141E+01
      3.200  0.1793E-01  0.1142E+01
      3.254  0.2297E-01  0.1143E+01
      3.308  0.2489E-01  0.1145E+01
      3.362  0.2078E-01  0.1146E+01
      3.416  0.1599E-01  0.1147E+01
      3.470  0.1553E-01  0.1148E+01
      3.524  0.2005E-01  0.1149E+01
      3.577  0.2938E-01  0.1150E+01
      3.631  0.3883E-01  0.1152E+01
      3.685  0.4268E-01  0.1155E+01
      3.739  0.4141E-01  0.1157E+01
      3.793  0.3660E-01  0.1159E+01
      3.847  0.2907E-01  0.1160E+01
      3.901  0.2328E-01  0.1162E+01
      3.954  0.2344E-01  0.1163E+01
      4.008  0.2768E-01  0.1164E+01
      4.062  0.2940E-01  0.1166E+01
      4.116  0.2604E-01  0.1167E+01
      4.170  0.2233E-01  0.1169E+01
      4.224  0.2108E-01  0.1170E+01
      4.278  0.1992E-01  0.1171E+01
      4.331  0.1782E-01  0.1172E+01
      4.385  0.1811E-01  0.1173E+01
      4.439  0.2346E-01  0.1174E+01
      4.493  0.3178E-01  0.1176E+01
      4.547  0.4077E-01  0.1178E+01
      4.601  0.4878E-01  0.1180E+01
      4.655  0.5164E-01  0.1183E+01
      4.709  0.4758E-01  0.1186E+01
      4.762  0.4217E-01  0.1188E+01
      4.816  0.4079E-01  0.1190E+01
      4.870  0.4352E-01  0.1193E+01
      4.924  0.4985E-01  0.1195E+01
      4.978  0.6055E-01  0.1199E+01
      5.032  0.7279E-01  0.1203E+01
      5.086  0.7820E-01  0.1207E+01
      5.139  0.7288E-01  0.1211E+01
      5.193  0.6467E-01  0.1214E+01
      5.247  0.5895E-01  0.1217E+01
      5.301  0.5052E-01  0.1220E+01
      5.355  0.3696E-01  0.1222E+01
      5.409  0.2223E-01  0.1223E+01
      5.463  0.1028E-01  0.1224E+01
      5.517  0.3300E-02  0.1224E+01
      5.570  0.6767E-03  0.1224E+01
      5.624  0.8438E-04  0.1224E+01
      5.678  0.6223E-05  0.1224E+01
      5.732  0.2672E-06  0.1224E+01
      5.786  0.6613E-08  0.1224E+01
      5.840  0.9370E-10  0.1224E+01
      5.894  0.7565E-12  0.1224E+01
      5.947  0.3468E-14  0.1224E+01
      6.001  0.8244E-17  0.1224E+01
      6.055  0.0000E+00  0.1224E+01
      6.109  0.0000E+00  0.1224E+01
      6.163  0.0000E+00  0.1224E+01
      6.217  0.0000E+00  0.1224E+01
      6.271  0.0000E+00  0.1224E+01
      6.324  0.0000E+00  0.1224E+01
      6.378  0.0000E+00  0.1224E+01
