  48  48   0   0
  0.5349325E+02  0.1100258E-08  0.1100258E-08  0.2449179E-08  0.3500000E-15
  1.000000000000000E-004
  CAR 
 unknown system                          
      6.31035807     -9.94800873  301     -1.10193884      1.00000000
     -9.948  0.0000E+00  0.0000E+00
     -9.894  0.0000E+00  0.0000E+00
     -9.840  0.0000E+00  0.0000E+00
     -9.785  0.0000E+00  0.0000E+00
     -9.731  0.0000E+00  0.0000E+00
     -9.677  0.0000E+00  0.0000E+00
     -9.623  0.0000E+00  0.0000E+00
     -9.569  0.0000E+00  0.0000E+00
     -9.514  0.6829E-17  0.3701E-18
     -9.460  0.2791E-14  0.1516E-15
     -9.406  0.6079E-12  0.3310E-13
     -9.352  0.7501E-10  0.4098E-11
     -9.298  0.5267E-08  0.2895E-09
     -9.243  0.2117E-06  0.1176E-07
     -9.189  0.4901E-05  0.2774E-06
     -9.135  0.6583E-04  0.3845E-05
     -9.081  0.5165E-03  0.3184E-04
     -9.027  0.2382E-02  0.1609E-03
     -8.973  0.6515E-02  0.5140E-03
     -8.918  0.1082E-01  0.1100E-02
     -8.864  0.1189E-01  0.1745E-02
     -8.810  0.1084E-01  0.2332E-02
     -8.756  0.1004E-01  0.2876E-02
     -8.702  0.8673E-02  0.3346E-02
     -8.647  0.6391E-02  0.3693E-02
     -8.593  0.4074E-02  0.3914E-02
     -8.539  0.2888E-02  0.4070E-02
     -8.485  0.3351E-02  0.4252E-02
     -8.431  0.3885E-02  0.4462E-02
     -8.376  0.3595E-02  0.4657E-02
     -8.322  0.4430E-02  0.4897E-02
     -8.268  0.7054E-02  0.5279E-02
     -8.214  0.8893E-02  0.5761E-02
     -8.160  0.9185E-02  0.6259E-02
     -8.105  0.8924E-02  0.6743E-02
     -8.051  0.7282E-02  0.7137E-02
     -7.997  0.5142E-02  0.7416E-02
     -7.943  0.4419E-02  0.7656E-02
     -7.889  0.4373E-02  0.7893E-02
     -7.834  0.5157E-02  0.8172E-02
     -7.780  0.8465E-02  0.8631E-02
     -7.726  0.1294E-01  0.9332E-02
     -7.672  0.1621E-01  0.1021E-01
     -7.618  0.1849E-01  0.1121E-01
     -7.563  0.2007E-01  0.1230E-01
     -7.509  0.2177E-01  0.1348E-01
     -7.455  0.2580E-01  0.1488E-01
     -7.401  0.3166E-01  0.1659E-01
     -7.347  0.3584E-01  0.1854E-01
     -7.292  0.3736E-01  0.2056E-01
     -7.238  0.3827E-01  0.2263E-01
     -7.184  0.3830E-01  0.2471E-01
     -7.130  0.3798E-01  0.2677E-01
     -7.076  0.4315E-01  0.2911E-01
     -7.022  0.5640E-01  0.3216E-01
     -6.967  0.6875E-01  0.3589E-01
     -6.913  0.6976E-01  0.3967E-01
     -6.859  0.6270E-01  0.4307E-01
     -6.805  0.6018E-01  0.4633E-01
     -6.751  0.6794E-01  0.5001E-01
     -6.696  0.8014E-01  0.5435E-01
     -6.642  0.8819E-01  0.5913E-01
     -6.588  0.9039E-01  0.6403E-01
     -6.534  0.9274E-01  0.6906E-01
     -6.480  0.9943E-01  0.7445E-01
     -6.425  0.1105E+00  0.8044E-01
     -6.371  0.1259E+00  0.8726E-01
     -6.317  0.1411E+00  0.9491E-01
     -6.263  0.1489E+00  0.1030E+00
     -6.209  0.1468E+00  0.1109E+00
     -6.154  0.1377E+00  0.1184E+00
     -6.100  0.1274E+00  0.1253E+00
     -6.046  0.1228E+00  0.1319E+00
     -5.992  0.1271E+00  0.1388E+00
     -5.938  0.1350E+00  0.1462E+00
     -5.883  0.1407E+00  0.1538E+00
     -5.829  0.1444E+00  0.1616E+00
     -5.775  0.1471E+00  0.1696E+00
     -5.721  0.1464E+00  0.1775E+00
     -5.667  0.1414E+00  0.1852E+00
     -5.612  0.1360E+00  0.1925E+00
     -5.558  0.1363E+00  0.1999E+00
     -5.504  0.1442E+00  0.2077E+00
     -5.450  0.1560E+00  0.2162E+00
     -5.396  0.1646E+00  0.2251E+00
     -5.341  0.1672E+00  0.2342E+00
     -5.287  0.1694E+00  0.2434E+00
     -5.233  0.1728E+00  0.2527E+00
     -5.179  0.1733E+00  0.2621E+00
     -5.125  0.1718E+00  0.2714E+00
     -5.070  0.1696E+00  0.2806E+00
     -5.016  0.1669E+00  0.2897E+00
     -4.962  0.1679E+00  0.2988E+00
     -4.908  0.1715E+00  0.3081E+00
     -4.854  0.1708E+00  0.3173E+00
     -4.800  0.1658E+00  0.3263E+00
     -4.745  0.1639E+00  0.3352E+00
     -4.691  0.1668E+00  0.3442E+00
     -4.637  0.1688E+00  0.3534E+00
     -4.583  0.1687E+00  0.3625E+00
     -4.529  0.1703E+00  0.3717E+00
     -4.474  0.1746E+00  0.3812E+00
     -4.420  0.1788E+00  0.3909E+00
     -4.366  0.1813E+00  0.4007E+00
     -4.312  0.1826E+00  0.4106E+00
     -4.258  0.1831E+00  0.4205E+00
     -4.203  0.1809E+00  0.4303E+00
     -4.149  0.1765E+00  0.4399E+00
     -4.095  0.1744E+00  0.4494E+00
     -4.041  0.1759E+00  0.4589E+00
     -3.987  0.1776E+00  0.4685E+00
     -3.932  0.1780E+00  0.4782E+00
     -3.878  0.1804E+00  0.4879E+00
     -3.824  0.1908E+00  0.4983E+00
     -3.770  0.2063E+00  0.5095E+00
     -3.716  0.2163E+00  0.5212E+00
     -3.661  0.2165E+00  0.5329E+00
     -3.607  0.2107E+00  0.5443E+00
     -3.553  0.2042E+00  0.5554E+00
     -3.499  0.2008E+00  0.5663E+00
     -3.445  0.2043E+00  0.5774E+00
     -3.390  0.2116E+00  0.5888E+00
     -3.336  0.2140E+00  0.6004E+00
     -3.282  0.2103E+00  0.6118E+00
     -3.228  0.2069E+00  0.6230E+00
     -3.174  0.2074E+00  0.6343E+00
     -3.119  0.2090E+00  0.6456E+00
     -3.065  0.2062E+00  0.6568E+00
     -3.011  0.1986E+00  0.6675E+00
     -2.957  0.1927E+00  0.6780E+00
     -2.903  0.1920E+00  0.6884E+00
     -2.849  0.1930E+00  0.6988E+00
     -2.794  0.1911E+00  0.7092E+00
     -2.740  0.1868E+00  0.7193E+00
     -2.686  0.1821E+00  0.7292E+00
     -2.632  0.1771E+00  0.7388E+00
     -2.578  0.1757E+00  0.7483E+00
     -2.523  0.1802E+00  0.7581E+00
     -2.469  0.1836E+00  0.7680E+00
     -2.415  0.1806E+00  0.7778E+00
     -2.361  0.1761E+00  0.7874E+00
     -2.307  0.1760E+00  0.7969E+00
     -2.252  0.1792E+00  0.8066E+00
     -2.198  0.1824E+00  0.8165E+00
     -2.144  0.1841E+00  0.8265E+00
     -2.090  0.1847E+00  0.8365E+00
     -2.036  0.1852E+00  0.8465E+00
     -1.981  0.1867E+00  0.8566E+00
     -1.927  0.1875E+00  0.8668E+00
     -1.873  0.1838E+00  0.8768E+00
     -1.819  0.1764E+00  0.8863E+00
     -1.765  0.1700E+00  0.8955E+00
     -1.710  0.1686E+00  0.9047E+00
     -1.656  0.1735E+00  0.9141E+00
     -1.602  0.1812E+00  0.9239E+00
     -1.548  0.1862E+00  0.9340E+00
     -1.494  0.1887E+00  0.9442E+00
     -1.439  0.1938E+00  0.9547E+00
     -1.385  0.1984E+00  0.9655E+00
     -1.331  0.1904E+00  0.9758E+00
     -1.277  0.1695E+00  0.9850E+00
     -1.223  0.1481E+00  0.9930E+00
     -1.168  0.1328E+00  0.1000E+01
     -1.114  0.1191E+00  0.1007E+01
     -1.060  0.9936E-01  0.1012E+01
     -1.006  0.7066E-01  0.1016E+01
     -0.952  0.4177E-01  0.1018E+01
     -0.898  0.2460E-01  0.1019E+01
     -0.843  0.2064E-01  0.1021E+01
     -0.789  0.2350E-01  0.1022E+01
     -0.735  0.2889E-01  0.1023E+01
     -0.681  0.3552E-01  0.1025E+01
     -0.627  0.4059E-01  0.1028E+01
     -0.572  0.4193E-01  0.1030E+01
     -0.518  0.3882E-01  0.1032E+01
     -0.464  0.3165E-01  0.1034E+01
     -0.410  0.2506E-01  0.1035E+01
     -0.356  0.2441E-01  0.1036E+01
     -0.301  0.3035E-01  0.1038E+01
     -0.247  0.3683E-01  0.1040E+01
     -0.193  0.3724E-01  0.1042E+01
     -0.139  0.3345E-01  0.1044E+01
     -0.085  0.2864E-01  0.1045E+01
     -0.030  0.2402E-01  0.1047E+01
      0.024  0.2444E-01  0.1048E+01
      0.078  0.3129E-01  0.1050E+01
      0.132  0.3758E-01  0.1052E+01
      0.186  0.3706E-01  0.1054E+01
      0.241  0.3195E-01  0.1055E+01
      0.295  0.2970E-01  0.1057E+01
      0.349  0.3245E-01  0.1059E+01
      0.403  0.3606E-01  0.1061E+01
      0.457  0.3920E-01  0.1063E+01
      0.512  0.4251E-01  0.1065E+01
      0.566  0.4492E-01  0.1068E+01
      0.620  0.4636E-01  0.1070E+01
      0.674  0.4625E-01  0.1073E+01
      0.728  0.4259E-01  0.1075E+01
      0.783  0.3373E-01  0.1077E+01
      0.837  0.2310E-01  0.1078E+01
      0.891  0.1826E-01  0.1079E+01
      0.945  0.2075E-01  0.1080E+01
      0.999  0.2559E-01  0.1082E+01
      1.053  0.2818E-01  0.1083E+01
      1.108  0.2688E-01  0.1085E+01
      1.162  0.2158E-01  0.1086E+01
      1.216  0.1524E-01  0.1087E+01
      1.270  0.1092E-01  0.1087E+01
      1.324  0.8766E-02  0.1088E+01
      1.379  0.9636E-02  0.1088E+01
      1.433  0.1598E-01  0.1089E+01
      1.487  0.2664E-01  0.1090E+01
      1.541  0.3426E-01  0.1092E+01
      1.595  0.3366E-01  0.1094E+01
      1.650  0.2838E-01  0.1096E+01
      1.704  0.2717E-01  0.1097E+01
      1.758  0.3347E-01  0.1099E+01
      1.812  0.3962E-01  0.1101E+01
      1.866  0.3875E-01  0.1103E+01
      1.921  0.3492E-01  0.1105E+01
      1.975  0.3211E-01  0.1107E+01
      2.029  0.2825E-01  0.1108E+01
      2.083  0.2476E-01  0.1110E+01
      2.137  0.2678E-01  0.1111E+01
      2.192  0.3375E-01  0.1113E+01
      2.246  0.3894E-01  0.1115E+01
      2.300  0.3944E-01  0.1117E+01
      2.354  0.3807E-01  0.1119E+01
      2.408  0.3684E-01  0.1121E+01
      2.463  0.3576E-01  0.1123E+01
      2.517  0.3598E-01  0.1125E+01
      2.571  0.3948E-01  0.1127E+01
      2.625  0.4541E-01  0.1130E+01
      2.679  0.4756E-01  0.1132E+01
      2.734  0.4073E-01  0.1135E+01
      2.788  0.2929E-01  0.1136E+01
      2.842  0.2202E-01  0.1137E+01
      2.896  0.1980E-01  0.1138E+01
      2.950  0.1635E-01  0.1139E+01
      3.004  0.1031E-01  0.1140E+01
      3.059  0.7203E-02  0.1140E+01
      3.113  0.1069E-01  0.1141E+01
      3.167  0.1900E-01  0.1142E+01
      3.221  0.2600E-01  0.1143E+01
      3.275  0.2531E-01  0.1145E+01
      3.330  0.1865E-01  0.1146E+01
      3.384  0.1500E-01  0.1146E+01
      3.438  0.2003E-01  0.1148E+01
      3.492  0.3072E-01  0.1149E+01
      3.546  0.3938E-01  0.1151E+01
      3.601  0.4155E-01  0.1154E+01
      3.655  0.3928E-01  0.1156E+01
      3.709  0.3635E-01  0.1158E+01
      3.763  0.3333E-01  0.1159E+01
      3.817  0.2873E-01  0.1161E+01
      3.872  0.2361E-01  0.1162E+01
      3.926  0.2216E-01  0.1164E+01
      3.980  0.2520E-01  0.1165E+01
      4.034  0.2775E-01  0.1166E+01
      4.088  0.2622E-01  0.1168E+01
      4.143  0.2180E-01  0.1169E+01
      4.197  0.1851E-01  0.1170E+01
      4.251  0.1777E-01  0.1171E+01
      4.305  0.1773E-01  0.1172E+01
      4.359  0.1974E-01  0.1173E+01
      4.414  0.2569E-01  0.1174E+01
      4.468  0.3252E-01  0.1176E+01
      4.522  0.3839E-01  0.1178E+01
      4.576  0.4455E-01  0.1181E+01
      4.630  0.4933E-01  0.1183E+01
      4.685  0.5081E-01  0.1186E+01
      4.739  0.5022E-01  0.1189E+01
      4.793  0.4930E-01  0.1191E+01
      4.847  0.4983E-01  0.1194E+01
      4.901  0.5211E-01  0.1197E+01
      4.955  0.5478E-01  0.1200E+01
      5.010  0.5933E-01  0.1203E+01
      5.064  0.6624E-01  0.1207E+01
      5.118  0.7089E-01  0.1211E+01
      5.172  0.7082E-01  0.1214E+01
      5.226  0.6569E-01  0.1218E+01
      5.281  0.5314E-01  0.1221E+01
      5.335  0.3448E-01  0.1223E+01
      5.389  0.1650E-01  0.1224E+01
      5.443  0.5346E-02  0.1224E+01
      5.497  0.1094E-02  0.1224E+01
      5.552  0.1351E-03  0.1224E+01
      5.606  0.9822E-05  0.1224E+01
      5.660  0.4141E-06  0.1224E+01
      5.714  0.1003E-07  0.1224E+01
      5.768  0.1387E-09  0.1224E+01
      5.823  0.1090E-11  0.1224E+01
      5.877  0.4846E-14  0.1224E+01
      5.931  0.1093E-16  0.1224E+01
      5.985  0.0000E+00  0.1224E+01
      6.039  0.0000E+00  0.1224E+01
      6.094  0.0000E+00  0.1224E+01
      6.148  0.0000E+00  0.1224E+01
      6.202  0.0000E+00  0.1224E+01
      6.256  0.0000E+00  0.1224E+01
      6.310  0.0000E+00  0.1224E+01
