unknown system                          
           1
    11.002582    0.000000    0.000000
     5.501291    9.528515    0.000000
     0.000000    0.000000   24.491785
   Au   Pd
  24  24
Direct configuration=     1
   0.75000000  0.75000000  0.59169983
   0.58333333  0.58333333  0.40830017
   0.41666667  0.66666667  0.50000000
   0.50000000  0.50000000  0.59169983
   0.16666667  0.91666667  0.50000000
   0.58333333  0.83333333  0.40830017
   0.41666667  0.91666667  0.50000000
   0.16666667  0.66666667  0.50000000
   0.50000000  0.75000000  0.59169983
   0.83333333  0.08333333  0.40830017
   0.66666667  0.16666667  0.50000000
   0.33333333  0.33333333  0.40830017
   0.25000000  0.00000000  0.59169983
   0.58333333  0.33333333  0.40830017
   0.33333333  0.08333333  0.40830017
   0.83333333  0.33333333  0.40830017
   0.91666667  0.91666667  0.50000000
   0.08333333  0.83333333  0.40830017
   0.66666667  0.41666667  0.50000000
   0.75000000  0.25000000  0.59169983
   0.66666667  0.66666667  0.50000000
   0.75000000  0.50000000  0.59169983
   0.00000000  0.00000000  0.59169983
   0.91666667  0.16666667  0.50000000
   0.83333333  0.58333333  0.40830017
   0.83333333  0.83333333  0.40830017
   0.50000000  0.25000000  0.59169983
   0.75000000  0.00000000  0.59169983
   0.08333333  0.08333333  0.40830017
   0.50000000  0.00000000  0.59169983
   0.08333333  0.33333333  0.40830017
   0.91666667  0.41666667  0.50000000
   0.00000000  0.25000000  0.59169983
   0.08333333  0.58333333  0.40830017
   0.91666667  0.66666667  0.50000000
   0.00000000  0.50000000  0.59169983
   0.00000000  0.75000000  0.59169983
   0.41666667  0.41666667  0.50000000
   0.16666667  0.16666667  0.50000000
   0.25000000  0.25000000  0.59169983
   0.33333333  0.58333333  0.40830017
   0.25000000  0.50000000  0.59169983
   0.33333333  0.83333333  0.40830017
   0.66666667  0.91666667  0.50000000
   0.58333333  0.08333333  0.40830017
   0.41666667  0.16666667  0.50000000
   0.16666667  0.41666667  0.50000000
   0.25000000  0.75000000  0.59169983
Direct configuration=     2
   0.75108002  0.75093423  0.59360600
   0.58259042  0.58404953  0.40573860
   0.41494444  0.66643766  0.49962357
   0.49814864  0.49969056  0.59396702
   0.16735801  0.91723027  0.49962436
   0.58449422  0.83361626  0.40615585
   0.41651249  0.91883968  0.49999534
   0.16690129  0.66413908  0.50033885
   0.49926489  0.75087001  0.59432695
   0.83336674  0.08248590  0.40574255
   0.66397340  0.16571308  0.50040462
   0.33255393  0.33404490  0.40674398
   0.24971704  0.00139703  0.59391252
   0.58193215  0.33359841  0.40604486
   0.33226975  0.08398785  0.40647506
   0.83525754  0.33360366  0.40607642
   0.91503628  0.91478938  0.50033192
   0.08405272  0.83251811  0.40582306
   0.66674108  0.41663431  0.50001632
   0.74992040  0.24929223  0.59424064
   0.66952747  0.66637529  0.49958732
   0.75223446  0.49895866  0.59397875
   0.00006812 -0.00077056  0.59421633
   0.91893280  0.16764289  0.49999174
   0.83474362  0.58319083  0.40739062
   0.83322301  0.83265933  0.40731800
   0.49911216  0.24978069  0.59256882
   0.74938688 -0.00022697  0.59282785
   0.08389288  0.08369945  0.40708709
   0.49998819  0.00108741  0.59268358
   0.08293753  0.33394333  0.40766460
   0.91889796  0.41661254  0.49996891
   0.00053390  0.25076543  0.59272287
   0.08277547  0.58293982  0.40750407
   0.91728354  0.66575981  0.49982260
   0.00093725  0.49938657  0.59235183
   0.00014141  0.74930166  0.59277480
   0.41532251  0.41628388  0.50027475
   0.16607815  0.16860593  0.50004925
   0.24987142  0.25072576  0.59212659
   0.33300596  0.58331077  0.40706527
   0.24953660  0.49962933  0.59249071
   0.33293631  0.83336858  0.40688679
   0.66679386  0.91731714  0.50004343
   0.58354217  0.08284897  0.40730658
   0.41627290  0.16728476  0.50061464
   0.16623262  0.41621316  0.50032121
   0.24967539  0.74943339  0.59317251
Direct configuration=     3
   0.75425686  0.75368223  0.59921295
   0.58040517  0.58615622  0.39820381
   0.40987857  0.66576403  0.49851633
   0.49270293  0.49878035  0.60063589
   0.16939160  0.91888811  0.49851941
   0.58790893  0.83444850  0.39984837
   0.41605900  0.92523155  0.49998165
   0.16759144  0.65670426  0.50133558
   0.49710257  0.75342914  0.60205456
   0.83346501  0.07999318  0.39821936
   0.65605121  0.16290812  0.50159479
   0.33026133  0.33613796  0.40216651
   0.24888473  0.00550635  0.60042108
   0.57781060  0.33437812  0.39941094
   0.32914125  0.08591308  0.40110654
   0.84091753  0.33439883  0.39953531
   0.91024055  0.90926740  0.50130825
   0.08616878  0.83012016  0.39853670
   0.66695998  0.41653914  0.50006431
   0.74968625  0.24721035  0.60171435
   0.67794245  0.66551820  0.49837345
   0.75880708  0.49589557  0.60068213
   0.00026848 -0.00303713  0.60161856
   0.92559859  0.17051444  0.49996744
   0.83889193  0.58277164  0.40471522
   0.83289848  0.83067676  0.40442898
   0.49650059  0.24913558  0.59512493
   0.74758341 -0.00089458  0.59614589
   0.08553878  0.08477637  0.40351886
   0.49995344  0.00428601  0.59557727
   0.08177328  0.33573761  0.40579508
   0.92546126  0.41645334  0.49987744
   0.00210434  0.25301691  0.59573211
   0.08113454  0.58178231  0.40516236
   0.91909806  0.66309231  0.49930078
   0.00369414  0.49758219  0.59426968
   0.00055738  0.74724749  0.59593681
   0.41136870  0.41515793  0.50108292
   0.16434702  0.17431021  0.50019413
   0.24949321  0.25286055  0.59338187
   0.33204301  0.58324440  0.40343285
   0.24817353  0.49853901  0.59481705
   0.33176849  0.83347226  0.40272938
   0.66716800  0.91923049  0.50017119
   0.58415644  0.08142424  0.40438396
   0.41511466  0.16910288  0.50242258
   0.16495590  0.41487918  0.50126605
   0.24872055  0.74776674  0.59750436
Direct configuration=     4
   0.75332163  0.75268059  0.60094502
   0.58132923  0.58582605  0.39621163
   0.41322160  0.66563467  0.49887982
   0.49416819  0.49882663  0.60246616
   0.16730931  0.91869939  0.49885199
   0.58681291  0.83427905  0.39795679
   0.41763934  0.92298946  0.49995856
   0.16536367  0.66002650  0.50090783
   0.49837401  0.75231634  0.60367765
   0.83367978  0.08066977  0.39670826
   0.65979605  0.16595297  0.50113187
   0.32952721  0.33567138  0.40074201
   0.24845459  0.00553209  0.60233575
   0.57991833  0.33367918  0.39780307
   0.32997211  0.08581956  0.39939534
   0.83870469  0.33464703  0.39758089
   0.91380547  0.91136680  0.50099534
   0.08545786  0.83012073  0.39679660
   0.66714163  0.41592391  0.50012872
   0.74946942  0.24735945  0.60347877
   0.67448030  0.66605938  0.49881140
   0.75662636  0.49748743  0.60242626
   0.00049711 -0.00320566  0.60329264
   0.92185755  0.16935595  0.50000520
   0.83831984  0.58293142  0.40319503
   0.83430678  0.83051668  0.40325842
   0.49634650  0.24953677  0.59689579
   0.74782834  0.00008323  0.59780635
   0.08495404  0.08421056  0.40222358
   0.49989221  0.00365533  0.59683857
   0.08308964  0.33578307  0.40475598
   0.92313222  0.41758829  0.49998765
   0.00232691  0.25185877  0.59708741
   0.08150931  0.58219512  0.40423552
   0.91982704  0.66231693  0.49964246
   0.00382761  0.49829637  0.59536399
   0.00152915  0.74683565  0.59730889
   0.41325734  0.41396576  0.50076709
   0.16776611  0.17239435  0.50015116
   0.24944941  0.25307821  0.59452899
   0.33118881  0.58344637  0.40220905
   0.24741479  0.49833631  0.59642606
   0.33267184  0.83386591  0.40150313
   0.66488743  0.91643803  0.50007535
   0.58318698  0.08228597  0.40339998
   0.41164377  0.17012847  0.50159193
   0.16651986  0.41379219  0.50079783
   0.24819572  0.74874160  0.59846220
Direct configuration=     5
   0.75283469  0.75215908  0.60184684
   0.58181035  0.58565415  0.39517439
   0.41496217  0.66556732  0.49906907
   0.49493108  0.49885072  0.60341911
   0.16622516  0.91860113  0.49902516
   0.58624226  0.83419082  0.39697192
   0.41846216  0.92182210  0.49994654
   0.16420377  0.66175624  0.50068511
   0.49903600  0.75173696  0.60452273
   0.83379160  0.08102203  0.39592149
   0.66174583  0.16753828  0.50089086
   0.32914499  0.33542845  0.40000034
   0.24823064  0.00554549  0.60333264
   0.58101574  0.33331527  0.39696592
   0.33040470  0.08577086  0.39850440
   0.83755257  0.33477626  0.39656331
   0.91566157  0.91245986  0.50083243
   0.08508772  0.83012103  0.39589060
   0.66723621  0.41560359  0.50016226
   0.74935653  0.24743707  0.60439742
   0.67267770  0.66634116  0.49903943
   0.75549096  0.49831624  0.60333436
   0.00061615 -0.00329341  0.60416426
   0.91990976  0.16875278  0.50002486
   0.83802198  0.58301461  0.40240354
   0.83504003  0.83043334  0.40264897
   0.49626628  0.24974565  0.59781780
   0.74795586  0.00059233  0.59867089
   0.08464959  0.08391596  0.40154918
   0.49986032  0.00332697  0.59749527
   0.08377501  0.33580675  0.40421497
   0.92191959  0.41817921  0.50004503
   0.00244279  0.25125578  0.59779305
   0.08170444  0.58241005  0.40375295
   0.92020658  0.66191322  0.49982036
   0.00389710  0.49866821  0.59593374
   0.00203511  0.74662123  0.59802328
   0.41424067  0.41334505  0.50060265
   0.16954627  0.17139684  0.50012879
   0.24942661  0.25319154  0.59512624
   0.33074406  0.58355152  0.40157187
   0.24701976  0.49823078  0.59726380
   0.33314218  0.83407086  0.40086467
   0.66370004  0.91498412  0.50002545
   0.58268222  0.08273463  0.40288766
   0.40983663  0.17066245  0.50115945
   0.16733414  0.41322624  0.50055404
   0.24792246  0.74924917  0.59896091
Direct configuration=     6
   0.75240396  0.75188197  0.60228036
   0.58221476  0.58511315  0.39460211
   0.41618753  0.66560182  0.49931544
   0.49576086  0.49929311  0.60381734
   0.16673379  0.91833240  0.49925795
   0.58594447  0.83394481  0.39636973
   0.41718377  0.91954146  0.49999021
   0.16603163  0.66266186  0.50048971
   0.49907744  0.75131954  0.60486705
   0.83376751  0.08143489  0.39563225
   0.66344538  0.16592394  0.50072945
   0.33046707  0.33527961  0.39947050
   0.24885463  0.00426562  0.60378681
   0.58172131  0.33344682  0.39657505
   0.33105403  0.08481629  0.39787911
   0.83673393  0.33463992  0.39607109
   0.91424477  0.91465765  0.50068823
   0.08493078  0.83078381  0.39540655
   0.66733937  0.41646419  0.50022867
   0.74945833  0.24826971  0.60490227
   0.67079066  0.66523034  0.49926578
   0.75411072  0.49857619  0.60375090
   0.00047676 -0.00277836  0.60458904
   0.91902148  0.16866043  0.50002160
   0.83684986  0.58332346  0.40208146
   0.83487413  0.83128218  0.40259037
   0.49681788  0.24965025  0.59809224
   0.74821305  0.00051219  0.59865063
   0.08407772  0.08383489  0.40153208
   0.49977662  0.00268362  0.59773258
   0.08298202  0.33540095  0.40394261
   0.92015198  0.41704669  0.50012042
   0.00142355  0.25106517  0.59786574
   0.08195174  0.58290206  0.40345642
   0.91854625  0.66329317  0.50013925
   0.00297913  0.49898708  0.59626982
   0.00159925  0.74725487  0.59836981
   0.41483669  0.41451527  0.50043948
   0.16808433  0.16910182  0.50006097
   0.24943756  0.25272512  0.59578975
   0.33134604  0.58345582  0.40157053
   0.24758598  0.49876153  0.59762482
   0.33330396  0.83410550  0.40093617
   0.66559406  0.91592141  0.50005208
   0.58275933  0.08316187  0.40302132
   0.41249432  0.17000947  0.50057788
   0.16765347  0.41418677  0.50026159
   0.24870616  0.74945767  0.59883474
Direct configuration=     7
   0.75230313  0.75181709  0.60238185
   0.58230943  0.58498650  0.39446814
   0.41647439  0.66560990  0.49937312
   0.49595510  0.49939667  0.60391057
   0.16685286  0.91826949  0.49931245
   0.58587476  0.83388722  0.39622876
   0.41688450  0.91900756  0.50000043
   0.16645953  0.66287386  0.50044397
   0.49908714  0.75122183  0.60494766
   0.83376187  0.08153154  0.39556454
   0.66384324  0.16554603  0.50069167
   0.33077657  0.33524477  0.39934647
   0.24900070  0.00396601  0.60389313
   0.58188648  0.33347761  0.39648355
   0.33120603  0.08459283  0.39773274
   0.83654228  0.33460801  0.39595587
   0.91391310  0.91517215  0.50065447
   0.08489404  0.83093896  0.39529323
   0.66736352  0.41666565  0.50024422
   0.74948216  0.24846463  0.60502045
   0.67034891  0.66497030  0.49931877
   0.75378761  0.49863704  0.60384841
   0.00044413 -0.00265779  0.60468848
   0.91881354  0.16863881  0.50002084
   0.83657547  0.58339576  0.40200606
   0.83483529  0.83148089  0.40257665
   0.49694701  0.24962791  0.59815648
   0.74827325  0.00049343  0.59864589
   0.08394385  0.08381591  0.40152808
   0.49975702  0.00253302  0.59778813
   0.08279639  0.33530595  0.40387885
   0.91973818  0.41678158  0.50013807
   0.00118494  0.25102054  0.59788276
   0.08200963  0.58301724  0.40338700
   0.91815757  0.66361621  0.50021390
   0.00276424  0.49906173  0.59634850
   0.00149721  0.74740320  0.59845094
   0.41497622  0.41478922  0.50040128
   0.16774209  0.16856457  0.50004509
   0.24944012  0.25261594  0.59594508
   0.33148696  0.58343342  0.40157021
   0.24771853  0.49888577  0.59770934
   0.33334183  0.83411361  0.40095291
   0.66603744  0.91614083  0.50005832
   0.58277738  0.08326188  0.40305261
   0.41311648  0.16985660  0.50044174
   0.16772822  0.41441162  0.50019313
   0.24888962  0.74950648  0.59880521
Direct configuration=     8
   0.75212618  0.75188813  0.60245388
   0.58215740  0.58498952  0.39415347
   0.41655798  0.66520758  0.49945504
   0.49602859  0.49940298  0.60403434
   0.16646591  0.91797887  0.49943642
   0.58613530  0.83386300  0.39612644
   0.41733716  0.91916411  0.50006417
   0.16650214  0.66352151  0.50042425
   0.49901590  0.75134382  0.60515134
   0.83369629  0.08169096  0.39541686
   0.66343880  0.16605284  0.50074011
   0.33119126  0.33515089  0.39915820
   0.24917453  0.00360301  0.60407820
   0.58198510  0.33368631  0.39636727
   0.33114544  0.08451561  0.39762463
   0.83659250  0.33446132  0.39575750
   0.91441279  0.91476892  0.50063038
   0.08513728  0.83120191  0.39515652
   0.66724896  0.41610848  0.50027081
   0.74941576  0.24867205  0.60523235
   0.67041950  0.66554575  0.49934906
   0.75358715  0.49859286  0.60406492
   0.00033133 -0.00239351  0.60485556
   0.91862802  0.16858928  0.50001197
   0.83622044  0.58364357  0.40219963
   0.83442528  0.83187840  0.40271518
   0.49726380  0.24957357  0.59791679
   0.74833174  0.00037727  0.59845186
   0.08377127  0.08385156  0.40170753
   0.49964363  0.00229340  0.59754334
   0.08243526  0.33509687  0.40400465
   0.91978132  0.41627762  0.50013999
   0.00077305  0.25106407  0.59770467
   0.08188260  0.58316173  0.40346750
   0.91734138  0.66427707  0.50038185
   0.00235272  0.49887942  0.59628074
   0.00126425  0.74785081  0.59830232
   0.41581927  0.41504034  0.50040267
   0.16740307  0.16836423  0.50008852
   0.24940754  0.25225043  0.59588911
   0.33203096  0.58357323  0.40175496
   0.24803313  0.49922037  0.59756800
   0.33331471  0.83381762  0.40115942
   0.66603738  0.91590598  0.50011446
   0.58306950  0.08317480  0.40322158
   0.41405171  0.16886565  0.50024710
   0.16740346  0.41443580  0.50012678
   0.24921124  0.74952000  0.59859766
Direct configuration=     9
   0.75204343  0.75192136  0.60248757
   0.58208631  0.58499093  0.39400631
   0.41659707  0.66501943  0.49949336
   0.49606296  0.49940592  0.60409222
   0.16628494  0.91784296  0.49949440
   0.58625715  0.83385167  0.39607859
   0.41754886  0.91923732  0.50009399
   0.16652207  0.66382440  0.50041502
   0.49898258  0.75140088  0.60524660
   0.83366562  0.08176552  0.39534780
   0.66324965  0.16628986  0.50076277
   0.33138520  0.33510699  0.39907015
   0.24925582  0.00343325  0.60416475
   0.58203123  0.33378391  0.39631289
   0.33111710  0.08447949  0.39757407
   0.83661599  0.33439272  0.39566473
   0.91464648  0.91458034  0.50061911
   0.08525104  0.83132489  0.39509258
   0.66719539  0.41584791  0.50028325
   0.74938471  0.24876906  0.60533146
   0.67045252  0.66581487  0.49936322
   0.75349340  0.49857219  0.60416618
   0.00027857 -0.00226991  0.60493370
   0.91854126  0.16856612  0.50000782
   0.83605440  0.58375946  0.40229016
   0.83423352  0.83206431  0.40277996
   0.49741196  0.24954815  0.59780470
   0.74835909  0.00032294  0.59836111
   0.08369056  0.08386823  0.40179146
   0.49959059  0.00218134  0.59742885
   0.08226637  0.33499909  0.40406349
   0.91980149  0.41604193  0.50014088
   0.00058042  0.25108442  0.59762138
   0.08182319  0.58322931  0.40350515
   0.91695966  0.66458614  0.50046039
   0.00216027  0.49879415  0.59624906
   0.00115530  0.74806014  0.59823282
   0.41621354  0.41515778  0.50040332
   0.16724452  0.16827054  0.50010883
   0.24939231  0.25207949  0.59586294
   0.33228537  0.58363862  0.40184136
   0.24818026  0.49937685  0.59750189
   0.33330203  0.83367920  0.40125599
   0.66603735  0.91579614  0.50014072
   0.58320611  0.08313408  0.40330060
   0.41448910  0.16840221  0.50015607
   0.16725158  0.41444711  0.50009574
   0.24936166  0.74952633  0.59850059
Direct configuration=    10
   0.75195407  0.75190077  0.60259217
   0.58211146  0.58514285  0.39366525
   0.41705955  0.66504614  0.49959627
   0.49610571  0.49940503  0.60426597
   0.16638261  0.91780577  0.49964762
   0.58623304  0.83392051  0.39599129
   0.41746312  0.91938998  0.50009452
   0.16628595  0.66349626  0.50034973
   0.49904440  0.75138297  0.60549960
   0.83362096  0.08181457  0.39519506
   0.66333692  0.16617691  0.50080243
   0.33135455  0.33516989  0.39897193
   0.24911801  0.00340035  0.60434383
   0.58215959  0.33385735  0.39616358
   0.33099716  0.08450800  0.39753078
   0.83657660  0.33447003  0.39544571
   0.91454498  0.91454608  0.50055051
   0.08534126  0.83136774  0.39494038
   0.66741616  0.41583768  0.50029842
   0.74927646  0.24870315  0.60559026
   0.67050963  0.66567458  0.49939821
   0.75329366  0.49868561  0.60438734
   0.00019167 -0.00204559  0.60514126
   0.91829932  0.16829779  0.49998615
   0.83594153  0.58383884  0.40258920
   0.83420655  0.83228147  0.40293277
   0.49743763  0.24946468  0.59747191
   0.74837714  0.00032361  0.59810943
   0.08371500  0.08383819  0.40201515
   0.49949261  0.00217326  0.59717179
   0.08222320  0.33495997  0.40423844
   0.91960952  0.41607649  0.50012452
   0.00040766  0.25102201  0.59744481
   0.08175583  0.58330223  0.40372858
   0.91694352  0.66464646  0.50063105
   0.00211277  0.49860544  0.59610315
   0.00108777  0.74823453  0.59802569
   0.41614510  0.41518095  0.50037823
   0.16753346  0.16806891  0.50019294
   0.24941325  0.25194946  0.59560618
   0.33250803  0.58372520  0.40202101
   0.24816763  0.49954221  0.59719927
   0.33343251  0.83357360  0.40156120
   0.66620498  0.91579069  0.50019940
   0.58342923  0.08310480  0.40344808
   0.41442170  0.16829269  0.49996446
   0.16730820  0.41439597  0.50005865
   0.24944834  0.74965388  0.59833581
Direct configuration=    11
   0.75184326  0.75187524  0.60272189
   0.58214266  0.58533126  0.39324230
   0.41763307  0.66507928  0.49972389
   0.49615872  0.49940393  0.60448143
   0.16650374  0.91775966  0.49983763
   0.58620314  0.83400588  0.39588303
   0.41735679  0.91957929  0.50009518
   0.16599314  0.66308934  0.50026876
   0.49912105  0.75136077  0.60581335
   0.83356558  0.08187539  0.39500564
   0.66344513  0.16603684  0.50085163
   0.33131654  0.33524791  0.39885013
   0.24894711  0.00335956  0.60456590
   0.58231877  0.33394843  0.39597841
   0.33084841  0.08454335  0.39747710
   0.83652776  0.33456590  0.39517410
   0.91441911  0.91450360  0.50046544
   0.08545314  0.83142088  0.39475165
   0.66768994  0.41582500  0.50031723
   0.74914221  0.24862142  0.60591120
   0.67058044  0.66550062  0.49944160
   0.75304596  0.49882626  0.60466160
   0.00008390 -0.00176741  0.60539866
   0.91799929  0.16796504  0.49995929
   0.83580155  0.58393728  0.40296005
   0.83417310  0.83255078  0.40312227
   0.49746947  0.24936118  0.59705922
   0.74839954  0.00032444  0.59779731
   0.08374530  0.08380093  0.40229255
   0.49937109  0.00216323  0.59685301
   0.08216965  0.33491146  0.40445540
   0.91937146  0.41611936  0.50010422
   0.00019342  0.25094462  0.59722585
   0.08167230  0.58339266  0.40400565
   0.91692349  0.66472127  0.50084269
   0.00205386  0.49837141  0.59592220
   0.00100402  0.74845078  0.59776883
   0.41606023  0.41520968  0.50034711
   0.16789178  0.16781886  0.50029724
   0.24943921  0.25178821  0.59528777
   0.33278414  0.58383257  0.40224379
   0.24815198  0.49974727  0.59682398
   0.33359432  0.83344264  0.40193969
   0.66641287  0.91578393  0.50027218
   0.58370592  0.08306850  0.40363097
   0.41433812  0.16815688  0.49972684
   0.16737843  0.41433257  0.50001266
   0.24955583  0.74981205  0.59813146
Direct configuration=    12
   0.75181089  0.75186779  0.60275978
   0.58215177  0.58538628  0.39311877
   0.41780058  0.66508895  0.49976116
   0.49617420  0.49940361  0.60454436
   0.16653912  0.91774620  0.49989312
   0.58619441  0.83403082  0.39585141
   0.41732573  0.91963459  0.50009538
   0.16590761  0.66297049  0.50024511
   0.49914344  0.75135429  0.60590498
   0.83354941  0.08189315  0.39495032
   0.66347674  0.16599593  0.50086599
   0.33130544  0.33527069  0.39881456
   0.24889720  0.00334764  0.60463076
   0.58236526  0.33397503  0.39592433
   0.33080497  0.08455367  0.39746142
   0.83651349  0.33459390  0.39509477
   0.91438235  0.91449119  0.50044059
   0.08548582  0.83143641  0.39469652
   0.66776991  0.41582129  0.50032273
   0.74910300  0.24859755  0.60600494
   0.67060113  0.66544981  0.49945428
   0.75297362  0.49886734  0.60474170
   0.00005242 -0.00168616  0.60547383
   0.91791166  0.16786785  0.49995144
   0.83576067  0.58396603  0.40306836
   0.83416333  0.83262944  0.40317762
   0.49747877  0.24933095  0.59693868
   0.74840608  0.00032468  0.59770615
   0.08375416  0.08379005  0.40237357
   0.49933560  0.00216030  0.59675991
   0.08215402  0.33489729  0.40451877
   0.91930193  0.41613188  0.50009829
   0.00013085  0.25092201  0.59716190
   0.08164790  0.58341907  0.40408658
   0.91691764  0.66474312  0.50090450
   0.00203666  0.49830306  0.59586935
   0.00097956  0.74851394  0.59769380
   0.41603544  0.41521807  0.50033803
   0.16799643  0.16774583  0.50032770
   0.24944680  0.25174111  0.59519478
   0.33286478  0.58386393  0.40230886
   0.24814741  0.49980717  0.59671437
   0.33364158  0.83340439  0.40205023
   0.66647359  0.91578196  0.50029343
   0.58378673  0.08305790  0.40368439
   0.41431370  0.16811721  0.49965744
   0.16739894  0.41431405  0.49999923
   0.24958722  0.74985825  0.59807178
Direct configuration=    13
   0.75191250  0.75181784  0.60292539
   0.58239971  0.58550952  0.39270673
   0.41779571  0.66502443  0.49996589
   0.49610051  0.49933308  0.60475957
   0.16659378  0.91744131  0.50012967
   0.58605126  0.83427578  0.39581351
   0.41760973  0.91918256  0.50008273
   0.16637342  0.66305594  0.50004888
   0.49906609  0.75152082  0.60628231
   0.83377752  0.08191847  0.39474785
   0.66339990  0.16632202  0.50072455
   0.33123137  0.33541552  0.39873853
   0.24881150  0.00352238  0.60489242
   0.58229290  0.33409502  0.39578367
   0.33090323  0.08463671  0.39740586
   0.83651829  0.33471719  0.39482769
   0.91475970  0.91457062  0.50026726
   0.08557331  0.83126378  0.39457910
   0.66784002  0.41582646  0.50031922
   0.74885409  0.24859421  0.60637409
   0.67045558  0.66554150  0.49958737
   0.75306164  0.49869867  0.60502293
  -0.00006131 -0.00175437  0.60574760
   0.91804113  0.16772988  0.49990797
   0.83584074  0.58403986  0.40334516
   0.83447443  0.83237426  0.40326333
   0.49712486  0.24946356  0.59662409
   0.74846758  0.00022314  0.59757137
   0.08373936  0.08380666  0.40265471
   0.49920245  0.00228971  0.59657329
   0.08226652  0.33498995  0.40468305
   0.91942113  0.41583483  0.50011049
  -0.00001773  0.25094943  0.59698652
   0.08163669  0.58348125  0.40428796
   0.91690018  0.66433643  0.50111624
   0.00218416  0.49815767  0.59571032
   0.00102281  0.74848569  0.59755750
   0.41608371  0.41511350  0.50014824
   0.16763173  0.16789243  0.50039497
   0.24943847  0.25188569  0.59488514
   0.33277553  0.58384178  0.40250046
   0.24797304  0.49964967  0.59641393
   0.33377020  0.83361158  0.40234124
   0.66633095  0.91543903  0.50028060
   0.58357213  0.08331328  0.40374621
   0.41389927  0.16879383  0.49931114
   0.16753540  0.41384290  0.49989798
   0.24936481  0.74992449  0.59795527
Direct configuration=    14
   0.75194191  0.75180339  0.60297332
   0.58247146  0.58554518  0.39258749
   0.41779430  0.66500576  0.50002514
   0.49607919  0.49931267  0.60482185
   0.16660960  0.91735308  0.50019813
   0.58600984  0.83434667  0.39580255
   0.41769191  0.91905174  0.50007908
   0.16650822  0.66308067  0.49999209
   0.49904371  0.75156901  0.60639151
   0.83384353  0.08192580  0.39468926
   0.66337767  0.16641639  0.50068362
   0.33120994  0.33545743  0.39871652
   0.24878670  0.00357295  0.60496814
   0.58227195  0.33412974  0.39574297
   0.33093167  0.08466074  0.39738978
   0.83651967  0.33475286  0.39475040
   0.91486890  0.91459360  0.50021710
   0.08559863  0.83121383  0.39454512
   0.66786031  0.41582796  0.50031820
   0.74878205  0.24859324  0.60648091
   0.67041346  0.66556803  0.49962588
   0.75308712  0.49864986  0.60510431
  -0.00009423 -0.00177411  0.60582682
   0.91807859  0.16768995  0.49989538
   0.83586391  0.58406123  0.40342527
   0.83456446  0.83230041  0.40328813
   0.49702244  0.24950194  0.59653305
   0.74848537  0.00019376  0.59753237
   0.08373507  0.08381146  0.40273606
   0.49916392  0.00232716  0.59651928
   0.08229908  0.33501677  0.40473059
   0.91945562  0.41574887  0.50011402
  -0.00006072  0.25095736  0.59693577
   0.08163345  0.58349925  0.40434623
   0.91689513  0.66421874  0.50117752
   0.00222685  0.49811560  0.59566430
   0.00103532  0.74847752  0.59751806
   0.41609768  0.41508324  0.50009332
   0.16752619  0.16793486  0.50041444
   0.24943606  0.25192753  0.59479554
   0.33274970  0.58383537  0.40255591
   0.24792258  0.49960409  0.59632698
   0.33380742  0.83367154  0.40242545
   0.66628967  0.91533979  0.50027689
   0.58351003  0.08338718  0.40376410
   0.41377934  0.16898964  0.49921093
   0.16757489  0.41370655  0.49986868
   0.24930044  0.74994366  0.59792155
Direct configuration=    15
   0.75201346  0.75173598  0.60312766
   0.58251491  0.58557909  0.39241619
   0.41795567  0.66455507  0.50017035
   0.49588206  0.49932652  0.60492193
   0.16670475  0.91749347  0.50037762
   0.58616397  0.83444628  0.39583005
   0.41747270  0.91917151  0.50013446
   0.16659853  0.66318750  0.49990529
   0.49892159  0.75167240  0.60667151
   0.83394914  0.08188427  0.39456424
   0.66361395  0.16624098  0.50050995
   0.33111936  0.33564757  0.39859078
   0.24877615  0.00380404  0.60512649
   0.58225207  0.33428133  0.39565361
   0.33092447  0.08482876  0.39735903
   0.83660286  0.33482206  0.39459341
   0.91479797  0.91458994  0.50010403
   0.08574603  0.83114594  0.39450161
   0.66777507  0.41592658  0.50030881
   0.74860361  0.24859553  0.60667467
   0.67033985  0.66526226  0.49980669
   0.75320076  0.49849235  0.60526231
  -0.00024170 -0.00183659  0.60597212
   0.91809877  0.16783766  0.49990584
   0.83590938  0.58414165  0.40348609
   0.83466970  0.83208584  0.40328896
   0.49691985  0.24956314  0.59646066
   0.74840602  0.00021868  0.59749524
   0.08383749  0.08384587  0.40285780
   0.49910229  0.00244608  0.59646118
   0.08236699  0.33503427  0.40470175
   0.91931810  0.41561528  0.50014318
  -0.00013130  0.25087998  0.59695554
   0.08164934  0.58343682  0.40436122
   0.91712202  0.66408333  0.50128159
   0.00217903  0.49819578  0.59566918
   0.00110247  0.74834136  0.59747768
   0.41623542  0.41519299  0.49991322
   0.16750142  0.16750815  0.50041233
   0.24938769  0.25197823  0.59471004
   0.33278669  0.58387722  0.40253956
   0.24782594  0.49953753  0.59622465
   0.33382790  0.83376635  0.40247743
   0.66639201  0.91542097  0.50018703
   0.58344288  0.08351360  0.40365595
   0.41371104  0.16893552  0.49897358
   0.16749292  0.41387316  0.49973222
   0.24915870  0.74981771  0.59804529
Direct configuration=    16
   0.75203150  0.75171899  0.60316655
   0.58252586  0.58558763  0.39237302
   0.41799633  0.66444151  0.50020694
   0.49583238  0.49933001  0.60494714
   0.16672872  0.91752884  0.50042285
   0.58620281  0.83447137  0.39583698
   0.41741746  0.91920169  0.50014841
   0.16662128  0.66321442  0.49988341
   0.49889082  0.75169845  0.60674206
   0.83397575  0.08187380  0.39453273
   0.66367349  0.16619679  0.50046619
   0.33109654  0.33569548  0.39855909
   0.24877349  0.00386227  0.60516639
   0.58224706  0.33431953  0.39563109
   0.33092266  0.08487109  0.39735128
   0.83662382  0.33483950  0.39455385
   0.91478009  0.91458901  0.50007554
   0.08578318  0.83112883  0.39449065
   0.66775360  0.41595142  0.50030644
   0.74855864  0.24859611  0.60672350
   0.67032130  0.66518522  0.49985225
   0.75322940  0.49845266  0.60530212
  -0.00027885 -0.00185233  0.60600873
   0.91810385  0.16787488  0.49990848
   0.83592084  0.58416191  0.40350142
   0.83469622  0.83203177  0.40328917
   0.49689400  0.24957857  0.59644241
   0.74838603  0.00022496  0.59748588
   0.08386330  0.08385454  0.40288847
   0.49908676  0.00247605  0.59644654
   0.08238410  0.33503868  0.40469448
   0.91928345  0.41558162  0.50015053
  -0.00014908  0.25086048  0.59696053
   0.08165334  0.58342108  0.40436500
   0.91717919  0.66404920  0.50130782
   0.00216698  0.49821598  0.59567042
   0.00111939  0.74830705  0.59746751
   0.41627013  0.41522065  0.49986784
   0.16749517  0.16740063  0.50041179
   0.24937550  0.25199101  0.59468850
   0.33279601  0.58388776  0.40253544
   0.24780159  0.49952076  0.59619886
   0.33383306  0.83379023  0.40249053
   0.66641780  0.91544143  0.50016438
   0.58342596  0.08354545  0.40362870
   0.41369383  0.16892188  0.49891377
   0.16747226  0.41391514  0.49969784
   0.24912298  0.74978597  0.59807647
Direct configuration=    17
   0.75190983  0.75178825  0.60329631
   0.58242979  0.58575401  0.39229694
   0.41791314  0.66453696  0.50031538
   0.49571526  0.49936577  0.60503380