  56  56   0   0
  0.4903395E+02  0.1100258E-08  0.1100258E-08  0.2619179E-08  0.3500000E-15
  1.000000000000000E-004
  CAR 
 unknown system                          
      6.38923676    -21.76458057  301     -1.40771652      1.00000000
    -21.765  0.0000E+00  0.0000E+00
    -21.671  0.0000E+00  0.0000E+00
    -21.577  0.0000E+00  0.0000E+00
    -21.483  0.0000E+00  0.0000E+00
    -21.389  0.0000E+00  0.0000E+00
    -21.295  0.0000E+00  0.0000E+00
    -21.202  0.0000E+00  0.0000E+00
    -21.108  0.0000E+00  0.0000E+00
    -21.014  0.1521E-14  0.1427E-15
    -20.920  0.1568E-10  0.1472E-11
    -20.826  0.2893E-07  0.2717E-08
    -20.732  0.9744E-05  0.9172E-06
    -20.638  0.6190E-03  0.5901E-04
    -20.545  0.7803E-02  0.7913E-03
    -20.451  0.2079E-01  0.2743E-02
    -20.357  0.1466E-01  0.4118E-02
    -20.263  0.2050E-01  0.6042E-02
    -20.169  0.4260E-01  0.1004E-01
    -20.075  0.4455E-01  0.1422E-01
    -19.982  0.3113E-01  0.1714E-01
    -19.888  0.2831E-01  0.1980E-01
    -19.794  0.2680E-01  0.2231E-01
    -19.700  0.1676E-01  0.2389E-01
    -19.606  0.1382E-01  0.2518E-01
    -19.512  0.2094E-01  0.2715E-01
    -19.418  0.8361E-02  0.2793E-01
    -19.325  0.1340E-02  0.2806E-01
    -19.231  0.7918E-02  0.2880E-01
    -19.137  0.2074E-01  0.3075E-01
    -19.043  0.1185E-01  0.3186E-01
    -18.949  0.1446E-02  0.3200E-01
    -18.855  0.3558E-04  0.3200E-01
    -18.762  0.1671E-06  0.3200E-01
    -18.668  0.1443E-09  0.3200E-01
    -18.574  0.2239E-13  0.3200E-01
    -18.480  0.0000E+00  0.3200E-01
    -18.386  0.0000E+00  0.3200E-01
    -18.292  0.0000E+00  0.3200E-01
    -18.198  0.0000E+00  0.3200E-01
    -18.105  0.0000E+00  0.3200E-01
    -18.011  0.0000E+00  0.3200E-01
    -17.917  0.0000E+00  0.3200E-01
    -17.823  0.0000E+00  0.3200E-01
    -17.729  0.0000E+00  0.3200E-01
    -17.635  0.0000E+00  0.3200E-01
    -17.542  0.0000E+00  0.3200E-01
    -17.448  0.0000E+00  0.3200E-01
    -17.354  0.0000E+00  0.3200E-01
    -17.260  0.0000E+00  0.3200E-01
    -17.166  0.0000E+00  0.3200E-01
    -17.072  0.0000E+00  0.3200E-01
    -16.978  0.0000E+00  0.3200E-01
    -16.885  0.0000E+00  0.3200E-01
    -16.791  0.0000E+00  0.3200E-01
    -16.697  0.0000E+00  0.3200E-01
    -16.603  0.0000E+00  0.3200E-01
    -16.509  0.0000E+00  0.3200E-01
    -16.415  0.0000E+00  0.3200E-01
    -16.322  0.0000E+00  0.3200E-01
    -16.228  0.0000E+00  0.3200E-01
    -16.134  0.0000E+00  0.3200E-01
    -16.040  0.0000E+00  0.3200E-01
    -15.946  0.0000E+00  0.3200E-01
    -15.852  0.0000E+00  0.3200E-01
    -15.758  0.0000E+00  0.3200E-01
    -15.665  0.0000E+00  0.3200E-01
    -15.571  0.0000E+00  0.3200E-01
    -15.477  0.0000E+00  0.3200E-01
    -15.383  0.0000E+00  0.3200E-01
    -15.289  0.0000E+00  0.3200E-01
    -15.195  0.0000E+00  0.3200E-01
    -15.102  0.0000E+00  0.3200E-01
    -15.008  0.0000E+00  0.3200E-01
    -14.914  0.0000E+00  0.3200E-01
    -14.820  0.0000E+00  0.3200E-01
    -14.726  0.0000E+00  0.3200E-01
    -14.632  0.0000E+00  0.3200E-01
    -14.538  0.0000E+00  0.3200E-01
    -14.445  0.0000E+00  0.3200E-01
    -14.351  0.0000E+00  0.3200E-01
    -14.257  0.0000E+00  0.3200E-01
    -14.163  0.0000E+00  0.3200E-01
    -14.069  0.0000E+00  0.3200E-01
    -13.975  0.0000E+00  0.3200E-01
    -13.882  0.0000E+00  0.3200E-01
    -13.788  0.0000E+00  0.3200E-01
    -13.694  0.0000E+00  0.3200E-01
    -13.600  0.0000E+00  0.3200E-01
    -13.506  0.0000E+00  0.3200E-01
    -13.412  0.0000E+00  0.3200E-01
    -13.318  0.0000E+00  0.3200E-01
    -13.225  0.0000E+00  0.3200E-01
    -13.131  0.0000E+00  0.3200E-01
    -13.037  0.0000E+00  0.3200E-01
    -12.943  0.0000E+00  0.3200E-01
    -12.849  0.0000E+00  0.3200E-01
    -12.755  0.0000E+00  0.3200E-01
    -12.662  0.0000E+00  0.3200E-01
    -12.568  0.0000E+00  0.3200E-01
    -12.474  0.0000E+00  0.3200E-01
    -12.380  0.0000E+00  0.3200E-01
    -12.286  0.0000E+00  0.3200E-01
    -12.192  0.0000E+00  0.3200E-01
    -12.098  0.0000E+00  0.3200E-01
    -12.005  0.0000E+00  0.3200E-01
    -11.911  0.0000E+00  0.3200E-01
    -11.817  0.0000E+00  0.3200E-01
    -11.723  0.0000E+00  0.3200E-01
    -11.629  0.0000E+00  0.3200E-01
    -11.535  0.0000E+00  0.3200E-01
    -11.442  0.0000E+00  0.3200E-01
    -11.348  0.0000E+00  0.3200E-01
    -11.254  0.0000E+00  0.3200E-01
    -11.160  0.0000E+00  0.3200E-01
    -11.066  0.0000E+00  0.3200E-01
    -10.972  0.0000E+00  0.3200E-01
    -10.878  0.0000E+00  0.3200E-01
    -10.785  0.0000E+00  0.3200E-01
    -10.691  0.0000E+00  0.3200E-01
    -10.597  0.0000E+00  0.3200E-01
    -10.503  0.0000E+00  0.3200E-01
    -10.409  0.0000E+00  0.3200E-01
    -10.315  0.0000E+00  0.3200E-01
    -10.222  0.0000E+00  0.3200E-01
    -10.128  0.0000E+00  0.3200E-01
    -10.034  0.0000E+00  0.3200E-01
     -9.940  0.0000E+00  0.3200E-01
     -9.846  0.0000E+00  0.3200E-01
     -9.752  0.0000E+00  0.3200E-01
     -9.658  0.0000E+00  0.3200E-01
     -9.565  0.2169E-16  0.3200E-01
     -9.471  0.4028E-12  0.3200E-01
     -9.377  0.1332E-08  0.3200E-01
     -9.283  0.7987E-06  0.3200E-01
     -9.189  0.8935E-04  0.3201E-01
     -9.095  0.1950E-02  0.3219E-01
     -9.002  0.8948E-02  0.3303E-01
     -8.908  0.1131E-01  0.3409E-01
     -8.814  0.1143E-01  0.3517E-01
     -8.720  0.7568E-02  0.3588E-01
     -8.626  0.1317E-02  0.3600E-01
     -8.532  0.9331E-03  0.3609E-01
     -8.438  0.5451E-02  0.3660E-01
     -8.345  0.1566E-01  0.3807E-01
     -8.251  0.3158E-01  0.4103E-01
     -8.157  0.3494E-01  0.4431E-01
     -8.063  0.2997E-01  0.4712E-01
     -7.969  0.4013E-01  0.5089E-01
     -7.875  0.4516E-01  0.5513E-01
     -7.782  0.4802E-01  0.5963E-01
     -7.688  0.6603E-01  0.6583E-01
     -7.594  0.6995E-01  0.7240E-01
     -7.500  0.7012E-01  0.7898E-01
     -7.406  0.8783E-01  0.8722E-01
     -7.312  0.1098E+00  0.9752E-01
     -7.218  0.1301E+00  0.1097E+00
     -7.125  0.1381E+00  0.1227E+00
     -7.031  0.1284E+00  0.1347E+00
     -6.937  0.1146E+00  0.1455E+00
     -6.843  0.1328E+00  0.1580E+00
     -6.749  0.1478E+00  0.1718E+00
     -6.655  0.1385E+00  0.1848E+00
     -6.562  0.1419E+00  0.1981E+00
     -6.468  0.1414E+00  0.2114E+00
     -6.374  0.1434E+00  0.2249E+00
     -6.280  0.1673E+00  0.2406E+00
     -6.186  0.1784E+00  0.2573E+00
     -6.092  0.1694E+00  0.2732E+00
     -5.998  0.1691E+00  0.2891E+00
     -5.905  0.1716E+00  0.3052E+00
     -5.811  0.1747E+00  0.3216E+00
     -5.717  0.1710E+00  0.3376E+00
     -5.623  0.1657E+00  0.3532E+00
     -5.529  0.1645E+00  0.3686E+00
     -5.435  0.1625E+00  0.3839E+00
     -5.342  0.1724E+00  0.4001E+00
     -5.248  0.1835E+00  0.4173E+00
     -5.154  0.1839E+00  0.4345E+00
     -5.060  0.1783E+00  0.4513E+00
     -4.966  0.1704E+00  0.4673E+00
     -4.872  0.1725E+00  0.4834E+00
     -4.778  0.1855E+00  0.5009E+00
     -4.685  0.1878E+00  0.5185E+00
     -4.591  0.1752E+00  0.5349E+00
     -4.497  0.1734E+00  0.5512E+00
     -4.403  0.1800E+00  0.5681E+00
     -4.309  0.1932E+00  0.5862E+00
     -4.215  0.1992E+00  0.6049E+00
     -4.122  0.1987E+00  0.6236E+00
     -4.028  0.1944E+00  0.6418E+00
     -3.934  0.1892E+00  0.6595E+00
     -3.840  0.1978E+00  0.6781E+00
     -3.746  0.2077E+00  0.6976E+00
     -3.652  0.2043E+00  0.7168E+00
     -3.558  0.1927E+00  0.7349E+00
     -3.465  0.1839E+00  0.7521E+00
     -3.371  0.1803E+00  0.7690E+00
     -3.277  0.1867E+00  0.7866E+00
     -3.183  0.1919E+00  0.8046E+00
     -3.089  0.1927E+00  0.8227E+00
     -2.995  0.1932E+00  0.8408E+00
     -2.902  0.1913E+00  0.8587E+00
     -2.808  0.1952E+00  0.8771E+00
     -2.714  0.1984E+00  0.8957E+00
     -2.620  0.1904E+00  0.9135E+00
     -2.526  0.1873E+00  0.9311E+00
     -2.432  0.1869E+00  0.9487E+00
     -2.338  0.1901E+00  0.9665E+00
     -2.245  0.1979E+00  0.9851E+00
     -2.151  0.1981E+00  0.1004E+01
     -2.057  0.1841E+00  0.1021E+01
     -1.963  0.1649E+00  0.1036E+01
     -1.869  0.1488E+00  0.1050E+01
     -1.775  0.1523E+00  0.1065E+01
     -1.682  0.1393E+00  0.1078E+01
     -1.588  0.1144E+00  0.1088E+01
     -1.494  0.9366E-01  0.1097E+01
     -1.400  0.7755E-01  0.1105E+01
     -1.306  0.7126E-01  0.1111E+01
     -1.212  0.6770E-01  0.1118E+01
     -1.118  0.5629E-01  0.1123E+01
     -1.025  0.5479E-01  0.1128E+01
     -0.931  0.5670E-01  0.1133E+01
     -0.837  0.5146E-01  0.1138E+01
     -0.743  0.4959E-01  0.1143E+01
     -0.649  0.5593E-01  0.1148E+01
     -0.555  0.5996E-01  0.1154E+01
     -0.462  0.5285E-01  0.1159E+01
     -0.368  0.3670E-01  0.1162E+01
     -0.274  0.2545E-01  0.1165E+01
     -0.180  0.2411E-01  0.1167E+01
     -0.086  0.2202E-01  0.1169E+01
      0.008  0.2452E-01  0.1171E+01
      0.102  0.2403E-01  0.1173E+01
      0.195  0.1989E-01  0.1175E+01
      0.289  0.2573E-01  0.1178E+01
      0.383  0.3520E-01  0.1181E+01
      0.477  0.4333E-01  0.1185E+01
      0.571  0.4201E-01  0.1189E+01
      0.665  0.3358E-01  0.1192E+01
      0.758  0.3210E-01  0.1195E+01
      0.852  0.3000E-01  0.1198E+01
      0.946  0.2378E-01  0.1200E+01
      1.040  0.2461E-01  0.1203E+01
      1.134  0.2339E-01  0.1205E+01
      1.228  0.1676E-01  0.1206E+01
      1.322  0.2328E-01  0.1208E+01
      1.415  0.2867E-01  0.1211E+01
      1.509  0.3295E-01  0.1214E+01
      1.603  0.3738E-01  0.1218E+01
      1.697  0.3051E-01  0.1221E+01
      1.791  0.3143E-01  0.1224E+01
      1.885  0.3789E-01  0.1227E+01
      1.978  0.3576E-01  0.1230E+01
      2.072  0.3221E-01  0.1233E+01
      2.166  0.3209E-01  0.1237E+01
      2.260  0.3343E-01  0.1240E+01
      2.354  0.2874E-01  0.1242E+01
      2.448  0.2289E-01  0.1244E+01
      2.542  0.1720E-01  0.1246E+01
      2.635  0.1842E-01  0.1248E+01
      2.729  0.1854E-01  0.1250E+01
      2.823  0.1851E-01  0.1251E+01
      2.917  0.2382E-01  0.1254E+01
      3.011  0.2809E-01  0.1256E+01
      3.105  0.3325E-01  0.1259E+01
      3.198  0.3376E-01  0.1262E+01
      3.292  0.2756E-01  0.1265E+01
      3.386  0.2622E-01  0.1268E+01
      3.480  0.3168E-01  0.1270E+01
      3.574  0.3507E-01  0.1274E+01
      3.668  0.4168E-01  0.1278E+01
      3.762  0.4665E-01  0.1282E+01
      3.855  0.4618E-01  0.1286E+01
      3.949  0.3106E-01  0.1289E+01
      4.043  0.3014E-01  0.1292E+01
      4.137  0.3501E-01  0.1295E+01
      4.231  0.3387E-01  0.1299E+01
      4.325  0.4070E-01  0.1302E+01
      4.418  0.4686E-01  0.1307E+01
      4.512  0.4766E-01  0.1311E+01
      4.606  0.4783E-01  0.1316E+01
      4.700  0.5647E-01  0.1321E+01
      4.794  0.6555E-01  0.1327E+01
      4.888  0.6160E-01  0.1333E+01
      4.982  0.5280E-01  0.1338E+01
      5.075  0.3938E-01  0.1342E+01
      5.169  0.2063E-01  0.1344E+01
      5.263  0.3993E-02  0.1344E+01
      5.357  0.2034E-03  0.1344E+01
      5.451  0.2403E-05  0.1344E+01
      5.545  0.6026E-08  0.1344E+01
      5.638  0.2985E-11  0.1344E+01
      5.732  0.2784E-15  0.1344E+01
      5.826  0.0000E+00  0.1344E+01
      5.920  0.0000E+00  0.1344E+01
      6.014  0.0000E+00  0.1344E+01
      6.108  0.0000E+00  0.1344E+01
      6.202  0.0000E+00  0.1344E+01
      6.295  0.0000E+00  0.1344E+01
      6.389  0.0000E+00  0.1344E+01
