unknown system                          
           1
    11.002582    0.000000    0.000000
     5.501291    9.528515    0.000000
     0.000000    0.000000   26.191785
   Au   O    Pd
  24   8  24
Direct configuration=     1
   0.52266239  0.73415751  0.56241456
   0.75967235  0.73674095  0.61632469
   0.66954261  0.90706418  0.47804392
   0.83333333  0.83333333  0.38179910
   0.08333333  0.33333333  0.38179910
   0.91880663  0.41362472  0.47837772
   0.83333333  0.58333333  0.38179910
   0.08333333  0.58333333  0.38179910
   0.90283474  0.67337350  0.51784696
   0.75821695  0.21043800  0.55913286
   0.08333333  0.83333333  0.38179910
   0.42159296  0.90393627  0.47315680
   0.16967631  0.90653869  0.47505862
   0.41146114  0.41324753  0.47801418
   0.16770131  0.15942902  0.47314913
   0.22765509  0.99153995  0.60695505
   0.58333333  0.33333333  0.38179910
   0.33333333  0.33333333  0.38179910
   0.53489597  0.00199911  0.62280548
   0.26743170  0.21491338  0.56433184
   0.41796587  0.15857262  0.47137054
   0.33333333  0.58333333  0.38179910
   0.16102303  0.66987525  0.50761825
   0.58333333  0.58333333  0.38179910
   0.38987926  0.52573773  0.62003209
   0.12438079  0.51869926  0.63162547
   0.32100801  0.11310274  0.63587512
   0.92057983  0.92318324  0.61935291
   0.38850040  0.79481353  0.62733070
   0.84772912  0.52474652  0.62912805
   0.85574611  0.28456557  0.60985160
   0.61899738  0.84277630  0.67190101
   0.58333333  0.83333333  0.38179910
   0.33333333  0.08333333  0.38179910
   0.51763155  0.20352370  0.56089906
   0.28173588  0.45517517  0.58129758
   0.26454854  0.72604842  0.60083441
   0.41546389  0.65815378  0.47560107
   0.52014644  0.47339124  0.56162196
   0.08333333  0.08333333  0.38179910
   0.91929609  0.90254111  0.47255302
   0.02241189  0.72027366  0.61896929
   0.33333333  0.83333333  0.38179910
   0.83333333  0.08333333  0.38179910
   0.67076041  0.15583362  0.47137312
   0.77188455  0.95403107  0.56814152
   0.83333333  0.33333333  0.38179910
   0.67172323  0.40904053  0.47530905
   0.02132359  0.45416193  0.58652849
   0.01826836  0.21108943  0.56272029
   0.67383623  0.65722303  0.47755649
   0.76052562  0.47267986  0.57025293
   0.02475752  0.95146363  0.56234310
   0.92083713  0.15529746  0.46970981
   0.58333333  0.08333333  0.38179910
   0.15981475  0.42080224  0.48756177
Direct configuration=     2
   0.52260501  0.73418383  0.56241914
   0.75969333  0.73674419  0.61630687
   0.66958768  0.90711043  0.47804281
   0.83333333  0.83333333  0.38179910
   0.08333333  0.33333333  0.38179910
   0.91878111  0.41366124  0.47835994
   0.83333333  0.58333333  0.38179910
   0.08333333  0.58333333  0.38179910
   0.90289508  0.67334915  0.51783931
   0.75831382  0.21043269  0.55912224
   0.08333333  0.83333333  0.38179910
   0.42156548  0.90393986  0.47315122
   0.16969452  0.90653410  0.47506987
   0.41147676  0.41324921  0.47800725
   0.16770398  0.15944921  0.47315638
   0.22758889  0.99165957  0.60695654
   0.58333333  0.33333333  0.38179910
   0.33333333  0.33333333  0.38179910
   0.53486275  0.00218465  0.62277506
   0.26744774  0.21486176  0.56433119
   0.41801403  0.15861125  0.47135528
   0.33333333  0.58333333  0.38179910
   0.16110094  0.66988324  0.50764920
   0.58333333  0.58333333  0.38179910
   0.38989942  0.52567237  0.62005506
   0.12426400  0.51889908  0.63158821
   0.32111003  0.11307278  0.63583402
   0.92050796  0.92340111  0.61937968
   0.38848067  0.79487942  0.62737064
   0.84773672  0.52479240  0.62908849
   0.85573323  0.28453193  0.60983188
   0.61907317  0.84276922  0.67184332
   0.58333333  0.83333333  0.38179910
   0.33333333  0.08333333  0.38179910
   0.51758241  0.20357920  0.56089463
   0.28165786  0.45525136  0.58131470
   0.26459209  0.72592185  0.60088070
   0.41548442  0.65819370  0.47558894
   0.52011323  0.47337298  0.56162710
   0.08333333  0.08333333  0.38179910
   0.91929643  0.90261067  0.47256822
   0.02266400  0.71974379  0.61898304
   0.33333333  0.83333333  0.38179910
   0.83333333  0.08333333  0.38179910
   0.67075712  0.15586966  0.47135403
   0.77194760  0.95402442  0.56810732
   0.83333333  0.33333333  0.38179910
   0.67171600  0.40908674  0.47530074
   0.02125398  0.45422521  0.58652375
   0.01821312  0.21112531  0.56273580
   0.67382417  0.65720882  0.47756714
   0.76047678  0.47271792  0.57029626
   0.02478781  0.95146282  0.56230207
   0.92082182  0.15529811  0.46972550
   0.58333333  0.08333333  0.38179910
   0.15988123  0.42079558  0.48757053
Direct configuration=     3
   0.52259045  0.73419050  0.56242031
   0.75969866  0.73674501  0.61630235
   0.66959912  0.90712216  0.47804252
   0.83333333  0.83333333  0.38179910
   0.08333333  0.33333333  0.38179910
   0.91877464  0.41367051  0.47835542
   0.83333333  0.58333333  0.38179910
   0.08333333  0.58333333  0.38179910
   0.90291038  0.67334298  0.51783737
   0.75833840  0.21043135  0.55911955
   0.08333333  0.83333333  0.38179910
   0.42155850  0.90394077  0.47314980
   0.16969915  0.90653293  0.47507272
   0.41148072  0.41324963  0.47800549
   0.16770466  0.15945434  0.47315822
   0.22757210  0.99168991  0.60695692
   0.58333333  0.33333333  0.38179910
   0.33333333  0.33333333  0.38179910
   0.53485432  0.00223173  0.62276735
   0.26745181  0.21484867  0.56433103
   0.41802625  0.15862106  0.47135141
   0.33333333  0.58333333  0.38179910
   0.16112071  0.66988527  0.50765705
   0.58333333  0.58333333  0.38179910
   0.38990453  0.52565579  0.62006089
   0.12423437  0.51894978  0.63157876
   0.32113592  0.11306518  0.63582359
   0.92048972  0.92345638  0.61938647
   0.38847567  0.79489613  0.62738077
   0.84773865  0.52480404  0.62907846
   0.85572996  0.28452339  0.60982687
   0.61909240  0.84276743  0.67182868
   0.58333333  0.83333333  0.38179910
   0.33333333  0.08333333  0.38179910
   0.51756995  0.20359328  0.56089351
   0.28163806  0.45527069  0.58131904
   0.26460313  0.72588974  0.60089244
   0.41548963  0.65820383  0.47558586
   0.52010481  0.47336835  0.56162841
   0.08333333  0.08333333  0.38179910
   0.91929651  0.90262832  0.47257207
   0.02272796  0.71960936  0.61898652
   0.33333333  0.83333333  0.38179910
   0.83333333  0.08333333  0.38179910
   0.67075629  0.15587880  0.47134918
   0.77196360  0.95402273  0.56809865
   0.83333333  0.33333333  0.38179910
   0.67171416  0.40909846  0.47529863
   0.02123632  0.45424127  0.58652255
   0.01819910  0.21113442  0.56273973
   0.67382111  0.65720521  0.47756985
   0.76046439  0.47272758  0.57030726
   0.02479549  0.95146262  0.56229166
   0.92081793  0.15529827  0.46972948
   0.58333333  0.08333333  0.38179910
   0.15989810  0.42079389  0.48757275
Direct configuration=     4
   0.52249348  0.73423806  0.56243436
   0.75974190  0.73678203  0.61626159
   0.66964892  0.90716506  0.47803776
   0.83333333  0.83333333  0.38179910
   0.08333333  0.33333333  0.38179910
   0.91875091  0.41371580  0.47833404
   0.83333333  0.58333333  0.38179910
   0.08333333  0.58333333  0.38179910
   0.90299152  0.67332461  0.51781861
   0.75841011  0.21042418  0.55909122
   0.08333333  0.83333333  0.38179910
   0.42154396  0.90396827  0.47314274
   0.16972713  0.90653684  0.47508041
   0.41150453  0.41327057  0.47799535
   0.16770288  0.15949025  0.47316888
   0.22750797  0.99176739  0.60695749
   0.58333333  0.33333333  0.38179910
   0.33333333  0.33333333  0.38179910
   0.53492185  0.00239769  0.62273033
   0.26744156  0.21482275  0.56431402
   0.41807974  0.15866104  0.47133007
   0.33333333  0.58333333  0.38179910
   0.16121491  0.66990727  0.50769889
   0.58333333  0.58333333  0.38179910
   0.38995845  0.52554620  0.62010584
   0.12422363  0.51889000  0.63157125
   0.32124561  0.11305307  0.63578377
   0.92057904  0.92339083  0.61939195
   0.38840802  0.79500903  0.62742500
   0.84772040  0.52486965  0.62904834
   0.85569849  0.28449320  0.60982370
   0.61915989  0.84281935  0.67174056
   0.58333333  0.83333333  0.38179910
   0.33333333  0.08333333  0.38179910
   0.51751901  0.20369379  0.56088155
   0.28158457  0.45531378  0.58132418
   0.26465291  0.72576125  0.60096720
   0.41551711  0.65823570  0.47557018
   0.52006717  0.47334012  0.56163459
   0.08333333  0.08333333  0.38179910
   0.91931369  0.90270527  0.47258736
   0.02270248  0.71964653  0.61898979
   0.33333333  0.83333333  0.38179910
   0.83333333  0.08333333  0.38179910
   0.67075231  0.15594543  0.47132850
   0.77209199  0.95400297  0.56806972
   0.83333333  0.33333333  0.38179910
   0.67170023  0.40916198  0.47529069
   0.02118870  0.45426923  0.58648973
   0.01817799  0.21119281  0.56274142
   0.67379927  0.65721748  0.47758755
   0.76035194  0.47279555  0.57034828
   0.02484221  0.95142380  0.56226898
   0.92080983  0.15530382  0.46974725
   0.58333333  0.08333333  0.38179910
   0.15997880  0.42078584  0.48758726
Direct configuration=     5
   0.52221671  0.73437381  0.56247448
   0.75986535  0.73688772  0.61614526
   0.66979108  0.90728750  0.47802415
   0.83333333  0.83333333  0.38179910
   0.08333333  0.33333333  0.38179910
   0.91868320  0.41384506  0.47827301
   0.83333333  0.58333333  0.38179910
   0.08333333  0.58333333  0.38179910
   0.90322312  0.67327217  0.51776505
   0.75861478  0.21040373  0.55901037
   0.08333333  0.83333333  0.38179910
   0.42150244  0.90404677  0.47312257
   0.16980700  0.90654797  0.47510237
   0.41157248  0.41333035  0.47796642
   0.16769782  0.15959274  0.47319931
   0.22732493  0.99198854  0.60695914
   0.58333333  0.33333333  0.38179910
   0.33333333  0.33333333  0.38179910
   0.53511457  0.00287138  0.62262467
   0.26741228  0.21474876  0.56426546
   0.41823240  0.15877516  0.47126918
   0.33333333  0.58333333  0.38179910
   0.16148380  0.66997004  0.50781830
   0.58333333  0.58333333  0.38179910
   0.39011236  0.52523341  0.62023416
   0.12419297  0.51871940  0.63154983
   0.32155868  0.11301852  0.63567013
   0.92083398  0.92320374  0.61940761
   0.38821495  0.79533128  0.62755122
   0.84766831  0.52505690  0.62896240
   0.85560867  0.28440703  0.60981466
   0.61935251  0.84296755  0.67148903
   0.58333333  0.83333333  0.38179910
   0.33333333  0.08333333  0.38179910
   0.51737362  0.20398066  0.56084744
   0.28143190  0.45543677  0.58133886
   0.26479496  0.72539453  0.60118058
   0.41559556  0.65832665  0.47552540
   0.51995975  0.47325952  0.56165226
   0.08333333  0.08333333  0.38179910
   0.91936270  0.90292491  0.47263099
   0.02262976  0.71975263  0.61899911
   0.33333333  0.83333333  0.38179910
   0.83333333  0.08333333  0.38179910
   0.67074097  0.15613560  0.47126948
   0.77245844  0.95394657  0.56798715
   0.83333333  0.33333333  0.38179910
   0.67166045  0.40934329  0.47526801
   0.02105278  0.45434904  0.58639605
   0.01811775  0.21135949  0.56274623
   0.67373693  0.65725249  0.47763808
   0.76003098  0.47298954  0.57046535
   0.02497555  0.95131299  0.56220425
   0.92078672  0.15531967  0.46979798
   0.58333333  0.08333333  0.38179910
   0.16020914  0.42076288  0.48762868
Direct configuration=     6
   0.52166317  0.73464530  0.56255472
   0.76011223  0.73709908  0.61591260
   0.67007538  0.90753239  0.47799693
   0.83333333  0.83333333  0.38179910
   0.08333333  0.33333333  0.38179910
   0.91854777  0.41410359  0.47815094
   0.83333333  0.58333333  0.38179910
   0.08333333  0.58333333  0.38179910
   0.90368630  0.67316728  0.51765795
   0.75902412  0.21036282  0.55884867
   0.08333333  0.83333333  0.38179910
   0.42141941  0.90420377  0.47308224
   0.16996675  0.90657024  0.47514630
   0.41170837  0.41344990  0.47790856
   0.16768769  0.15979772  0.47326016
   0.22695885  0.99243084  0.60696242
   0.58333333  0.33333333  0.38179910
   0.33333333  0.33333333  0.38179910
   0.53550003  0.00381877  0.62241335
   0.26735373  0.21460080  0.56416835
   0.41853772  0.15900340  0.47114740
   0.33333333  0.58333333  0.38179910
   0.16202156  0.67009558  0.50805712
   0.58333333  0.58333333  0.38179910
   0.39042018  0.52460784  0.62049080
   0.12413166  0.51837820  0.63150699
   0.32218482  0.11294941  0.63544284
   0.92134386  0.92282956  0.61943893
   0.38782880  0.79597578  0.62780367
   0.84756412  0.52543140  0.62879050
   0.85542903  0.28423469  0.60979658
   0.61973777  0.84326396  0.67098598
   0.58333333  0.83333333  0.38179910
   0.33333333  0.08333333  0.38179910
   0.51708284  0.20455440  0.56077922
   0.28112655  0.45568275  0.58136823
   0.26507908  0.72466107  0.60160734
   0.41575245  0.65850855  0.47543585
   0.51974490  0.47309833  0.56168759
   0.08333333  0.08333333  0.38179910
   0.91946073  0.90336419  0.47271825
   0.02248431  0.71996484  0.61901774
   0.33333333  0.83333333  0.38179910
   0.83333333  0.08333333  0.38179910
   0.67071828  0.15651594  0.47115144
   0.77319135  0.95383377  0.56782203
   0.83333333  0.33333333  0.38179910
   0.67158090  0.40970590  0.47522266
   0.02078094  0.45450865  0.58620869
   0.01799727  0.21169283  0.56275584
   0.67361225  0.65732251  0.47773914
   0.75938907  0.47337753  0.57069951
   0.02524224  0.95109137  0.56207478
   0.92074048  0.15535137  0.46989942
   0.58333333  0.08333333  0.38179910
   0.16066980  0.42071696  0.48771153
Direct configuration=     7
   0.52204738  0.73445686  0.56249903
   0.75994087  0.73695237  0.61607409
   0.66987805  0.90736242  0.47801582
   0.83333333  0.83333333  0.38179910
   0.08333333  0.33333333  0.38179910
   0.91864177  0.41392415  0.47823567
   0.83333333  0.58333333  0.38179910
   0.08333333  0.58333333  0.38179910
   0.90336481  0.67324008  0.51773229
   0.75874000  0.21039121  0.55896090
   0.08333333  0.83333333  0.38179910
   0.42147705  0.90409480  0.47311023
   0.16985587  0.90655478  0.47511581
   0.41161405  0.41336692  0.47794872
   0.16769472  0.15965544  0.47321792
   0.22721294  0.99212384  0.60696014
   0.58333333  0.33333333  0.38179910
   0.33333333  0.33333333  0.38179910
   0.53523249  0.00316119  0.62256002
   0.26739437  0.21470350  0.56423576
   0.41832580  0.15884498  0.47123193
   0.33333333  0.58333333  0.38179910
   0.16164830  0.67000844  0.50789135
   0.58333333  0.58333333  0.38179910
   0.39020652  0.52504205  0.62031267
   0.12417422  0.51861503  0.63153672
   0.32175021  0.11299738  0.63560060
   0.92098996  0.92308928  0.61941719
   0.38809683  0.79552843  0.62762845
   0.84763644  0.52517146  0.62890981
   0.85555372  0.28435431  0.60980913
   0.61947036  0.84305822  0.67133515
   0.58333333  0.83333333  0.38179910
   0.33333333  0.08333333  0.38179910
   0.51728467  0.20415617  0.56082658
   0.28133849  0.45551202  0.58134785
   0.26488187  0.72517016  0.60131112
   0.41564355  0.65838229  0.47549800
   0.51989403  0.47321021  0.56166307
   0.08333333  0.08333333  0.38179910
   0.91939269  0.90305929  0.47265768
   0.02258526  0.71981755  0.61900481
   0.33333333  0.83333333  0.38179910
   0.83333333  0.08333333  0.38179910
   0.67073403  0.15625195  0.47123337
   0.77268264  0.95391206  0.56793664
   0.83333333  0.33333333  0.38179910
   0.67163612  0.40945421  0.47525414
   0.02096962  0.45439787  0.58633873
   0.01808089  0.21146146  0.56274917
   0.67369879  0.65727391  0.47766899
   0.75983462  0.47310823  0.57053698
   0.02505713  0.95124520  0.56216464
   0.92077257  0.15532937  0.46982901
   0.58333333  0.08333333  0.38179910
   0.16035006  0.42074884  0.48765403
Direct configuration=     8
   0.52193886  0.73451522  0.56251692
   0.76001362  0.73698549  0.61600641
   0.66990664  0.90737280  0.47800850
   0.83333333  0.83333333  0.38179910
   0.08333333  0.33333333  0.38179910
   0.91864323  0.41395928  0.47822850
   0.83333333  0.58333333  0.38179910
   0.08333333  0.58333333  0.38179910
   0.90342995  0.67324589  0.51770175
   0.75874076  0.21039552  0.55893318
   0.08333333  0.83333333  0.38179910
   0.42150211  0.90413909  0.47310575
   0.16988120  0.90657511  0.47511080
   0.41163401  0.41341437  0.47793735
   0.16769108  0.15968658  0.47321840
   0.22718696  0.99211731  0.60696080
   0.58333333  0.33333333  0.38179910
   0.33333333  0.33333333  0.38179910
   0.53536223  0.00325020  0.62251979
   0.26739037  0.21471856  0.56421391
   0.41834845  0.15884993  0.47121886
   0.33333333  0.58333333  0.38179910
   0.16171162  0.67004569  0.50792477
   0.58333333  0.58333333  0.38179910
   0.39026884  0.52491028  0.62035400
   0.12410975  0.51860007  0.63153691
   0.32182294  0.11300725  0.63557919
   0.92105386  0.92308157  0.61941067
   0.38800731  0.79562273  0.62765412
   0.84761445  0.52521781  0.62890157
   0.85552443  0.28435404  0.60981820
   0.61947832  0.84315189  0.67127841
   0.58333333  0.83333333  0.38179910
   0.33333333  0.08333333  0.38179910
   0.51727730  0.20425335  0.56080711
   0.28133174  0.45551820  0.58135506
   0.26492536  0.72514835  0.60139026
   0.41566906  0.65839438  0.47548674
   0.51986275  0.47319579  0.56167309
   0.08333333  0.08333333  0.38179910
   0.91942724  0.90309301  0.47265885
   0.02262711  0.71976671  0.61901270
   0.33333333  0.83333333  0.38179910
   0.83333333  0.08333333  0.38179910
   0.67073620  0.15631198  0.47122328
   0.77274849  0.95392079  0.56791915
   0.83333333  0.33333333  0.38179910
   0.67162051  0.40949926  0.47525308
   0.02096083  0.45440630  0.58630285
   0.01805198  0.21152296  0.56274481
   0.67367195  0.65733313  0.47769201
   0.75973545  0.47312835  0.57055048
   0.02514599  0.95119787  0.56217265
   0.92079878  0.15534500  0.46983073
   0.58333333  0.08333333  0.38179910
   0.16038219  0.42075578  0.48766190
Direct configuration=     9
   0.52161328  0.73469032  0.56257060
   0.76023188  0.73708482  0.61580338
   0.66999243  0.90740395  0.47798655
   0.83333333  0.83333333  0.38179910
   0.08333333  0.33333333  0.38179910
   0.91864763  0.41406469  0.47820700
   0.83333333  0.58333333  0.38179910
   0.08333333  0.58333333  0.38179910
   0.90362540  0.67326333  0.51761014
   0.75874304  0.21040846  0.55885002
   0.08333333  0.83333333  0.38179910
   0.42157729  0.90427198  0.47309229
   0.16995718  0.90663608  0.47509577
   0.41169388  0.41355670  0.47790325
   0.16768017  0.15978000  0.47321982
   0.22710900  0.99209771  0.60696278
   0.58333333  0.33333333  0.38179910
   0.33333333  0.33333333  0.38179910
   0.53575144  0.00351724  0.62239911
   0.26737837  0.21476373  0.56414836
   0.41841642  0.15886477  0.47117964
   0.33333333  0.58333333  0.38179910
   0.16190158  0.67015743  0.50802502
   0.58333333  0.58333333  0.38179910
   0.39045579  0.52451499  0.62047802
   0.12391633  0.51855518  0.63153748
   0.32204111  0.11303685  0.63551497
   0.92124558  0.92305845  0.61939111
   0.38773876  0.79590562  0.62773113
   0.84754848  0.52535686  0.62887684
   0.85543655  0.28435320  0.60984543
   0.61950218  0.84343290  0.67110818
   0.58333333  0.83333333  0.38179910
   0.33333333  0.08333333  0.38179910
   0.51725520  0.20454488  0.56074870
   0.28131151  0.45553675  0.58137671
   0.26505580  0.72508291  0.60162766
   0.41574556  0.65843064  0.47545294
   0.51976891  0.47315252  0.56170316
   0.08333333  0.08333333  0.38179910
   0.91953092  0.90319416  0.47266235
   0.02275266  0.71961418  0.61903638
   0.33333333  0.83333333  0.38179910
   0.83333333  0.08333333  0.38179910
   0.67074273  0.15649208  0.47119302
   0.77294605  0.95394699  0.56786669
   0.83333333  0.33333333  0.38179910
   0.67157368  0.40963441  0.47524989
   0.02093444  0.45443160  0.58619520
   0.01796524  0.21170746  0.56273173
   0.67359144  0.65751078  0.47776107
   0.75943795  0.47318870  0.57059099
   0.02541257  0.95105588  0.56219666
   0.92087741  0.15539191  0.46983589
   0.58333333  0.08333333  0.38179910
   0.16047861  0.42077663  0.48768552
Direct configuration=    10
   0.52096213  0.73504051  0.56267797
   0.76066838  0.73728350  0.61539731
   0.67016401  0.90746625  0.47794263
   0.83333333  0.83333333  0.38179910
   0.08333333  0.33333333  0.38179910
   0.91865641  0.41427550  0.47816399
   0.83333333  0.58333333  0.38179910
   0.08333333  0.58333333  0.38179910
   0.90401628  0.67329820  0.51742692
   0.75874759  0.21043434  0.55868368
   0.08333333  0.83333333  0.38179910
   0.42172767  0.90453774  0.47306537
   0.17010915  0.90675804  0.47506570
   0.41181364  0.41384138  0.47783503
   0.16765834  0.15996683  0.47322266
   0.22695309  0.99205852  0.60696674
   0.58333333  0.33333333  0.38179910
   0.33333333  0.33333333  0.38179910
   0.53652988  0.00405132  0.62215773
   0.26735436  0.21485406  0.56401728
   0.41855234  0.15889447  0.47110122
   0.33333333  0.58333333  0.38179910
   0.16228151  0.67038090  0.50822553
   0.58333333  0.58333333  0.38179910
   0.39082969  0.52372441  0.62072604
   0.12352950  0.51846540  0.63153862
   0.32247744  0.11309607  0.63538654
   0.92162901  0.92301221  0.61935200
   0.38720166  0.79647140  0.62788515
   0.84741655  0.52563497  0.62882738
   0.85526081  0.28435154  0.60989989
   0.61954989  0.84399491  0.67076774
   0.58333333  0.83333333  0.38179910
   0.33333333  0.08333333  0.38179910
   0.51721099  0.20512796  0.56063189
   0.28127104  0.45557384  0.58142000
   0.26531669  0.72495203  0.60210245
   0.41589856  0.65850316  0.47538534
   0.51958125  0.47306598  0.56176331
   0.08333333  0.08333333  0.38179910
   0.91973828  0.90339647  0.47266935
   0.02300377  0.71930913  0.61908373
   0.33333333  0.83333333  0.38179910
   0.83333333  0.08333333  0.38179910
   0.67075578  0.15685228  0.47113249
   0.77334116  0.95399938  0.56776175
   0.83333333  0.33333333  0.38179910
   0.67148001  0.40990470  0.47524352
   0.02088166  0.45448221  0.58597990
   0.01779176  0.21207647  0.56270556
   0.67343041  0.65786609  0.47789918
   0.75884294  0.47330942  0.57067200
   0.02594572  0.95077190  0.56224469
   0.92103465  0.15548572  0.46984620
   0.58333333  0.08333333  0.38179910
   0.16067144  0.42081832  0.48773276
Direct configuration=    11
   0.52115436  0.73493713  0.56264627
   0.76053952  0.73722485  0.61551718
   0.67011336  0.90744786  0.47795560
   0.83333333  0.83333333  0.38179910
   0.08333333  0.33333333  0.38179910
   0.91865382  0.41421327  0.47817669
   0.83333333  0.58333333  0.38179910
   0.08333333  0.58333333  0.38179910
   0.90390089  0.67328791  0.51748101
   0.75874625  0.21042670  0.55873278
   0.08333333  0.83333333  0.38179910
   0.42168327  0.90445928  0.47307332
   0.17006429  0.90672204  0.47507458
   0.41177829  0.41375734  0.47785517
   0.16766478  0.15991168  0.47322182
   0.22699912  0.99207009  0.60696557
   0.58333333  0.33333333  0.38179910
   0.33333333  0.33333333  0.38179910
   0.53630008  0.00389365  0.62222899
   0.26736145  0.21482739  0.56405598
   0.41851222  0.15888570  0.47112437
   0.33333333  0.58333333  0.38179910
   0.16216935  0.67031493  0.50816634
   0.58333333  0.58333333  0.38179910
   0.39071931  0.52395780  0.62065282
   0.12364370  0.51849191  0.63153828
   0.32234863  0.11307859  0.63542445
   0.92151581  0.92302586  0.61936354
   0.38736021  0.79630438  0.62783968
   0.84745550  0.52555287  0.62884198
   0.85531269  0.28435203  0.60988382
   0.61953581  0.84382900  0.67086824
   0.58333333  0.83333333  0.38179910
   0.33333333  0.08333333  0.38179910
   0.51722404  0.20495583  0.56066637
   0.28128298  0.45556289  0.58140722
   0.26523967  0.72499067  0.60196229
   0.41585339  0.65848175  0.47540529
   0.51963665  0.47309153  0.56174555
   0.08333333  0.08333333  0.38179910
   0.91967706  0.90333675  0.47266728
   0.02292964  0.71939919  0.61906975
   0.33333333  0.83333333  0.38179910
   0.83333333  0.08333333  0.38179910
   0.67075192  0.15674594  0.47115036
   0.77322452  0.95398392  0.56779273
   0.83333333  0.33333333  0.38179910
   0.67150766  0.40982491  0.47524540
   0.02089724  0.45446727  0.58604346
   0.01784297  0.21196754  0.56271329
   0.67347795  0.65776120  0.47785840
   0.75901859  0.47327378  0.57064809
   0.02578833  0.95085573  0.56223051
   0.92098823  0.15545802  0.46984316
   0.58333333  0.08333333  0.38179910
   0.16061451  0.42080601  0.48771881
Direct configuration=    12
   0.52094213  0.73506255  0.56266803
   0.76066397  0.73726476  0.61536555
   0.67018340  0.90747070  0.47793779
   0.83333333  0.83333333  0.38179910
   0.08333333  0.33333333  0.38179910
   0.91863543  0.41433097  0.47820731
   0.83333333  0.58333333  0.38179910
   0.08333333  0.58333333  0.38179910
   0.90400962  0.67337181  0.51737922
   0.75877644  0.21047567  0.55871292
   0.08333333  0.83333333  0.38179910
   0.42175812  0.90454644  0.47307291
   0.17015883  0.90677528  0.47503954
   0.41174321  0.41388330  0.47781805
   0.16768164  0.15995577  0.47319027
   0.22696203  0.99225641  0.60697144
   0.58333333  0.33333333  0.38179910
   0.33333333  0.33333333  0.38179910
   0.53643121  0.00414310  0.62211697
   0.26746007  0.21484368  0.56404884
   0.41851141  0.15890625  0.47112504
   0.33333333  0.58333333  0.38179910
   0.16226153  0.67041466  0.50822937
   0.58333333  0.58333333  0.38179910
   0.39079312  0.52378269  0.62071919
   0.12352494  0.51840917  0.63154224
   0.32254533  0.11303146  0.63535944
   0.92164889  0.92297677  0.61933611
   0.38735662  0.79640352  0.62793346
   0.84740744  0.52563496  0.62879727
   0.85524145  0.28441712  0.60988074
   0.61962817  0.84395926  0.67075424
   0.58333333  0.83333333  0.38179910
   0.33333333  0.08333333  0.38179910
   0.51722427  0.20514937  0.56060243
   0.28127763  0.45558779  0.58146880
   0.26529490  0.72479791  0.60213888
   0.41589554  0.65855956  0.47539389
   0.51952206  0.47314829  0.56179114
   0.08333333  0.08333333  0.38179910
   0.91976901  0.90331664  0.47263958
   0.02306300  0.71937887  0.61909425
   0.33333333  0.83333333  0.38179910
   0.83333333  0.08333333  0.38179910
   0.67080119  0.15676028  0.47113156
   0.77328205  0.95409559  0.56776981
   0.83333333  0.33333333  0.38179910
   0.67151463  0.40989749  0.47526101
   0.02077583  0.45448864  0.58598282
   0.01772359  0.21205185  0.56271725
   0.67345095  0.65790880  0.47793226
   0.75894463  0.47323773  0.57066201
   0.02600705  0.95079094  0.56227470
   0.92109664  0.15552787  0.46980202
   0.58333333  0.08333333  0.38179910
   0.16061150  0.42089627  0.48770348
Direct configuration=    13
   0.52057958  0.73527680  0.56270519
   0.76087657  0.73733295  0.61510652
   0.67030304  0.90750972  0.47790737
   0.83333333  0.83333333  0.38179910
   0.08333333  0.33333333  0.38179910
   0.91860402  0.41453204  0.47825962
   0.83333333  0.58333333  0.38179910
   0.08333333  0.58333333  0.38179910
   0.90419537  0.67351513  0.51720535
   0.75882802  0.21055932  0.55867899
   0.08333333  0.83333333  0.38179910
   0.42188597  0.90469532  0.47307221
   0.17032034  0.90686623  0.47497969
   0.41168330  0.41409849  0.47775465
   0.16771044  0.16003108  0.47313636
   0.22689868  0.99257471  0.60698147
   0.58333333  0.33333333  0.38179910
   0.33333333  0.33333333  0.38179910
   0.53665520  0.00456924  0.62192561
   0.26762855  0.21487150  0.56403665
   0.41851003  0.15894134  0.47112618
   0.33333333  0.58333333  0.38179910
   0.16241900  0.67058501  0.50833705
   0.58333333  0.58333333  0.38179910
   0.39091920  0.52348355  0.62083257
   0.12332207  0.51826784  0.63154900
   0.32288135  0.11295095  0.63524839
   0.92187622  0.92289291  0.61928924
   0.38735049  0.79657289  0.62809365
   0.84732535  0.52577520  0.62872089
   0.85511975  0.28452830  0.60987550
   0.61978596  0.84418178  0.67055950
   0.58333333  0.83333333  0.38179910
   0.33333333  0.08333333  0.38179910
   0.51722466  0.20547999  0.56049319
   0.28126849  0.45563033  0.58157400
   0.26538925  0.72446863  0.60244054
   0.41596753  0.65869249  0.47537441
   0.51932631  0.47324524  0.56186902
   0.08333333  0.08333333  0.38179910
   0.91992609  0.90328229  0.47259225
   0.02329083  0.71934417  0.61913609
   0.33333333  0.83333333  0.38179910
   0.83333333  0.08333333  0.38179910
   0.67088535  0.15678477  0.47109945
   0.77338034  0.95428637  0.56773065
   0.83333333  0.33333333  0.38179910
   0.67152652  0.41002147  0.47528768
   0.02056843  0.45452514  0.58587922
   0.01751965  0.21219587  0.56272403
   0.67340482  0.65816093  0.47805843
   0.75881827  0.47317613  0.57068580
   0.02638069  0.95068027  0.56235018
   0.92128184  0.15564718  0.46973175
   0.58333333  0.08333333  0.38179910
   0.16060635  0.42105046  0.48767729
Direct configuration=    14
   0.52047393  0.73533923  0.56271601
   0.76093852  0.73735282  0.61503104
   0.67033790  0.90752108  0.47789850
   0.83333333  0.83333333  0.38179910
   0.08333333  0.33333333  0.38179910
   0.91859487  0.41459063  0.47827486
   0.83333333  0.58333333  0.38179910
   0.08333333  0.58333333  0.38179910
   0.90424950  0.67355690  0.51715468
   0.75884305  0.21058369  0.55866910
   0.08333333  0.83333333  0.38179910
   0.42192323  0.90473870  0.47307201
   0.17036741  0.90689273  0.47496225
   0.41166584  0.41416120  0.47773617
   0.16771883  0.16005303  0.47312066
   0.22688023  0.99266746  0.60698439
   0.58333333  0.33333333  0.38179910
   0.33333333  0.33333333  0.38179910
   0.53672048  0.00469341  0.62186985
   0.26767764  0.21487961  0.56403310
   0.41850963  0.15895157  0.47112651
   0.33333333  0.58333333  0.38179910
   0.16246488  0.67063466  0.50836843
   0.58333333  0.58333333  0.38179910
   0.39095594  0.52339638  0.62086560
   0.12326296  0.51822666  0.63155096
   0.32297926  0.11292749  0.63521603
   0.92194247  0.92286847  0.61927558
   0.38734870  0.79662225  0.62814033
   0.84730143  0.52581606  0.62869863
   0.85508428  0.28456070  0.60987397
   0.61983194  0.84424662  0.67050275
   0.58333333  0.83333333  0.38179910
   0.33333333  0.08333333  0.38179910
   0.51722477  0.20557634  0.56046136
   0.28126582  0.45564272  0.58160465
   0.26541674  0.72437268  0.60252844
   0.41598851  0.65873123  0.47536874
   0.51926927  0.47327350  0.56189171
   0.08333333  0.08333333  0.38179910
   0.91997187  0.90327228  0.47257846
   0.02335722  0.71933406  0.61914829
   0.33333333  0.83333333  0.38179910
   0.83333333  0.08333333  0.38179910
   0.67090987  0.15679191  0.47109009