  48  48   0   0
  0.5349325E+02  0.1100258E-08  0.1100258E-08  0.2449179E-08  0.3500000E-15
  1.000000000000000E-004
  CAR 
 unknown system                          
      6.39895886     -9.90353968  301     -1.08966695      1.00000000
     -9.904  0.0000E+00  0.0000E+00
     -9.849  0.0000E+00  0.0000E+00
     -9.795  0.0000E+00  0.0000E+00
     -9.741  0.0000E+00  0.0000E+00
     -9.686  0.0000E+00  0.0000E+00
     -9.632  0.0000E+00  0.0000E+00
     -9.577  0.0000E+00  0.0000E+00
     -9.523  0.0000E+00  0.0000E+00
     -9.469  0.1703E-16  0.9252E-18
     -9.414  0.6536E-14  0.3561E-15
     -9.360  0.1438E-11  0.7848E-13
     -9.306  0.1773E-09  0.9711E-11
     -9.251  0.1228E-07  0.6768E-09
     -9.197  0.4784E-06  0.2668E-07
     -9.143  0.1052E-04  0.5984E-06
     -9.088  0.1308E-03  0.7708E-05
     -9.034  0.9228E-03  0.5785E-04
     -8.980  0.3700E-02  0.2589E-03
     -8.925  0.8457E-02  0.7185E-03
     -8.871  0.1113E-01  0.1323E-02
     -8.817  0.9088E-02  0.1817E-02
     -8.762  0.7121E-02  0.2204E-02
     -8.708  0.9200E-02  0.2704E-02
     -8.654  0.1107E-01  0.3306E-02
     -8.599  0.8235E-02  0.3753E-02
     -8.545  0.3542E-02  0.3946E-02
     -8.491  0.9151E-03  0.3995E-02
     -8.436  0.5248E-03  0.4024E-02
     -8.382  0.2096E-02  0.4138E-02
     -8.328  0.6174E-02  0.4473E-02
     -8.273  0.1048E-01  0.5043E-02
     -8.219  0.1059E-01  0.5618E-02
     -8.165  0.8140E-02  0.6061E-02
     -8.110  0.9709E-02  0.6588E-02
     -8.056  0.1610E-01  0.7463E-02
     -8.002  0.2015E-01  0.8558E-02
     -7.947  0.1635E-01  0.9446E-02
     -7.893  0.9431E-02  0.9959E-02
     -7.839  0.7146E-02  0.1035E-01
     -7.784  0.9732E-02  0.1088E-01
     -7.730  0.1234E-01  0.1155E-01
     -7.676  0.1254E-01  0.1223E-01
     -7.621  0.1211E-01  0.1289E-01
     -7.567  0.1374E-01  0.1363E-01
     -7.513  0.1815E-01  0.1462E-01
     -7.458  0.2373E-01  0.1591E-01
     -7.404  0.2704E-01  0.1738E-01
     -7.349  0.2821E-01  0.1891E-01
     -7.295  0.3090E-01  0.2059E-01
     -7.241  0.3560E-01  0.2252E-01
     -7.186  0.4020E-01  0.2471E-01
     -7.132  0.4401E-01  0.2710E-01
     -7.078  0.4869E-01  0.2975E-01
     -7.023  0.5352E-01  0.3265E-01
     -6.969  0.5612E-01  0.3570E-01
     -6.915  0.5775E-01  0.3884E-01
     -6.860  0.6117E-01  0.4217E-01
     -6.806  0.6838E-01  0.4588E-01
     -6.752  0.7801E-01  0.5012E-01
     -6.697  0.8552E-01  0.5477E-01
     -6.643  0.8835E-01  0.5957E-01
     -6.589  0.8902E-01  0.6441E-01
     -6.534  0.9329E-01  0.6948E-01
     -6.480  0.1029E+00  0.7507E-01
     -6.426  0.1161E+00  0.8138E-01
     -6.371  0.1321E+00  0.8856E-01
     -6.317  0.1477E+00  0.9659E-01
     -6.263  0.1568E+00  0.1051E+00
     -6.208  0.1590E+00  0.1138E+00
     -6.154  0.1611E+00  0.1225E+00
     -6.100  0.1648E+00  0.1315E+00
     -6.045  0.1659E+00  0.1405E+00
     -5.991  0.1631E+00  0.1493E+00
     -5.937  0.1600E+00  0.1580E+00
     -5.882  0.1577E+00  0.1666E+00
     -5.828  0.1521E+00  0.1749E+00
     -5.774  0.1425E+00  0.1826E+00
     -5.719  0.1328E+00  0.1898E+00
     -5.665  0.1264E+00  0.1967E+00
     -5.611  0.1236E+00  0.2034E+00
     -5.556  0.1215E+00  0.2100E+00
     -5.502  0.1200E+00  0.2165E+00
     -5.448  0.1225E+00  0.2232E+00
     -5.393  0.1293E+00  0.2302E+00
     -5.339  0.1378E+00  0.2377E+00
     -5.284  0.1478E+00  0.2457E+00
     -5.230  0.1574E+00  0.2543E+00
     -5.176  0.1595E+00  0.2630E+00
     -5.121  0.1547E+00  0.2714E+00
     -5.067  0.1541E+00  0.2797E+00
     -5.013  0.1604E+00  0.2885E+00
     -4.958  0.1655E+00  0.2974E+00
     -4.904  0.1660E+00  0.3065E+00
     -4.850  0.1667E+00  0.3155E+00
     -4.795  0.1687E+00  0.3247E+00
     -4.741  0.1700E+00  0.3339E+00
     -4.687  0.1708E+00  0.3432E+00
     -4.632  0.1711E+00  0.3525E+00
     -4.578  0.1691E+00  0.3617E+00
     -4.524  0.1665E+00  0.3707E+00
     -4.469  0.1676E+00  0.3798E+00
     -4.415  0.1726E+00  0.3892E+00
     -4.361  0.1771E+00  0.3988E+00
     -4.306  0.1797E+00  0.4086E+00
     -4.252  0.1835E+00  0.4186E+00
     -4.198  0.1894E+00  0.4289E+00
     -4.143  0.1930E+00  0.4394E+00
     -4.089  0.1888E+00  0.4496E+00
     -4.035  0.1793E+00  0.4594E+00
     -3.980  0.1732E+00  0.4688E+00
     -3.926  0.1726E+00  0.4782E+00
     -3.872  0.1743E+00  0.4876E+00
     -3.817  0.1765E+00  0.4972E+00
     -3.763  0.1784E+00  0.5069E+00
     -3.709  0.1805E+00  0.5167E+00
     -3.654  0.1836E+00  0.5267E+00
     -3.600  0.1884E+00  0.5369E+00
     -3.546  0.1942E+00  0.5475E+00
     -3.491  0.1985E+00  0.5583E+00
     -3.437  0.1974E+00  0.5690E+00
     -3.383  0.1906E+00  0.5794E+00
     -3.328  0.1843E+00  0.5894E+00
     -3.274  0.1834E+00  0.5994E+00
     -3.220  0.1850E+00  0.6094E+00
     -3.165  0.1820E+00  0.6193E+00
     -3.111  0.1729E+00  0.6287E+00
     -3.056  0.1646E+00  0.6376E+00
     -3.002  0.1648E+00  0.6466E+00
     -2.948  0.1717E+00  0.6559E+00
     -2.893  0.1805E+00  0.6657E+00
     -2.839  0.1894E+00  0.6760E+00
     -2.785  0.1978E+00  0.6868E+00
     -2.730  0.2040E+00  0.6979E+00
     -2.676  0.2063E+00  0.7091E+00
     -2.622  0.2036E+00  0.7201E+00
     -2.567  0.1976E+00  0.7309E+00
     -2.513  0.1912E+00  0.7413E+00
     -2.459  0.1856E+00  0.7513E+00
     -2.404  0.1801E+00  0.7611E+00
     -2.350  0.1760E+00  0.7707E+00
     -2.296  0.1755E+00  0.7802E+00
     -2.241  0.1774E+00  0.7899E+00
     -2.187  0.1785E+00  0.7996E+00
     -2.133  0.1808E+00  0.8094E+00
     -2.078  0.1895E+00  0.8197E+00
     -2.024  0.2015E+00  0.8306E+00
     -1.970  0.2084E+00  0.8420E+00
     -1.915  0.2085E+00  0.8533E+00
     -1.861  0.2063E+00  0.8645E+00
     -1.807  0.2082E+00  0.8758E+00
     -1.752  0.2156E+00  0.8875E+00
     -1.698  0.2215E+00  0.8996E+00
     -1.644  0.2233E+00  0.9117E+00
     -1.589  0.2238E+00  0.9239E+00
     -1.535  0.2209E+00  0.9359E+00
     -1.481  0.2121E+00  0.9474E+00
     -1.426  0.2002E+00  0.9583E+00
     -1.372  0.1884E+00  0.9685E+00
     -1.318  0.1769E+00  0.9781E+00
     -1.263  0.1626E+00  0.9870E+00
     -1.209  0.1441E+00  0.9948E+00
     -1.155  0.1235E+00  0.1002E+01
     -1.100  0.1022E+00  0.1007E+01
     -1.046  0.8158E-01  0.1011E+01
     -0.992  0.6187E-01  0.1015E+01
     -0.937  0.4184E-01  0.1017E+01
     -0.883  0.2543E-01  0.1019E+01
     -0.828  0.1726E-01  0.1019E+01
     -0.774  0.1563E-01  0.1020E+01
     -0.720  0.1688E-01  0.1021E+01
     -0.665  0.1958E-01  0.1022E+01
     -0.611  0.2426E-01  0.1024E+01
     -0.557  0.3208E-01  0.1025E+01
     -0.502  0.4181E-01  0.1028E+01
     -0.448  0.4888E-01  0.1030E+01
     -0.394  0.4969E-01  0.1033E+01
     -0.339  0.4594E-01  0.1035E+01
     -0.285  0.4367E-01  0.1038E+01
     -0.231  0.4434E-01  0.1040E+01
     -0.176  0.4054E-01  0.1042E+01
     -0.122  0.2998E-01  0.1044E+01
     -0.068  0.2022E-01  0.1045E+01
     -0.013  0.1568E-01  0.1046E+01
      0.041  0.1560E-01  0.1047E+01
      0.095  0.1886E-01  0.1048E+01
      0.150  0.2465E-01  0.1049E+01
      0.204  0.3018E-01  0.1051E+01
      0.258  0.3142E-01  0.1053E+01
      0.313  0.3035E-01  0.1054E+01
      0.367  0.3185E-01  0.1056E+01
      0.421  0.3589E-01  0.1058E+01
      0.476  0.4187E-01  0.1060E+01
      0.530  0.4914E-01  0.1063E+01
      0.584  0.5402E-01  0.1066E+01
      0.639  0.5532E-01  0.1069E+01
      0.693  0.5363E-01  0.1072E+01
      0.747  0.4876E-01  0.1074E+01
      0.802  0.4240E-01  0.1077E+01
      0.856  0.3489E-01  0.1079E+01
      0.910  0.2600E-01  0.1080E+01
      0.965  0.1981E-01  0.1081E+01
      1.019  0.1898E-01  0.1082E+01
      1.073  0.1989E-01  0.1083E+01
      1.128  0.1755E-01  0.1084E+01
      1.182  0.1252E-01  0.1085E+01
      1.237  0.9115E-02  0.1085E+01
      1.291  0.9395E-02  0.1086E+01
      1.345  0.1332E-01  0.1087E+01
      1.400  0.1947E-01  0.1088E+01
      1.454  0.2480E-01  0.1089E+01
      1.508  0.2745E-01  0.1090E+01
      1.563  0.2843E-01  0.1092E+01
      1.617  0.2860E-01  0.1094E+01
      1.671  0.2813E-01  0.1095E+01
      1.726  0.2900E-01  0.1097E+01
      1.780  0.3263E-01  0.1098E+01
      1.834  0.3566E-01  0.1100E+01
      1.889  0.3231E-01  0.1102E+01
      1.943  0.2419E-01  0.1103E+01
      1.997  0.1933E-01  0.1104E+01
      2.052  0.2002E-01  0.1106E+01
      2.106  0.2207E-01  0.1107E+01
      2.160  0.2614E-01  0.1108E+01
      2.215  0.3665E-01  0.1110E+01
      2.269  0.5101E-01  0.1113E+01
      2.323  0.5960E-01  0.1116E+01
      2.378  0.5722E-01  0.1119E+01
      2.432  0.4973E-01  0.1122E+01
      2.486  0.4442E-01  0.1124E+01
      2.541  0.4070E-01  0.1127E+01
      2.595  0.3826E-01  0.1129E+01
      2.649  0.4023E-01  0.1131E+01
      2.704  0.4313E-01  0.1133E+01
      2.758  0.3932E-01  0.1135E+01
      2.812  0.2840E-01  0.1137E+01
      2.867  0.1747E-01  0.1138E+01
      2.921  0.1266E-01  0.1139E+01
      2.975  0.1192E-01  0.1139E+01
      3.030  0.9589E-02  0.1140E+01
      3.084  0.6707E-02  0.1140E+01
      3.138  0.8274E-02  0.1141E+01
      3.193  0.1525E-01  0.1141E+01
      3.247  0.2341E-01  0.1143E+01
      3.301  0.2654E-01  0.1144E+01
      3.356  0.2245E-01  0.1145E+01
      3.410  0.1646E-01  0.1146E+01
      3.465  0.1547E-01  0.1147E+01
      3.519  0.2066E-01  0.1148E+01
      3.573  0.2933E-01  0.1150E+01
      3.628  0.3882E-01  0.1152E+01
      3.682  0.4517E-01  0.1154E+01
      3.736  0.4404E-01  0.1157E+01
      3.791  0.3693E-01  0.1159E+01
      3.845  0.2911E-01  0.1160E+01
      3.899  0.2381E-01  0.1162E+01
      3.954  0.2412E-01  0.1163E+01
      4.008  0.2973E-01  0.1165E+01
      4.062  0.3148E-01  0.1166E+01
      4.117  0.2490E-01  0.1168E+01
      4.171  0.1946E-01  0.1169E+01
      4.225  0.2071E-01  0.1170E+01
      4.280  0.2120E-01  0.1171E+01
      4.334  0.1733E-01  0.1172E+01
      4.388  0.1606E-01  0.1173E+01
      4.443  0.2082E-01  0.1174E+01
      4.497  0.2842E-01  0.1175E+01
      4.551  0.3917E-01  0.1178E+01
      4.606  0.5267E-01  0.1180E+01
      4.660  0.5978E-01  0.1184E+01
      4.714  0.5484E-01  0.1187E+01
      4.769  0.4672E-01  0.1189E+01
      4.823  0.4530E-01  0.1192E+01
      4.877  0.4949E-01  0.1194E+01
      4.932  0.5320E-01  0.1197E+01
      4.986  0.5642E-01  0.1200E+01
      5.040  0.6292E-01  0.1204E+01
      5.095  0.6694E-01  0.1207E+01
      5.149  0.6269E-01  0.1211E+01
      5.203  0.5960E-01  0.1214E+01
      5.258  0.6108E-01  0.1217E+01
      5.312  0.5417E-01  0.1220E+01
      5.366  0.3686E-01  0.1222E+01
      5.421  0.2011E-01  0.1223E+01
      5.475  0.8940E-02  0.1224E+01
      5.529  0.2907E-02  0.1224E+01
      5.584  0.6126E-03  0.1224E+01
      5.638  0.7819E-04  0.1224E+01
      5.693  0.5864E-05  0.1224E+01
      5.747  0.2547E-06  0.1224E+01
      5.801  0.6350E-08  0.1224E+01
      5.856  0.9030E-10  0.1224E+01
      5.910  0.7285E-12  0.1224E+01
      5.964  0.3322E-14  0.1224E+01
      6.019  0.8172E-17  0.1224E+01
      6.073  0.0000E+00  0.1224E+01
      6.127  0.0000E+00  0.1224E+01
      6.182  0.0000E+00  0.1224E+01
      6.236  0.0000E+00  0.1224E+01
      6.290  0.0000E+00  0.1224E+01
      6.345  0.0000E+00  0.1224E+01
      6.399  0.0000E+00  0.1224E+01
