<?xml version="1.0" encoding="ISO-8859-1"?>
<modeling>
 <generator>
  <i name="program" type="string">vasp </i>
  <i name="version" type="string">5.4.1  </i>
  <i name="subversion" type="string">24Jun15 (build Mar 14 2019 10:18:33) complex                          parallel </i>
  <i name="platform" type="string">INTEL-19.0.2+OPENMPI-3.1.3 </i>
  <i name="date" type="string">2023 01 31 </i>
  <i name="time" type="string">00:17:09 </i>
 </generator>
 <incar>
  <i type="int" name="ISTART">     0</i>
  <i type="string" name="PREC">normal</i>
  <i type="string" name="ALGO"> Fast</i>
  <i type="int" name="NELM">   500</i>
  <i type="int" name="IBRION">     2</i>
  <i type="int" name="NFREE">     2</i>
  <i name="EDIFF">      0.00000100</i>
  <i name="EDIFFG">     -0.02000000</i>
  <i type="int" name="NSW">   500</i>
  <i type="int" name="ISIF">     0</i>
  <i type="int" name="ISYM">     2</i>
  <i name="ENCUT">    400.00000000</i>
  <i name="POTIM">      0.35000000</i>
  <i type="string" name="LREAL"> Auto</i>
  <i type="logical" name="LPLANE"> T  </i>
  <i type="int" name="ISMEAR">     0</i>
  <i name="SIGMA">      0.10000000</i>
  <i type="int" name="NWRITE">     1</i>
  <i type="logical" name="LWAVE"> F  </i>
  <i type="logical" name="LCHARG"> F  </i>
  <i type="logical" name="LVTOT"> F  </i>
  <i type="logical" name="LORBIT"> F  </i>
  <i type="logical" name="LAECHG"> F  </i>
  <v type="int" name="KPOINT_BSE">    -1     0     0     0</v>
  <i type="int" name="NELM">   500</i>
  <i type="string" name="GGA"> PE          ! optPBE-vdW XC-functional</i>
  <i type="int" name="VOSKOWN">     1</i>
  <i type="logical" name="LDIPOL"> T  </i>
  <i type="logical" name="LMONO"> F  </i>
  <i type="int" name="IDIPOL">     3</i>
  <v name="DIPOL">      0.00000000      0.00000000      0.50000000</v>
 </incar>
 <kpoints>
  <generation param="Monkhorst-Pack">
   <v type="int" name="divisions">       2        2        1 </v>
   <v name="usershift">      0.00000000       0.00000000       0.00000000 </v>
   <v name="genvec1">      0.50000000      -0.00000000       0.00000000 </v>
   <v name="genvec2">      0.00000000       0.50000000       0.00000000 </v>
   <v name="genvec3">      0.00000000       0.00000000       1.00000000 </v>
   <v name="shift">      0.50000000       0.50000000       0.00000000 </v>
  </generation>
  <varray name="kpointlist" >
   <v>       0.25000000       0.25000000       0.00000000 </v>
   <v>       0.00000000       0.25000000       0.00000000 </v>
   <v>      -0.25000000       0.00000000       0.00000000 </v>
   <v>      -0.25000000       0.25000000       0.00000000 </v>
   <v>       0.50000000      -0.25000000       0.00000000 </v>
   <v>      -0.25000000       0.50000000       0.00000000 </v>
  </varray>
  <varray name="weights" >
   <v>       0.16666667 </v>
   <v>       0.16666667 </v>
   <v>       0.16666667 </v>
   <v>       0.16666667 </v>
   <v>       0.16666667 </v>
   <v>       0.16666667 </v>
  </varray>
 </kpoints>
 <parameters>
  <separator name="general" >
   <i type="string" name="SYSTEM">unknown system</i>
   <i type="logical" name="LCOMPAT"> F  </i>
  </separator>
  <separator name="electronic" >
   <i type="string" name="PREC">normal</i>
   <i name="ENMAX">    400.00000000</i>
   <i name="ENAUG">    416.23000000</i>
   <i name="EDIFF">      0.00000100</i>
   <i type="int" name="IALGO">    68</i>
   <i type="int" name="IWAVPR">    11</i>
   <i type="int" name="NBANDS">   306</i>
   <i name="NELECT">    504.00000000</i>
   <i type="int" name="TURBO">     0</i>
   <i type="int" name="IRESTART">     0</i>
   <i type="int" name="NREBOOT">     0</i>
   <i type="int" name="NMIN">     0</i>
   <i name="EREF">      0.00000000</i>
   <separator name="electronic smearing" >
    <i type="int" name="ISMEAR">     0</i>
    <i name="SIGMA">      0.10000000</i>
    <i name="KSPACING">      0.50000000</i>
    <i type="logical" name="KGAMMA"> T  </i>
   </separator>
   <separator name="electronic projectors" >
    <i type="logical" name="LREAL"> T  </i>
    <v name="ROPT">     -0.00050000     -0.00050000</v>
    <i type="int" name="LMAXPAW">  -100</i>
    <i type="int" name="LMAXMIX">     2</i>
    <i type="logical" name="NLSPLINE"> F  </i>
   </separator>
   <separator name="electronic startup" >
    <i type="int" name="ISTART">     0</i>
    <i type="int" name="ICHARG">     2</i>
    <i type="int" name="INIWAV">     1</i>
   </separator>
   <separator name="electronic spin" >
    <i type="int" name="ISPIN">     1</i>
    <i type="logical" name="LNONCOLLINEAR"> F  </i>
    <v name="MAGMOM">      1.00000000      1.00000000      1.00000000      1.00000000      1.00000000      1.00000000      1.00000000      1.00000000      1.00000000      1.00000000      1.00000000      1.00000000      1.00000000      1.00000000      1.00000000      1.00000000      1.00000000      1.00000000      1.00000000      1.00000000
      1.00000000      1.00000000      1.00000000      1.00000000      1.00000000      1.00000000      1.00000000      1.00000000      1.00000000      1.00000000      1.00000000      1.00000000      1.00000000      1.00000000      1.00000000      1.00000000      1.00000000      1.00000000      1.00000000      1.00000000
      1.00000000      1.00000000      1.00000000      1.00000000      1.00000000      1.00000000      1.00000000      1.00000000</v>
    <i name="NUPDOWN">     -1.00000000</i>
    <i type="logical" name="LSORBIT"> F  </i>
    <v name="SAXIS">      0.00000000      0.00000000      1.00000000</v>
    <i type="logical" name="LSPIRAL"> F  </i>
    <v name="QSPIRAL">      0.00000000      0.00000000      0.00000000</v>
    <i type="logical" name="LZEROZ"> F  </i>
   </separator>
   <separator name="electronic exchange-correlation" >
    <i type="logical" name="LASPH"> F  </i>
    <i type="logical" name="LMETAGGA"> F  </i>
   </separator>
   <separator name="electronic convergence" >
    <i type="int" name="NELM">   500</i>
    <i type="int" name="NELMDL">    -5</i>
    <i type="int" name="NELMIN">     2</i>
    <i name="ENINI">    400.00000000</i>
    <separator name="electronic convergence detail" >
     <i type="logical" name="LDIAG"> T  </i>
     <i type="logical" name="LSUBROT"> F  </i>
     <i name="WEIMIN">      0.00100000</i>
     <i name="EBREAK">      0.00000000</i>
     <i name="DEPER">      0.30000000</i>
     <i type="int" name="NRMM">     4</i>
     <i name="TIME">      0.40000000</i>
    </separator>
   </separator>
   <separator name="electronic mixer" >
    <i name="AMIX">      0.40000000</i>
    <i name="BMIX">      1.00000000</i>
    <i name="AMIN">      0.10000000</i>
    <i name="AMIX_MAG">      1.60000000</i>
    <i name="BMIX_MAG">      1.00000000</i>
    <separator name="electronic mixer details" >
     <i type="int" name="IMIX">     4</i>
     <i type="logical" name="MIXFIRST"> F  </i>
     <i type="int" name="MAXMIX">   -45</i>
     <i name="WC">    100.00000000</i>
     <i type="int" name="INIMIX">     1</i>
     <i type="int" name="MIXPRE">     1</i>
     <i type="int" name="MREMOVE">     5</i>
    </separator>
   </separator>
   <separator name="electronic dipolcorrection" >
    <i type="logical" name="LDIPOL"> T  </i>
    <i type="logical" name="LMONO"> F  </i>
    <i type="int" name="IDIPOL">     3</i>
    <i name="EPSILON">      1.00000000</i>
    <v name="DIPOL">      0.00000000      0.00000000      0.50000000</v>
    <i name="EFIELD">      0.00000000</i>
   </separator>
  </separator>
  <separator name="grids" >
   <i type="int" name="NGX">    54</i>
   <i type="int" name="NGY">    54</i>
   <i type="int" name="NGZ">   120</i>
   <i type="int" name="NGXF">   108</i>
   <i type="int" name="NGYF">   108</i>
   <i type="int" name="NGZF">   240</i>
   <i type="logical" name="ADDGRID"> F  </i>
  </separator>
  <separator name="ionic" >
   <i type="int" name="NSW">   500</i>
   <i type="int" name="IBRION">     2</i>
   <i type="int" name="ISIF">     0</i>
   <i name="PSTRESS">      0.00000000</i>
   <i name="EDIFFG">     -0.02000000</i>
   <i type="int" name="NFREE">     2</i>
   <i name="POTIM">      0.35000000</i>
   <i name="SMASS">     -3.00000000</i>
   <i name="SCALEE">      1.00000000</i>
  </separator>
  <separator name="ionic md" >
   <i name="TEBEG">      0.00010000</i>
   <i name="TEEND">      0.00010000</i>
   <i type="int" name="NBLOCK">     1</i>
   <i type="int" name="KBLOCK">   500</i>
   <i type="int" name="NPACO">   256</i>
   <i name="APACO">     16.00000000</i>
  </separator>
  <separator name="symmetry" >
   <i type="int" name="ISYM">     2</i>
   <i name="SYMPREC">      0.00001000</i>
  </separator>
  <separator name="dos" >
   <i type="logical" name="LORBIT"> F  </i>
   <v name="RWIGS">     -1.00000000     -1.00000000</v>
   <i type="int" name="NEDOS">   301</i>
   <i name="EMIN">     10.00000000</i>
   <i name="EMAX">    -10.00000000</i>
   <i name="EFERMI">      0.00000000</i>
  </separator>
  <separator name="writing" >
   <i type="int" name="NWRITE">     1</i>
   <i type="logical" name="LWAVE"> F  </i>
   <i type="logical" name="LCHARG"> F  </i>
   <i type="logical" name="LPARD"> F  </i>
   <i type="logical" name="LVTOT"> F  </i>
   <i type="logical" name="LVHAR"> F  </i>
   <i type="logical" name="LELF"> F  </i>
   <i type="logical" name="LOPTICS"> F  </i>
   <v name="STM">      0.00000000      0.00000000      0.00000000      0.00000000      0.00000000      0.00000000      0.00000000</v>
  </separator>
  <separator name="performance" >
   <i type="int" name="NPAR">     6</i>
   <i type="int" name="NSIM">     4</i>
   <i type="int" name="NBLK">    -1</i>
   <i type="logical" name="LPLANE"> T  </i>
   <i type="logical" name="LSCALAPACK"> T  </i>
   <i type="logical" name="LSCAAWARE"> F  </i>
   <i type="logical" name="LSCALU"> F  </i>
   <i type="logical" name="LASYNC"> F  </i>
   <i type="logical" name="LORBITALREAL"> F  </i>
  </separator>
  <separator name="miscellaneous" >
   <i type="int" name="IDIOT">     3</i>
   <i type="logical" name="LMUSIC"> F  </i>
   <v name="POMASS">    196.96600000    106.42000000</v>
   <v name="DARWINR">      0.00000000      0.00000000</v>
   <v name="DARWINV">      1.00000000      1.00000000</v>
   <i type="logical" name="LCORR"> T  </i>
  </separator>
  <i type="logical" name="GGA_COMPAT"> T  </i>
  <i type="logical" name="LBERRY"> F  </i>
  <i type="int" name="ICORELEVEL">     0</i>
  <i type="logical" name="LDAU"> F  </i>
  <i type="int" name="I_CONSTRAINED_M">     0</i>
  <separator name="electronic exchange-correlation" >
   <i type="string" name="GGA">PE</i>
   <i type="int" name="VOSKOWN">     1</i>
   <i type="logical" name="LHFCALC"> F  </i>
   <i type="string" name="PRECFOCK"></i>
   <i type="logical" name="LSYMGRAD"> F  </i>
   <i type="logical" name="LHFONE"> F  </i>
   <i type="logical" name="LRHFCALC"> F  </i>
   <i type="logical" name="LTHOMAS"> F  </i>
   <i type="logical" name="LMODELHF"> F  </i>
   <i name="ENCUT4O">     -1.00000000</i>
   <i type="int" name="EXXOEP">     0</i>
   <i type="int" name="FOURORBIT">     0</i>
   <i name="AEXX">      0.00000000</i>
   <i name="HFALPHA">      0.00000000</i>
   <i name="MCALPHA">      0.00000000</i>
   <i name="ALDAX">      1.00000000</i>
   <i name="AGGAX">      1.00000000</i>
   <i name="ALDAC">      1.00000000</i>
   <i name="AGGAC">      1.00000000</i>
   <i type="int" name="NKREDX">     1</i>
   <i type="int" name="NKREDY">     1</i>
   <i type="int" name="NKREDZ">     1</i>
   <i type="logical" name="SHIFTRED"> F  </i>
   <i type="logical" name="ODDONLY"> F  </i>
   <i type="logical" name="EVENONLY"> F  </i>
   <i type="int" name="LMAXFOCK">     0</i>
   <i type="int" name="NMAXFOCKAE">     0</i>
   <i type="logical" name="LFOCKAEDFT"> F  </i>
   <i name="HFSCREEN">      0.00000000</i>
   <i name="HFSCREENC">      0.00000000</i>
   <i type="int" name="NBANDSGWLOW">     0</i>
  </separator>
  <separator name="vdW DFT" >
   <i type="logical" name="LUSE_VDW"> F  </i>
   <i name="Zab_VDW">     -0.84910000</i>
   <i name="PARAM1">      0.12340000</i>
   <i name="PARAM2">      1.00000000</i>
   <i name="PARAM3">      0.00000000</i>
  </separator>
  <separator name="model GW" >
   <i type="int" name="MODEL_GW">     0</i>
   <i name="MODEL_EPS0">     32.09595293</i>
   <i name="MODEL_ALPHA">      1.00000000</i>
  </separator>
  <separator name="linear response parameters" >
   <i type="logical" name="LEPSILON"> F  </i>
   <i type="logical" name="LRPA"> F  </i>
   <i type="logical" name="LNABLA"> F  </i>
   <i type="logical" name="LVEL"> F  </i>
   <i type="int" name="KINTER">     0</i>
   <i name="CSHIFT">      0.10000000</i>
   <i name="OMEGAMAX">     -1.00000000</i>
   <i name="DEG_THRESHOLD">      0.00200000</i>
  </separator>
  <separator name="orbital magnetization" >
   <i type="logical" name="NUCIND"> F  </i>
   <v name="MAGPOS">      0.00000000      0.00000000      0.00000000</v>
   <i type="logical" name="LNICSALL"> T  </i>
   <i type="logical" name="ORBITALMAG"> F  </i>
   <i type="logical" name="LMAGBLOCH"> F  </i>
   <i type="logical" name="LCHIMAG"> F  </i>
   <i type="logical" name="LGAUGE"> T  </i>
   <i type="int" name="MAGATOM">     0</i>
   <v name="MAGDIPOL">      0.00000000      0.00000000      0.00000000</v>
   <v name="AVECCONST">      0.00000000      0.00000000      0.00000000</v>
  </separator>
  <separator name="response functions" >
   <i type="logical" name="LADDER"> F  </i>
   <i type="logical" name="LFXC"> F  </i>
   <i type="logical" name="LHARTREE"> T  </i>
   <i type="int" name="IBSE">     0</i>
   <v type="int" name="KPOINT">    -1     0     0     0</v>
   <i type="logical" name="LTCTE"> F  </i>
   <i type="logical" name="LTETE"> F  </i>
   <i type="logical" name="LTRIPLET"> F  </i>
   <i type="logical" name="LFXCEPS"> F  </i>
   <i type="logical" name="LFXHEG"> F  </i>
   <i type="int" name="NATURALO">     0</i>
   <i type="logical" name="L2ORDER"> F  </i>
   <i type="logical" name="LUSEW"> F  </i>
   <i name="ENCUTGW">     -2.00000000</i>
   <i name="ENCUTGWSOFT">     -2.00000000</i>
   <i name="ENCUTLF">     -1.00000000</i>
   <i type="int" name="LMAXMP2">    -1</i>
   <i name="SCISSOR">      0.00000000</i>
   <i type="int" name="NOMEGA">     0</i>
   <i type="int" name="NOMEGAR">     0</i>
   <i type="int" name="NBANDSGW">    -1</i>
   <i type="int" name="NBANDSO">    -1</i>
   <i type="int" name="NBANDSV">    -1</i>
   <i type="int" name="NELM">   500</i>
   <i type="int" name="NELMHF">     1</i>
   <i type="int" name="DIM">     3</i>
   <i type="int" name="ANTIRES">     0</i>
   <i name="OMEGAMAX">    -30.00000000</i>
   <i name="OMEGAMIN">    -30.00000000</i>
   <i name="OMEGATL">   -200.00000000</i>
   <i type="int" name="OMEGAGRID">     0</i>
   <i name="CSHIFT">     -0.10000000</i>
   <i type="logical" name="SELFENERGY"> F  </i>
   <i type="logical" name="LSPECTRAL"> F  </i>
   <i type="logical" name="LSPECTRALGW"> F  </i>
   <i type="logical" name="LSINGLES"> F  </i>
   <i type="logical" name="LFERMIGW"> F  </i>
   <i type="logical" name="ODDONLYGW"> F  </i>
   <i type="logical" name="EVENONLYGW"> F  </i>
   <i type="int" name="NKREDLFX">     1</i>
   <i type="int" name="NKREDLFY">     1</i>
   <i type="int" name="NKREDLFZ">     1</i>
   <i type="int" name="MAXMEM">  1800</i>
   <i type="int" name="TELESCOPE">     0</i>
   <i type="int" name="TAUPAR">     1</i>
   <i type="int" name="OMEGAPAR">    -1</i>
   <i name="LAMBDA">      1.00000000</i>
  </separator>
  <separator name="External order field" >
   <i name="OFIELD_KAPPA">      0.00000000</i>
   <v name="OFIELD_K">      0.00000000      0.00000000      0.00000000</v>
   <i name="OFIELD_Q6_NEAR">      0.00000000</i>
   <i name="OFIELD_Q6_FAR">      0.00000000</i>
   <i name="OFIELD_A">      0.00000000</i>
  </separator>
 </parameters>
 <atominfo>
  <atoms>      48 </atoms>
  <types>       2 </types>
  <array name="atoms" >
   <dimension dim="1">ion</dimension>
   <field type="string">element</field>
   <field type="int">atomtype</field>
   <set>
    <rc><c>Au</c><c>   1</c></rc>
    <rc><c>Au</c><c>   1</c></rc>
    <rc><c>Au</c><c>   1</c></rc>
    <rc><c>Au</c><c>   1</c></rc>
    <rc><c>Au</c><c>   1</c></rc>
    <rc><c>Au</c><c>   1</c></rc>
    <rc><c>Au</c><c>   1</c></rc>
    <rc><c>Au</c><c>   1</c></rc>
    <rc><c>Au</c><c>   1</c></rc>
    <rc><c>Au</c><c>   1</c></rc>
    <rc><c>Au</c><c>   1</c></rc>
    <rc><c>Au</c><c>   1</c></rc>
    <rc><c>Au</c><c>   1</c></rc>
    <rc><c>Au</c><c>   1</c></rc>
    <rc><c>Au</c><c>   1</c></rc>
    <rc><c>Au</c><c>   1</c></rc>
    <rc><c>Au</c><c>   1</c></rc>
    <rc><c>Au</c><c>   1</c></rc>
    <rc><c>Au</c><c>   1</c></rc>
    <rc><c>Au</c><c>   1</c></rc>
    <rc><c>Au</c><c>   1</c></rc>
    <rc><c>Au</c><c>   1</c></rc>
    <rc><c>Au</c><c>   1</c></rc>
    <rc><c>Au</c><c>   1</c></rc>
    <rc><c>Pd</c><c>   2</c></rc>
    <rc><c>Pd</c><c>   2</c></rc>
    <rc><c>Pd</c><c>   2</c></rc>
    <rc><c>Pd</c><c>   2</c></rc>
    <rc><c>Pd</c><c>   2</c></rc>
    <rc><c>Pd</c><c>   2</c></rc>
    <rc><c>Pd</c><c>   2</c></rc>
    <rc><c>Pd</c><c>   2</c></rc>
    <rc><c>Pd</c><c>   2</c></rc>
    <rc><c>Pd</c><c>   2</c></rc>
    <rc><c>Pd</c><c>   2</c></rc>
    <rc><c>Pd</c><c>   2</c></rc>
    <rc><c>Pd</c><c>   2</c></rc>
    <rc><c>Pd</c><c>   2</c></rc>
    <rc><c>Pd</c><c>   2</c></rc>
    <rc><c>Pd</c><c>   2</c></rc>
    <rc><c>Pd</c><c>   2</c></rc>
    <rc><c>Pd</c><c>   2</c></rc>
    <rc><c>Pd</c><c>   2</c></rc>
    <rc><c>Pd</c><c>   2</c></rc>
    <rc><c>Pd</c><c>   2</c></rc>
    <rc><c>Pd</c><c>   2</c></rc>
    <rc><c>Pd</c><c>   2</c></rc>
    <rc><c>Pd</c><c>   2</c></rc>
   </set>
  </array>
  <array name="atomtypes" >
   <dimension dim="1">type</dimension>
   <field type="int">atomspertype</field>
   <field type="string">element</field>
   <field>mass</field>
   <field>valence</field>
   <field type="string">pseudopotential</field>
   <set>
    <rc><c>  24</c><c>Au</c><c>    196.96600000</c><c>     11.00000000</c><c>  PAW_PBE Au 04Oct2007                  </c></rc>
    <rc><c>  24</c><c>Pd</c><c>    106.42000000</c><c>     10.00000000</c><c>  PAW_PBE Pd 04Jan2005                  </c></rc>
   </set>
  </array>
 </atominfo>
 <structure name="initialpos" >
  <crystal>
   <varray name="basis" >
    <v>      11.00258152       0.00000000       0.00000000 </v>
    <v>       5.50129076       9.52851510       0.00000000 </v>
    <v>       0.00000000       0.00000000      24.49178509 </v>
   </varray>
   <i name="volume">   2567.67623402 </i>
   <varray name="rec_basis" >
    <v>       0.09088776      -0.05247407       0.00000000 </v>
    <v>       0.00000000       0.10494815       0.00000000 </v>
    <v>       0.00000000       0.00000000       0.04083002 </v>
   </varray>
  </crystal>
  <varray name="positions" >
   <v>       0.08333333       0.08333333       0.40830017 </v>
   <v>       0.33333333       0.08333333       0.40830017 </v>
   <v>       0.91666667       0.66666667       0.50000000 </v>
   <v>       0.08333333       0.83333333       0.40830017 </v>
   <v>       0.00000000       0.50000000       0.59169983 </v>
   <v>       0.33333333       0.33333333       0.40830017 </v>
   <v>       0.00000000       0.25000000       0.59169983 </v>
   <v>       0.25000000       0.00000000       0.59169983 </v>
   <v>       0.25000000       0.75000000       0.59169983 </v>
   <v>       0.16666667       0.41666667       0.50000000 </v>
   <v>       0.16666667       0.66666667       0.50000000 </v>
   <v>       0.25000000       0.50000000       0.59169983 </v>
   <v>       0.16666667       0.16666667       0.50000000 </v>
   <v>       0.58333333       0.08333333       0.40830017 </v>
   <v>       0.50000000       0.00000000       0.59169983 </v>
   <v>       0.41666667       0.41666667       0.50000000 </v>
   <v>       0.41666667       0.66666667       0.50000000 </v>
   <v>       0.50000000       0.50000000       0.59169983 </v>
   <v>       0.58333333       0.83333333       0.40830017 </v>
   <v>       0.83333333       0.08333333       0.40830017 </v>
   <v>       0.66666667       0.16666667       0.50000000 </v>
   <v>       0.66666667       0.41666667       0.50000000 </v>
   <v>       0.66666667       0.66666667       0.50000000 </v>
   <v>       0.66666667       0.91666667       0.50000000 </v>
   <v>       0.25000000       0.25000000       0.59169983 </v>
   <v>       0.08333333       0.58333333       0.40830017 </v>
   <v>       0.33333333       0.58333333       0.40830017 </v>
   <v>       0.58333333       0.58333333       0.40830017 </v>
   <v>       0.00000000       0.75000000       0.59169983 </v>
   <v>       0.58333333       0.33333333       0.40830017 </v>
   <v>       0.41666667       0.16666667       0.50000000 </v>
   <v>       0.91666667       0.91666667       0.50000000 </v>
   <v>       0.33333333       0.83333333       0.40830017 </v>
   <v>       0.50000000       0.25000000       0.59169983 </v>
   <v>       0.41666667       0.91666667       0.50000000 </v>
   <v>       0.00000000       0.00000000       0.59169983 </v>
   <v>       0.08333333       0.33333333       0.40830017 </v>
   <v>       0.75000000       0.00000000       0.59169983 </v>
   <v>       0.83333333       0.33333333       0.40830017 </v>
   <v>       0.75000000       0.25000000       0.59169983 </v>
   <v>       0.83333333       0.58333333       0.40830017 </v>
   <v>       0.91666667       0.16666667       0.50000000 </v>
   <v>       0.75000000       0.50000000       0.59169983 </v>
   <v>       0.83333333       0.83333333       0.40830017 </v>
   <v>       0.16666667       0.91666667       0.50000000 </v>
   <v>       0.50000000       0.75000000       0.59169983 </v>
   <v>       0.91666667       0.41666667       0.50000000 </v>
   <v>       0.75000000       0.75000000       0.59169983 </v>
  </varray>
  <varray name="selective"  type="logical" >
   <v type="logical" >  F  F  F </v>
   <v type="logical" >  F  F  F </v>
   <v type="logical" >  T  T  T </v>
   <v type="logical" >  F  F  F </v>
   <v type="logical" >  T  T  T </v>
   <v type="logical" >  F  F  F </v>
   <v type="logical" >  T  T  T </v>
   <v type="logical" >  T  T  T </v>
   <v type="logical" >  T  T  T </v>
   <v type="logical" >  T  T  T </v>
   <v type="logical" >  T  T  T </v>
   <v type="logical" >  T  T  T </v>
   <v type="logical" >  T  T  T </v>
   <v type="logical" >  F  F  F </v>
   <v type="logical" >  T  T  T </v>
   <v type="logical" >  T  T  T </v>
   <v type="logical" >  T  T  T </v>
   <v type="logical" >  T  T  T </v>
   <v type="logical" >  F  F  F </v>
   <v type="logical" >  F  F  F </v>
   <v type="logical" >  T  T  T </v>
   <v type="logical" >  T  T  T </v>
   <v type="logical" >  T  T  T </v>
   <v type="logical" >  T  T  T </v>
   <v type="logical" >  T  T  T </v>
   <v type="logical" >  F  F  F </v>
   <v type="logical" >  F  F  F </v>
   <v type="logical" >  F  F  F </v>
   <v type="logical" >  T  T  T </v>
   <v type="logical" >  F  F  F </v>
   <v type="logical" >  T  T  T </v>
   <v type="logical" >  T  T  T </v>
   <v type="logical" >  F  F  F </v>
   <v type="logical" >  T  T  T </v>
   <v type="logical" >  T  T  T </v>
   <v type="logical" >  T  T  T </v>
   <v type="logical" >  F  F  F </v>
   <v type="logical" >  T  T  T </v>
   <v type="logical" >  F  F  F </v>
   <v type="logical" >  T  T  T </v>
   <v type="logical" >  F  F  F </v>
   <v type="logical" >  T  T  T </v>
   <v type="logical" >  T  T  T </v>
   <v type="logical" >  F  F  F </v>
   <v type="logical" >  T  T  T </v>
   <v type="logical" >  T  T  T </v>
   <v type="logical" >  T  T  T </v>
   <v type="logical" >  T  T  T </v>
  </varray>
  <nose>
   <v>      -3.00000000       0.00000000       0.00010000       0.00010000 </v>
  </nose>
 </structure>
 <calculation>
  <scstep>
   <time name="dav">    7.17    7.19</time>
   <time name="total">    7.22    7.25</time>
   <dipole>
    <v name="dipole">      0.00000000       0.00000000       0.00000000 </v>
    <i name="Tr[quadrupol]"> -10298.33891312 </i>
    <i name="Echarged">      0.00000000 </i>
    <i name="Edipol_quadrupol">      0.00000000 </i>
    <i name="Eion">      0.00000000 </i>
   </dipole>
   <energy>
    <i name="alphaZ">    805.86936429 </i>
    <i name="ewald"> 200631.67347059 </i>
    <i name="hartreedc">-243047.75444000 </i>
    <i name="XCdc">   -327.49709502 </i>
    <i name="pawpsdc">  40340.05962942 </i>
    <i name="pawaedc"> -38292.62782345 </i>
    <i name="eentropy">     -0.13458840 </i>
    <i name="bandstr">   1431.00739524 </i>
    <i name="atom">  41659.78587232 </i>
    <i name="e_fr_energy">   3200.38178498 </i>
    <i name="e_wo_entrp">   3200.51637338 </i>
    <i name="e_0_energy">   3200.44907918 </i>
   </energy>
  </scstep>
  <scstep>
   <time name="dav">    8.47    8.49</time>
   <time name="total">    8.47    8.50</time>
   <dipole>
    <v name="dipole">      0.00000000       0.00000000       0.00000000 </v>
    <i name="Tr[quadrupol]"> -10298.33891312 </i>
    <i name="Echarged">      0.00000000 </i>
    <i name="Edipol_quadrupol">      0.00000000 </i>
    <i name="Eion">      0.00000000 </i>
   </dipole>
   <energy>
    <i name="e_fr_energy">     16.96714330 </i>
    <i name="e_wo_entrp">     17.09107809 </i>
    <i name="e_0_energy">     17.02911070 </i>
   </energy>
  </scstep>
  <scstep>
   <time name="dav">    8.22    8.24</time>
   <time name="total">    8.22    8.25</time>
   <dipole>
    <v name="dipole">      0.00000000       0.00000000       0.00000000 </v>
    <i name="Tr[quadrupol]"> -10298.33891312 </i>
    <i name="Echarged">      0.00000000 </i>
    <i name="Edipol_quadrupol">      0.00000000 </i>
    <i name="Eion">      0.00000000 </i>
   </dipole>
   <energy>
    <i name="e_fr_energy">   -199.44089009 </i>
    <i name="e_wo_entrp">   -199.21961591 </i>
    <i name="e_0_energy">   -199.33025300 </i>
   </energy>
  </scstep>
  <scstep>
   <time name="dav">    8.33    8.42</time>
   <time name="total">    8.33    8.42</time>
   <dipole>
    <v name="dipole">      0.00000000       0.00000000       0.00000000 </v>
    <i name="Tr[quadrupol]"> -10298.33891312 </i>
    <i name="Echarged">      0.00000000 </i>
    <i name="Edipol_quadrupol">      0.00000000 </i>
    <i name="Eion">      0.00000000 </i>
   </dipole>
   <energy>
    <i name="e_fr_energy">   -205.26859666 </i>
    <i name="e_wo_entrp">   -205.03741191 </i>
    <i name="e_0_energy">   -205.15300429 </i>
   </energy>
  </scstep>
  <scstep>
   <time name="dav">    8.61    8.63</time>
   <time name="total">    8.83    8.86</time>
   <dipole>
    <v name="dipole">      0.00000000       0.00000000       0.00000000 </v>
    <i name="Tr[quadrupol]"> -10298.33891312 </i>
    <i name="Echarged">      0.00000000 </i>
    <i name="Edipol_quadrupol">      0.00000000 </i>
    <i name="Eion">      0.00000000 </i>
   </dipole>
   <energy>
    <i name="e_fr_energy">   -205.45669248 </i>
    <i name="e_wo_entrp">   -205.22583421 </i>
    <i name="e_0_energy">   -205.34126334 </i>
   </energy>
  </scstep>
  <scstep>
   <time name="diag">    1.28    1.28</time>
   <time name="diis">    3.43    3.44</time>
   <time name="orth">    0.35    0.36</time>
   <time name="total">    5.33    5.35</time>
   <dipole>
    <v name="dipole">      0.00000000       0.00000000       0.00285265 </v>
    <i name="Tr[quadrupol]"> -10298.35131743 </i>
    <i name="Echarged">      0.00000000 </i>
    <i name="Edipol_quadrupol">      0.00000000 </i>
    <i name="Eion">      0.00000000 </i>
   </dipole>
   <energy>
    <i name="e_fr_energy">   -196.85027840 </i>
    <i name="e_wo_entrp">   -196.61654739 </i>
    <i name="e_0_energy">   -196.73341289 </i>
   </energy>
  </scstep>
  <scstep>
   <time name="diag">    1.29    1.29</time>
   <time name="diis">    3.43    3.44</time>
   <time name="orth">    0.35    0.35</time>
   <time name="total">    5.34    5.35</time>
   <dipole>
    <v name="dipole">      0.00000000       0.00000000      -0.01251707 </v>
    <i name="Tr[quadrupol]"> -10298.60013541 </i>
    <i name="Echarged">      0.00000000 </i>
    <i name="Edipol_quadrupol">      0.00000000 </i>
    <i name="Eion">      0.00000000 </i>
   </dipole>
   <energy>
    <i name="e_fr_energy">   -197.26656322 </i>
    <i name="e_wo_entrp">   -197.09849866 </i>
    <i name="e_0_energy">   -197.18253094 </i>
   </energy>
  </scstep>
  <scstep>
   <time name="diag">    1.28    1.29</time>
   <time name="diis">    3.40    3.40</time>
   <time name="orth">    0.35    0.35</time>
   <time name="total">    5.30    5.31</time>
   <dipole>
    <v name="dipole">      0.00000000       0.00000000      -0.44172171 </v>
    <i name="Tr[quadrupol]"> -10300.09164002 </i>
    <i name="Echarged">      0.00000000 </i>
    <i name="Edipol_quadrupol">      0.00000000 </i>
    <i name="Eion">      0.00000000 </i>
   </dipole>
   <energy>
    <i name="e_fr_energy">   -202.78424174 </i>
    <i name="e_wo_entrp">   -202.52350073 </i>
    <i name="e_0_energy">   -202.65387124 </i>
   </energy>
  </scstep>
  <scstep>
   <time name="diag">    1.29    1.29</time>
   <time name="diis">    3.48    3.49</time>
   <time name="orth">    0.35    0.35</time>
   <time name="total">    5.39    5.40</time>
   <dipole>
    <v name="dipole">      0.00000000       0.00000000       0.52695423 </v>
    <i name="Tr[quadrupol]"> -10300.69147087 </i>
    <i name="Echarged">      0.00000000 </i>
    <i name="Edipol_quadrupol">      0.00000000 </i>
    <i name="Eion">      0.00000000 </i>
   </dipole>
   <energy>
    <i name="e_fr_energy">   -195.75239847 </i>
    <i name="e_wo_entrp">   -195.55012915 </i>
    <i name="e_0_energy">   -195.65126381 </i>
   </energy>
  </scstep>
  <scstep>
   <time name="diag">    1.28    1.28</time>
   <time name="diis">    3.43    3.44</time>
   <time name="orth">    0.35    0.35</time>
   <time name="total">    5.31    5.33</time>
   <dipole>
    <v name="dipole">      0.00000000       0.00000000      -0.49048230 </v>
    <i name="Tr[quadrupol]"> -10301.05949176 </i>
    <i name="Echarged">      0.00000000 </i>
    <i name="Edipol_quadrupol">      0.00000000 </i>
    <i name="Eion">      0.00000000 </i>
   </dipole>
   <energy>
    <i name="e_fr_energy">   -192.72512254 </i>
    <i name="e_wo_entrp">   -192.56178023 </i>
    <i name="e_0_energy">   -192.64345139 </i>
   </energy>
  </scstep>
  <scstep>
   <time name="diag">    1.27    1.31</time>
   <time name="diis">    3.43    3.48</time>
   <time name="orth">    0.35    0.35</time>
   <time name="total">    5.32    5.41</time>
   <dipole>
    <v name="dipole">      0.00000000       0.00000000       0.15936312 </v>
    <i name="Tr[quadrupol]"> -10301.44532712 </i>
    <i name="Echarged">      0.00000000 </i>
    <i name="Edipol_quadrupol">      0.00000000 </i>
    <i name="Eion">      0.00000000 </i>
   </dipole>
   <energy>
    <i name="e_fr_energy">   -189.77095339 </i>
    <i name="e_wo_entrp">   -189.55658549 </i>
    <i name="e_0_energy">   -189.66376944 </i>
   </energy>
  </scstep>
  <scstep>
   <time name="diag">    1.28    1.28</time>
   <time name="diis">    3.46    3.47</time>
   <time name="orth">    0.35    0.35</time>
   <time name="total">    5.36    5.38</time>
   <dipole>
    <v name="dipole">      0.00000000       0.00000000      -0.05292283 </v>
    <i name="Tr[quadrupol]"> -10301.27073005 </i>
    <i name="Echarged">      0.00000000 </i>
    <i name="Edipol_quadrupol">      0.00000000 </i>
    <i name="Eion">      0.00000000 </i>
   </dipole>
   <energy>
    <i name="e_fr_energy">   -188.49107374 </i>
    <i name="e_wo_entrp">   -188.25856050 </i>
    <i name="e_0_energy">   -188.37481712 </i>
   </energy>
  </scstep>
  <scstep>
   <time name="diag">    1.28    1.29</time>
   <time name="diis">    3.41    3.43</time>
   <time name="orth">    0.35    0.35</time>
   <time name="total">    5.32    5.35</time>
   <dipole>
    <v name="dipole">      0.00000000       0.00000000      -0.01696065 </v>
    <i name="Tr[quadrupol]"> -10301.45602033 </i>
    <i name="Echarged">      0.00000000 </i>
    <i name="Edipol_quadrupol">      0.00000000 </i>
    <i name="Eion">      0.00000000 </i>
   </dipole>
   <energy>
    <i name="e_fr_energy">   -188.15690743 </i>
    <i name="e_wo_entrp">   -187.93112367 </i>
    <i name="e_0_energy">   -188.04401555 </i>
   </energy>
  </scstep>
  <scstep>
   <time name="diag">    1.28    1.28</time>
   <time name="diis">    3.46    3.47</time>
   <time name="orth">    0.35    0.35</time>
   <time name="total">    5.36    5.37</time>
   <dipole>
    <v name="dipole">      0.00000000       0.00000000       0.02393690 </v>
    <i name="Tr[quadrupol]"> -10301.79354392 </i>
    <i name="Echarged">      0.00000000 </i>
    <i name="Edipol_quadrupol">      0.00000000 </i>
    <i name="Eion">      0.00000000 </i>
   </dipole>
   <energy>
    <i name="e_fr_energy">   -188.15395031 </i>
    <i name="e_wo_entrp">   -187.91039888 </i>
    <i name="e_0_energy">   -188.03217460 </i>
   </energy>
  </scstep>
  <scstep>
   <time name="diag">    1.28    1.29</time>
   <time name="diis">    3.45    3.46</time>
   <time name="orth">    0.35    0.35</time>
   <time name="total">    5.34    5.36</time>
   <dipole>
    <v name="dipole">      0.00000000       0.00000000       0.02526834 </v>
    <i name="Tr[quadrupol]"> -10301.96878610 </i>
    <i name="Echarged">      0.00000000 </i>
    <i name="Edipol_quadrupol">      0.00000000 </i>
    <i name="Eion">      0.00000000 </i>
   </dipole>
   <energy>
    <i name="e_fr_energy">   -188.13727162 </i>
    <i name="e_wo_entrp">   -187.90721629 </i>
    <i name="e_0_energy">   -188.02224396 </i>
   </energy>
  </scstep>
  <scstep>
   <time name="diag">    1.28    1.28</time>
   <time name="diis">    3.45    3.46</time>
   <time name="orth">    0.35    0.35</time>
   <time name="total">    5.34    5.36</time>
   <dipole>
    <v name="dipole">      0.00000000       0.00000000       0.00327053 </v>
    <i name="Tr[quadrupol]"> -10302.32609163 </i>
    <i name="Echarged">      0.00000000 </i>
    <i name="Edipol_quadrupol">      0.00000000 </i>
    <i name="Eion">      0.00000000 </i>
   </dipole>
   <energy>
    <i name="e_fr_energy">   -188.06794454 </i>
    <i name="e_wo_entrp">   -187.82406469 </i>
    <i name="e_0_energy">   -187.94600462 </i>
   </energy>
  </scstep>
  <scstep>
   <time name="diag">    1.28    1.29</time>
   <time name="diis">    3.47    3.48</time>
   <time name="orth">    0.35    0.35</time>
   <time name="total">    5.37    5.38</time>
   <dipole>
    <v name="dipole">      0.00000000       0.00000000       0.00020668 </v>
    <i name="Tr[quadrupol]"> -10302.57180581 </i>
    <i name="Echarged">      0.00000000 </i>
    <i name="Edipol_quadrupol">      0.00000000 </i>
    <i name="Eion">      0.00000000 </i>
   </dipole>
   <energy>
    <i name="e_fr_energy">   -188.05625566 </i>
    <i name="e_wo_entrp">   -187.81557846 </i>
    <i name="e_0_energy">   -187.93591706 </i>
   </energy>
  </scstep>
  <scstep>
   <time name="diag">    1.27    1.28</time>
   <time name="diis">    3.37    3.46</time>
   <time name="orth">    0.35    0.35</time>
   <time name="total">    5.25    5.35</time>
   <dipole>
    <v name="dipole">      0.00000000       0.00000000       0.00667555 </v>
    <i name="Tr[quadrupol]"> -10302.73527894 </i>
    <i name="Echarged">      0.00000000 </i>
    <i name="Edipol_quadrupol">      0.00000000 </i>
    <i name="Eion">      0.00000000 </i>
   </dipole>
   <energy>
    <i name="e_fr_energy">   -188.03885163 </i>
    <i name="e_wo_entrp">   -187.79528205 </i>
    <i name="e_0_energy">   -187.91706684 </i>
   </energy>
  </scstep>
  <scstep>
   <time name="diag">    1.28    1.28</time>
   <time name="diis">    3.42    3.42</time>
   <time name="orth">    0.35    0.35</time>
   <time name="total">    5.30    5.33</time>
   <dipole>
    <v name="dipole">      0.00000000       0.00000000       0.01019108 </v>
    <i name="Tr[quadrupol]"> -10302.82325011 </i>
    <i name="Echarged">      0.00000000 </i>
    <i name="Edipol_quadrupol">      0.00000000 </i>
    <i name="Eion">      0.00000000 </i>
   </dipole>
   <energy>
    <i name="e_fr_energy">   -188.03726300 </i>
    <i name="e_wo_entrp">   -187.79301897 </i>
    <i name="e_0_energy">   -187.91514098 </i>
   </energy>
  </scstep>
  <scstep>
   <time name="diag">    1.28    1.28</time>
   <time name="diis">    3.46    3.46</time>
   <time name="orth">    0.35    0.35</time>
   <time name="total">    5.35    5.37</time>
   <dipole>
    <v name="dipole">      0.00000000       0.00000000       0.01035449 </v>
    <i name="Tr[quadrupol]"> -10302.96801971 </i>
    <i name="Echarged">      0.00000000 </i>
    <i name="Edipol_quadrupol">      0.00000000 </i>
    <i name="Eion">      0.00000000 </i>
   </dipole>
   <energy>
    <i name="e_fr_energy">   -188.03615620 </i>
    <i name="e_wo_entrp">   -187.79080055 </i>
    <i name="e_0_energy">   -187.91347837 </i>
   </energy>
  </scstep>
  <scstep>
   <time name="diag">    1.28    1.29</time>
   <time name="diis">    3.42    3.43</time>
   <time name="orth">    0.35    0.35</time>
   <time name="total">    5.32    5.33</time>
   <dipole>
    <v name="dipole">      0.00000000       0.00000000       0.00882277 </v>
    <i name="Tr[quadrupol]"> -10303.06621682 </i>
    <i name="Echarged">      0.00000000 </i>
    <i name="Edipol_quadrupol">      0.00000000 </i>
    <i name="Eion">      0.00000000 </i>
   </dipole>
   <energy>
    <i name="e_fr_energy">   -188.03604407 </i>
    <i name="e_wo_entrp">   -187.79024295 </i>
    <i name="e_0_energy">   -187.91314351 </i>
   </energy>
  </scstep>
  <scstep>
   <time name="diag">    1.27    1.28</time>
   <time name="diis">    3.47    3.48</time>
   <time name="orth">    0.35    0.35</time>
   <time name="total">    5.35    5.37</time>
   <dipole>
    <v name="dipole">      0.00000000       0.00000000       0.00665958 </v>
    <i name="Tr[quadrupol]"> -10303.18425761 </i>
    <i name="Echarged">      0.00000000 </i>
    <i name="Edipol_quadrupol">      0.00000000 </i>
    <i name="Eion">      0.00000000 </i>
   </dipole>
   <energy>
    <i name="e_fr_energy">   -188.03614739 </i>
    <i name="e_wo_entrp">   -187.79058462 </i>
    <i name="e_0_energy">   -187.91336601 </i>
   </energy>
  </scstep>
  <scstep>
   <time name="diag">    1.28    1.28</time>
   <time name="diis">    3.40    3.41</time>
   <time name="orth">    0.35    0.35</time>
   <time name="total">    5.30    5.32</time>
   <dipole>
    <v name="dipole">      0.00000000       0.00000000       0.00706757 </v>
    <i name="Tr[quadrupol]"> -10303.27908952 </i>
    <i name="Echarged">      0.00000000 </i>
    <i name="Edipol_quadrupol">      0.00000000 </i>
    <i name="Eion">      0.00000000 </i>
   </dipole>
   <energy>
    <i name="e_fr_energy">   -188.03645674 </i>
    <i name="e_wo_entrp">   -187.79061338 </i>
    <i name="e_0_energy">   -187.91353506 </i>
   </energy>
  </scstep>
  <scstep>
   <time name="diag">    1.28    1.28</time>
   <time name="diis">    3.47    3.49</time>
   <time name="orth">    0.34    0.34</time>
   <time name="total">    5.36    5.39</time>
   <dipole>
    <v name="dipole">      0.00000000       0.00000000       0.00694356 </v>
    <i name="Tr[quadrupol]"> -10303.33075025 </i>
    <i name="Echarged">      0.00000000 </i>
    <i name="Edipol_quadrupol">      0.00000000 </i>
    <i name="Eion">      0.00000000 </i>
   </dipole>
   <energy>
    <i name="e_fr_energy">   -188.03678841 </i>
    <i name="e_wo_entrp">   -187.79121028 </i>
    <i name="e_0_energy">   -187.91399934 </i>
   </energy>
  </scstep>
  <scstep>
   <time name="diag">    1.29    1.29</time>
   <time name="diis">    3.46    3.46</time>
   <time name="orth">    0.34    0.34</time>
   <time name="total">    5.36    5.37</time>
   <dipole>
    <v name="dipole">      0.00000000       0.00000000       0.00679944 </v>
    <i name="Tr[quadrupol]"> -10303.39345313 </i>
    <i name="Echarged">      0.00000000 </i>
    <i name="Edipol_quadrupol">      0.00000000 </i>
    <i name="Eion">      0.00000000 </i>
   </dipole>
   <energy>
    <i name="e_fr_energy">   -188.03720370 </i>
    <i name="e_wo_entrp">   -187.79148039 </i>
    <i name="e_0_energy">   -187.91434204 </i>
   </energy>
  </scstep>
  <scstep>
   <time name="diag">    1.26    1.32</time>
   <time name="diis">    3.56    3.57</time>
   <time name="orth">    0.34    0.34</time>
   <time name="total">    5.42    5.51</time>
   <dipole>
    <v name="dipole">      0.00000000       0.00000000       0.00643154 </v>
    <i name="Tr[quadrupol]"> -10303.47264769 </i>
    <i name="Echarged">      0.00000000 </i>
    <i name="Edipol_quadrupol">      0.00000000 </i>
    <i name="Eion">      0.00000000 </i>
   </dipole>
   <energy>
    <i name="e_fr_energy">   -188.03783159 </i>
    <i name="e_wo_entrp">   -187.79211526 </i>
    <i name="e_0_energy">   -187.91497343 </i>
   </energy>
  </scstep>
  <scstep>
   <time name="diag">    1.28    1.28</time>
   <time name="diis">    3.53    3.55</time>
   <time name="orth">    0.34    0.34</time>
   <time name="total">    5.42    5.47</time>
   <dipole>
    <v name="dipole">      0.00000000       0.00000000       0.00643797 </v>
    <i name="Tr[quadrupol]"> -10303.54228372 </i>
    <i name="Echarged">      0.00000000 </i>
    <i name="Edipol_quadrupol">      0.00000000 </i>
    <i name="Eion">      0.00000000 </i>
   </dipole>
   <energy>
    <i name="e_fr_energy">   -188.03844542 </i>
    <i name="e_wo_entrp">   -187.79260366 </i>
    <i name="e_0_energy">   -187.91552454 </i>
   </energy>
  </scstep>
  <scstep>
   <time name="diag">    1.28    1.29</time>
   <time name="diis">    3.38    3.39</time>
   <time name="orth">    0.34    0.34</time>
   <time name="total">    5.28    5.30</time>
   <dipole>
    <v name="dipole">      0.00000000       0.00000000       0.00619768 </v>
    <i name="Tr[quadrupol]"> -10303.60892114 </i>
    <i name="Echarged">      0.00000000 </i>
    <i name="Edipol_quadrupol">      0.00000000 </i>
    <i name="Eion">      0.00000000 </i>
   </dipole>
   <energy>
    <i name="e_fr_energy">   -188.03907170 </i>
    <i name="e_wo_entrp">   -187.79324509 </i>
    <i name="e_0_energy">   -187.91615840 </i>
   </energy>
  </scstep>
  <scstep>
   <time name="diag">    1.28    1.29</time>
   <time name="diis">    3.29    3.30</time>
   <time name="orth">    0.34    0.34</time>
   <time name="total">    5.19    5.21</time>
   <dipole>
    <v name="dipole">      0.00000000       0.00000000       0.00594773 </v>
    <i name="Tr[quadrupol]"> -10303.65920077 </i>
    <i name="Echarged">      0.00000000 </i>
    <i name="Edipol_quadrupol">      0.00000000 </i>
    <i name="Eion">      0.00000000 </i>
   </dipole>
   <energy>
    <i name="e_fr_energy">   -188.03954432 </i>
    <i name="e_wo_entrp">   -187.79375858 </i>
    <i name="e_0_energy">   -187.91665145 </i>
   </energy>
  </scstep>
  <scstep>
   <time name="diag">    1.27    1.29</time>
   <time name="diis">    2.84    2.84</time>
   <time name="orth">    0.34    0.34</time>
   <time name="total">    4.72    4.75</time>
   <dipole>
    <v name="dipole">      0.00000000       0.00000000       0.00582625 </v>
    <i name="Tr[quadrupol]"> -10303.69141694 </i>
    <i name="Echarged">      0.00000000 </i>
    <i name="Edipol_quadrupol">      0.00000000 </i>
    <i name="Eion">      0.00000000 </i>
   </dipole>
   <energy>
    <i name="e_fr_energy">   -188.03978289 </i>
    <i name="e_wo_entrp">   -187.79400548 </i>
    <i name="e_0_energy">   -187.91689418 </i>
   </energy>
  </scstep>
  <scstep>
   <time name="diag">    1.28    1.28</time>
   <time name="diis">    2.52    2.53</time>
   <time name="orth">    0.34    0.34</time>
   <time name="total">    4.41    4.42</time>
   <dipole>
    <v name="dipole">      0.00000000       0.00000000       0.00582763 </v>
    <i name="Tr[quadrupol]"> -10303.70731369 </i>
    <i name="Echarged">      0.00000000 </i>
    <i name="Edipol_quadrupol">      0.00000000 </i>
    <i name="Eion">      0.00000000 </i>
   </dipole>
   <energy>
    <i name="e_fr_energy">   -188.03989193 </i>
    <i name="e_wo_entrp">   -187.79410158 </i>
    <i name="e_0_energy">   -187.91699675 </i>
   </energy>
  </scstep>
  <scstep>
   <time name="diag">    1.28    1.28</time>
   <time name="diis">    2.18    2.18</time>
   <time name="orth">    0.34    0.34</time>
   <time name="total">    4.07    4.09</time>
   <dipole>
    <v name="dipole">      0.00000000       0.00000000       0.00579138 </v>
    <i name="Tr[quadrupol]"> -10303.71626834 </i>
    <i name="Echarged">      0.00000000 </i>
    <i name="Edipol_quadrupol">      0.00000000 </i>
    <i name="Eion">      0.00000000 </i>
   </dipole>
   <energy>
    <i name="e_fr_energy">   -188.03995095 </i>
    <i name="e_wo_entrp">   -187.79415189 </i>
    <i name="e_0_energy">   -187.91705142 </i>
   </energy>
  </scstep>
  <scstep>
   <time name="diag">    1.28    1.29</time>
   <time name="diis">    2.14    2.14</time>
   <time name="orth">    0.34    0.34</time>
   <time name="total">    4.03    4.05</time>
   <dipole>
    <v name="dipole">      0.00000000       0.00000000       0.00566525 </v>
    <i name="Tr[quadrupol]"> -10303.72504906 </i>
    <i name="Echarged">      0.00000000 </i>
    <i name="Edipol_quadrupol">      0.00000000 </i>
    <i name="Eion">      0.00000000 </i>
   </dipole>
   <energy>
    <i name="e_fr_energy">   -188.04000832 </i>
    <i name="e_wo_entrp">   -187.79419643 </i>
    <i name="e_0_energy">   -187.91710237 </i>
   </energy>
  </scstep>
  <scstep>
   <time name="diag">    1.27    1.27</time>
   <time name="diis">    2.05    2.13</time>
   <time name="orth">    0.34    0.35</time>
   <time name="total">    3.93    4.02</time>
   <dipole>
    <v name="dipole">      0.00000000       0.00000000       0.00563398 </v>
    <i name="Tr[quadrupol]"> -10303.73021114 </i>
    <i name="Echarged">      0.00000000 </i>
    <i name="Edipol_quadrupol">      0.00000000 </i>
    <i name="Eion">      0.00000000 </i>
   </dipole>
   <energy>
    <i name="e_fr_energy">   -188.04004001 </i>
    <i name="e_wo_entrp">   -187.79422507 </i>
    <i name="e_0_energy">   -187.91713254 </i>
   </energy>
  </scstep>
  <scstep>
   <time name="diag">    1.28    1.28</time>
   <time name="diis">    2.12    2.13</time>
   <time name="orth">    0.34    0.34</time>
   <time name="total">    4.01    4.02</time>
   <dipole>
    <v name="dipole">      0.00000000       0.00000000       0.00558333 </v>
    <i name="Tr[quadrupol]"> -10303.73793931 </i>
    <i name="Echarged">      0.00000000 </i>
    <i name="Edipol_quadrupol">      0.00000000 </i>
    <i name="Eion">      0.00000000 </i>
   </dipole>
   <energy>
    <i name="e_fr_energy">   -188.04007287 </i>
    <i name="e_wo_entrp">   -187.79426828 </i>
    <i name="e_0_energy">   -187.91717058 </i>
   </energy>
  </scstep>
  <scstep>
   <time name="diag">    1.28    1.28</time>
   <time name="diis">    1.91    1.92</time>
   <time name="orth">    0.34    0.34</time>
   <time name="total">    3.81    3.82</time>
   <dipole>
    <v name="dipole">      0.00000000       0.00000000       0.00554745 </v>
    <i name="Tr[quadrupol]"> -10303.74196394 </i>
    <i name="Echarged">      0.00000000 </i>
    <i name="Edipol_quadrupol">      0.00000000 </i>
    <i name="Eion">      0.00000000 </i>
   </dipole>
   <energy>
    <i name="e_fr_energy">   -188.04008091 </i>
    <i name="e_wo_entrp">   -187.79427593 </i>
    <i name="e_0_energy">   -187.91717842 </i>
   </energy>
  </scstep>
  <scstep>
   <time name="diag">    1.28    1.28</time>
   <time name="diis">    1.64    1.66</time>
   <time name="orth">    0.34    0.34</time>
   <time name="total">    3.54    3.56</time>
   <dipole>
    <v name="dipole">      0.00000000       0.00000000       0.00551385 </v>
    <i name="Tr[quadrupol]"> -10303.74452054 </i>
    <i name="Echarged">      0.00000000 </i>
    <i name="Edipol_quadrupol">      0.00000000 </i>
    <i name="Eion">      0.00000000 </i>
   </dipole>
   <energy>
    <i name="e_fr_energy">   -188.04008303 </i>
    <i name="e_wo_entrp">   -187.79427584 </i>
    <i name="e_0_energy">   -187.91717944 </i>
   </energy>
  </scstep>
  <scstep>
   <time name="diag">    1.28    1.28</time>
   <time name="diis">    1.62    1.62</time>
   <time name="orth">    0.34    0.34</time>
   <time name="total">    3.51    3.52</time>
   <dipole>
    <v name="dipole">      0.00000000       0.00000000       0.00549478 </v>
    <i name="Tr[quadrupol]"> -10303.74736874 </i>
    <i name="Echarged">      0.00000000 </i>
    <i name="Edipol_quadrupol">      0.00000000 </i>
    <i name="Eion">      0.00000000 </i>
   </dipole>
   <energy>
    <i name="e_fr_energy">   -188.04008418 </i>
    <i name="e_wo_entrp">   -187.79427654 </i>
    <i name="e_0_energy">   -187.91718036 </i>
   </energy>
  </scstep>
  <scstep>
   <time name="diag">    1.28    1.28</time>
   <time name="diis">    1.53    1.54</time>
   <time name="orth">    0.34    0.34</time>
   <time name="total">    3.20    3.21</time>
   <dipole>
    <v name="dipole">      0.00000000       0.00000000       0.00547812 </v>
    <i name="Tr[quadrupol]"> -10303.74911978 </i>
    <i name="Echarged">      0.00000000 </i>
    <i name="Edipol_quadrupol">      0.00000000 </i>
    <i name="Eion">      0.00000000 </i>
   </dipole>
   <energy>
    <i name="alphaZ">    805.86936323 </i>
    <i name="ewald"> 200631.67347059 </i>
    <i name="hartreedc">-242823.51291245 </i>
    <i name="XCdc">   -343.02675590 </i>
    <i name="pawpsdc">  49457.98389423 </i>
    <i name="pawaedc"> -47535.32805851 </i>
    <i name="eentropy">     -0.24580766 </i>
    <i name="bandstr">  -2041.23915065 </i>
    <i name="atom">  41659.78587232 </i>
    <i name="e_fr_energy">   -188.04008480 </i>
    <i name="e_wo_entrp">   -187.79427714 </i>
    <i name="e_0_energy">   -187.91718097 </i>
   </energy>
  </scstep>
  <structure>
   <crystal>
    <varray name="basis" >
     <v>      11.00258152       0.00000000       0.00000000 </v>
     <v>       5.50129076       9.52851510       0.00000000 </v>
     <v>       0.00000000       0.00000000      24.49178509 </v>
    </varray>
    <i name="volume">   2567.67623402 </i>
    <varray name="rec_basis" >
     <v>       0.09088776      -0.05247407       0.00000000 </v>
     <v>       0.00000000       0.10494815       0.00000000 </v>
     <v>       0.00000000       0.00000000       0.04083002 </v>
    </varray>
   </crystal>
   <varray name="positions" >
    <v>       0.08333333       0.08333333       0.40830017 </v>
    <v>       0.33333333       0.08333333       0.40830017 </v>
    <v>       0.91666667       0.66666667       0.50000000 </v>
    <v>       0.08333333       0.83333333       0.40830017 </v>
    <v>       0.00000000       0.50000000       0.59169983 </v>
    <v>       0.33333333       0.33333333       0.40830017 </v>
    <v>       0.00000000       0.25000000       0.59169983 </v>
    <v>       0.25000000       0.00000000       0.59169983 </v>
    <v>       0.25000000       0.75000000       0.59169983 </v>
    <v>       0.16666667       0.41666667       0.50000000 </v>
    <v>       0.16666667       0.66666667       0.50000000 </v>
    <v>       0.25000000       0.50000000       0.59169983 </v>
    <v>       0.16666667       0.16666667       0.50000000 </v>
    <v>       0.58333333       0.08333333       0.40830017 </v>
    <v>       0.50000000       0.00000000       0.59169983 </v>
    <v>       0.41666667       0.41666667       0.50000000 </v>
    <v>       0.41666667       0.66666667       0.50000000 </v>
    <v>       0.50000000       0.50000000       0.59169983 </v>
    <v>       0.58333333       0.83333333       0.40830017 </v>
    <v>       0.83333333       0.08333333       0.40830017 </v>
    <v>       0.66666667       0.16666667       0.50000000 </v>
    <v>       0.66666667       0.41666667       0.50000000 </v>
    <v>       0.66666667       0.66666667       0.50000000 </v>
    <v>       0.66666667       0.91666667       0.50000000 </v>
    <v>       0.25000000       0.25000000       0.59169983 </v>
    <v>       0.08333333       0.58333333       0.40830017 </v>
    <v>       0.33333333       0.58333333       0.40830017 </v>
    <v>       0.58333333       0.58333333       0.40830017 </v>
    <v>       0.00000000       0.75000000       0.59169983 </v>
    <v>       0.58333333       0.33333333       0.40830017 </v>
    <v>       0.41666667       0.16666667       0.50000000 </v>
    <v>       0.91666667       0.91666667       0.50000000 </v>
    <v>       0.33333333       0.83333333       0.40830017 </v>
    <v>       0.50000000       0.25000000       0.59169983 </v>
    <v>       0.41666667       0.91666667       0.50000000 </v>
    <v>       0.00000000       0.00000000       0.59169983 </v>
    <v>       0.08333333       0.33333333       0.40830017 </v>
    <v>       0.75000000       0.00000000       0.59169983 </v>
    <v>       0.83333333       0.33333333       0.40830017 </v>
    <v>       0.75000000       0.25000000       0.59169983 </v>
    <v>       0.83333333       0.58333333       0.40830017 </v>
    <v>       0.91666667       0.16666667       0.50000000 </v>
    <v>       0.75000000       0.50000000       0.59169983 </v>
    <v>       0.83333333       0.83333333       0.40830017 </v>
    <v>       0.16666667       0.91666667       0.50000000 </v>
    <v>       0.50000000       0.75000000       0.59169983 </v>
    <v>       0.91666667       0.41666667       0.50000000 </v>
    <v>       0.75000000       0.75000000       0.59169983 </v>
   </varray>
  </structure>
  <varray name="forces" >
   <v>      -0.03298884       0.14616362      -1.32799665 </v>
   <v>      -0.12312369      -0.10083660      -1.37573877 </v>
   <v>      -0.04284851       0.19849566      -0.24833638 </v>
   <v>      -0.01364952      -0.25184841      -1.37598263 </v>
   <v>      -0.24275448       0.13245142       1.61419059 </v>
   <v>       0.00164099       0.30266074      -1.60847961 </v>
   <v>      -0.38172025       0.05992086       1.35446999 </v>
   <v>       0.01346014      -0.13983504       1.34320424 </v>
   <v>      -0.13473795       0.39752409       1.61117421 </v>
   <v>      -0.33828753      -0.33696227      -0.29193422 </v>
   <v>      -0.19656172       0.47383065      -0.33996408 </v>
   <v>      -0.12292485      -0.22191120       1.89711803 </v>
   <v>       0.01050465       0.05889476      -0.03320462 </v>
   <v>       0.11383632       0.07392855      -1.64782129 </v>
   <v>       0.08927694       0.09608476       1.30547362 </v>
   <v>       0.06189139      -0.40499256      -0.31078785 </v>
   <v>       0.24209889       0.60750258      -0.58217425 </v>
   <v>       0.36370493      -0.23151674       1.87518624 </v>
   <v>      -0.13727272      -0.35980350      -1.58465005 </v>
   <v>       0.01531646       0.11005270      -1.40390195 </v>
   <v>       0.18867889      -0.05165848       0.53968292 </v>
   <v>       0.60508283      -0.32104540      -0.28555610 </v>
   <v>      -0.00785281      -0.20664824       0.19227304 </v>
   <v>       0.23525360       0.00046245       0.34339710 </v>
   <v>       0.22529220      -0.04117910       0.96153226 </v>
   <v>      -0.18908333      -0.01678184      -0.99711269 </v>
   <v>       0.13686575       0.02127497      -1.00435258 </v>
   <v>      -0.07008695      -0.15612595      -0.98942275 </v>
   <v>      -0.12987479       0.36115760       0.88922456 </v>
   <v>       0.19688792       0.24618752      -1.02411241 </v>
   <v>      -0.06573692      -0.01144863       0.33912285 </v>
   <v>       0.22102853       0.16041042       0.41995065 </v>
   <v>      -0.01989924      -0.18835390      -0.70823754 </v>
   <v>      -0.01289036      -0.16990136       0.89863993 </v>
   <v>      -0.24223916      -0.07537537       0.02359548 </v>
   <v>      -0.28852104       0.00714466       0.52827966 </v>
   <v>      -0.29107748       0.31451584      -0.82539240 </v>
   <v>       0.27299770       0.01342177       0.77710985 </v>
   <v>       0.06688541       0.25060627      -0.65739841 </v>
   <v>       0.01576906      -0.20098996       0.81252688 </v>
   <v>       0.10792201      -0.21666730      -0.87880610 </v>
   <v>      -0.05875416      -0.06438249       0.21820951 </v>
   <v>       0.04757319       0.05253644       0.86541349 </v>
   <v>       0.07148735      -0.25011073      -0.87641481 </v>
   <v>      -0.10573566       0.11751348       0.02347783 </v>
   <v>       0.23806029      -0.02746621       0.90453830 </v>
   <v>      -0.27813538      -0.12632431      -0.34157499 </v>
   <v>      -0.01475810      -0.03057621       0.98156191 </v>
  </varray>
  <energy>
   <i name="e_fr_energy">   -188.04008480 </i>
   <i name="e_wo_entrp">   -187.91718097 </i>
   <i name="e_0_energy">     -0.24580766 </i>
  </energy>
  <time name="totalsc">  210.76  211.90</time>
 </calculation>
 <calculation>
  <scstep>
   <time name="dav">    7.29    7.31</time>
   <time name="total">    7.55    7.58</time>
   <dipole>
    <v name="dipole">      0.00000000       0.00000000       0.00546230 </v>
    <i name="Tr[quadrupol]"> -10281.18085324 </i>
    <i name="Echarged">      0.00000000 </i>
    <i name="Edipol_quadrupol">      0.00000000 </i>
    <i name="Eion">      0.00000000 </i>
   </dipole>
   <energy>
    <i name="alphaZ">    805.86685632 </i>
    <i name="ewald"> 199227.49688050 </i>
    <i name="hartreedc">-241428.17649343 </i>
    <i name="XCdc">   -344.19870548 </i>
    <i name="pawpsdc">  49457.97495392 </i>
    <i name="pawaedc"> -47535.31907588 </i>
    <i name="eentropy">     -0.24523181 </i>
    <i name="bandstr">  -2031.82377669 </i>
    <i name="atom">  41659.78587232 </i>
    <i name="e_fr_energy">   -188.63872023 </i>
    <i name="e_wo_entrp">   -188.39348842 </i>
    <i name="e_0_energy">   -188.51610432 </i>
   </energy>
  </scstep>
  <scstep>
   <time name="diag">    1.28    1.28</time>
   <time name="diis">    3.43    3.44</time>
   <time name="orth">    0.34    0.34</time>
   <time name="total">    5.32    5.33</time>
   <dipole>
    <v name="dipole">      0.00000000       0.00000000       0.05483528 </v>
    <i name="Tr[quadrupol]"> -10281.04223950 </i>
    <i name="Echarged">      0.00000000 </i>
    <i name="Edipol_quadrupol">      0.00000000 </i>
    <i name="Eion">      0.00000000 </i>
   </dipole>
   <energy>
    <i name="e_fr_energy">   -188.86914713 </i>
    <i name="e_wo_entrp">   -188.62905641 </i>
    <i name="e_0_energy">   -188.74910177 </i>
   </energy>
  </scstep>
  <scstep>
   <time name="diag">    1.27    1.28</time>
   <time name="diis">    3.50    3.51</time>
   <time name="orth">    0.34    0.34</time>
   <time name="total">    5.38    5.40</time>
   <dipole>
    <v name="dipole">      0.00000000       0.00000000      -0.11910232 </v>
    <i name="Tr[quadrupol]"> -10281.18270214 </i>
    <i name="Echarged">      0.00000000 </i>
    <i name="Edipol_quadrupol">      0.00000000 </i>
    <i name="Eion">      0.00000000 </i>
   </dipole>
   <energy>
    <i name="e_fr_energy">   -189.11468579 </i>
    <i name="e_wo_entrp">   -188.89114736 </i>
    <i name="e_0_energy">   -189.00291658 </i>
   </energy>
  </scstep>
  <scstep>
   <time name="diag">    1.25    1.33</time>
   <time name="diis">    3.55    3.56</time>
   <time name="orth">    0.34    0.34</time>
   <time name="total">    5.41    5.50</time>
   <dipole>
    <v name="dipole">      0.00000000       0.00000000       0.01580357 </v>
    <i name="Tr[quadrupol]"> -10281.27451818 </i>
    <i name="Echarged">      0.00000000 </i>
    <i name="Edipol_quadrupol">      0.00000000 </i>
    <i name="Eion">      0.00000000 </i>
   </dipole>
   <energy>
    <i name="e_fr_energy">   -188.86536307 </i>
    <i name="e_wo_entrp">   -188.61772617 </i>
    <i name="e_0_energy">   -188.74154462 </i>
   </energy>
  </scstep>
  <scstep>
   <time name="diag">    1.27    1.28</time>
   <time name="diis">    3.44    3.45</time>
   <time name="orth">    0.34    0.34</time>
   <time name="total">    5.32    5.34</time>
   <dipole>
    <v name="dipole">      0.00000000       0.00000000       0.01095800 </v>
    <i name="Tr[quadrupol]"> -10281.17883519 </i>
    <i name="Echarged">      0.00000000 </i>
    <i name="Edipol_quadrupol">      0.00000000 </i>
    <i name="Eion">      0.00000000 </i>
   </dipole>
   <energy>
    <i name="e_fr_energy">   -188.85624265 </i>
    <i name="e_wo_entrp">   -188.61657795 </i>
    <i name="e_0_energy">   -188.73641030 </i>
   </energy>
  </scstep>
  <scstep>
   <time name="diag">    1.28    1.28</time>
   <time name="diis">    3.44    3.45</time>
   <time name="orth">    0.34    0.34</time>
   <time name="total">    5.33    5.34</time>
   <dipole>
    <v name="dipole">      0.00000000       0.00000000       0.02253053 </v>
    <i name="Tr[quadrupol]"> -10281.20943508 </i>
    <i name="Echarged">      0.00000000 </i>
    <i name="Edipol_quadrupol">      0.00000000 </i>
    <i name="Eion">      0.00000000 </i>
   </dipole>
   <energy>
    <i name="e_fr_energy">   -188.84869093 </i>
    <i name="e_wo_entrp">   -188.60201303 </i>
    <i name="e_0_energy">   -188.72535198 </i>
   </energy>
  </scstep>
  <scstep>
   <time name="diag">    1.28    1.28</time>
   <time name="diis">    3.48    3.49</time>
   <time name="orth">    0.35    0.35</time>
   <time name="total">    5.36    5.38</time>
   <dipole>
    <v name="dipole">      0.00000000       0.00000000       0.02160501 </v>
    <i name="Tr[quadrupol]"> -10281.19890043 </i>
    <i name="Echarged">      0.00000000 </i>
    <i name="Edipol_quadrupol">      0.00000000 </i>
    <i name="Eion">      0.00000000 </i>
   </dipole>
   <energy>
    <i name="e_fr_energy">   -188.84462505 </i>
    <i name="e_wo_entrp">   -188.60060996 </i>
    <i name="e_0_energy">   -188.72261750 </i>
   </energy>
  </scstep>
  <scstep>
   <time name="diag">    1.27    1.28</time>
   <time name="diis">    3.46    3.47</time>
   <time name="orth">    0.34    0.34</time>
   <time name="total">    5.34    5.35</time>
   <dipole>
    <v name="dipole">      0.00000000       0.00000000       0.01416841 </v>
    <i name="Tr[quadrupol]"> -10281.18836821 </i>
    <i name="Echarged">      0.00000000 </i>
    <i name="Edipol_quadrupol">      0.00000000 </i>
    <i name="Eion">      0.00000000 </i>
   </dipole>
   <energy>
    <i name="e_fr_energy">   -188.84306170 </i>
    <i name="e_wo_entrp">   -188.59749721 </i>
    <i name="e_0_energy">   -188.72027945 </i>
   </energy>
  </scstep>
  <scstep>
   <time name="diag">    1.27    1.27</time>
   <time name="diis">    3.48    3.50</time>
   <time name="orth">    0.34    0.34</time>
   <time name="total">    5.35    5.38</time>
   <dipole>
    <v name="dipole">      0.00000000       0.00000000       0.01374887 </v>
    <i name="Tr[quadrupol]"> -10281.18439786 </i>
    <i name="Echarged">      0.00000000 </i>
    <i name="Edipol_quadrupol">      0.00000000 </i>
    <i name="Eion">      0.00000000 </i>
   </dipole>
   <energy>
    <i name="e_fr_energy">   -188.84279239 </i>
    <i name="e_wo_entrp">   -188.59749329 </i>
    <i name="e_0_energy">   -188.72014284 </i>
   </energy>
  </scstep>
  <scstep>
   <time name="diag">    1.28    1.28</time>
   <time name="diis">    3.42    3.43</time>
   <time name="orth">    0.34    0.34</time>
   <time name="total">    5.30    5.32</time>
   <dipole>
    <v name="dipole">      0.00000000       0.00000000       0.01436630 </v>
    <i name="Tr[quadrupol]"> -10281.18479687 </i>
    <i name="Echarged">      0.00000000 </i>
    <i name="Edipol_quadrupol">      0.00000000 </i>
    <i name="Eion">      0.00000000 </i>
   </dipole>
   <energy>
    <i name="e_fr_energy">   -188.84267541 </i>
    <i name="e_wo_entrp">   -188.59709493 </i>
    <i name="e_0_energy">   -188.71988517 </i>
   </energy>
  </scstep>
  <scstep>
   <time name="diag">    1.27    1.28</time>
   <time name="diis">    3.48    3.58</time>
   <time name="orth">    0.34    0.34</time>
   <time name="total">    5.37    5.47</time>
   <dipole>
    <v name="dipole">      0.00000000       0.00000000       0.01450004 </v>
    <i name="Tr[quadrupol]"> -10281.18471295 </i>
    <i name="Echarged">      0.00000000 </i>
    <i name="Edipol_quadrupol">      0.00000000 </i>
    <i name="Eion">      0.00000000 </i>
   </dipole>
   <energy>
    <i name="e_fr_energy">   -188.84264788 </i>
    <i name="e_wo_entrp">   -188.59720089 </i>
    <i name="e_0_energy">   -188.71992438 </i>
   </energy>
  </scstep>
  <scstep>
   <time name="diag">    1.27    1.28</time>
   <time name="diis">    3.54    3.55</time>
   <time name="orth">    0.34    0.34</time>
   <time name="total">    5.42    5.44</time>
   <dipole>
    <v name="dipole">      0.00000000       0.00000000       0.01429997 </v>
    <i name="Tr[quadrupol]"> -10281.18818780 </i>
    <i name="Echarged">      0.00000000 </i>
    <i name="Edipol_quadrupol">      0.00000000 </i>
    <i name="Eion">      0.00000000 </i>
   </dipole>
   <energy>
    <i name="e_fr_energy">   -188.84264695 </i>
    <i name="e_wo_entrp">   -188.59720627 </i>
    <i name="e_0_energy">   -188.71992661 </i>
   </energy>
  </scstep>
  <scstep>
   <time name="diag">    1.27    1.28</time>
   <time name="diis">    3.27    3.28</time>
   <time name="orth">    0.34    0.34</time>
   <time name="total">    5.16    5.17</time>
   <dipole>
    <v name="dipole">      0.00000000       0.00000000       0.01415614 </v>
    <i name="Tr[quadrupol]"> -10281.19003423 </i>
    <i name="Echarged">      0.00000000 </i>
    <i name="Edipol_quadrupol">      0.00000000 </i>
    <i name="Eion">      0.00000000 </i>
   </dipole>
   <energy>
    <i name="e_fr_energy">   -188.84263963 </i>
    <i name="e_wo_entrp">   -188.59722998 </i>
    <i name="e_0_energy">   -188.71993480 </i>
   </energy>
  </scstep>
  <scstep>
   <time name="diag">    1.28    1.29</time>
   <time name="diis">    2.41    2.41</time>
   <time name="orth">    0.34    0.34</time>
   <time name="total">    4.08    4.10</time>
   <dipole>
    <v name="dipole">      0.00000000       0.00000000       0.01409100 </v>
    <i name="Tr[quadrupol]"> -10281.19259054 </i>
    <i name="Echarged">      0.00000000 </i>
    <i name="Edipol_quadrupol">      0.00000000 </i>
    <i name="Eion">      0.00000000 </i>
   </dipole>
   <energy>
    <i name="alphaZ">    805.86289023 </i>
    <i name="ewald"> 199227.49688050 </i>
    <i name="hartreedc">-241428.64308834 </i>
    <i name="XCdc">   -344.16764265 </i>
    <i name="pawpsdc">  49216.72800958 </i>
    <i name="pawaedc"> -47292.48663089 </i>
    <i name="eentropy">     -0.24540254 </i>
    <i name="bandstr">  -2033.17352878 </i>
    <i name="atom">  41659.78587232 </i>
    <i name="e_fr_energy">   -188.84264056 </i>
    <i name="e_wo_entrp">   -188.59723802 </i>
    <i name="e_0_energy">   -188.71993929 </i>
   </energy>
  </scstep>
  <structure>
   <crystal>
    <varray name="basis" >
     <v>      11.00258152       0.00000000       0.00000000 </v>
     <v>       5.50129076       9.52851510       0.00000000 </v>
     <v>       0.00000000       0.00000000      24.49178509 </v>
    </varray>
    <i name="volume">   2567.67623402 </i>
    <varray name="rec_basis" >
     <v>       0.09088776      -0.05247407       0.00000000 </v>
     <v>       0.00000000       0.10494815       0.00000000 </v>
     <v>       0.00000000       0.00000000       0.04083002 </v>
    </varray>
   </crystal>
   <varray name="positions" >
    <v>       0.08333333       0.08333333       0.40830017 </v>
    <v>       0.33333333       0.08333333       0.40830017 </v>
    <v>       0.91618341       0.66737015       0.49965759 </v>
    <v>       0.08333333       0.83333333       0.40830017 </v>
    <v>      -0.00097979       0.50046942       0.59392552 </v>
    <v>       0.33333333       0.33333333       0.40830017 </v>
    <v>      -0.00127778       0.25021236       0.59356741 </v>
    <v>       0.25028911      -0.00049559       0.59355187 </v>
    <v>       0.24888202       0.75140886       0.59392136 </v>
    <v>       0.16622548       0.41547244       0.49959747 </v>
    <v>       0.16522372       0.66834596       0.49953125 </v>
    <v>       0.25001595       0.49921353       0.59431562 </v>
    <v>       0.16659454       0.16687539       0.49995422 </v>
    <v>       0.58333333       0.08333333       0.40830017 </v>
    <v>       0.50010375       0.00034053       0.59349985 </v>
    <v>       0.41757429       0.41523134       0.49957148 </v>
    <v>       0.41633321       0.66881971       0.49919728 </v>
    <v>       0.50152656       0.49917949       0.59428538 </v>
    <v>       0.58333333       0.83333333       0.40830017 </v>
    <v>       0.83333333       0.08333333       0.40830017 </v>
    <v>       0.66733731       0.16648358       0.50074413 </v>
    <v>       0.66909273       0.41552885       0.49960627 </v>
    <v>       0.66700875       0.66593429       0.50026511 </v>
    <v>       0.66738790       0.91666831       0.50047348 </v>
    <v>       0.25076445       0.24985406       0.59302561 </v>
    <v>       0.08333333       0.58333333       0.40830017 </v>
    <v>       0.33333333       0.58333333       0.40830017 </v>
    <v>       0.58333333       0.58333333       0.40830017 </v>
    <v>      -0.00103861       0.75127997       0.59292591 </v>
    <v>       0.58333333       0.33333333       0.40830017 </v>
    <v>       0.41648519       0.16662609       0.50046759 </v>
    <v>       0.91706081       0.91723517       0.50057904 </v>
    <v>       0.33333333       0.83333333       0.40830017 </v>
    <v>       0.50026151       0.24939786       0.59293890 </v>
    <v>       0.41605674       0.91639953       0.50003253 </v>
    <v>      -0.00089821       0.00002532       0.59242824 </v>
    <v>       0.08333333       0.33333333       0.40830017 </v>
    <v>       0.75081412       0.00004757       0.59277133 </v>
    <v>       0.83333333       0.33333333       0.40830017 </v>
    <v>       0.75040456       0.24928767       0.59282016 </v>
    <v>       0.83333333       0.58333333       0.40830017 </v>
    <v>       0.91660042       0.16643849       0.50030087 </v>
    <v>       0.75005292       0.50018619       0.59289308 </v>
    <v>       0.83333333       0.83333333       0.40830017 </v>
    <v>       0.16613390       0.91708314       0.50003237 </v>
    <v>       0.50077934       0.74990266       0.59294703 </v>
    <v>       0.91603685       0.41621896       0.49952903 </v>
    <v>       0.75000889       0.74989164       0.59305323 </v>
   </varray>
  </structure>
  <varray name="forces" >
   <v>      -0.04516926       0.15587171      -1.31481594 </v>
   <v>      -0.09419978      -0.10114949      -1.34448029 </v>
   <v>      -0.01488903       0.00469231       0.15150860 </v>
   <v>      -0.03291310      -0.19108913      -1.42520437 </v>
   <v>      -0.11167538       0.08290281       1.07997793 </v>
   <v>      -0.00403231       0.26150742      -1.63947875 </v>
   <v>      -0.18011671       0.02651942       1.00393276 </v>
   <v>       0.00385132      -0.01437747       0.99944486 </v>
   <v>      -0.07604786       0.08189169       1.10271588 </v>
   <v>      -0.19163749      -0.01644679       0.26727466 </v>
   <v>      -0.01519304       0.06228430       0.27441969 </v>
   <v>      -0.03117799      -0.05896095       1.20624568 </v>
   <v>      -0.07613529      -0.01893036       0.36185976 </v>
   <v>       0.13112967       0.07936499      -1.51783575 </v>
   <v>       0.07206751       0.01687415       0.99401932 </v>
   <v>       0.09549604       0.02041583       0.29228125 </v>
   <v>       0.00739309       0.15109322       0.11994076 </v>
   <v>       0.17165053      -0.07843993       1.14875329 </v>
   <v>      -0.10862607      -0.35225724      -1.48735222 </v>
   <v>      -0.01229311       0.10860344      -1.33302962 </v>
   <v>       0.10274698      -0.04174175       0.49798290 </v>
   <v>       0.18340364      -0.10007644       0.13752792 </v>
   <v>       0.03363210      -0.08853389       0.33895369 </v>
   <v>       0.06528613       0.02251369       0.44979859 </v>
   <v>       0.05693156      -0.00451817       0.74282421 </v>
   <v>      -0.19093123      -0.03094758      -1.03039265 </v>
   <v>       0.12854773       0.00445815      -1.00286331 </v>
   <v>      -0.04477076      -0.16731688      -1.02696610 </v>
   <v>      -0.09068130       0.15579866       0.68314508 </v>
   <v>       0.21270396       0.20139415      -1.01705564 </v>
   <v>      -0.03138896      -0.10538278       0.42203574 </v>
   <v>       0.14022104       0.14117993       0.37903253 </v>
   <v>      -0.02598294      -0.12665672      -0.79953841 </v>
   <v>       0.01756962      -0.06753846       0.73427602 </v>
   <v>      -0.09103889       0.03452428       0.28260971 </v>
   <v>      -0.15296512       0.03032413       0.49479230 </v>
   <v>      -0.30666529       0.29601102      -0.90538997 </v>
   <v>       0.14432295      -0.00253176       0.71478694 </v>
   <v>       0.08096647       0.20691936      -0.75121531 </v>
   <v>      -0.00625432      -0.09340245       0.70039135 </v>
   <v>       0.09493468      -0.20046259      -0.89933834 </v>
   <v>       0.05849430      -0.07055791       0.31193737 </v>
   <v>       0.01660202       0.02765601       0.68552449 </v>
   <v>       0.07627076      -0.20322981      -0.85387324 </v>
   <v>      -0.02715254       0.11550005       0.27323535 </v>
   <v>       0.12208136      -0.04517355       0.68943350 </v>
   <v>      -0.05811045      -0.10173227       0.04363319 </v>
   <v>       0.00374475      -0.00684634       0.76453459 </v>
  </varray>
  <energy>
   <i name="e_fr_energy">   -188.84264056 </i>
   <i name="e_wo_entrp">   -188.71993929 </i>
   <i name="e_0_energy">     -0.24540254 </i>
  </energy>
  <time name="totalsc">   78.15   78.58</time>
 </calculation>
 <calculation>
  <scstep>
   <time name="dav">    7.18    7.21</time>
   <time name="total">    7.44    7.48</time>
   <dipole>
    <v name="dipole">      0.00000000       0.00000000       0.01393557 </v>
    <i name="Tr[quadrupol]"> -10217.62204508 </i>
    <i name="Echarged">      0.00000000 </i>
    <i name="Edipol_quadrupol">      0.00000000 </i>
    <i name="Eion">      0.00000000 </i>
   </dipole>
   <energy>
    <i name="alphaZ">    805.84477524 </i>
    <i name="ewald"> 195280.24137413 </i>
    <i name="hartreedc">-237502.43696117 </i>
    <i name="XCdc">   -346.88098409 </i>
    <i name="pawpsdc">  49216.64463931 </i>
    <i name="pawaedc"> -47292.40339034 </i>
    <i name="eentropy">     -0.24150424 </i>
    <i name="bandstr">  -2008.43289661 </i>
    <i name="atom">  41659.78587232 </i>
    <i name="e_fr_energy">   -187.87907545 </i>
    <i name="e_wo_entrp">   -187.63757121 </i>
    <i name="e_0_energy">   -187.75832333 </i>
   </energy>
  </scstep>
  <scstep>
   <time name="diag">    1.28    1.28</time>
   <time name="diis">    3.45    3.46</time>
   <time name="orth">    0.34    0.34</time>
   <time name="total">    5.33    5.35</time>
   <dipole>
    <v name="dipole">      0.00000000       0.00000000       0.11334036 </v>
    <i name="Tr[quadrupol]"> -10217.15861624 </i>
    <i name="Echarged">      0.00000000 </i>
    <i name="Edipol_quadrupol">      0.00000000 </i>
    <i name="Eion">      0.00000000 </i>
   </dipole>
   <energy>
    <i name="e_fr_energy">   -189.72609742 </i>
    <i name="e_wo_entrp">   -189.49584302 </i>
    <i name="e_0_energy">   -189.61097022 </i>
   </energy>
  </scstep>
  <scstep>
   <time name="diag">    1.28    1.28</time>
   <time name="diis">    3.55    3.55</time>
   <time name="orth">    0.34    0.34</time>
   <time name="total">    5.43    5.44</time>
   <dipole>
    <v name="dipole">      0.00000000       0.00000000      -0.18249231 </v>
    <i name="Tr[quadrupol]"> -10217.71846574 </i>
    <i name="Echarged">      0.00000000 </i>
    <i name="Edipol_quadrupol">      0.00000000 </i>
    <i name="Eion">      0.00000000 </i>
   </dipole>
   <energy>
    <i name="e_fr_energy">   -190.32583803 </i>
    <i name="e_wo_entrp">   -190.10286585 </i>
    <i name="e_0_energy">   -190.21435194 </i>
   </energy>
  </scstep>
  <scstep>
   <time name="diag">    1.28    1.28</time>
   <time name="diis">    3.39    3.47</time>
   <time name="orth">    0.34    0.34</time>
   <time name="total">    5.26    5.36</time>
   <dipole>
    <v name="dipole">      0.00000000       0.00000000       0.08932741 </v>
    <i name="Tr[quadrupol]"> -10217.70009318 </i>
    <i name="Echarged">      0.00000000 </i>
    <i name="Edipol_quadrupol">      0.00000000 </i>
    <i name="Eion">      0.00000000 </i>
   </dipole>
   <energy>
    <i name="e_fr_energy">   -189.71504412 </i>
    <i name="e_wo_entrp">   -189.48270305 </i>
    <i name="e_0_energy">   -189.59887358 </i>
   </energy>
  </scstep>
  <scstep>
   <time name="diag">    1.27    1.28</time>
   <time name="diis">    3.45    3.46</time>
   <time name="orth">    0.34    0.34</time>
   <time name="total">    5.33    5.34</time>
   <dipole>
    <v name="dipole">      0.00000000       0.00000000       0.02309091 </v>
    <i name="Tr[quadrupol]"> -10217.54013297 </i>
    <i name="Echarged">      0.00000000 </i>
    <i name="Edipol_quadrupol">      0.00000000 </i>
    <i name="Eion">      0.00000000 </i>
   </dipole>
   <energy>
    <i name="e_fr_energy">   -189.64298607 </i>
    <i name="e_wo_entrp">   -189.41446713 </i>
    <i name="e_0_energy">   -189.52872660 </i>
   </energy>
  </scstep>
  <scstep>
   <time name="diag">    1.27    1.28</time>
   <time name="diis">    3.38    3.40</time>
   <time name="orth">    0.34    0.34</time>
   <time name="total">    5.26    5.29</time>
   <dipole>
    <v name="dipole">      0.00000000       0.00000000       0.07096373 </v>
    <i name="Tr[quadrupol]"> -10217.67186204 </i>
    <i name="Echarged">      0.00000000 </i>
    <i name="Edipol_quadrupol">      0.00000000 </i>
    <i name="Eion">      0.00000000 </i>
   </dipole>
   <energy>
    <i name="e_fr_energy">   -189.61230795 </i>
    <i name="e_wo_entrp">   -189.36903363 </i>
    <i name="e_0_energy">   -189.49067079 </i>
   </energy>
  </scstep>
  <scstep>
   <time name="diag">    1.27    1.28</time>
   <time name="diis">    3.47    3.48</time>
   <time name="orth">    0.34    0.35</time>
   <time name="total">    5.35    5.37</time>
   <dipole>
    <v name="dipole">      0.00000000       0.00000000       0.05907526 </v>
    <i name="Tr[quadrupol]"> -10217.60635910 </i>
    <i name="Echarged">      0.00000000 </i>
    <i name="Edipol_quadrupol">      0.00000000 </i>
    <i name="Eion">      0.00000000 </i>
   </dipole>
   <energy>
    <i name="e_fr_energy">   -189.59767641 </i>
    <i name="e_wo_entrp">   -189.36087831 </i>
    <i name="e_0_energy">   -189.47927736 </i>
   </energy>
  </scstep>
  <scstep>
   <time name="diag">    1.28    1.28</time>
   <time name="diis">    3.44    3.45</time>
   <time name="orth">    0.34    0.34</time>
   <time name="total">    5.32    5.34</time>
   <dipole>
    <v name="dipole">      0.00000000       0.00000000       0.03807110 </v>
    <i name="Tr[quadrupol]"> -10217.58900428 </i>
    <i name="Echarged">      0.00000000 </i>
    <i name="Edipol_quadrupol">      0.00000000 </i>
    <i name="Eion">      0.00000000 </i>
   </dipole>
   <energy>
    <i name="e_fr_energy">   -189.58092415 </i>
    <i name="e_wo_entrp">   -189.33714988 </i>
    <i name="e_0_energy">   -189.45903701 </i>
   </energy>
  </scstep>
  <scstep>
   <time name="diag">    1.27    1.28</time>
   <time name="diis">    3.40    3.44</time>
   <time name="orth">    0.34    0.34</time>
   <time name="total">    5.28    5.33</time>
   <dipole>
    <v name="dipole">      0.00000000       0.00000000       0.03994328 </v>
    <i name="Tr[quadrupol]"> -10217.57754376 </i>
    <i name="Echarged">      0.00000000 </i>
    <i name="Edipol_quadrupol">      0.00000000 </i>
    <i name="Eion">      0.00000000 </i>
   </dipole>
   <energy>
[...]
       <r>    -9.4145     0.0000     0.0000 </r>
       <r>    -9.3601     0.0000     0.0000 </r>
       <r>    -9.3058     0.0000     0.0000 </r>
       <r>    -9.2514     0.0000     0.0000 </r>
       <r>    -9.1971     0.0002     0.0000 </r>
       <r>    -9.1428     0.0053     0.0003 </r>
       <r>    -9.0884     0.0654     0.0039 </r>
       <r>    -9.0341     0.4614     0.0289 </r>
       <r>    -8.9797     1.8499     0.1295 </r>
       <r>    -8.9254     4.2287     0.3592 </r>
       <r>    -8.8710     5.5651     0.6617 </r>
       <r>    -8.8167     4.5439     0.9086 </r>
       <r>    -8.7624     3.5606     1.1021 </r>
       <r>    -8.7080     4.6000     1.3520 </r>
       <r>    -8.6537     5.5352     1.6528 </r>
       <r>    -8.5993     4.1173     1.8766 </r>
       <r>    -8.5450     1.7708     1.9728 </r>
       <r>    -8.4907     0.4576     1.9977 </r>
       <r>    -8.4363     0.2624     2.0119 </r>
       <r>    -8.3820     1.0482     2.0689 </r>
       <r>    -8.3276     3.0871     2.2367 </r>
       <r>    -8.2733     5.2420     2.5215 </r>
       <r>    -8.2189     5.2947     2.8092 </r>
       <r>    -8.1646     4.0699     3.0304 </r>
       <r>    -8.1103     4.8545     3.2942 </r>
       <r>    -8.0559     8.0477     3.7315 </r>
       <r>    -8.0016    10.0727     4.2789 </r>
       <r>    -7.9472     8.1768     4.7232 </r>
       <r>    -7.8929     4.7153     4.9795 </r>
       <r>    -7.8386     3.5732     5.1736 </r>
       <r>    -7.7842     4.8659     5.4381 </r>
       <r>    -7.7299     6.1682     5.7733 </r>
       <r>    -7.6755     6.2684     6.1139 </r>
       <r>    -7.6212     6.0573     6.4431 </r>
       <r>    -7.5668     6.8709     6.8164 </r>
       <r>    -7.5125     9.0772     7.3097 </r>
       <r>    -7.4582    11.8657     7.9545 </r>
       <r>    -7.4038    13.5205     8.6892 </r>
       <r>    -7.3495    14.1044     9.4557 </r>
       <r>    -7.2951    15.4489    10.2952 </r>
       <r>    -7.2408    17.7992    11.2624 </r>
       <r>    -7.1865    20.1005    12.3547 </r>
       <r>    -7.1321    22.0034    13.5504 </r>
       <r>    -7.0778    24.3429    14.8733 </r>
       <r>    -7.0234    26.7580    16.3274 </r>
       <r>    -6.9691    28.0621    17.8523 </r>
       <r>    -6.9147    28.8729    19.4213 </r>
       <r>    -6.8604    30.5868    21.0834 </r>
       <r>    -6.8061    34.1903    22.9414 </r>
       <r>    -6.7517    39.0046    25.0610 </r>
       <r>    -6.6974    42.7619    27.3847 </r>
       <r>    -6.6430    44.1766    29.7854 </r>
       <r>    -6.5887    44.5116    32.2042 </r>
       <r>    -6.5344    46.6448    34.7390 </r>
       <r>    -6.4800    51.4607    37.5354 </r>
       <r>    -6.4257    58.0512    40.6900 </r>
       <r>    -6.3713    66.0321    44.2783 </r>
       <r>    -6.3170    73.8744    48.2928 </r>
       <r>    -6.2626    78.4130    52.5539 </r>
       <r>    -6.2083    79.5203    56.8751 </r>
       <r>    -6.1540    80.5362    61.2516 </r>
       <r>    -6.0996    82.3962    65.7291 </r>
       <r>    -6.0453    82.9641    70.2375 </r>
       <r>    -5.9909    81.5380    74.6685 </r>
       <r>    -5.9366    80.0085    79.0163 </r>
       <r>    -5.8823    78.8503    83.3011 </r>
       <r>    -5.8279    76.0507    87.4338 </r>
       <r>    -5.7736    71.2722    91.3069 </r>
       <r>    -5.7192    66.3876    94.9145 </r>
       <r>    -5.6649    63.2005    98.3489 </r>
       <r>    -5.6105    61.8224   101.7084 </r>
       <r>    -5.5562    60.7418   105.0092 </r>
       <r>    -5.5019    59.9969   108.2696 </r>
       <r>    -5.4475    61.2653   111.5988 </r>
       <r>    -5.3932    64.6270   115.1108 </r>
       <r>    -5.3388    68.8805   118.8539 </r>
       <r>    -5.2845    73.8963   122.8695 </r>
       <r>    -5.2302    78.6966   127.1460 </r>
       <r>    -5.1758    79.7301   131.4787 </r>
       <r>    -5.1215    77.3324   135.6810 </r>
       <r>    -5.0671    77.0319   139.8671 </r>
       <r>    -5.0128    80.2080   144.2257 </r>
       <r>    -4.9584    82.7264   148.7212 </r>
       <r>    -4.9041    82.9863   153.2308 </r>
       <r>    -4.8498    83.3275   157.7590 </r>
       <r>    -4.7954    84.3619   162.3433 </r>
       <r>    -4.7411    84.9831   166.9615 </r>
       <r>    -4.6867    85.4186   171.6033 </r>
       <r>    -4.6324    85.5304   176.2511 </r>
       <r>    -4.5781    84.5338   180.8448 </r>
       <r>    -4.5237    83.2494   185.3687 </r>
       <r>    -4.4694    83.7819   189.9216 </r>
       <r>    -4.4150    86.3021   194.6114 </r>
       <r>    -4.3607    88.5484   199.4233 </r>
       <r>    -4.3063    89.8679   204.3068 </r>
       <r>    -4.2520    91.7471   209.2925 </r>
       <r>    -4.1977    94.6878   214.4380 </r>
       <r>    -4.1433    96.4838   219.6811 </r>
       <r>    -4.0890    94.4002   224.8110 </r>
       <r>    -4.0346    89.6626   229.6834 </r>
       <r>    -3.9803    86.5870   234.3887 </r>
       <r>    -3.9260    86.3189   239.0794 </r>
       <r>    -3.8716    87.1553   243.8155 </r>
       <r>    -3.8173    88.2392   248.6106 </r>
       <r>    -3.7629    89.2216   253.4591 </r>
       <r>    -3.7086    90.2449   258.3631 </r>
       <r>    -3.6542    91.8188   263.3527 </r>
       <r>    -3.5999    94.2178   268.4727 </r>
       <r>    -3.5456    97.1043   273.7495 </r>
       <r>    -3.4912    99.2569   279.1433 </r>
       <r>    -3.4369    98.7192   284.5078 </r>
       <r>    -3.3825    95.3180   289.6876 </r>
       <r>    -3.3282    92.1344   294.6943 </r>
       <r>    -3.2739    91.6905   299.6769 </r>
       <r>    -3.2195    92.4914   304.7030 </r>
       <r>    -3.1652    91.0237   309.6494 </r>
       <r>    -3.1108    86.4316   314.3463 </r>
       <r>    -3.0565    82.3154   318.8194 </r>
       <r>    -3.0021    82.3766   323.2959 </r>
       <r>    -2.9478    85.8683   327.9621 </r>
       <r>    -2.8935    90.2713   332.8676 </r>
       <r>    -2.8391    94.7103   338.0143 </r>
       <r>    -2.7848    98.8805   343.3877 </r>
       <r>    -2.7304   102.0029   348.9307 </r>
       <r>    -2.6761   103.1349   354.5352 </r>
       <r>    -2.6218   101.8025   360.0673 </r>
       <r>    -2.5674    98.7787   365.4351 </r>
       <r>    -2.5131    95.6005   370.6302 </r>
       <r>    -2.4587    92.8205   375.6742 </r>
       <r>    -2.4044    90.0477   380.5676 </r>
       <r>    -2.3500    87.9776   385.3484 </r>
       <r>    -2.2957    87.7339   390.1160 </r>
       <r>    -2.2414    88.6825   394.9352 </r>
       <r>    -2.1870    89.2324   399.7842 </r>
       <r>    -2.1327    90.3808   404.6956 </r>
       <r>    -2.0783    94.7531   409.8447 </r>
       <r>    -2.0240   100.7338   415.3187 </r>
       <r>    -1.9697   104.2236   420.9824 </r>
       <r>    -1.9153   104.2732   426.6488 </r>
       <r>    -1.8610   103.1297   432.2530 </r>
       <r>    -1.8066   104.1107   437.9106 </r>
       <r>    -1.7523   107.8114   443.7692 </r>
       <r>    -1.6979   110.7430   449.7872 </r>
       <r>    -1.6436   111.6272   455.8532 </r>
       <r>    -1.5893   111.9010   461.9341 </r>
       <r>    -1.5349   110.4665   467.9370 </r>
       <r>    -1.4806   106.0431   473.6996 </r>
       <r>    -1.4262   100.0887   479.1386 </r>
       <r>    -1.3719    94.2110   484.2581 </r>
       <r>    -1.3176    88.4445   489.0644 </r>
       <r>    -1.2632    81.3107   493.4829 </r>
       <r>    -1.2089    72.0441   497.3979 </r>
       <r>    -1.1545    61.7338   500.7526 </r>
       <r>    -1.1002    51.0807   503.5284 </r>
       <r>    -1.0458    40.7902   505.7450 </r>
       <r>    -0.9915    30.9342   507.4261 </r>
       <r>    -0.9372    20.9180   508.5628 </r>
       <r>    -0.8828    12.7163   509.2538 </r>
       <r>    -0.8285     8.6300   509.7228 </r>
       <r>    -0.7741     7.8172   510.1476 </r>
       <r>    -0.7198     8.4399   510.6062 </r>
       <r>    -0.6655     9.7876   511.1381 </r>
       <r>    -0.6111    12.1281   511.7971 </r>
       <r>    -0.5568    16.0406   512.6688 </r>
       <r>    -0.5024    20.9031   513.8047 </r>
       <r>    -0.4481    24.4393   515.1328 </r>
       <r>    -0.3937    24.8458   516.4830 </r>
       <r>    -0.3394    22.9698   517.7312 </r>
       <r>    -0.2851    21.8374   518.9178 </r>
       <r>    -0.2307    22.1677   520.1225 </r>
       <r>    -0.1764    20.2702   521.2240 </r>
       <r>    -0.1220    14.9877   522.0385 </r>
       <r>    -0.0677    10.1112   522.5879 </r>
       <r>    -0.0134     7.8389   523.0139 </r>
       <r>     0.0410     7.7986   523.4377 </r>
       <r>     0.0953     9.4311   523.9502 </r>
       <r>     0.1497    12.3256   524.6200 </r>
       <r>     0.2040    15.0890   525.4399 </r>
       <r>     0.2584    15.7087   526.2936 </r>
       <r>     0.3127    15.1727   527.1181 </r>
       <r>     0.3670    15.9232   527.9834 </r>
       <r>     0.4214    17.9471   528.9587 </r>
       <r>     0.4757    20.9368   530.0964 </r>
       <r>     0.5301    24.5677   531.4314 </r>
       <r>     0.5844    27.0114   532.8993 </r>
       <r>     0.6387    27.6602   534.4024 </r>
       <r>     0.6931    26.8127   535.8594 </r>
       <r>     0.7474    24.3805   537.1843 </r>
       <r>     0.8018    21.2001   538.3364 </r>
       <r>     0.8561    17.4450   539.2844 </r>
       <r>     0.9105    12.9982   539.9907 </r>
       <r>     0.9648     9.9071   540.5291 </r>
       <r>     1.0191     9.4909   541.0448 </r>
       <r>     1.0735     9.9450   541.5852 </r>
       <r>     1.1278     8.7731   542.0620 </r>
       <r>     1.1822     6.2621   542.4023 </r>
       <r>     1.2365     4.5577   542.6500 </r>
       <r>     1.2908     4.6975   542.9052 </r>
       <r>     1.3452     6.6595   543.2671 </r>
       <r>     1.3995     9.7340   543.7961 </r>
       <r>     1.4539    12.4010   544.4700 </r>
       <r>     1.5082    13.7249   545.2158 </r>
       <r>     1.5626    14.2175   545.9884 </r>
       <r>     1.6169    14.3004   546.7655 </r>
       <r>     1.6712    14.0646   547.5298 </r>
       <r>     1.7256    14.4996   548.3177 </r>
       <r>     1.7799    16.3141   549.2043 </r>
       <r>     1.8343    17.8293   550.1731 </r>
       <r>     1.8886    16.1554   551.0511 </r>
       <r>     1.9429    12.0939   551.7083 </r>
       <r>     1.9973     9.6627   552.2333 </r>
       <r>     2.0516    10.0080   552.7772 </r>
       <r>     2.1060    11.0335   553.3768 </r>
       <r>     2.1603    13.0701   554.0870 </r>
       <r>     2.2147    18.3261   555.0829 </r>
       <r>     2.2690    25.5042   556.4688 </r>
       <r>     2.3233    29.7984   558.0881 </r>
       <r>     2.3777    28.6100   559.6428 </r>
       <r>     2.4320    24.8674   560.9942 </r>
       <r>     2.4864    22.2116   562.2012 </r>
       <r>     2.5407    20.3500   563.3071 </r>
       <r>     2.5950    19.1285   564.3465 </r>
       <r>     2.6494    20.1136   565.4395 </r>
       <r>     2.7037    21.5629   566.6113 </r>
       <r>     2.7581    19.6617   567.6797 </r>
       <r>     2.8124    14.1981   568.4513 </r>
       <r>     2.8668     8.7350   568.9260 </r>
       <r>     2.9211     6.3323   569.2701 </r>
       <r>     2.9754     5.9602   569.5940 </r>
       <r>     3.0298     4.7945   569.8545 </r>
       <r>     3.0841     3.3533   570.0367 </r>
       <r>     3.1385     4.1370   570.2615 </r>
       <r>     3.1928     7.6236   570.6758 </r>
       <r>     3.2471    11.7043   571.3118 </r>
       <r>     3.3015    13.2689   572.0329 </r>
       <r>     3.3558    11.2239   572.6428 </r>
       <r>     3.4102     8.2299   573.0900 </r>
       <r>     3.4645     7.7334   573.5103 </r>
       <r>     3.5189    10.3281   574.0715 </r>
       <r>     3.5732    14.6631   574.8683 </r>
       <r>     3.6275    19.4100   575.9231 </r>
       <r>     3.6819    22.5857   577.1505 </r>
       <r>     3.7362    22.0195   578.3470 </r>
       <r>     3.7906    18.4642   579.3504 </r>
       <r>     3.8449    14.5548   580.1413 </r>
       <r>     3.8992    11.9025   580.7882 </r>
       <r>     3.9536    12.0586   581.4434 </r>
       <r>     4.0079    14.8665   582.2513 </r>
       <r>     4.0623    15.7409   583.1067 </r>
       <r>     4.1166    12.4481   583.7832 </r>
       <r>     4.1710     9.7275   584.3118 </r>
       <r>     4.2253    10.3544   584.8744 </r>
       <r>     4.2796    10.6021   585.4506 </r>
       <r>     4.3340     8.6643   585.9214 </r>
       <r>     4.3883     8.0284   586.3577 </r>
       <r>     4.4427    10.4117   586.9235 </r>
       <r>     4.4970    14.2097   587.6957 </r>
       <r>     4.5513    19.5846   588.7599 </r>
       <r>     4.6057    26.3365   590.1911 </r>
       <r>     4.6600    29.8881   591.8153 </r>
       <r>     4.7144    27.4182   593.3052 </r>
       <r>     4.7687    23.3579   594.5745 </r>
       <r>     4.8231    22.6478   595.8052 </r>
       <r>     4.8774    24.7441   597.1499 </r>
       <r>     4.9317    26.6005   598.5954 </r>
       <r>     4.9861    28.2120   600.1285 </r>
       <r>     5.0404    31.4593   601.8380 </r>
       <r>     5.0948    33.4706   603.6569 </r>
       <r>     5.1491    31.3473   605.3603 </r>
       <r>     5.2034    29.7994   606.9797 </r>
       <r>     5.2578    30.5407   608.6393 </r>
       <r>     5.3121    27.0868   610.1113 </r>
       <r>     5.3665    18.4292   611.1127 </r>
       <r>     5.4208    10.0559   611.6592 </r>
       <r>     5.4752     4.4699   611.9021 </r>
       <r>     5.5295     1.4535   611.9811 </r>
       <r>     5.5838     0.3063   611.9977 </r>
       <r>     5.6382     0.0391   611.9998 </r>
       <r>     5.6925     0.0029   612.0000 </r>
       <r>     5.7469     0.0001   612.0000 </r>
       <r>     5.8012     0.0000   612.0000 </r>
       <r>     5.8555     0.0000   612.0000 </r>
       <r>     5.9099     0.0000   612.0000 </r>
       <r>     5.9642     0.0000   612.0000 </r>
       <r>     6.0186     0.0000   612.0000 </r>
       <r>     6.0729     0.0000   612.0000 </r>
       <r>     6.1273     0.0000   612.0000 </r>
       <r>     6.1816     0.0000   612.0000 </r>
       <r>     6.2359     0.0000   612.0000 </r>
       <r>     6.2903     0.0000   612.0000 </r>
       <r>     6.3446     0.0000   612.0000 </r>
       <r>     6.3990     0.0000   612.0000 </r>
      </set>
     </set>
    </array>
   </total>
  </dos>
 </calculation>
 <structure name="finalpos" >
  <crystal>
   <varray name="basis" >
    <v>      11.00258152       0.00000000       0.00000000 </v>
    <v>       5.50129076       9.52851510       0.00000000 </v>
    <v>       0.00000000       0.00000000      24.49178509 </v>
   </varray>
   <i name="volume">   2567.67623402 </i>
   <varray name="rec_basis" >
    <v>       0.09088776      -0.05247407       0.00000000 </v>
    <v>       0.00000000       0.10494815       0.00000000 </v>
    <v>       0.00000000       0.00000000       0.04083002 </v>
   </varray>
  </crystal>
  <varray name="positions" >
   <v>       0.08333333       0.08333333       0.40830017 </v>
   <v>       0.33333333       0.08333333       0.40830017 </v>
   <v>       0.91731125       0.66666071       0.50646353 </v>
   <v>       0.08333333       0.83333333       0.40830017 </v>
   <v>      -0.00276599       0.50204617       0.61168444 </v>
   <v>       0.33333333       0.33333333       0.40830017 </v>
   <v>      -0.00350820       0.25082092       0.61085655 </v>
   <v>       0.25019103      -0.00038174       0.61106679 </v>
   <v>       0.24819920       0.75130803       0.61272315 </v>
   <v>       0.16635938       0.41545655       0.50858873 </v>
   <v>       0.16618920       0.66845525       0.50832632 </v>
   <v>       0.24957184       0.49950791       0.61585538 </v>
   <v>       0.16714066       0.16579662       0.50944627 </v>
   <v>       0.58333333       0.08333333       0.40830017 </v>
   <v>       0.50095433       0.00088653       0.61057555 </v>
   <v>       0.41762566       0.41638079       0.50911110 </v>
   <v>       0.41585469       0.67002584       0.50649217 </v>
   <v>       0.50325535       0.49887572       0.61426134 </v>
   <v>       0.58333333       0.83333333       0.40830017 </v>
   <v>       0.83333333       0.08333333       0.40830017 </v>
   <v>       0.66847637       0.16626487       0.50973786 </v>
   <v>       0.67036829       0.41492250       0.50630988 </v>
   <v>       0.66806371       0.66555165       0.50770721 </v>
   <v>       0.66768997       0.91731345       0.50963256 </v>
   <v>       0.24982785       0.25117124       0.60750450 </v>
   <v>       0.08333333       0.58333333       0.40830017 </v>
   <v>       0.33333333       0.58333333       0.40830017 </v>
   <v>       0.58333333       0.58333333       0.40830017 </v>
   <v>      -0.00247454       0.75221616       0.60548880 </v>
   <v>       0.58333333       0.33333333       0.40830017 </v>
   <v>       0.41722259       0.16594587       0.51024075 </v>
   <v>       0.91861049       0.91853594       0.50815523 </v>
   <v>       0.33333333       0.83333333       0.40830017 </v>
   <v>       0.50016398       0.25019200       0.60719860 </v>
   <v>       0.41569637       0.91760427       0.50914521 </v>
   <v>      -0.00186200       0.00016834       0.60433479 </v>
   <v>       0.08333333       0.33333333       0.40830017 </v>
   <v>       0.75199178       0.00029391       0.60641642 </v>
   <v>       0.83333333       0.33333333       0.40830017 </v>
   <v>       0.74970344       0.24932766       0.60607424 </v>
   <v>       0.83333333       0.58333333       0.40830017 </v>
   <v>       0.91890097       0.16581531       0.50850132 </v>
   <v>       0.74943536       0.50065310       0.60509066 </v>
   <v>       0.83333333       0.83333333       0.40830017 </v>
   <v>       0.16695417       0.91738748       0.50885253 </v>
   <v>       0.50161335       0.74923897       0.60576112 </v>
   <v>       0.91819524       0.41394625       0.50674680 </v>
   <v>       0.74990656       0.75029046       0.60635355 </v>
  </varray>
  <varray name="selective"  type="logical" >
   <v type="logical" >  F  F  F </v>
   <v type="logical" >  F  F  F </v>
   <v type="logical" >  T  T  T </v>
   <v type="logical" >  F  F  F </v>
   <v type="logical" >  T  T  T </v>
   <v type="logical" >  F  F  F </v>
   <v type="logical" >  T  T  T </v>
   <v type="logical" >  T  T  T </v>
   <v type="logical" >  T  T  T </v>
   <v type="logical" >  T  T  T </v>
   <v type="logical" >  T  T  T </v>
   <v type="logical" >  T  T  T </v>
   <v type="logical" >  T  T  T </v>
   <v type="logical" >  F  F  F </v>
   <v type="logical" >  T  T  T </v>
   <v type="logical" >  T  T  T </v>
   <v type="logical" >  T  T  T </v>
   <v type="logical" >  T  T  T </v>
   <v type="logical" >  F  F  F </v>
   <v type="logical" >  F  F  F </v>
   <v type="logical" >  T  T  T </v>
   <v type="logical" >  T  T  T </v>
   <v type="logical" >  T  T  T </v>
   <v type="logical" >  T  T  T </v>
   <v type="logical" >  T  T  T </v>
   <v type="logical" >  F  F  F </v>
   <v type="logical" >  F  F  F </v>
   <v type="logical" >  F  F  F </v>
   <v type="logical" >  T  T  T </v>
   <v type="logical" >  F  F  F </v>
   <v type="logical" >  T  T  T </v>
   <v type="logical" >  T  T  T </v>
   <v type="logical" >  F  F  F </v>
   <v type="logical" >  T  T  T </v>
   <v type="logical" >  T  T  T </v>
   <v type="logical" >  T  T  T </v>
   <v type="logical" >  F  F  F </v>
   <v type="logical" >  T  T  T </v>
   <v type="logical" >  F  F  F </v>
   <v type="logical" >  T  T  T </v>
   <v type="logical" >  F  F  F </v>
   <v type="logical" >  T  T  T </v>
   <v type="logical" >  T  T  T </v>
   <v type="logical" >  F  F  F </v>
   <v type="logical" >  T  T  T </v>
   <v type="logical" >  T  T  T </v>
   <v type="logical" >  T  T  T </v>
   <v type="logical" >  T  T  T </v>
  </varray>
  <nose>
   <v>      -3.00000000       0.00000000       0.00010000       0.00010000 </v>
  </nose>
 </structure>
</modeling>
