unknown system                          
           1
    11.002582    0.000000    0.000000
     5.501291    9.528515    0.000000
     0.000000    0.000000   24.491785
   Au   Pd
  24  24
Direct configuration=     1
   0.25000000  0.75000000  0.59169983
   0.50000000  0.25000000  0.59169983
   0.41666667  0.41666667  0.50000000
   0.50000000  0.00000000  0.59169983
   0.41666667  0.16666667  0.50000000
   0.66666667  0.91666667  0.50000000
   0.66666667  0.16666667  0.50000000
   0.16666667  0.66666667  0.50000000
   0.25000000  0.25000000  0.59169983
   0.16666667  0.41666667  0.50000000
   0.75000000  0.25000000  0.59169983
   0.33333333  0.08333333  0.40830017
   0.33333333  0.33333333  0.40830017
   0.91666667  0.91666667  0.50000000
   0.00000000  0.00000000  0.59169983
   0.08333333  0.33333333  0.40830017
   0.91666667  0.41666667  0.50000000
   0.75000000  0.50000000  0.59169983
   0.83333333  0.58333333  0.40830017
   0.66666667  0.66666667  0.50000000
   0.41666667  0.66666667  0.50000000
   0.91666667  0.66666667  0.50000000
   0.00000000  0.50000000  0.59169983
   0.08333333  0.83333333  0.40830017
   0.83333333  0.33333333  0.40830017
   0.50000000  0.75000000  0.59169983
   0.58333333  0.83333333  0.40830017
   0.41666667  0.91666667  0.50000000
   0.66666667  0.41666667  0.50000000
   0.83333333  0.83333333  0.40830017
   0.75000000  0.00000000  0.59169983
   0.83333333  0.08333333  0.40830017
   0.08333333  0.08333333  0.40830017
   0.58333333  0.58333333  0.40830017
   0.58333333  0.33333333  0.40830017
   0.58333333  0.08333333  0.40830017
   0.16666667  0.91666667  0.50000000
   0.33333333  0.83333333  0.40830017
   0.25000000  0.50000000  0.59169983
   0.33333333  0.58333333  0.40830017
   0.25000000  0.00000000  0.59169983
   0.16666667  0.16666667  0.50000000
   0.00000000  0.75000000  0.59169983
   0.08333333  0.58333333  0.40830017
   0.00000000  0.25000000  0.59169983
   0.91666667  0.16666667  0.50000000
   0.50000000  0.50000000  0.59169983
   0.75000000  0.75000000  0.59169983
Direct configuration=     2
   0.25049854  0.74984939  0.59384056
   0.50005468  0.25078413  0.59429755
   0.41766490  0.41783093  0.49989963
   0.50038113 -0.00176402  0.59392909
   0.41668888  0.16512512  0.49959649
   0.66648615  0.91627778  0.49962906
   0.66805059  0.16683138  0.49920323
   0.16672513  0.66657762  0.49998223
   0.24906123  0.24959360  0.59391601
   0.16661666  0.41700752  0.50005106
   0.75022933  0.25025883  0.59361810
   0.33378624  0.08148479  0.40642179
   0.33414401  0.33412629  0.40572009
   0.91641333  0.91760994  0.49995217
   0.00026366  0.00024535  0.59352395
   0.08280899  0.33273162  0.40606397
   0.91663450  0.41353005  0.49990905
   0.74888921  0.50048130  0.59386283
   0.83254285  0.58406700  0.40578501
   0.66443850  0.66782708  0.49993410
   0.41738219  0.66728395  0.49962819
   0.91656934  0.66799430  0.50002226
   0.00001645  0.50077402  0.59422736
   0.08354896  0.83372391  0.40617081
   0.83265096  0.33271070  0.40733497
   0.49980581  0.75037763  0.59284697
   0.58298300  0.83352566  0.40708896
   0.41536484  0.91654624  0.49995108
   0.66702691  0.41614930  0.49948814
   0.83274997  0.83380596  0.40687605
   0.75050215 -0.00087159  0.59319604
   0.83306552  0.08423033  0.40721275
   0.08295939  0.08323544  0.40758295
   0.58280577  0.58312271  0.40712022
   0.58406845  0.33343708  0.40717518
   0.58436852  0.08276641  0.40689783
   0.16708527  0.91860237  0.49977167
   0.33377236  0.83314825  0.40736411
   0.24992539  0.50040721  0.59317100
   0.33388922  0.58335951  0.40689591
   0.25003712  0.00000660  0.59241619
   0.16619849  0.16484596  0.50015904
  -0.00050386  0.75001089  0.59316438
   0.08335625  0.58377786  0.40678313
   0.00063435  0.24911233  0.59267123
   0.91745152  0.16683611  0.49950887
   0.49993617  0.50023115  0.59297515
   0.74997100  0.75037401  0.59316356
Direct configuration=     3
   0.25198070  0.74940160  0.60020498
   0.50021726  0.25311538  0.60202061
   0.42063267  0.42129231  0.49960122
   0.50151425 -0.00700847  0.60055674
   0.41675493  0.16054206  0.49839685
   0.66594948  0.91512162  0.49852627
   0.67216503  0.16732107  0.49683443
   0.16689893  0.66631288  0.49992940
   0.24627024  0.24838537  0.60050476
   0.16646800  0.41802088  0.50020287
   0.75091115  0.25102834  0.59932116
   0.33513274  0.07598902  0.40083732
   0.33655416  0.33648378  0.39804946
   0.91566016  0.92041433  0.49980999
   0.00104754  0.00097477  0.59894711
   0.08125009  0.33094270  0.39941569
   0.91653885  0.40420484  0.49963867
   0.74558681  0.50191224  0.60029347
   0.83019272  0.58624820  0.39830739
   0.65781411  0.67127702  0.49973819
   0.41950944  0.66911913  0.49852280
   0.91627998  0.67194137  0.50008844
   0.00006534  0.50307521  0.60174177
   0.08419001  0.83488510  0.39984018
   0.83062226  0.33085961  0.40446540
   0.49922847  0.75150032  0.59625744
   0.58194144  0.83409745  0.40348799
   0.41149447  0.91618821  0.49980563
   0.66809794  0.41461115  0.49796637
   0.83101564  0.83521111  0.40264212
   0.75199504 -0.00346283  0.59764431
   0.83226931  0.08689711  0.40397984
   0.08184763  0.08294440  0.40545063
   0.58123732  0.58249653  0.40361222
   0.58625398  0.33374553  0.40383058
   0.58744614  0.08108093  0.40272864
   0.16832979  0.92435724  0.49909285
   0.33507759  0.83259799  0.40458118
   0.24970358  0.50161785  0.59754480
   0.33554190  0.58343734  0.40272103
   0.25014746  0.00002621  0.59454595
   0.16480657  0.15943297  0.50063187
  -0.00200186  0.75004326  0.59751853
   0.08342437  0.58509943  0.40227292
   0.00252030  0.24647328  0.59555922
   0.91978491  0.16733987  0.49804875
   0.49974639  0.50091836  0.59676671
   0.74988479  0.75148595  0.59751524
Direct configuration=     4
   0.25167277  0.74943294  0.60161911
   0.49995500  0.25166866  0.60350103
   0.42043802  0.41853920  0.49985707
   0.50138519 -0.00502328  0.60219523
   0.41569772  0.16286714  0.49857248
   0.66465020  0.91648288  0.49891013
   0.66964822  0.16792754  0.49779145
   0.16758426  0.66911245  0.49996083
   0.24793034  0.24837043  0.60193354
   0.16661668  0.41530208  0.50007790
   0.75095464  0.25032727  0.60058830
   0.33453486  0.07792744  0.39904940
   0.33654498  0.33547488  0.39625921
   0.91815794  0.92033703  0.49991988
   0.00104328 -0.00002653  0.60031583
   0.08191218  0.33124908  0.39787951
   0.91638957  0.40989375  0.49976803
   0.74647666  0.50247091  0.60176259
   0.83024753  0.58568544  0.39682601
   0.66349549  0.66824133  0.49976883
   0.41575802  0.66949957  0.49897657
   0.91530517  0.66858251  0.49996583
  -0.00098642  0.50274781  0.60337931
   0.08400539  0.83476125  0.39828231
   0.83042668  0.33205007  0.40279593
   0.49903339  0.75074769  0.59747186
   0.58246382  0.83341373  0.40222776
   0.41198676  0.91807387  0.49995104
   0.66868159  0.41535967  0.49865646
   0.83174219  0.83529541  0.40133753
   0.75103212 -0.00236396  0.59842798
   0.83320215  0.08555929  0.40223549
   0.08189496  0.08278178  0.40412581
   0.58186831  0.58247420  0.40210907
   0.58549925  0.33405891  0.40224902
   0.58680084  0.08163389  0.40137352
   0.16689324  0.92072878  0.49933476
   0.33510025  0.83141424  0.40324988
   0.24985758  0.50121268  0.59848620
   0.33509404  0.58421865  0.40148563
   0.25052764 -0.00084189  0.59565604
   0.16684111  0.16255384  0.50028278
  -0.00146408  0.75073398  0.59862585
   0.08311294  0.58493510  0.40121800
   0.00136872  0.24793710  0.59671534
   0.91899916  0.16415418  0.49872779
   0.49934698  0.50156698  0.59770505
   0.75027270  0.75045003  0.59839082
Direct configuration=     5
   0.25157690  0.74944270  0.60205939
   0.49987335  0.25121823  0.60396195
   0.42037742  0.41768204  0.49993672
   0.50134501 -0.00440520  0.60270536
   0.41536856  0.16359104  0.49862716
   0.66424568  0.91690669  0.49902965
   0.66886462  0.16811636  0.49808942
   0.16779763  0.66998408  0.49997062
   0.24844720  0.24836578  0.60237838
   0.16666298  0.41445560  0.50003899
   0.75096819  0.25010899  0.60098282
   0.33434871  0.07853096  0.39849274
   0.33654212  0.33516077  0.39570183
   0.91893560  0.92031296  0.49995409
   0.00104196 -0.00033828  0.60074197
   0.08211832  0.33134447  0.39740124
   0.91634309  0.41166494  0.49980831
   0.74675371  0.50264485  0.60221999
   0.83026460  0.58551023  0.39636479
   0.66526435  0.66729619  0.49977837
   0.41459004  0.66961802  0.49911785
   0.91500166  0.66753675  0.49992766
  -0.00131388  0.50264588  0.60388914
   0.08394790  0.83472269  0.39779727
   0.83036579  0.33242071  0.40227616
   0.49897265  0.75051337  0.59784996
   0.58262646  0.83320086  0.40183540
   0.41214003  0.91866096  0.49999631
   0.66886330  0.41559271  0.49887132
   0.83196839  0.83532166  0.40093135
   0.75073232 -0.00202184  0.59867197
   0.83349259  0.08514277  0.40169240
   0.08190970  0.08273116  0.40371334
   0.58206476  0.58246725  0.40164108
   0.58526427  0.33415648  0.40175662
   0.58659993  0.08180605  0.40095161
   0.16644598  0.91959909  0.49941008
   0.33510730  0.83104569  0.40283538
   0.24990552  0.50108653  0.59877929
   0.33495460  0.58446191  0.40110100
   0.25064600 -0.00111217  0.59600166
   0.16747454  0.16352550  0.50017409
  -0.00129664  0.75094903  0.59897061
   0.08301598  0.58488394  0.40088956
   0.00101019  0.24839285  0.59707528
   0.91875452  0.16316234  0.49893920
   0.49922263  0.50176892  0.59799720
   0.75039348  0.75012750  0.59866342
Direct configuration=     6
   0.25130379  0.74929445  0.60259481
   0.49985187  0.25070460  0.60434484
   0.41915761  0.41655686  0.49997847
   0.50136867 -0.00362372  0.60313383
   0.41548851  0.16519868  0.49871986
   0.66470479  0.91751920  0.49925001
   0.66772033  0.16782112  0.49858707
   0.16664040  0.66873677  0.49996658
   0.24894210  0.24869458  0.60274500
   0.16684425  0.41511807  0.49995895
   0.75052573  0.25017176  0.60125179
   0.33424069  0.07945680  0.39791561
   0.33612216  0.33487689  0.39518084
   0.91811397  0.91844872  0.49989905
   0.00096458 -0.00042012  0.60128133
   0.08236754  0.33176912  0.39698371
   0.91689041  0.41193044  0.49974355
   0.74718627  0.50232321  0.60266691
   0.83087713  0.58495990  0.39588528
   0.66480858  0.66671631  0.49972915
   0.41616248  0.66941906  0.49937692
   0.91642627  0.66691026  0.49982132
  -0.00094972  0.50217181  0.60434496
   0.08372059  0.83430998  0.39725451
   0.83085978  0.33285535  0.40195326
   0.49916190  0.75035690  0.59796898
   0.58276514  0.83307690  0.40162839
   0.41321108  0.91822129  0.49997746
   0.66900045  0.41600930  0.49932501
   0.83245655  0.83509048  0.40086577
   0.75025433 -0.00153295  0.59859263
   0.83330067  0.08477703  0.40119494
   0.08222287  0.08295331  0.40343884
   0.58224865  0.58267937  0.40139849
   0.58487728  0.33410660  0.40141429
   0.58614530  0.08212684  0.40068451
   0.16653327  0.91971123  0.49958165
   0.33508743  0.83109123  0.40245275
   0.24965687  0.50073028  0.59869232
   0.33459933  0.58421101  0.40083811
   0.25053988 -0.00101624  0.59621104
   0.16680542  0.16453208  0.49987137
  -0.00107031  0.75079973  0.59896742
   0.08302268  0.58450661  0.40096302
   0.00064178  0.24917228  0.59715400
   0.91859126  0.16491956  0.49938799
   0.49937229  0.50129856  0.59811559
   0.75023706  0.75025851  0.59870782
Direct configuration=     7
   0.25126019  0.74927078  0.60268030
   0.49984844  0.25062259  0.60440598
   0.41896284  0.41637720  0.49998513
   0.50137245 -0.00349894  0.60320225
   0.41550766  0.16545537  0.49873466
   0.66477809  0.91761700  0.49928519
   0.66753763  0.16777398  0.49866653
   0.16645563  0.66853761  0.49996594
   0.24902112  0.24874708  0.60280354
   0.16687319  0.41522384  0.49994617
   0.75045508  0.25018178  0.60129473
   0.33422344  0.07960463  0.39782346
   0.33605511  0.33483156  0.39509766
   0.91798278  0.91815106  0.49989026
   0.00095223 -0.00043319  0.60136745
   0.08240734  0.33183693  0.39691704
   0.91697780  0.41197283  0.49973321
   0.74725534  0.50227185  0.60273827
   0.83097494  0.58487203  0.39580872
   0.66473580  0.66662372  0.49972129
   0.41641355  0.66938729  0.49941829
   0.91665374  0.66681022  0.49980434
  -0.00089157  0.50209612  0.60441774
   0.08368430  0.83424409  0.39716784
   0.83093866  0.33292475  0.40190171
   0.49919212  0.75033192  0.59798798
   0.58278728  0.83305711  0.40159534
   0.41338210  0.91815108  0.49997445
   0.66902235  0.41607582  0.49939745
   0.83253449  0.83505356  0.40085530
   0.75017801 -0.00145489  0.59857996
   0.83327002  0.08471863  0.40111551
   0.08227287  0.08298879  0.40339501
   0.58227802  0.58271324  0.40135976
   0.58481549  0.33409863  0.40135964
   0.58607271  0.08217806  0.40064187
   0.16654721  0.91972913  0.49960904
   0.33508426  0.83109850  0.40239166
   0.24961717  0.50067339  0.59867843
   0.33454260  0.58417095  0.40079614
   0.25052294 -0.00100092  0.59624447
   0.16669858  0.16469280  0.49982303
  -0.00103417  0.75077589  0.59896691
   0.08302374  0.58444637  0.40097475
   0.00058296  0.24929673  0.59716657
   0.91856519  0.16520013  0.49945965
   0.49939619  0.50122346  0.59813449
   0.75021209  0.75027943  0.59871491
Direct configuration=     8
   0.25126885  0.74898687  0.60293894
   0.49984148  0.25074062  0.60472538
   0.41857892  0.41698943  0.49989639
   0.50127590 -0.00349324  0.60340396
   0.41530222  0.16543399  0.49874166
   0.66494962  0.91711246  0.49935279
   0.66810815  0.16777103  0.49878980
   0.16702150  0.66780259  0.49991824
   0.24893251  0.24879821  0.60295689
   0.16674952  0.41544744  0.49989727
   0.75022488  0.25023643  0.60142260
   0.33444484  0.07969303  0.39758534
   0.33579044  0.33486599  0.39468750
   0.91735403  0.91829246  0.49976073
   0.00072735 -0.00018094  0.60156578
   0.08249484  0.33208874  0.39664372
   0.91725431  0.41198479  0.49961985
   0.74738496  0.50209160  0.60300876
   0.83126341  0.58481217  0.39553941
   0.66477344  0.66695868  0.49963615
   0.41659010  0.66880595  0.49950934
   0.91647281  0.66661521  0.49976468
  -0.00064583  0.50201253  0.60470466
   0.08368255  0.83412917  0.39691341
   0.83122103  0.33289662  0.40192711
   0.49928870  0.75047836  0.59798782
   0.58293389  0.83315064  0.40163932
   0.41384323  0.91848664  0.49989003
   0.66877467  0.41564318  0.49961463
   0.83252561  0.83484214  0.40092851
   0.75020928 -0.00139926  0.59848674
   0.83298345  0.08493578  0.40114943
   0.08237886  0.08300935  0.40341241
   0.58227391  0.58273765  0.40134752
   0.58484376  0.33399201  0.40146263
   0.58594664  0.08221186  0.40060702
   0.16650568  0.92002436  0.49970231
   0.33492814  0.83140041  0.40232879
   0.24952949  0.50049761  0.59853718
   0.33445483  0.58388206  0.40087238
   0.25040117 -0.00063384  0.59618697
   0.16672471  0.16461820  0.49959179
  -0.00108502  0.75059206  0.59888456
   0.08312203  0.58416111  0.40104259
   0.00070865  0.24947420  0.59710574
   0.91814705  0.16581410  0.49967962
   0.49937896  0.50077900  0.59808595
   0.75012045  0.75041053  0.59854571
Direct configuration=     9
   0.25127355  0.74883316  0.60307897
   0.49983771  0.25080452  0.60489831
   0.41837105  0.41732091  0.49984834
   0.50122363 -0.00349015  0.60351318
   0.41519099  0.16542241  0.49874545
   0.66504249  0.91683929  0.49938939
   0.66841705  0.16776943  0.49885654
   0.16732787  0.66740463  0.49989242
   0.24888453  0.24882589  0.60303992
   0.16668256  0.41556850  0.49987079
   0.75010025  0.25026601  0.60149184
   0.33456470  0.07974090  0.39745641
   0.33564714  0.33488463  0.39446542
   0.91701362  0.91836902  0.49969061
   0.00060560 -0.00004437  0.60167316
   0.08254222  0.33222508  0.39649575
   0.91740402  0.41199127  0.49955847
   0.74745514  0.50199400  0.60315521
   0.83141960  0.58477976  0.39539361
   0.66479381  0.66714004  0.49959005
   0.41668569  0.66849120  0.49955864
   0.91637485  0.66650963  0.49974321
  -0.00051278  0.50196727  0.60486000
   0.08368160  0.83406694  0.39677566
   0.83137391  0.33288138  0.40194086
   0.49934098  0.75055765  0.59798774
   0.58301326  0.83320128  0.40166313
   0.41409290  0.91866832  0.49984432
   0.66864057  0.41540894  0.49973221
   0.83252081  0.83472767  0.40096814
   0.75022621 -0.00136914  0.59843628
   0.83282829  0.08505336  0.40116779
   0.08243625  0.08302048  0.40342183
   0.58227169  0.58275087  0.40134090
   0.58485907  0.33393428  0.40151839
   0.58587838  0.08223016  0.40058815
   0.16648319  0.92018420  0.49975280
   0.33484361  0.83156388  0.40229475
   0.24948202  0.50040244  0.59846070
   0.33440730  0.58372565  0.40091366
   0.25033524 -0.00043509  0.59615584
   0.16673886  0.16457781  0.49946659
  -0.00111254  0.75049254  0.59883998
   0.08317525  0.58400667  0.40107932
   0.00077670  0.24957029  0.59707280
   0.91792066  0.16614651  0.49979872
   0.49936964  0.50053836  0.59805967
   0.75007084  0.75048152  0.59845410
Direct configuration=    10
   0.25127525  0.74873807  0.60331123
   0.49970892  0.25085277  0.60524270
   0.41864483  0.41703534  0.49970098
   0.50111844 -0.00348422  0.60372349
   0.41531554  0.16546174  0.49874009
   0.66484740  0.91695347  0.49941871
   0.66831575  0.16790369  0.49891239
   0.16723558  0.66798072  0.49983302
   0.24885246  0.24879806  0.60317380
   0.16665842  0.41528214  0.49981895
   0.75009560  0.25030139  0.60169409
   0.33476177  0.07969956  0.39719916
   0.33565268  0.33483242  0.39395248
   0.91744931  0.91839850  0.49953114
   0.00054493  0.00002438  0.60178782
   0.08265462  0.33223539  0.39615242
   0.91722236  0.41211085  0.49941801
   0.74749809  0.50197044  0.60340229
   0.83145188  0.58484821  0.39507948
   0.66478563  0.66686614  0.49949180
   0.41663225  0.66874294  0.49961608
   0.91627943  0.66631267  0.49971531
  -0.00050954  0.50202104  0.60521030
   0.08367550  0.83408136  0.39658724
   0.83152835  0.33283291  0.40207908
   0.49927485  0.75062223  0.59791558
   0.58314498  0.83322554  0.40169397
   0.41406964  0.91880470  0.49974016
   0.66864447  0.41534660  0.49993683
   0.83245866  0.83460815  0.40104925
   0.75027769 -0.00139411  0.59834058
   0.83271559  0.08527920  0.40132126
   0.08242219  0.08300059  0.40352487
   0.58226985  0.58274733  0.40143154
   0.58490040  0.33385564  0.40174029
   0.58586302  0.08227135  0.40067533
   0.16638165  0.92014054  0.49984719
   0.33471058  0.83177247  0.40238077
   0.24944110  0.50022519  0.59833355
   0.33443117  0.58356735  0.40099988
   0.25021279 -0.00024584  0.59599831
   0.16688392  0.16444058  0.49919913
  -0.00118518  0.75043084  0.59867099
   0.08323118  0.58392324  0.40112290
   0.00088722  0.24967730  0.59696879
   0.91785489  0.16613307  0.49999846
   0.49930914  0.50035438  0.59804233
   0.75010473  0.75041370  0.59827597
Direct configuration=    11
   0.25127824  0.74857146  0.60371820
   0.49948325  0.25093731  0.60584613
   0.41912454  0.41653499  0.49944279
   0.50093413 -0.00347381  0.60409200
   0.41553377  0.16553065  0.49873071
   0.66450556  0.91715352  0.49947008
   0.66813825  0.16813893  0.49901025
   0.16707387  0.66899012  0.49972895
   0.24879627  0.24874928  0.60340839
   0.16661613  0.41478038  0.49972811
   0.75008745  0.25036337  0.60204848
   0.33510708  0.07962712  0.39674840
   0.33566238  0.33474094  0.39305372
   0.91821273  0.91845017  0.49925173
   0.00043862  0.00014483  0.60198872
   0.08285155  0.33225347  0.39555085
   0.91690408  0.41232036  0.49917191
   0.74757336  0.50192916  0.60383522
   0.83150843  0.58496816  0.39452906
   0.66477128  0.66638622  0.49931964
   0.41653859  0.66918405  0.49971672
   0.91611224  0.66596755  0.49966642
  -0.00050388  0.50211524  0.60582410
   0.08366481  0.83410662  0.39625709
   0.83179895  0.33274798  0.40232126
   0.49915897  0.75073537  0.59778914
   0.58337579  0.83326803  0.40174800
   0.41402889  0.91904367  0.49955764
   0.66865130  0.41523736  0.50029537
   0.83234976  0.83439875  0.40119136
   0.75036789 -0.00143787  0.59817290
   0.83251813  0.08567491  0.40159019
   0.08239755  0.08296575  0.40370542
   0.58226664  0.58274111  0.40159035
   0.58497282  0.33371783  0.40212910
   0.58583612  0.08234352  0.40082810
   0.16620374  0.92006405  0.50001257
   0.33447748  0.83213795  0.40253148
   0.24936938  0.49991461  0.59811075
   0.33447300  0.58328997  0.40115095
   0.24999825  0.00008578  0.59572229
   0.16713808  0.16420014  0.49873049
  -0.00131245  0.75032272  0.59837490
   0.08332919  0.58377707  0.40119926
   0.00108087  0.24986480  0.59678655
   0.91773965  0.16610952  0.50034845
   0.49920314  0.50003202  0.59801196
   0.75016413  0.75029489  0.59796386
