unknown system                          
           1
    11.002582    0.000000    0.000000
     5.501291    9.528515    0.000000
     0.000000    0.000000   26.191785
   Au   O    Pd
  24   8  24
Direct configuration=     1
   0.08333333  0.08333333  0.38179910
   0.25199132  0.50223848  0.56284148
   0.08333333  0.83333333  0.38179910
   0.75160305  0.49877029  0.56893314
   0.98730766  0.00854823  0.56236100
   0.83333333  0.58333333  0.38179910
   0.08333333  0.33333333  0.38179910
   0.91746005  0.42004714  0.47758254
   0.00404767  0.24416411  0.56505556
   0.66329467  0.41710095  0.47412321
   0.83333333  0.33333333  0.38179910
   0.76455313  0.97128284  0.60635628
   0.96080887  0.53536783  0.60186831
   0.66990819  0.16362869  0.47169546
   0.50792216  0.74778506  0.56745696
   0.41007108  0.91699504  0.47335038
   0.58333333  0.83333333  0.38179910
   0.21524822  0.01020270  0.60048643
   0.51295670  0.24857050  0.56166488
   0.51028629  0.99756733  0.56231543
   0.41075124  0.17012993  0.47172627
   0.75306991  0.75854956  0.56052761
   0.33333333  0.58333333  0.38179910
   0.24850708  0.75303572  0.56226814
   0.08824041  0.61790091  0.61820821
   0.53984744  0.45229014  0.63547151
   0.34349099  0.09301048  0.61777220
   0.09725181  0.32797913  0.61848980
   0.35086752  0.80794628  0.62389973
   0.59841457  0.16971287  0.63473669
   0.82876129  0.35247043  0.62766415
   0.87081324  0.07842183  0.63288890
   0.58333333  0.58333333  0.38179910
   0.16311905  0.41972768  0.47578425
   0.58333333  0.33333333  0.38179910
   0.33333333  0.33333333  0.38179910
   0.25873093  0.25616781  0.56985300
   0.58333333  0.08333333  0.38179910
   0.16357560  0.66861614  0.47292700
   0.15888629  0.92131800  0.47484144
   0.50437673  0.49784466  0.56425891
   0.33333333  0.08333333  0.38179910
   0.16421354  0.16770721  0.47622863
   0.83333333  0.08333333  0.38179910
   0.99457998  0.76131819  0.56209974
   0.91263158  0.91597208  0.47509430
   0.91700802  0.66824113  0.47134937
   0.08333333  0.58333333  0.38179910
   0.70749943  0.27248781  0.63175422
   0.66354247  0.66544622  0.47671464
   0.91461343  0.16905812  0.47416759
   0.83333333  0.83333333  0.38179910
   0.66521069  0.91800188  0.47212716
   0.33333333  0.83333333  0.38179910
   0.41338171  0.66791726  0.47237590
   0.41353656  0.41771851  0.47486609
Direct configuration=     2
   0.08333333  0.08333333  0.38179910
   0.25201843  0.50216024  0.56282115
   0.08333333  0.83333333  0.38179910
   0.75162200  0.49873258  0.56892659
   0.98734865  0.00853486  0.56232386
   0.83333333  0.58333333  0.38179910
   0.08333333  0.33333333  0.38179910
   0.91745519  0.42012209  0.47757105
   0.00401892  0.24423214  0.56507025
   0.66327608  0.41712929  0.47410920
   0.83333333  0.33333333  0.38179910
   0.76455275  0.97129342  0.60635720
   0.96087217  0.53533390  0.60186979
   0.66988801  0.16368748  0.47169168
   0.50796696  0.74776516  0.56745785
   0.41006322  0.91702486  0.47335206
   0.58333333  0.83333333  0.38179910
   0.21531374  0.01014779  0.60048662
   0.51305272  0.24853387  0.56165724
   0.51028649  0.99757775  0.56231942
   0.41074387  0.17014096  0.47174979
   0.75308070  0.75851043  0.56049998
   0.33333333  0.58333333  0.38179910
   0.24851061  0.75305438  0.56226634
   0.08828963  0.61786719  0.61822352
   0.53997413  0.45221051  0.63548745
   0.34352624  0.09295891  0.61776818
   0.09728301  0.32795974  0.61848897
   0.35086297  0.80792965  0.62390524
   0.59843732  0.16976552  0.63472940
   0.82878896  0.35242331  0.62766309
   0.87084474  0.07843596  0.63290019
   0.58333333  0.58333333  0.38179910
   0.16314762  0.41972210  0.47579701
   0.58333333  0.33333333  0.38179910
   0.33333333  0.33333333  0.38179910
   0.25866970  0.25628631  0.56987105
   0.58333333  0.08333333  0.38179910
   0.16358060  0.66859705  0.47290750
   0.15881571  0.92136726  0.47486723
   0.50439533  0.49786585  0.56422403
   0.33333333  0.08333333  0.38179910
   0.16422785  0.16768413  0.47621935
   0.83333333  0.08333333  0.38179910
   0.99457910  0.76129332  0.56210907
   0.91266887  0.91600518  0.47506957
   0.91701170  0.66823105  0.47135699
   0.08333333  0.58333333  0.38179910
   0.70742967  0.27253282  0.63177651
   0.66356382  0.66545655  0.47671234
   0.91469558  0.16897863  0.47417183
   0.83333333  0.83333333  0.38179910
   0.66518594  0.91801129  0.47213279
   0.33333333  0.83333333  0.38179910
   0.41338321  0.66790216  0.47237765
   0.41348964  0.41773440  0.47486852
Direct configuration=     3
   0.08333333  0.08333333  0.38179910
   0.25204591  0.50208096  0.56280055
   0.08333333  0.83333333  0.38179910
   0.75164121  0.49869437  0.56891996
   0.98739017  0.00852132  0.56228623
   0.83333333  0.58333333  0.38179910
   0.08333333  0.33333333  0.38179910
   0.91745027  0.42019804  0.47755941
   0.00398979  0.24430108  0.56508513
   0.66325724  0.41715800  0.47409500
   0.83333333  0.33333333  0.38179910
   0.76455236  0.97130413  0.60635814
   0.96093631  0.53529951  0.60187129
   0.66986755  0.16374706  0.47168786
   0.50801236  0.74774499  0.56745875
   0.41005526  0.91705507  0.47335377
   0.58333333  0.83333333  0.38179910
   0.21538014  0.01009216  0.60048681
   0.51315001  0.24849675  0.56164949
   0.51028669  0.99758831  0.56232346
   0.41073641  0.17015213  0.47177361
   0.75309163  0.75847077  0.56047198
   0.33333333  0.58333333  0.38179910
   0.24851419  0.75307328  0.56226452
   0.08833951  0.61783303  0.61823903
   0.54010250  0.45212983  0.63550360
   0.34356197  0.09290665  0.61776411
   0.09731462  0.32794010  0.61848812
   0.35085836  0.80791280  0.62391082
   0.59846037  0.16981887  0.63472202
   0.82881700  0.35237557  0.62766202
   0.87087666  0.07845028  0.63291163
   0.58333333  0.58333333  0.38179910
   0.16317658  0.41971646  0.47580993
   0.58333333  0.33333333  0.38179910
   0.33333333  0.33333333  0.38179910
   0.25860766  0.25640638  0.56988935
   0.58333333  0.08333333  0.38179910
   0.16358567  0.66857772  0.47288775
   0.15874420  0.92141716  0.47489336
   0.50441417  0.49788733  0.56418870
   0.33333333  0.08333333  0.38179910
   0.16424235  0.16766075  0.47620995
   0.83333333  0.08333333  0.38179910
   0.99457820  0.76126813  0.56211852
   0.91270665  0.91603873  0.47504451
   0.91701543  0.66822084  0.47136471
   0.08333333  0.58333333  0.38179910
   0.70735899  0.27257842  0.63179910
   0.66358545  0.66546701  0.47671002
   0.91477882  0.16889809  0.47417612
   0.83333333  0.83333333  0.38179910
   0.66516087  0.91802083  0.47213849
   0.33333333  0.83333333  0.38179910
   0.41338473  0.66788686  0.47237943
   0.41344211  0.41775051  0.47487097
Direct configuration=     4
   0.08333333  0.08333333  0.38179910
   0.25205763  0.50207176  0.56277918
   0.08333333  0.83333333  0.38179910
   0.75168209  0.49864812  0.56891171
   0.98741486  0.00853406  0.56226612
   0.83333333  0.58333333  0.38179910
   0.08333333  0.33333333  0.38179910
   0.91746835  0.42024516  0.47754566
   0.00399874  0.24430791  0.56509800
   0.66327474  0.41717207  0.47406964
   0.83333333  0.33333333  0.38179910
   0.76458165  0.97131289  0.60635608
   0.96098826  0.53529032  0.60186636
   0.66986103  0.16380707  0.47167578
   0.50806461  0.74771971  0.56746675
   0.41004733  0.91706657  0.47335514
   0.58333333  0.83333333  0.38179910
   0.21540574  0.01008028  0.60047491
   0.51328092  0.24844664  0.56163019
   0.51029721  0.99759939  0.56233358
   0.41072557  0.17017178  0.47180931
   0.75313251  0.75841664  0.56044243
   0.33333333  0.58333333  0.38179910
   0.24852782  0.75304481  0.56226032
   0.08843694  0.61778172  0.61825287
   0.54014236  0.45217911  0.63548461
   0.34360079  0.09287194  0.61775137
   0.09735214  0.32791160  0.61851163
   0.35088949  0.80784636  0.62391984
   0.59845762  0.16987516  0.63472391
   0.82883577  0.35231252  0.62766525
   0.87089051  0.07848148  0.63290813
   0.58333333  0.58333333  0.38179910
   0.16318883  0.41970390  0.47581963
   0.58333333  0.33333333  0.38179910
   0.33333333  0.33333333  0.38179910
   0.25861384  0.25646659  0.56992010
   0.58333333  0.08333333  0.38179910
   0.16358457  0.66856841  0.47286391
   0.15872755  0.92144144  0.47491932
   0.50445167  0.49789117  0.56418554
   0.33333333  0.08333333  0.38179910
   0.16423718  0.16766684  0.47620184
   0.83333333  0.08333333  0.38179910
   0.99460002  0.76122879  0.56213209
   0.91271873  0.91607006  0.47500504
   0.91703585  0.66824045  0.47137046
   0.08333333  0.58333333  0.38179910
   0.70755204  0.27245646  0.63182655
   0.66358249  0.66549468  0.47670000
   0.91483886  0.16887854  0.47417533
   0.83333333  0.83333333  0.38179910
   0.66514727  0.91805454  0.47214300
   0.33333333  0.83333333  0.38179910
   0.41337180  0.66789801  0.47238086
   0.41340043  0.41776538  0.47486761
