  48  48   0   0
  0.5349325E+02  0.1100258E-08  0.1100258E-08  0.2449179E-08  0.3500000E-15
  1.000000000000000E-004
  CAR 
 unknown system                          
      6.34028061     -9.81812307  301     -1.08530803      1.00000000
     -9.818  0.0000E+00  0.0000E+00
     -9.764  0.0000E+00  0.0000E+00
     -9.710  0.0000E+00  0.0000E+00
     -9.657  0.0000E+00  0.0000E+00
     -9.603  0.0000E+00  0.0000E+00
     -9.549  0.0000E+00  0.0000E+00
     -9.495  0.0000E+00  0.0000E+00
     -9.441  0.0000E+00  0.0000E+00
     -9.387  0.1443E-16  0.7772E-18
     -9.333  0.5421E-14  0.2928E-15
     -9.280  0.1168E-11  0.6318E-13
     -9.226  0.1423E-09  0.7725E-11
     -9.172  0.9823E-08  0.5368E-09
     -9.118  0.3852E-06  0.2128E-07
     -9.064  0.8596E-05  0.4842E-06
     -9.010  0.1094E-03  0.6379E-05
     -8.956  0.7970E-03  0.4931E-04
     -8.902  0.3329E-02  0.2286E-03
     -8.849  0.8013E-02  0.6602E-03
     -8.795  0.1135E-01  0.1271E-02
     -8.741  0.1060E-01  0.1842E-02
     -8.687  0.9746E-02  0.2367E-02
     -8.633  0.1123E-01  0.2972E-02
     -8.579  0.1052E-01  0.3539E-02
     -8.525  0.6081E-02  0.3866E-02
     -8.472  0.2045E-02  0.3976E-02
     -8.418  0.4001E-03  0.3998E-02
     -8.364  0.1040E-03  0.4003E-02
     -8.310  0.4603E-03  0.4028E-02
     -8.256  0.2086E-02  0.4141E-02
     -8.202  0.5827E-02  0.4454E-02
     -8.148  0.1044E-01  0.5017E-02
     -8.095  0.1368E-01  0.5754E-02
     -8.041  0.1676E-01  0.6656E-02
     -7.987  0.2076E-01  0.7775E-02
     -7.933  0.2133E-01  0.8924E-02
     -7.879  0.1690E-01  0.9834E-02
     -7.825  0.1296E-01  0.1053E-01
     -7.771  0.1147E-01  0.1115E-01
     -7.718  0.9234E-02  0.1165E-01
     -7.664  0.6676E-02  0.1201E-01
     -7.610  0.8343E-02  0.1246E-01
     -7.556  0.1520E-01  0.1327E-01
     -7.502  0.2078E-01  0.1439E-01
     -7.448  0.1939E-01  0.1544E-01
     -7.394  0.1564E-01  0.1628E-01
     -7.341  0.1644E-01  0.1717E-01
     -7.287  0.2179E-01  0.1834E-01
     -7.233  0.3063E-01  0.1999E-01
     -7.179  0.4176E-01  0.2224E-01
     -7.125  0.5064E-01  0.2497E-01
     -7.071  0.5587E-01  0.2798E-01
     -7.017  0.6008E-01  0.3121E-01
     -6.963  0.6468E-01  0.3469E-01
     -6.910  0.7078E-01  0.3851E-01
     -6.856  0.7868E-01  0.4274E-01
     -6.802  0.8346E-01  0.4724E-01
     -6.748  0.8004E-01  0.5155E-01
     -6.694  0.7309E-01  0.5549E-01
     -6.640  0.7101E-01  0.5931E-01
     -6.586  0.7469E-01  0.6333E-01
     -6.533  0.8139E-01  0.6772E-01
     -6.479  0.9152E-01  0.7265E-01
     -6.425  0.1042E+00  0.7826E-01
     -6.371  0.1144E+00  0.8443E-01
     -6.317  0.1212E+00  0.9095E-01
     -6.263  0.1285E+00  0.9787E-01
     -6.209  0.1369E+00  0.1052E+00
     -6.156  0.1447E+00  0.1130E+00
     -6.102  0.1519E+00  0.1212E+00
     -6.048  0.1594E+00  0.1298E+00
     -5.994  0.1659E+00  0.1387E+00
     -5.940  0.1684E+00  0.1478E+00
     -5.886  0.1667E+00  0.1568E+00
     -5.832  0.1609E+00  0.1655E+00
     -5.779  0.1506E+00  0.1736E+00
     -5.725  0.1408E+00  0.1812E+00
     -5.671  0.1353E+00  0.1884E+00
     -5.617  0.1326E+00  0.1956E+00
     -5.563  0.1323E+00  0.2027E+00
     -5.509  0.1354E+00  0.2100E+00
     -5.455  0.1387E+00  0.2175E+00
     -5.401  0.1391E+00  0.2250E+00
     -5.348  0.1404E+00  0.2325E+00
     -5.294  0.1484E+00  0.2405E+00
     -5.240  0.1621E+00  0.2493E+00
     -5.186  0.1727E+00  0.2586E+00
     -5.132  0.1749E+00  0.2680E+00
     -5.078  0.1733E+00  0.2773E+00
     -5.024  0.1738E+00  0.2867E+00
     -4.971  0.1741E+00  0.2961E+00
     -4.917  0.1715E+00  0.3053E+00
     -4.863  0.1690E+00  0.3144E+00
     -4.809  0.1682E+00  0.3234E+00
     -4.755  0.1698E+00  0.3326E+00
     -4.701  0.1751E+00  0.3420E+00
     -4.647  0.1807E+00  0.3518E+00
     -4.594  0.1823E+00  0.3616E+00
     -4.540  0.1801E+00  0.3713E+00
     -4.486  0.1765E+00  0.3808E+00
     -4.432  0.1740E+00  0.3902E+00
     -4.378  0.1748E+00  0.3996E+00
     -4.324  0.1785E+00  0.4092E+00
     -4.270  0.1808E+00  0.4189E+00
     -4.217  0.1776E+00  0.4285E+00
     -4.163  0.1704E+00  0.4377E+00
     -4.109  0.1640E+00  0.4465E+00
     -4.055  0.1619E+00  0.4552E+00
     -4.001  0.1648E+00  0.4641E+00
     -3.947  0.1699E+00  0.4732E+00
     -3.893  0.1754E+00  0.4827E+00
     -3.840  0.1826E+00  0.4925E+00
     -3.786  0.1901E+00  0.5028E+00
     -3.732  0.1949E+00  0.5133E+00
     -3.678  0.1955E+00  0.5238E+00
     -3.624  0.1943E+00  0.5343E+00
     -3.570  0.1940E+00  0.5447E+00
     -3.516  0.1953E+00  0.5552E+00
     -3.462  0.1978E+00  0.5659E+00
     -3.409  0.1983E+00  0.5766E+00
     -3.355  0.1954E+00  0.5871E+00
     -3.301  0.1916E+00  0.5974E+00
     -3.247  0.1881E+00  0.6075E+00
     -3.193  0.1844E+00  0.6175E+00
     -3.139  0.1823E+00  0.6273E+00
     -3.085  0.1809E+00  0.6370E+00
     -3.032  0.1768E+00  0.6466E+00
     -2.978  0.1714E+00  0.6558E+00
     -2.924  0.1683E+00  0.6649E+00
     -2.870  0.1693E+00  0.6740E+00
     -2.816  0.1764E+00  0.6835E+00
     -2.762  0.1883E+00  0.6936E+00
     -2.708  0.1990E+00  0.7043E+00
     -2.655  0.2049E+00  0.7154E+00
     -2.601  0.2053E+00  0.7264E+00
     -2.547  0.2004E+00  0.7372E+00
     -2.493  0.1929E+00  0.7476E+00
     -2.439  0.1879E+00  0.7577E+00
     -2.385  0.1882E+00  0.7679E+00
     -2.331  0.1889E+00  0.7780E+00
     -2.278  0.1825E+00  0.7879E+00
     -2.224  0.1715E+00  0.7971E+00
     -2.170  0.1642E+00  0.8060E+00
     -2.116  0.1637E+00  0.8148E+00
     -2.062  0.1681E+00  0.8238E+00
     -2.008  0.1756E+00  0.8333E+00
     -1.954  0.1855E+00  0.8433E+00
     -1.901  0.1972E+00  0.8539E+00
     -1.847  0.2079E+00  0.8651E+00
     -1.793  0.2145E+00  0.8766E+00
     -1.739  0.2175E+00  0.8884E+00
     -1.685  0.2189E+00  0.9001E+00
     -1.631  0.2194E+00  0.9120E+00
     -1.577  0.2177E+00  0.9237E+00
     -1.523  0.2110E+00  0.9351E+00
     -1.470  0.1991E+00  0.9458E+00
     -1.416  0.1874E+00  0.9559E+00
     -1.362  0.1812E+00  0.9656E+00
     -1.308  0.1802E+00  0.9753E+00
     -1.254  0.1772E+00  0.9849E+00
     -1.200  0.1651E+00  0.9938E+00
     -1.146  0.1421E+00  0.1001E+01
     -1.093  0.1100E+00  0.1007E+01
     -1.039  0.7676E-01  0.1011E+01
     -0.985  0.5264E-01  0.1014E+01
     -0.931  0.4053E-01  0.1016E+01
     -0.877  0.3392E-01  0.1018E+01
     -0.823  0.2751E-01  0.1020E+01
     -0.769  0.2294E-01  0.1021E+01
     -0.716  0.2120E-01  0.1022E+01
     -0.662  0.2023E-01  0.1023E+01
     -0.608  0.2135E-01  0.1024E+01
     -0.554  0.2796E-01  0.1026E+01
     -0.500  0.3740E-01  0.1028E+01
     -0.446  0.4314E-01  0.1030E+01
     -0.392  0.4360E-01  0.1033E+01
     -0.339  0.4252E-01  0.1035E+01
     -0.285  0.4328E-01  0.1037E+01
     -0.231  0.4485E-01  0.1040E+01
     -0.177  0.4161E-01  0.1042E+01
     -0.123  0.3170E-01  0.1044E+01
     -0.069  0.2185E-01  0.1045E+01
     -0.015  0.1800E-01  0.1046E+01
      0.039  0.1843E-01  0.1047E+01
      0.092  0.2056E-01  0.1048E+01
      0.146  0.2513E-01  0.1049E+01
      0.200  0.3025E-01  0.1051E+01
      0.254  0.3254E-01  0.1053E+01
      0.308  0.3468E-01  0.1054E+01
      0.362  0.3976E-01  0.1057E+01
      0.416  0.4327E-01  0.1059E+01
      0.469  0.4186E-01  0.1061E+01
      0.523  0.4164E-01  0.1063E+01
      0.577  0.4705E-01  0.1066E+01
      0.631  0.5186E-01  0.1069E+01
      0.685  0.5005E-01  0.1071E+01
      0.739  0.4334E-01  0.1074E+01
      0.793  0.3678E-01  0.1076E+01
      0.846  0.3183E-01  0.1077E+01
      0.900  0.2698E-01  0.1079E+01
      0.954  0.2381E-01  0.1080E+01
      1.008  0.2356E-01  0.1081E+01
      1.062  0.2230E-01  0.1083E+01
      1.116  0.1735E-01  0.1084E+01
      1.170  0.1247E-01  0.1084E+01
      1.223  0.1145E-01  0.1085E+01
      1.277  0.1292E-01  0.1086E+01
      1.331  0.1413E-01  0.1086E+01
      1.385  0.1422E-01  0.1087E+01
      1.439  0.1488E-01  0.1088E+01
      1.493  0.2067E-01  0.1089E+01
      1.547  0.3117E-01  0.1091E+01
      1.600  0.3648E-01  0.1093E+01
      1.654  0.3363E-01  0.1094E+01
      1.708  0.3188E-01  0.1096E+01
      1.762  0.3558E-01  0.1098E+01
      1.816  0.3923E-01  0.1100E+01
      1.870  0.3529E-01  0.1102E+01
      1.924  0.2346E-01  0.1103E+01
      1.978  0.1348E-01  0.1104E+01
      2.031  0.1250E-01  0.1105E+01
      2.085  0.1721E-01  0.1106E+01
      2.139  0.2340E-01  0.1107E+01
      2.193  0.3184E-01  0.1109E+01
      2.247  0.4203E-01  0.1111E+01
      2.301  0.5043E-01  0.1114E+01
      2.355  0.5291E-01  0.1117E+01
      2.408  0.4865E-01  0.1119E+01
      2.462  0.4352E-01  0.1121E+01
      2.516  0.4212E-01  0.1124E+01
      2.570  0.4357E-01  0.1126E+01
      2.624  0.4618E-01  0.1129E+01
      2.678  0.4823E-01  0.1131E+01
      2.732  0.4687E-01  0.1134E+01
      2.785  0.3896E-01  0.1136E+01
      2.839  0.2531E-01  0.1137E+01
      2.893  0.1281E-01  0.1138E+01
      2.947  0.8240E-02  0.1138E+01
      3.001  0.1033E-01  0.1139E+01
      3.055  0.1244E-01  0.1140E+01
      3.109  0.1345E-01  0.1140E+01
      3.162  0.1790E-01  0.1141E+01
      3.216  0.2420E-01  0.1143E+01
      3.270  0.2554E-01  0.1144E+01
      3.324  0.2109E-01  0.1145E+01
      3.378  0.1670E-01  0.1146E+01
      3.432  0.1664E-01  0.1147E+01
      3.486  0.1912E-01  0.1148E+01
      3.539  0.2125E-01  0.1149E+01
      3.593  0.2522E-01  0.1150E+01
      3.647  0.3448E-01  0.1152E+01
      3.701  0.4409E-01  0.1155E+01
      3.755  0.4478E-01  0.1157E+01
      3.809  0.3711E-01  0.1159E+01
      3.863  0.2816E-01  0.1161E+01
      3.917  0.2229E-01  0.1162E+01
      3.970  0.2266E-01  0.1163E+01
      4.024  0.2798E-01  0.1164E+01
      4.078  0.3016E-01  0.1166E+01
      4.132  0.2661E-01  0.1168E+01
      4.186  0.2361E-01  0.1169E+01
      4.240  0.2337E-01  0.1170E+01
      4.294  0.2125E-01  0.1171E+01
      4.347  0.1749E-01  0.1172E+01
      4.401  0.1776E-01  0.1173E+01
      4.455  0.2266E-01  0.1174E+01
      4.509  0.2993E-01  0.1176E+01
      4.563  0.4015E-01  0.1178E+01
      4.617  0.5158E-01  0.1181E+01
      4.671  0.5685E-01  0.1184E+01
      4.724  0.5256E-01  0.1187E+01
      4.778  0.4683E-01  0.1189E+01
      4.832  0.4917E-01  0.1192E+01
      4.886  0.5729E-01  0.1195E+01
      4.940  0.6203E-01  0.1198E+01
      4.994  0.6312E-01  0.1202E+01
      5.048  0.6579E-01  0.1205E+01
      5.101  0.6857E-01  0.1209E+01
      5.155  0.6725E-01  0.1213E+01
      5.209  0.6330E-01  0.1216E+01
      5.263  0.5774E-01  0.1219E+01
      5.317  0.4601E-01  0.1222E+01
      5.371  0.2807E-01  0.1223E+01
      5.425  0.1203E-01  0.1224E+01
      5.478  0.3431E-02  0.1224E+01
      5.532  0.6247E-03  0.1224E+01
      5.586  0.7035E-04  0.1224E+01
      5.640  0.4784E-05  0.1224E+01
      5.694  0.1930E-06  0.1224E+01
      5.748  0.4558E-08  0.1224E+01
      5.802  0.6242E-10  0.1224E+01
      5.856  0.4920E-12  0.1224E+01
      5.909  0.2219E-14  0.1224E+01
      5.963  0.5497E-17  0.1224E+01
      6.017  0.0000E+00  0.1224E+01
      6.071  0.0000E+00  0.1224E+01
      6.125  0.0000E+00  0.1224E+01
      6.179  0.0000E+00  0.1224E+01
      6.233  0.0000E+00  0.1224E+01
      6.286  0.0000E+00  0.1224E+01
      6.340  0.0000E+00  0.1224E+01
