  56  56   0   0
  0.4903395E+02  0.1100258E-08  0.1100258E-08  0.2619179E-08  0.3500000E-15
  1.000000000000000E-004
  CAR 
 unknown system                          
      6.41081003    -21.58178534  301     -1.24336235      1.00000000
    -21.582  0.0000E+00  0.0000E+00
    -21.488  0.0000E+00  0.0000E+00
    -21.395  0.0000E+00  0.0000E+00
    -21.302  0.0000E+00  0.0000E+00
    -21.209  0.0000E+00  0.0000E+00
    -21.115  0.0000E+00  0.0000E+00
    -21.022  0.0000E+00  0.0000E+00
    -20.929  0.0000E+00  0.0000E+00
    -20.835  0.2024E-14  0.1889E-15
    -20.742  0.1897E-10  0.1770E-11
    -20.649  0.3244E-07  0.3029E-08
    -20.555  0.1033E-04  0.9672E-06
    -20.462  0.6346E-03  0.6018E-04
    -20.369  0.8049E-02  0.8112E-03
    -20.275  0.2578E-01  0.3217E-02
    -20.182  0.4094E-01  0.7037E-02
    -20.089  0.5897E-01  0.1254E-01
    -19.996  0.6305E-01  0.1842E-01
    -19.902  0.4918E-01  0.2301E-01
    -19.809  0.3631E-01  0.2640E-01
    -19.716  0.2941E-01  0.2914E-01
    -19.622  0.2290E-01  0.3128E-01
    -19.529  0.7176E-02  0.3195E-01
    -19.436  0.5262E-03  0.3200E-01
    -19.342  0.7846E-05  0.3200E-01
    -19.249  0.2246E-07  0.3200E-01
    -19.156  0.1196E-10  0.3200E-01
    -19.062  0.1160E-14  0.3200E-01
    -18.969  0.0000E+00  0.3200E-01
    -18.876  0.0000E+00  0.3200E-01
    -18.783  0.0000E+00  0.3200E-01
    -18.689  0.0000E+00  0.3200E-01
    -18.596  0.0000E+00  0.3200E-01
    -18.503  0.0000E+00  0.3200E-01
    -18.409  0.0000E+00  0.3200E-01
    -18.316  0.0000E+00  0.3200E-01
    -18.223  0.0000E+00  0.3200E-01
    -18.129  0.0000E+00  0.3200E-01
    -18.036  0.0000E+00  0.3200E-01
    -17.943  0.0000E+00  0.3200E-01
    -17.849  0.0000E+00  0.3200E-01
    -17.756  0.0000E+00  0.3200E-01
    -17.663  0.0000E+00  0.3200E-01
    -17.570  0.0000E+00  0.3200E-01
    -17.476  0.0000E+00  0.3200E-01
    -17.383  0.0000E+00  0.3200E-01
    -17.290  0.0000E+00  0.3200E-01
    -17.196  0.0000E+00  0.3200E-01
    -17.103  0.0000E+00  0.3200E-01
    -17.010  0.0000E+00  0.3200E-01
    -16.916  0.0000E+00  0.3200E-01
    -16.823  0.0000E+00  0.3200E-01
    -16.730  0.0000E+00  0.3200E-01
    -16.636  0.0000E+00  0.3200E-01
    -16.543  0.0000E+00  0.3200E-01
    -16.450  0.0000E+00  0.3200E-01
    -16.357  0.0000E+00  0.3200E-01
    -16.263  0.0000E+00  0.3200E-01
    -16.170  0.0000E+00  0.3200E-01
    -16.077  0.0000E+00  0.3200E-01
    -15.983  0.0000E+00  0.3200E-01
    -15.890  0.0000E+00  0.3200E-01
    -15.797  0.0000E+00  0.3200E-01
    -15.703  0.0000E+00  0.3200E-01
    -15.610  0.0000E+00  0.3200E-01
    -15.517  0.0000E+00  0.3200E-01
    -15.423  0.0000E+00  0.3200E-01
    -15.330  0.0000E+00  0.3200E-01
    -15.237  0.0000E+00  0.3200E-01
    -15.143  0.0000E+00  0.3200E-01
    -15.050  0.0000E+00  0.3200E-01
    -14.957  0.0000E+00  0.3200E-01
    -14.864  0.0000E+00  0.3200E-01
    -14.770  0.0000E+00  0.3200E-01
    -14.677  0.0000E+00  0.3200E-01
    -14.584  0.0000E+00  0.3200E-01
    -14.490  0.0000E+00  0.3200E-01
    -14.397  0.0000E+00  0.3200E-01
    -14.304  0.0000E+00  0.3200E-01
    -14.210  0.0000E+00  0.3200E-01
    -14.117  0.0000E+00  0.3200E-01
    -14.024  0.0000E+00  0.3200E-01
    -13.930  0.0000E+00  0.3200E-01
    -13.837  0.0000E+00  0.3200E-01
    -13.744  0.0000E+00  0.3200E-01
    -13.651  0.0000E+00  0.3200E-01
    -13.557  0.0000E+00  0.3200E-01
    -13.464  0.0000E+00  0.3200E-01
    -13.371  0.0000E+00  0.3200E-01
    -13.277  0.0000E+00  0.3200E-01
    -13.184  0.0000E+00  0.3200E-01
    -13.091  0.0000E+00  0.3200E-01
    -12.997  0.0000E+00  0.3200E-01
    -12.904  0.0000E+00  0.3200E-01
    -12.811  0.0000E+00  0.3200E-01
    -12.717  0.0000E+00  0.3200E-01
    -12.624  0.0000E+00  0.3200E-01
    -12.531  0.0000E+00  0.3200E-01
    -12.438  0.0000E+00  0.3200E-01
    -12.344  0.0000E+00  0.3200E-01
    -12.251  0.0000E+00  0.3200E-01
    -12.158  0.0000E+00  0.3200E-01
    -12.064  0.0000E+00  0.3200E-01
    -11.971  0.0000E+00  0.3200E-01
    -11.878  0.0000E+00  0.3200E-01
    -11.784  0.0000E+00  0.3200E-01
    -11.691  0.0000E+00  0.3200E-01
    -11.598  0.0000E+00  0.3200E-01
    -11.504  0.0000E+00  0.3200E-01
    -11.411  0.0000E+00  0.3200E-01
    -11.318  0.0000E+00  0.3200E-01
    -11.225  0.0000E+00  0.3200E-01
    -11.131  0.0000E+00  0.3200E-01
    -11.038  0.0000E+00  0.3200E-01
    -10.945  0.0000E+00  0.3200E-01
    -10.851  0.0000E+00  0.3200E-01
    -10.758  0.0000E+00  0.3200E-01
    -10.665  0.0000E+00  0.3200E-01
    -10.571  0.0000E+00  0.3200E-01
    -10.478  0.0000E+00  0.3200E-01
    -10.385  0.0000E+00  0.3200E-01
    -10.291  0.0000E+00  0.3200E-01
    -10.198  0.0000E+00  0.3200E-01
    -10.105  0.0000E+00  0.3200E-01
    -10.012  0.0000E+00  0.3200E-01
     -9.918  0.2380E-16  0.3200E-01
     -9.825  0.4152E-12  0.3200E-01
     -9.732  0.1315E-08  0.3200E-01
     -9.638  0.7691E-06  0.3200E-01
     -9.545  0.8535E-04  0.3201E-01
     -9.452  0.1877E-02  0.3218E-01
     -9.358  0.8677E-02  0.3299E-01
     -9.265  0.9597E-02  0.3389E-01
     -9.172  0.8188E-02  0.3465E-01
     -9.078  0.1037E-01  0.3562E-01
     -8.985  0.3774E-02  0.3597E-01
     -8.892  0.4080E-03  0.3601E-01
     -8.799  0.1675E-02  0.3617E-01
     -8.705  0.7338E-02  0.3685E-01
     -8.612  0.1402E-01  0.3816E-01
     -8.519  0.2020E-01  0.4004E-01
     -8.425  0.1665E-01  0.4160E-01
     -8.332  0.8945E-02  0.4243E-01
     -8.239  0.1115E-01  0.4347E-01
     -8.145  0.1467E-01  0.4484E-01
     -8.052  0.2096E-01  0.4680E-01
     -7.959  0.1902E-01  0.4857E-01
     -7.865  0.2535E-01  0.5094E-01
     -7.772  0.5545E-01  0.5611E-01
     -7.679  0.8948E-01  0.6446E-01
     -7.585  0.1056E+00  0.7431E-01
     -7.492  0.1057E+00  0.8418E-01
     -7.399  0.1137E+00  0.9479E-01
     -7.306  0.1147E+00  0.1055E+00
     -7.212  0.1204E+00  0.1167E+00
     -7.119  0.1288E+00  0.1287E+00
     -7.026  0.1377E+00  0.1416E+00
     -6.932  0.1317E+00  0.1539E+00
     -6.839  0.1329E+00  0.1663E+00
     -6.746  0.1537E+00  0.1806E+00
     -6.652  0.1636E+00  0.1959E+00
     -6.559  0.1554E+00  0.2104E+00
     -6.466  0.1515E+00  0.2245E+00
     -6.372  0.1641E+00  0.2398E+00
     -6.279  0.1725E+00  0.2559E+00
     -6.186  0.1684E+00  0.2716E+00
     -6.093  0.1598E+00  0.2866E+00
     -5.999  0.1544E+00  0.3010E+00
     -5.906  0.1478E+00  0.3148E+00
     -5.813  0.1524E+00  0.3290E+00
     -5.719  0.1712E+00  0.3450E+00
     -5.626  0.1794E+00  0.3617E+00
     -5.533  0.1747E+00  0.3780E+00
     -5.439  0.1773E+00  0.3945E+00
     -5.346  0.1760E+00  0.4110E+00
     -5.253  0.1638E+00  0.4262E+00
     -5.159  0.1731E+00  0.4424E+00
     -5.066  0.1871E+00  0.4599E+00
     -4.973  0.1796E+00  0.4766E+00
     -4.880  0.1712E+00  0.4926E+00
     -4.786  0.1703E+00  0.5085E+00
     -4.693  0.1875E+00  0.5260E+00
     -4.600  0.1967E+00  0.5443E+00
     -4.506  0.1866E+00  0.5617E+00
     -4.413  0.1790E+00  0.5784E+00
     -4.320  0.1887E+00  0.5961E+00
     -4.226  0.1992E+00  0.6146E+00
     -4.133  0.2102E+00  0.6343E+00
     -4.040  0.2211E+00  0.6549E+00
     -3.946  0.2251E+00  0.6759E+00
     -3.853  0.2153E+00  0.6960E+00
     -3.760  0.2029E+00  0.7149E+00
     -3.667  0.1940E+00  0.7330E+00
     -3.573  0.1908E+00  0.7508E+00
     -3.480  0.1900E+00  0.7685E+00
     -3.387  0.1851E+00  0.7858E+00
     -3.293  0.1849E+00  0.8031E+00
     -3.200  0.1854E+00  0.8204E+00
     -3.107  0.1758E+00  0.8368E+00
     -3.013  0.1586E+00  0.8516E+00
     -2.920  0.1541E+00  0.8660E+00
     -2.827  0.1657E+00  0.8814E+00
     -2.733  0.1756E+00  0.8978E+00
     -2.640  0.1816E+00  0.9147E+00
     -2.547  0.1864E+00  0.9321E+00
     -2.454  0.1829E+00  0.9492E+00
     -2.360  0.1751E+00  0.9655E+00
     -2.267  0.1803E+00  0.9824E+00
     -2.174  0.1824E+00  0.9994E+00
     -2.080  0.1888E+00  0.1017E+01
     -1.987  0.1769E+00  0.1034E+01
     -1.894  0.1520E+00  0.1048E+01
     -1.800  0.1259E+00  0.1059E+01
     -1.707  0.1108E+00  0.1070E+01
     -1.614  0.9544E-01  0.1079E+01
     -1.520  0.7792E-01  0.1086E+01
     -1.427  0.7010E-01  0.1092E+01
     -1.334  0.6385E-01  0.1098E+01
     -1.240  0.6145E-01  0.1104E+01
     -1.147  0.7195E-01  0.1111E+01
     -1.054  0.7697E-01  0.1118E+01
     -0.961  0.7420E-01  0.1125E+01
     -0.867  0.7108E-01  0.1132E+01
     -0.774  0.7374E-01  0.1139E+01
     -0.681  0.7105E-01  0.1145E+01
     -0.587  0.6197E-01  0.1151E+01
     -0.494  0.4389E-01  0.1155E+01
     -0.401  0.3339E-01  0.1158E+01
     -0.307  0.3347E-01  0.1161E+01
     -0.214  0.2539E-01  0.1164E+01
     -0.121  0.1650E-01  0.1165E+01
     -0.027  0.1348E-01  0.1166E+01
      0.066  0.2681E-01  0.1169E+01
      0.159  0.4347E-01  0.1173E+01
      0.252  0.4765E-01  0.1177E+01
      0.346  0.5220E-01  0.1182E+01
      0.439  0.4521E-01  0.1187E+01
      0.532  0.3329E-01  0.1190E+01
      0.626  0.2288E-01  0.1192E+01
      0.719  0.1875E-01  0.1194E+01
      0.812  0.2286E-01  0.1196E+01
      0.906  0.2328E-01  0.1198E+01
      0.999  0.2122E-01  0.1200E+01
      1.092  0.1531E-01  0.1201E+01
      1.186  0.1278E-01  0.1202E+01
      1.279  0.2354E-01  0.1205E+01
      1.372  0.3576E-01  0.1208E+01
      1.465  0.3551E-01  0.1211E+01
      1.559  0.2806E-01  0.1214E+01
      1.652  0.3825E-01  0.1217E+01
      1.745  0.4801E-01  0.1222E+01
      1.839  0.4111E-01  0.1226E+01
      1.932  0.3109E-01  0.1229E+01
      2.025  0.2784E-01  0.1231E+01
      2.119  0.2722E-01  0.1234E+01
      2.212  0.1883E-01  0.1236E+01
      2.305  0.1664E-01  0.1237E+01
      2.399  0.2304E-01  0.1239E+01
      2.492  0.2148E-01  0.1241E+01
      2.585  0.1982E-01  0.1243E+01
      2.678  0.2191E-01  0.1245E+01
      2.772  0.2387E-01  0.1247E+01
      2.865  0.2736E-01  0.1250E+01
      2.958  0.3144E-01  0.1253E+01
      3.052  0.3284E-01  0.1256E+01
      3.145  0.3008E-01  0.1259E+01
      3.238  0.2454E-01  0.1261E+01
      3.332  0.2643E-01  0.1264E+01
      3.425  0.2916E-01  0.1266E+01
      3.518  0.2599E-01  0.1269E+01
      3.612  0.2645E-01  0.1271E+01
      3.705  0.3518E-01  0.1274E+01
      3.798  0.4294E-01  0.1278E+01
      3.891  0.4613E-01  0.1283E+01
      3.985  0.4574E-01  0.1287E+01
      4.078  0.4154E-01  0.1291E+01
      4.171  0.4477E-01  0.1295E+01
      4.265  0.4571E-01  0.1299E+01
      4.358  0.3980E-01  0.1303E+01
      4.451  0.4046E-01  0.1307E+01
      4.545  0.4710E-01  0.1311E+01
      4.638  0.5150E-01  0.1316E+01
      4.731  0.4989E-01  0.1321E+01
      4.825  0.5310E-01  0.1326E+01
      4.918  0.6112E-01  0.1331E+01
      5.011  0.6405E-01  0.1337E+01
      5.104  0.4868E-01  0.1342E+01
      5.198  0.1965E-01  0.1344E+01
      5.291  0.3451E-02  0.1344E+01
      5.384  0.1974E-03  0.1344E+01
      5.478  0.2739E-05  0.1344E+01
      5.571  0.7845E-08  0.1344E+01
      5.664  0.4320E-11  0.1344E+01
      5.758  0.4434E-15  0.1344E+01
      5.851  0.0000E+00  0.1344E+01
      5.944  0.0000E+00  0.1344E+01
      6.038  0.0000E+00  0.1344E+01
      6.131  0.0000E+00  0.1344E+01
      6.224  0.0000E+00  0.1344E+01
      6.318  0.0000E+00  0.1344E+01
      6.411  0.0000E+00  0.1344E+01
