unknown system                          
           1
    11.002582    0.000000    0.000000
     5.501291    9.528515    0.000000
     0.000000    0.000000   26.191785
   Au   O    Pd
  24   8  24
Direct configuration=     1
   0.08333333  0.08333333  0.38179910
   0.08333333  0.83333333  0.38179910
   0.66666667  0.91666667  0.46754708
   0.83333333  0.83333333  0.38179910
   0.08333333  0.33333333  0.38179910
   0.66666667  0.66666667  0.46754708
   0.83333333  0.58333333  0.38179910
   0.66666667  0.41666667  0.46754708
   0.08333333  0.58333333  0.38179910
   0.91666667  0.66666667  0.46754708
   0.83333333  0.33333333  0.38179910
   0.16666667  0.91666667  0.46754708
   0.33333333  0.83333333  0.38179910
   0.58333333  0.83333333  0.38179910
   0.16666667  0.16666667  0.46754708
   0.41666667  0.66666667  0.46754708
   0.58333333  0.58333333  0.38179910
   0.33333333  0.33333333  0.38179910
   0.58333333  0.33333333  0.38179910
   0.41666667  0.16666667  0.46754708
   0.58333333  0.08333333  0.38179910
   0.33333333  0.58333333  0.38179910
   0.25000000  0.75000000  0.55329505
   0.41666667  0.91666667  0.46754708
   0.33333333  0.33333333  0.61820090
   0.08333333  0.58333333  0.61820090
   0.08333333  0.33333333  0.61820090
   0.83333333  0.83333333  0.61820090
   0.58333333  0.83333333  0.61820090
   0.83333333  0.58333333  0.61820090
   0.58333333  0.58333333  0.61820090
   0.83333333  0.08333333  0.61820090
   0.41666667  0.41666667  0.46754708
   0.50000000  0.25000000  0.55329505
   0.75000000  0.75000000  0.55329505
   0.16666667  0.66666667  0.46754708
   0.25000000  0.00000000  0.55329505
   0.50000000  0.50000000  0.55329505
   0.33333333  0.08333333  0.38179910
   0.16666667  0.41666667  0.46754708
   0.50000000  0.75000000  0.55329505
   0.00000000  0.75000000  0.55329505
   0.91666667  0.91666667  0.46754708
   0.83333333  0.08333333  0.38179910
   0.66666667  0.16666667  0.46754708
   0.75000000  0.00000000  0.55329505
   0.00000000  0.50000000  0.55329505
   0.75000000  0.25000000  0.55329505
   0.00000000  0.25000000  0.55329505
   0.91666667  0.41666667  0.46754708
   0.75000000  0.50000000  0.55329505
   0.00000000  0.00000000  0.55329505
   0.91666667  0.16666667  0.46754708
   0.25000000  0.50000000  0.55329505
   0.25000000  0.25000000  0.55329505
   0.50000000  0.00000000  0.55329505
Direct configuration=     2
   0.08333333  0.08333333  0.38179910
   0.08333333  0.83333333  0.38179910
   0.66793628  0.91764409  0.46888137
   0.83333333  0.83333333  0.38179910
   0.08333333  0.33333333  0.38179910
   0.66786125  0.66577244  0.46867394
   0.83333333  0.58333333  0.38179910
   0.66812391  0.41429426  0.46906260
   0.08333333  0.58333333  0.38179910
   0.91842156  0.66551744  0.46884479
   0.83333333  0.33333333  0.38179910
   0.16403562  0.91769047  0.46862811
   0.33333333  0.83333333  0.38179910
   0.58333333  0.83333333  0.38179910
   0.16563450  0.16827482  0.46846034
   0.41650698  0.66544940  0.46851917
   0.58333333  0.58333333  0.38179910
   0.33333333  0.33333333  0.38179910
   0.58333333  0.33333333  0.38179910
   0.41609581  0.16797220  0.46872284
   0.58333333  0.08333333  0.38179910
   0.33333333  0.58333333  0.38179910
   0.24948033  0.75019328  0.55505135
   0.41632931  0.91724145  0.46850531
   0.33549400  0.33258670  0.61388628
   0.08398875  0.58439536  0.61419301
   0.08286219  0.33130333  0.61395314
   0.83406192  0.83395892  0.61429299
   0.58153292  0.83564563  0.61402920
   0.83344161  0.58251422  0.61444715
   0.58278597  0.58188305  0.61393293
   0.83344800  0.08426199  0.61381267
   0.41569967  0.41723913  0.46878656
   0.49889195  0.25090811  0.55535478
   0.74977420  0.75017847  0.55804104
   0.16617362  0.66554787  0.46852012
   0.24953443  0.00046260  0.55444019
   0.50078040  0.49996528  0.55552132
   0.33333333  0.08333333  0.38179910
   0.16641326  0.41729248  0.46815785
   0.50033181  0.74998055  0.55723746
  -0.00006936  0.74991915  0.55665658
   0.91676174  0.91734822  0.46813203
   0.83333333  0.08333333  0.38179910
   0.66750701  0.16634842  0.46859007
   0.75105160  0.00032624  0.55670186
  -0.00018246  0.49967762  0.55748529
   0.75131501  0.24766628  0.55540689
   0.00065457  0.25031666  0.55533781
   0.91708065  0.41655504  0.46867498
   0.75003358  0.49978802  0.55696225
  -0.00247179  0.00182945  0.55545615
   0.91613293  0.16655391  0.46833805
   0.25013855  0.49902998  0.55651530
   0.24954211  0.25076380  0.55705692
   0.50019403 -0.00109747  0.55582271
Direct configuration=     3
   0.08333333  0.08333333  0.38179910
   0.08333333  0.83333333  0.38179910
   0.67027419  0.91944395  0.47133836
   0.83333333  0.83333333  0.38179910
   0.08333333  0.33333333  0.38179910
   0.67006098  0.66412580  0.47074898
   0.83333333  0.58333333  0.38179910
   0.67080731  0.40992564  0.47185333
   0.08333333  0.58333333  0.38179910
   0.92165307  0.66340123  0.47123444
   0.83333333  0.33333333  0.38179910
   0.15919073  0.91957574  0.47061875
   0.33333333  0.83333333  0.38179910
   0.58333333  0.83333333  0.38179910
   0.16373385  0.17123610  0.47014204
   0.41621294  0.66320789  0.47030921
   0.58333333  0.58333333  0.38179910
   0.33333333  0.33333333  0.38179910
   0.58333333  0.33333333  0.38179910
   0.41504463  0.17037624  0.47088791
   0.58333333  0.08333333  0.38179910
   0.33333333  0.58333333  0.38179910
   0.24852338  0.75054918  0.55828544
   0.41570808  0.91829988  0.47026982
   0.33947270  0.33121183  0.60594123
   0.08519564  0.58635100  0.60681278
   0.08199462  0.32756522  0.60613120
   0.83540356  0.83511088  0.60709686
   0.57821759  0.83990354  0.60634732
   0.83364098  0.58100589  0.60753489
   0.58177803  0.57921245  0.60607378
   0.83365915  0.08597203  0.60573206
   0.41391901  0.41829328  0.47106897
   0.49685157  0.25258031  0.55914761
   0.74935840  0.75050712  0.56678043
   0.16526571  0.66348768  0.47031191
   0.24867711  0.00131445  0.55654888
   0.50221745  0.49990135  0.55962082
   0.33333333  0.08333333  0.38179910
   0.16594663  0.41844488  0.46928254
   0.50094282  0.74994473  0.56449711
  -0.00019709  0.74977027  0.56284658
   0.91693682  0.91860325  0.46920919
   0.83333333  0.08333333  0.38179910
   0.66905443  0.16576239  0.47051066
   0.75298805  0.00092700  0.56297526
  -0.00051844  0.49908398  0.56520130
   0.75373651  0.24336890  0.55929567
   0.00185992  0.25089977  0.55909939
   0.91784296  0.41634950  0.47075193
   0.75009541  0.49939768  0.56371513
  -0.00702342  0.00519824  0.55943565
   0.91515008  0.16634628  0.46979457
   0.25039369  0.49724375  0.56244515
   0.24869895  0.25217028  0.56398411
   0.50055133 -0.00311838  0.56047721
Direct configuration=     4
   0.08333333  0.08333333  0.38179910
   0.08333333  0.83333333  0.38179910
   0.66974263  0.91903472  0.47077973
   0.83333333  0.83333333  0.38179910
   0.08333333  0.33333333  0.38179910
   0.66956084  0.66450019  0.47027719
   0.83333333  0.58333333  0.38179910
   0.67019719  0.41091891  0.47121882
   0.08333333  0.58333333  0.38179910
   0.92091834  0.66388238  0.47069112
   0.83333333  0.33333333  0.38179910
   0.16029229  0.91914709  0.47016614
   0.33333333  0.83333333  0.38179910
   0.58333333  0.83333333  0.38179910
   0.16416600  0.17056281  0.46975968
   0.41627979  0.66371753  0.46990222
   0.58333333  0.58333333  0.38179910
   0.33333333  0.33333333  0.38179910
   0.58333333  0.33333333  0.38179910
   0.41528363  0.16982965  0.47039565
   0.58333333  0.08333333  0.38179910
   0.33333333  0.58333333  0.38179910
   0.24874096  0.75046826  0.55755012
   0.41584933  0.91805923  0.46986863
   0.33856808  0.33152443  0.60774766
   0.08492124  0.58590635  0.60849079
   0.08219187  0.32841514  0.60790964
   0.83509852  0.83484897  0.60873301
   0.57897138  0.83893544  0.60809392
   0.83359565  0.58134883  0.60910650
   0.58200720  0.57981965  0.60786068
   0.83361114  0.08558323  0.60756931
   0.41432387  0.41805361  0.47055002
   0.49731548  0.25220011  0.55828525
   0.74945294  0.75043239  0.56479340
   0.16547214  0.66395609  0.46990452
   0.24887204  0.00112077  0.55606944
   0.50189071  0.49991588  0.55868873
   0.33333333  0.08333333  0.38179910
   0.16605273  0.41818287  0.46902683
   0.50080390  0.74995287  0.56284651
  -0.00016805  0.74980412  0.56143919
   0.91689702  0.91831790  0.46896428
   0.83333333  0.08333333  0.38179910
   0.66870260  0.16589564  0.47007399
   0.75254777  0.00079041  0.56154890
  -0.00044205  0.49921895  0.56344695
   0.75318595  0.24434597  0.55841150
   0.00158586  0.25076719  0.55824414
   0.91766964  0.41639623  0.47027970
   0.75008135  0.49948643  0.56217976
  -0.00598854  0.00443229  0.55853085
   0.91537355  0.16639349  0.46946341
   0.25033568  0.49764988  0.56109690
   0.24889065  0.25185049  0.56240911
   0.50047009 -0.00265890  0.55941894
Direct configuration=     5
   0.08333333  0.08333333  0.38179910
   0.08333333  0.83333333  0.38179910
   0.66990684  0.91916114  0.47095231
   0.83333333  0.83333333  0.38179910
   0.08333333  0.33333333  0.38179910
   0.66971535  0.66438453  0.47042294
   0.83333333  0.58333333  0.38179910
   0.67038567  0.41061207  0.47141483
   0.08333333  0.58333333  0.38179910
   0.92114531  0.66373374  0.47085896
   0.83333333  0.33333333  0.38179910
   0.15995199  0.91927951  0.47030597
   0.33333333  0.83333333  0.38179910
   0.58333333  0.83333333  0.38179910
   0.16403250  0.17077081  0.46987780
   0.41625914  0.66356009  0.47002795
   0.58333333  0.58333333  0.38179910
   0.33333333  0.33333333  0.38179910
   0.58333333  0.33333333  0.38179910
   0.41520979  0.16999850  0.47054772
   0.58333333  0.08333333  0.38179910
   0.33333333  0.58333333  0.38179910
   0.24867375  0.75049326  0.55777728
   0.41580569  0.91813357  0.46999257
   0.33884754  0.33142786  0.60718961
   0.08500601  0.58604372  0.60797240
   0.08213093  0.32815257  0.60736023
   0.83519276  0.83492988  0.60822756
   0.57873851  0.83923451  0.60755435
   0.83360965  0.58124289  0.60862099
   0.58193641  0.57963207  0.60730866
   0.83362597  0.08570334  0.60700174
   0.41419880  0.41812765  0.47071034
   0.49717217  0.25231757  0.55855166
   0.74942373  0.75045548  0.56540725
   0.16540837  0.66381139  0.47003038
   0.24881182  0.00118060  0.55621755
   0.50199165  0.49991139  0.55897668
   0.33333333  0.08333333  0.38179910
   0.16601995  0.41826381  0.46910582
   0.50084681  0.74995035  0.56335643
  -0.00017702  0.74979366  0.56187397
   0.91690931  0.91840606  0.46903994
   0.83333333  0.08333333  0.38179910
   0.66881129  0.16585447  0.47020889
   0.75268379  0.00083260  0.56198954
  -0.00046565  0.49917725  0.56398891
   0.75335603  0.24404413  0.55868464
   0.00167053  0.25080815  0.55850835
   0.91772318  0.41638179  0.47042558
   0.75008570  0.49945902  0.56265408
  -0.00630824  0.00466892  0.55881037
   0.91530452  0.16637890  0.46956571
   0.25035360  0.49752441  0.56151341
   0.24883143  0.25194928  0.56289567
   0.50049519 -0.00280085  0.55974587
Direct configuration=     6
   0.08333333  0.08333333  0.38179910
   0.08333333  0.83333333  0.38179910
   0.67088347  0.91861980  0.47307762
   0.83333333  0.83333333  0.38179910
   0.08333333  0.33333333  0.38179910
   0.66990591  0.66451350  0.47252414
   0.83333333  0.58333333  0.38179910
   0.67083486  0.41021613  0.47332502
   0.08333333  0.58333333  0.38179910
   0.92068924  0.66413788  0.47307902
   0.83333333  0.33333333  0.38179910
   0.15988468  0.91903612  0.47181209
   0.33333333  0.83333333  0.38179910
   0.58333333  0.83333333  0.38179910
   0.16408116  0.17132665  0.47124853
   0.41657833  0.66392058  0.47163477
   0.58333333  0.58333333  0.38179910
   0.33333333  0.33333333  0.38179910
   0.58333333  0.33333333  0.38179910
   0.41511070  0.16992065  0.47236528
   0.58333333  0.08333333  0.38179910
   0.33333333  0.58333333  0.38179910
   0.24774647  0.75160241  0.55927645
   0.41609047  0.91751104  0.47143706
   0.34255882  0.32961375  0.60642324
   0.08802235  0.58692852  0.60701844
   0.08255233  0.32323062  0.60667656
   0.83574216  0.83747167  0.60743945
   0.57345647  0.84427429  0.60766509
   0.83337804  0.57866529  0.60811784
   0.58008167  0.57784878  0.60656493
   0.83399867  0.08818614  0.60657328
   0.41423760  0.41820874  0.47229098
   0.50134842  0.24995901  0.55889978
   0.75034630  0.75035667  0.56574007
   0.16515842  0.66392868  0.47171344
   0.24760455  0.00126829  0.55737382
   0.50040127  0.49782352  0.55968509
   0.33333333  0.08333333  0.38179910
   0.16599870  0.41820063  0.47061899
   0.49466857  0.75218679  0.56437763
   0.00311200  0.75177569  0.56266599
   0.91668349  0.91790879  0.47026359
   0.83333333  0.08333333  0.38179910
   0.66817642  0.16599936  0.47169003
   0.74694101  0.00266665  0.56297255
  -0.00180827  0.50010988  0.56465862
   0.75025006  0.24919035  0.55933471
  -0.00011739  0.24832477  0.55892596
   0.91756661  0.41659362  0.47196736
   0.75351932  0.49275770  0.56368020
   0.00045012  0.00223933  0.55938567
   0.91539364  0.16674724  0.47073894
   0.25207902  0.50171179  0.56228009
   0.25240816  0.24503531  0.56394076
   0.49729691  0.00280883  0.56031457
Direct configuration=     7
   0.08333333  0.08333333  0.38179910
   0.08333333  0.83333333  0.38179910
   0.67185842  0.91807938  0.47519932
   0.83333333  0.83333333  0.38179910
   0.08333333  0.33333333  0.38179910
   0.67009615  0.66464225  0.47462176
   0.83333333  0.58333333  0.38179910
   0.67128327  0.40982088  0.47523194
   0.08333333  0.58333333  0.38179910
   0.92023394  0.66454132  0.47529530
   0.83333333  0.33333333  0.38179910
   0.15981748  0.91879315  0.47331565
   0.33333333  0.83333333  0.38179910
   0.58333333  0.83333333  0.38179910
   0.16412973  0.17188155  0.47261693
   0.41689697  0.66428045  0.47323884
   0.58333333  0.58333333  0.38179910
   0.33333333  0.33333333  0.38179910
   0.58333333  0.33333333  0.38179910
   0.41501177  0.16984293  0.47417973
   0.58333333  0.08333333  0.38179910
   0.33333333  0.58333333  0.38179910
   0.24682078  0.75270967  0.56077306
   0.41637477  0.91688957  0.47287908
   0.34626377  0.32780274  0.60565818
   0.09103355  0.58781182  0.60606611
   0.08297302  0.31831706  0.60599406
   0.83629062  0.84000913  0.60665268
   0.56818343  0.84930549  0.60777565
   0.83314683  0.57609208  0.60761555
   0.57823010  0.57606854  0.60582247
   0.83437074  0.09066471  0.60614555
   0.41427633  0.41828969  0.47386893
   0.50551755  0.24760448  0.55924731
   0.75126729  0.75025802  0.56607233
   0.16490890  0.66404576  0.47339363
   0.24639933  0.00135583  0.55852811
   0.49881360  0.49573920  0.56039230
   0.33333333  0.08333333  0.38179910
   0.16597748  0.41813755  0.47212957
   0.48850086  0.75441940  0.56539709
   0.00639541  0.75375434  0.56345666
   0.91645806  0.91741238  0.47148515
   0.83333333  0.08333333  0.38179910
   0.66754264  0.16614400  0.47316864
   0.74120802  0.00449756  0.56395388
  -0.00314860  0.50104092  0.56532719
   0.74714939  0.25432779  0.55998368
  -0.00190226  0.24584562  0.55934285
   0.91741030  0.41680508  0.47350652
   0.75694709  0.48606782  0.56470457
   0.00719696 -0.00018611  0.55995999
   0.91548261  0.16711495  0.47191018
   0.25380151  0.50589202  0.56304545
   0.25597879  0.23813313  0.56498408
   0.49410408  0.00840895  0.56088231
Direct configuration=     8
   0.08333333  0.08333333  0.38179910
   0.08333333  0.83333333  0.38179910
   0.67125983  0.91748638  0.47625786
   0.83333333  0.83333333  0.38179910
   0.08333333  0.33333333  0.38179910
   0.66987867  0.66463005  0.47649960
   0.83333333  0.58333333  0.38179910
   0.67040126  0.41143856  0.47551258
   0.08333333  0.58333333  0.38179910
   0.92012789  0.66465726  0.47659915
   0.83333333  0.33333333  0.38179910
   0.16098588  0.91813228  0.47336249
   0.33333333  0.83333333  0.38179910
   0.58333333  0.83333333  0.38179910
   0.16447583  0.17148598  0.47321102
   0.41714788  0.66436563  0.47419346
   0.58333333  0.58333333  0.38179910
   0.33333333  0.33333333  0.38179910
   0.58333333  0.33333333  0.38179910
   0.41510593  0.16972333  0.47457347
   0.58333333  0.08333333  0.38179910
   0.33333333  0.58333333  0.38179910
   0.24825959  0.75354955  0.56280352
   0.41665436  0.91654928  0.47371168
   0.34789973  0.32727356  0.60583878
   0.09196120  0.58784780  0.60776962
   0.08368216  0.31498905  0.60645804
   0.83753284  0.84082812  0.60800461
   0.56415991  0.85320578  0.60804321
   0.83036398  0.57597450  0.60933688
   0.57770575  0.57517831  0.60666115
   0.83539555  0.09205253  0.60555622
   0.41428030  0.41817486  0.47458239
   0.50856725  0.24697388  0.55949770
   0.74738015  0.75062850  0.56614397
   0.16528189  0.66452178  0.47414447
   0.24683500  0.00093089  0.56010482
   0.49550031  0.49493757  0.56076665
   0.33333333  0.08333333  0.38179910
   0.16606436  0.41837466  0.47372464
   0.48655123  0.75572655  0.56655293
   0.00610880  0.75922144  0.56328953
   0.91623034  0.91775868  0.47260542
   0.83333333  0.08333333  0.38179910
   0.66777949  0.16588022  0.47391498
   0.74007892  0.00902814  0.56467390
   0.00231005  0.49688648  0.56490067
   0.74742468  0.25372594  0.56131068
  -0.00291351  0.24284648  0.55958423
   0.91739607  0.41706402  0.47427784
   0.75633252  0.48406695  0.56534060
   0.00549824  0.00088960  0.56150613
   0.91530660  0.16679670  0.47251296
   0.25873313  0.50293838  0.56284379
   0.25680880  0.23674045  0.56593901
   0.49273391  0.00907072  0.56204825
Direct configuration=     9
   0.08333333  0.08333333  0.38179910
   0.08333333  0.83333333  0.38179910
   0.67125807  0.91748464  0.47626097
   0.83333333  0.83333333  0.38179910
   0.08333333  0.33333333  0.38179910
   0.66987803  0.66463001  0.47650512
   0.83333333  0.58333333  0.38179910
   0.67039867  0.41144331  0.47551340
   0.08333333  0.58333333  0.38179910
   0.92012757  0.66465760  0.47660298
   0.83333333  0.33333333  0.38179910
   0.16098932  0.91813034  0.47336263
   0.33333333  0.83333333  0.38179910
   0.58333333  0.83333333  0.38179910
   0.16447685  0.17148482  0.47321277
   0.41714862  0.66436589  0.47419626
   0.58333333  0.58333333  0.38179910
   0.33333333  0.33333333  0.38179910
   0.58333333  0.33333333  0.38179910
   0.41510621  0.16972297  0.47457462
   0.58333333  0.08333333  0.38179910
   0.33333333  0.58333333  0.38179910
   0.24826381  0.75355201  0.56280948
   0.41665518  0.91654828  0.47371412
   0.34790453  0.32727200  0.60583931
   0.09196392  0.58784790  0.60777462
   0.08368424  0.31497928  0.60645940
   0.83753648  0.84083053  0.60800858
   0.56414810  0.85321723  0.60804400
   0.83035581  0.57597415  0.60934193
   0.57770421  0.57517569  0.60666362
   0.83539856  0.09205661  0.60555449
   0.41428031  0.41817453  0.47458449
   0.50857621  0.24697203  0.55949844
   0.74736873  0.75062959  0.56614418
   0.16528298  0.66452318  0.47414667
   0.24683628  0.00092964  0.56010945
   0.49549058  0.49493522  0.56076775
   0.33333333  0.08333333  0.38179910
   0.16606462  0.41837536  0.47372933
   0.48654551  0.75573039  0.56655633
   0.00610796  0.75923750  0.56328904
   0.91622967  0.91775970  0.47260871
   0.83333333  0.08333333  0.38179910
   0.66778019  0.16587945  0.47391717
   0.74007560  0.00904145  0.56467602
   0.00232609  0.49687428  0.56489942
   0.74742549  0.25372418  0.56131457
  -0.00291648  0.24283767  0.55958494
   0.91739603  0.41706478  0.47428011
   0.75633072  0.48406107  0.56534246
   0.00549325  0.00089276  0.56151067
   0.91530608  0.16679576  0.47251474
   0.25874761  0.50292971  0.56284319
   0.25681124  0.23673636  0.56594181
   0.49272989  0.00907266  0.56205167
Direct configuration=    10
   0.08333333  0.08333333  0.38179910
   0.08333333  0.83333333  0.38179910
   0.67037977  0.91743698  0.47666903
   0.83333333  0.83333333  0.38179910
   0.08333333  0.33333333  0.38179910
   0.66957188  0.66449191  0.47756333
   0.83333333  0.58333333  0.38179910
   0.66963717  0.41244402  0.47529631
   0.08333333  0.58333333  0.38179910
   0.92038861  0.66468271  0.47726426
   0.83333333  0.33333333  0.38179910
   0.16191566  0.91768460  0.47341723
   0.33333333  0.83333333  0.38179910
   0.58333333  0.83333333  0.38179910
   0.16476384  0.17076354  0.47341267
   0.41698243  0.66445773  0.47464738
   0.58333333  0.58333333  0.38179910
   0.33333333  0.33333333  0.38179910
   0.58333333  0.33333333  0.38179910
   0.41529581  0.16956099  0.47439671
   0.58333333  0.08333333  0.38179910
   0.33333333  0.58333333  0.38179910
   0.24903929  0.75414691  0.56452724
   0.41663920  0.91660293  0.47408708
   0.34911751  0.32693315  0.60639612
   0.09288663  0.58848711  0.60801599
   0.08375842  0.31295713  0.60713444
   0.83771526  0.84104130  0.60853415
   0.56245017  0.85408850  0.60906134
   0.83064378  0.57556967  0.60970040
   0.57731859  0.57425457  0.60748123
   0.83673003  0.09185234  0.60650869
   0.41433386  0.41789456  0.47435501
   0.50851546  0.24709043  0.55990460
   0.74605390  0.75067702  0.56732380
   0.16579722  0.66514098  0.47453070
   0.24683163  0.00086821  0.56138711
   0.49558879  0.49587853  0.56150306
   0.33333333  0.08333333  0.38179910
   0.16624864  0.41857168  0.47468099
   0.48754814  0.75497858  0.56775775
   0.00496567  0.75973771  0.56423337
   0.91609989  0.91828408  0.47322832
   0.83333333  0.08333333  0.38179910
   0.66835431  0.16575065  0.47395125
   0.74189724  0.00872590  0.56559209
   0.00356060  0.49563398  0.56599378
   0.74692299  0.25473510  0.56179034
  -0.00253827  0.24202152  0.56003223
   0.91757926  0.41701121  0.47457561
   0.75453232  0.48561743  0.56630013
   0.00423805  0.00133394  0.56254676
   0.91492853  0.16642723  0.47266154
   0.25755587  0.50139291  0.56334781
   0.25651030  0.23774041  0.56665529
   0.49255433  0.00941234  0.56272038
Direct configuration=    11
   0.08333333  0.08333333  0.38179910
   0.08333333  0.83333333  0.38179910
   0.66927393  0.91737697  0.47718280
   0.83333333  0.83333333  0.38179910
   0.08333333  0.33333333  0.38179910
   0.66918642  0.66431802  0.47889570
   0.83333333  0.58333333  0.38179910
   0.66867839  0.41370397  0.47502298
   0.08333333  0.58333333  0.38179910
   0.92071726  0.66471431  0.47809686
   0.83333333  0.33333333  0.38179910
   0.16308198  0.91712337  0.47348598
   0.33333333  0.83333333  0.38179910
   0.58333333  0.83333333  0.38179910
   0.16512519  0.16985539  0.47366437
   0.41677318  0.66457337  0.47521537
   0.58333333  0.58333333  0.38179910
   0.33333333  0.33333333  0.38179910
   0.58333333  0.33333333  0.38179910
   0.41553452  0.16935703  0.47417271
   0.58333333  0.08333333  0.38179910
   0.33333333  0.58333333  0.38179910
   0.25001567  0.75489591  0.56669001
   0.41661909  0.91667175  0.47455666
   0.35064473  0.32650650  0.60709718
   0.09404838  0.58929192  0.60831989
   0.08385183  0.31041112  0.60798434
   0.83794035  0.84130668  0.60919588
   0.56031238  0.85518550  0.61034224
   0.83100636  0.57506040  0.61015174
   0.57683307  0.57309482  0.60851067
   0.83840643  0.09159515  0.60771010
   0.41440129  0.41754206  0.47406607
   0.50843898  0.24723951  0.56041598
   0.74439844  0.75073674  0.56880902
   0.16644469  0.66591884  0.47501423
   0.24682577  0.00079085  0.56299578
   0.49571243  0.49706622  0.56242887
   0.33333333  0.08333333  0.38179910
   0.16648034  0.41881886  0.47587919
   0.48881052  0.75403201  0.56927043
   0.00352745  0.76036750  0.56542234
   0.91593650  0.91894430  0.47400845
   0.83333333  0.08333333  0.38179910
   0.66907717  0.16558849  0.47399416
   0.74419080  0.00832860  0.56674550
   0.00511493  0.49407236  0.56737164
   0.74629031  0.25600792  0.56238936
  -0.00206207  0.24099393  0.56059539
   0.91780997  0.41694376  0.47494767
   0.75226801  0.48757700  0.56750589
   0.00265767  0.00188941  0.56385126
   0.91445316  0.16596323  0.47284638
   0.25605540  0.49945797  0.56398315
   0.25613139  0.23900456  0.56755362
   0.49233329  0.00984002  0.56356234
Direct configuration=    12
   0.08333333  0.08333333  0.38179910
   0.08333333  0.83333333  0.38179910
   0.66915517  0.91735838  0.47756525
   0.83333333  0.83333333  0.38179910
   0.08333333  0.33333333  0.38179910
   0.66918410  0.66429506  0.47949772
   0.83333333  0.58333333  0.38179910
   0.66846885  0.41388065  0.47501469
   0.08333333  0.58333333  0.38179910
   0.92080560  0.66485000  0.47860500
   0.83333333  0.33333333  0.38179910
   0.16333954  0.91701677  0.47395780
   0.33333333  0.83333333  0.38179910
   0.58333333  0.83333333  0.38179910
   0.16520438  0.16950176  0.47392181
   0.41642364  0.66478326  0.47563618
   0.58333333  0.58333333  0.38179910
   0.33333333  0.33333333  0.38179910
   0.58333333  0.33333333  0.38179910
   0.41563183  0.16930158  0.47416733
   0.58333333  0.08333333  0.38179910
   0.33333333  0.58333333  0.38179910
   0.24958523  0.75499696  0.56787946
   0.41651781  0.91665307  0.47496374
   0.35150692  0.32609971  0.60800584
   0.09414920  0.58996248  0.60890179
   0.08398129  0.30895264  0.60882988
   0.83734582  0.84109800  0.61001656
   0.55930875  0.85586796  0.61152892
   0.83204622  0.57466745  0.61062122
   0.57660788  0.57284262  0.60984322
   0.83855561  0.09246162  0.60890317
   0.41451095  0.41744168  0.47401819
   0.50844867  0.24726734  0.56047669
   0.74398437  0.75144353  0.56984105
   0.16661727  0.66636164  0.47549369
   0.24677910  0.00087417  0.56383866
   0.49500729  0.49726127  0.56263810
   0.33333333  0.08333333  0.38179910
   0.16655624  0.41879587  0.47634502
   0.48908545  0.75378359  0.57010521
   0.00416620  0.75955424  0.56591722
   0.91593504  0.91900127  0.47438015
   0.83333333  0.08333333  0.38179910
   0.66928285  0.16555705  0.47408918
   0.74447252  0.00840552  0.56719775
   0.00433488  0.49379129  0.56843103
   0.74600789  0.25636978  0.56271337
  -0.00218214  0.24114686  0.56080825
   0.91792603  0.41677378  0.47524787
   0.75207282  0.48776083  0.56797094
   0.00353403  0.00136851  0.56425286
   0.91434264  0.16584580  0.47300533
   0.25600778  0.49936883  0.56398489
   0.25616837  0.23918496  0.56793899
   0.49253457  0.01002964  0.56400463
Direct configuration=    13
   0.08333333  0.08333333  0.38179910
   0.08333333  0.83333333  0.38179910
   0.66891178  0.91732026  0.47834911
   0.83333333  0.83333333  0.38179910
   0.08333333  0.33333333  0.38179910
   0.66917936  0.66424799  0.48073156
   0.83333333  0.58333333  0.38179910
   0.66803939  0.41424275  0.47499769
   0.08333333  0.58333333  0.38179910
   0.92098666  0.66512810  0.47964644
   0.83333333  0.33333333  0.38179910
   0.16386742  0.91679829  0.47492482
   0.33333333  0.83333333  0.38179910
   0.58333333  0.83333333  0.38179910
   0.16536670  0.16877698  0.47444944
   0.41570723  0.66521345  0.47649865
   0.58333333  0.58333333  0.38179910
   0.33333333  0.33333333  0.38179910
   0.58333333  0.33333333  0.38179910
   0.41583128  0.16918791  0.47415631
   0.58333333  0.08333333  0.38179910
   0.33333333  0.58333333  0.38179910
   0.24870303  0.75520406  0.57031729
   0.41631025  0.91661478  0.47579809
   0.35327399  0.32526597  0.60986817
   0.09435585  0.59133681  0.61009440
   0.08424662  0.30596346  0.61056282
   0.83612730  0.84067029  0.61169857
   0.55725180  0.85726669  0.61396106
   0.83417744  0.57386207  0.61158345
   0.57614635  0.57232574  0.61257431
   0.83886137  0.09423750  0.61134841
   0.41473569  0.41723594  0.47392004
   0.50846855  0.24732437  0.56060111
   0.74313574  0.75289211  0.57195624
   0.16697099  0.66726917  0.47647635
   0.24668345  0.00104494  0.56556618
   0.49356207  0.49766104  0.56306691
   0.33333333  0.08333333  0.38179910
   0.16671180  0.41874877  0.47729976
   0.48964892  0.75327444  0.57181612
   0.00547532  0.75788744  0.56693150
   0.91593204  0.91911802  0.47514198
   0.83333333  0.08333333  0.38179910
   0.66970438  0.16549262  0.47428393
   0.74504991  0.00856318  0.56812466
   0.00273613  0.49321523  0.57060226
   0.74542904  0.25711143  0.56337743
  -0.00242821  0.24146029  0.56124451
   0.91816391  0.41642538  0.47586313
   0.75167278  0.48813762  0.56892406
   0.00533015  0.00030090  0.56507594
   0.91411611  0.16560512  0.47333110
   0.25591017  0.49918613  0.56398845
   0.25624414  0.23955469  0.56872882
   0.49294712  0.01041828  0.56491113
Direct configuration=    14
   0.08333333  0.08333333  0.38179910
   0.08333333  0.83333333  0.38179910
   0.66887056  0.91731381  0.47848186
   0.83333333  0.83333333  0.38179910
   0.08333333  0.33333333  0.38179910
   0.66917855  0.66424002  0.48094052
   0.83333333  0.58333333  0.38179910
   0.66796666  0.41430408  0.47499481
   0.08333333  0.58333333  0.38179910
   0.92101732  0.66517520  0.47982282
   0.83333333  0.33333333  0.38179910
   0.16395682  0.91676129  0.47508860
   0.33333333  0.83333333  0.38179910
   0.58333333  0.83333333  0.38179910
   0.16539419  0.16865423  0.47453880
   0.41558590  0.66528630  0.47664472
   0.58333333  0.58333333  0.38179910
   0.33333333  0.33333333  0.38179910
   0.58333333  0.33333333  0.38179910
   0.41586505  0.16916866  0.47415444
   0.58333333  0.08333333  0.38179910
   0.33333333  0.58333333  0.38179910
   0.24855362  0.75523914  0.57073016
   0.41627509  0.91660830  0.47593939
   0.35357326  0.32512477  0.61018357
   0.09439084  0.59156956  0.61029638
   0.08429155  0.30545722  0.61085631
   0.83592094  0.84059786  0.61198344
   0.55690343  0.85750357  0.61437297
   0.83453838  0.57372568  0.61174641
   0.57606819  0.57223820  0.61303685
   0.83891316  0.09453826  0.61176253
   0.41477376  0.41720110  0.47390342
   0.50847191  0.24733403  0.56062219
   0.74299202  0.75313744  0.57231446
   0.16703089  0.66742287  0.47664277
   0.24666725  0.00107386  0.56585875
   0.49331731  0.49772875  0.56313953
   0.33333333  0.08333333  0.38179910
   0.16673814  0.41874079  0.47746146
   0.48974435  0.75318821  0.57210588
   0.00569703  0.75760516  0.56710327
   0.91593154  0.91913779  0.47527100
   0.83333333  0.08333333  0.38179910
   0.66977577  0.16548171  0.47431692