  56  56   0   0
  0.4903395E+02  0.1100258E-08  0.1100258E-08  0.2619179E-08  0.3500000E-15
  1.000000000000000E-004
  CAR 
 unknown system                          
      6.48629888    -21.71428299  301     -1.37698137      1.00000000
    -21.714  0.0000E+00  0.0000E+00
    -21.620  0.0000E+00  0.0000E+00
    -21.526  0.0000E+00  0.0000E+00
    -21.432  0.0000E+00  0.0000E+00
    -21.338  0.0000E+00  0.0000E+00
    -21.244  0.0000E+00  0.0000E+00
    -21.150  0.0000E+00  0.0000E+00
    -21.056  0.0000E+00  0.0000E+00
    -20.962  0.1323E-14  0.1243E-15
    -20.868  0.1416E-10  0.1331E-11
    -20.774  0.2696E-07  0.2536E-08
    -20.680  0.9317E-05  0.8784E-06
    -20.586  0.6038E-03  0.5763E-04
    -20.492  0.7720E-02  0.7833E-03
    -20.398  0.2068E-01  0.2727E-02
    -20.304  0.1209E-01  0.3864E-02
    -20.210  0.3830E-02  0.4224E-02
    -20.116  0.1731E-01  0.5851E-02
    -20.022  0.3921E-01  0.9537E-02
    -19.928  0.4658E-01  0.1392E-01
    -19.834  0.4965E-01  0.1858E-01
    -19.740  0.4379E-01  0.2270E-01
    -19.646  0.1991E-01  0.2457E-01
    -19.552  0.2137E-01  0.2658E-01
    -19.458  0.1784E-01  0.2826E-01
    -19.364  0.2023E-01  0.3016E-01
    -19.270  0.1636E-01  0.3170E-01
    -19.176  0.3117E-02  0.3199E-01
    -19.082  0.1217E-03  0.3200E-01
    -18.988  0.9153E-06  0.3200E-01
    -18.894  0.1270E-08  0.3200E-01
    -18.800  0.3165E-12  0.3200E-01
    -18.706  0.1417E-16  0.3200E-01
    -18.612  0.0000E+00  0.3200E-01
    -18.518  0.0000E+00  0.3200E-01
    -18.424  0.0000E+00  0.3200E-01
    -18.330  0.0000E+00  0.3200E-01
    -18.236  0.0000E+00  0.3200E-01
    -18.142  0.0000E+00  0.3200E-01
    -18.048  0.0000E+00  0.3200E-01
    -17.954  0.0000E+00  0.3200E-01
    -17.860  0.0000E+00  0.3200E-01
    -17.766  0.0000E+00  0.3200E-01
    -17.672  0.0000E+00  0.3200E-01
    -17.578  0.0000E+00  0.3200E-01
    -17.484  0.0000E+00  0.3200E-01
    -17.390  0.0000E+00  0.3200E-01
    -17.296  0.0000E+00  0.3200E-01
    -17.202  0.0000E+00  0.3200E-01
    -17.108  0.0000E+00  0.3200E-01
    -17.014  0.0000E+00  0.3200E-01
    -16.920  0.0000E+00  0.3200E-01
    -16.826  0.0000E+00  0.3200E-01
    -16.732  0.0000E+00  0.3200E-01
    -16.638  0.0000E+00  0.3200E-01
    -16.544  0.0000E+00  0.3200E-01
    -16.450  0.0000E+00  0.3200E-01
    -16.356  0.0000E+00  0.3200E-01
    -16.262  0.0000E+00  0.3200E-01
    -16.168  0.0000E+00  0.3200E-01
    -16.074  0.0000E+00  0.3200E-01
    -15.980  0.0000E+00  0.3200E-01
    -15.886  0.0000E+00  0.3200E-01
    -15.792  0.0000E+00  0.3200E-01
    -15.698  0.0000E+00  0.3200E-01
    -15.604  0.0000E+00  0.3200E-01
    -15.510  0.0000E+00  0.3200E-01
    -15.416  0.0000E+00  0.3200E-01
    -15.322  0.0000E+00  0.3200E-01
    -15.228  0.0000E+00  0.3200E-01
    -15.134  0.0000E+00  0.3200E-01
    -15.040  0.0000E+00  0.3200E-01
    -14.946  0.0000E+00  0.3200E-01
    -14.852  0.0000E+00  0.3200E-01
    -14.758  0.0000E+00  0.3200E-01
    -14.664  0.0000E+00  0.3200E-01
    -14.570  0.0000E+00  0.3200E-01
    -14.476  0.0000E+00  0.3200E-01
    -14.382  0.0000E+00  0.3200E-01
    -14.288  0.0000E+00  0.3200E-01
    -14.194  0.0000E+00  0.3200E-01
    -14.100  0.0000E+00  0.3200E-01
    -14.006  0.0000E+00  0.3200E-01
    -13.912  0.0000E+00  0.3200E-01
    -13.818  0.0000E+00  0.3200E-01
    -13.724  0.0000E+00  0.3200E-01
    -13.630  0.0000E+00  0.3200E-01
    -13.536  0.0000E+00  0.3200E-01
    -13.442  0.0000E+00  0.3200E-01
    -13.348  0.0000E+00  0.3200E-01
    -13.254  0.0000E+00  0.3200E-01
    -13.160  0.0000E+00  0.3200E-01
    -13.066  0.0000E+00  0.3200E-01
    -12.972  0.0000E+00  0.3200E-01
    -12.878  0.0000E+00  0.3200E-01
    -12.784  0.0000E+00  0.3200E-01
    -12.690  0.0000E+00  0.3200E-01
    -12.596  0.0000E+00  0.3200E-01
    -12.502  0.0000E+00  0.3200E-01
    -12.408  0.0000E+00  0.3200E-01
    -12.314  0.0000E+00  0.3200E-01
    -12.220  0.0000E+00  0.3200E-01
    -12.126  0.0000E+00  0.3200E-01
    -12.032  0.0000E+00  0.3200E-01
    -11.938  0.0000E+00  0.3200E-01
    -11.844  0.0000E+00  0.3200E-01
    -11.750  0.0000E+00  0.3200E-01
    -11.656  0.0000E+00  0.3200E-01
    -11.562  0.0000E+00  0.3200E-01
    -11.468  0.0000E+00  0.3200E-01
    -11.374  0.0000E+00  0.3200E-01
    -11.280  0.0000E+00  0.3200E-01
    -11.186  0.0000E+00  0.3200E-01
    -11.092  0.0000E+00  0.3200E-01
    -10.998  0.0000E+00  0.3200E-01
    -10.904  0.0000E+00  0.3200E-01
    -10.810  0.0000E+00  0.3200E-01
    -10.716  0.0000E+00  0.3200E-01
    -10.622  0.0000E+00  0.3200E-01
    -10.528  0.0000E+00  0.3200E-01
    -10.434  0.0000E+00  0.3200E-01
    -10.340  0.0000E+00  0.3200E-01
    -10.246  0.0000E+00  0.3200E-01
    -10.152  0.0000E+00  0.3200E-01
    -10.058  0.0000E+00  0.3200E-01
     -9.964  0.0000E+00  0.3200E-01
     -9.870  0.7874E-18  0.3200E-01
     -9.776  0.2671E-13  0.3200E-01
     -9.682  0.1434E-09  0.3200E-01
     -9.588  0.1400E-06  0.3200E-01
     -9.494  0.2550E-04  0.3200E-01
     -9.400  0.9000E-03  0.3209E-01
     -9.306  0.6529E-02  0.3270E-01
     -9.212  0.1111E-01  0.3375E-01
     -9.118  0.9843E-02  0.3467E-01
     -9.024  0.1006E-01  0.3562E-01
     -8.930  0.3939E-02  0.3599E-01
     -8.836  0.2319E-02  0.3620E-01
     -8.742  0.5821E-02  0.3675E-01
     -8.648  0.1054E-01  0.3774E-01
     -8.554  0.1439E-01  0.3910E-01
     -8.460  0.1730E-01  0.4072E-01
     -8.366  0.1963E-01  0.4257E-01
     -8.272  0.2470E-01  0.4489E-01
     -8.178  0.3733E-01  0.4840E-01
     -8.084  0.3993E-01  0.5215E-01
     -7.990  0.3815E-01  0.5574E-01
     -7.896  0.4837E-01  0.6028E-01
     -7.802  0.5810E-01  0.6575E-01
     -7.708  0.7252E-01  0.7256E-01
     -7.614  0.7486E-01  0.7960E-01
     -7.520  0.7821E-01  0.8695E-01
     -7.426  0.9714E-01  0.9608E-01
     -7.332  0.1102E+00  0.1064E+00
     -7.238  0.1218E+00  0.1179E+00
     -7.144  0.1384E+00  0.1309E+00
     -7.050  0.1436E+00  0.1444E+00
     -6.956  0.1327E+00  0.1569E+00
     -6.862  0.1349E+00  0.1696E+00
     -6.768  0.1567E+00  0.1843E+00
     -6.674  0.1727E+00  0.2005E+00
     -6.580  0.1711E+00  0.2166E+00
     -6.486  0.1607E+00  0.2317E+00
     -6.392  0.1582E+00  0.2466E+00
     -6.298  0.1601E+00  0.2616E+00
     -6.204  0.1558E+00  0.2763E+00
     -6.110  0.1576E+00  0.2911E+00
     -6.016  0.1600E+00  0.3061E+00
     -5.922  0.1568E+00  0.3209E+00
     -5.828  0.1603E+00  0.3360E+00
     -5.734  0.1645E+00  0.3514E+00
     -5.640  0.1722E+00  0.3676E+00
     -5.546  0.1788E+00  0.3844E+00
     -5.452  0.1723E+00  0.4006E+00
     -5.358  0.1654E+00  0.4162E+00
     -5.264  0.1615E+00  0.4313E+00
     -5.170  0.1661E+00  0.4469E+00
     -5.076  0.1751E+00  0.4634E+00
     -4.982  0.1749E+00  0.4798E+00
     -4.888  0.1753E+00  0.4963E+00
     -4.794  0.1756E+00  0.5128E+00
     -4.700  0.1773E+00  0.5295E+00
     -4.606  0.1774E+00  0.5462E+00
     -4.512  0.1780E+00  0.5629E+00
     -4.418  0.1784E+00  0.5797E+00
     -4.324  0.1776E+00  0.5964E+00
     -4.230  0.1815E+00  0.6134E+00
     -4.136  0.1868E+00  0.6310E+00
     -4.042  0.1903E+00  0.6489E+00
     -3.948  0.1956E+00  0.6673E+00
     -3.854  0.1977E+00  0.6858E+00
     -3.760  0.1922E+00  0.7039E+00
     -3.666  0.1829E+00  0.7211E+00
     -3.572  0.1763E+00  0.7377E+00
     -3.478  0.1771E+00  0.7543E+00
     -3.384  0.1768E+00  0.7709E+00
     -3.290  0.1733E+00  0.7872E+00
     -3.196  0.1756E+00  0.8037E+00
     -3.102  0.1809E+00  0.8207E+00
     -3.008  0.1855E+00  0.8382E+00
     -2.914  0.1850E+00  0.8556E+00
     -2.820  0.1795E+00  0.8724E+00
     -2.726  0.1741E+00  0.8888E+00
     -2.632  0.1750E+00  0.9052E+00
     -2.538  0.1719E+00  0.9214E+00
     -2.444  0.1717E+00  0.9375E+00
     -2.350  0.1808E+00  0.9545E+00
     -2.256  0.1945E+00  0.9728E+00
     -2.162  0.1978E+00  0.9914E+00
     -2.068  0.1884E+00  0.1009E+01
     -1.974  0.1719E+00  0.1025E+01
     -1.880  0.1647E+00  0.1041E+01
     -1.786  0.1601E+00  0.1056E+01
     -1.692  0.1494E+00  0.1070E+01
     -1.598  0.1373E+00  0.1083E+01
     -1.504  0.1131E+00  0.1093E+01
     -1.410  0.8673E-01  0.1102E+01
     -1.316  0.6793E-01  0.1108E+01
     -1.222  0.5419E-01  0.1113E+01
     -1.128  0.5290E-01  0.1118E+01
     -1.034  0.5183E-01  0.1123E+01
     -0.940  0.5252E-01  0.1128E+01
     -0.846  0.5501E-01  0.1133E+01
     -0.752  0.5644E-01  0.1138E+01
     -0.658  0.5740E-01  0.1144E+01
     -0.564  0.6343E-01  0.1150E+01
     -0.470  0.6254E-01  0.1156E+01
     -0.376  0.4343E-01  0.1160E+01
     -0.282  0.3229E-01  0.1163E+01
     -0.188  0.2875E-01  0.1165E+01
     -0.094  0.2037E-01  0.1167E+01
      0.000  0.1801E-01  0.1169E+01
      0.094  0.2331E-01  0.1171E+01
      0.188  0.2955E-01  0.1174E+01
      0.282  0.3230E-01  0.1177E+01
      0.376  0.3417E-01  0.1180E+01
      0.470  0.3669E-01  0.1184E+01
      0.564  0.3941E-01  0.1187E+01
      0.658  0.3893E-01  0.1191E+01
      0.752  0.3512E-01  0.1194E+01
      0.846  0.2773E-01  0.1197E+01
      0.940  0.2773E-01  0.1200E+01
      1.034  0.2142E-01  0.1202E+01
      1.128  0.1781E-01  0.1203E+01
      1.222  0.1710E-01  0.1205E+01
      1.316  0.1666E-01  0.1206E+01
      1.410  0.2273E-01  0.1209E+01
      1.504  0.3007E-01  0.1211E+01
      1.598  0.3582E-01  0.1215E+01
      1.692  0.3554E-01  0.1218E+01
      1.786  0.3205E-01  0.1221E+01
      1.880  0.3631E-01  0.1224E+01
      1.974  0.3706E-01  0.1228E+01
      2.068  0.2890E-01  0.1231E+01
      2.162  0.3073E-01  0.1234E+01
      2.256  0.3230E-01  0.1237E+01
      2.350  0.3272E-01  0.1240E+01
      2.444  0.2495E-01  0.1242E+01
      2.538  0.1906E-01  0.1244E+01
      2.632  0.2022E-01  0.1246E+01
      2.726  0.2331E-01  0.1248E+01
      2.820  0.2429E-01  0.1250E+01
      2.914  0.2028E-01  0.1252E+01
      3.008  0.2051E-01  0.1254E+01
      3.102  0.2430E-01  0.1256E+01
      3.196  0.3102E-01  0.1259E+01
      3.290  0.3716E-01  0.1263E+01
      3.384  0.3319E-01  0.1266E+01
      3.478  0.3113E-01  0.1269E+01
      3.572  0.3048E-01  0.1272E+01
      3.666  0.2586E-01  0.1274E+01
      3.760  0.2878E-01  0.1277E+01
      3.854  0.3489E-01  0.1280E+01
      3.948  0.3861E-01  0.1284E+01
      4.042  0.3465E-01  0.1287E+01
      4.136  0.2686E-01  0.1289E+01
      4.230  0.3182E-01  0.1292E+01
      4.324  0.3879E-01  0.1296E+01
      4.418  0.4576E-01  0.1300E+01
      4.512  0.5200E-01  0.1305E+01
      4.606  0.5181E-01  0.1310E+01
      4.700  0.4566E-01  0.1314E+01
      4.794  0.5408E-01  0.1320E+01
      4.888  0.6126E-01  0.1325E+01
      4.982  0.5656E-01  0.1331E+01
      5.076  0.5628E-01  0.1336E+01
      5.170  0.5115E-01  0.1341E+01
      5.264  0.2879E-01  0.1343E+01
      5.358  0.5909E-02  0.1344E+01
      5.452  0.3152E-03  0.1344E+01
      5.546  0.3706E-05  0.1344E+01
      5.640  0.8781E-08  0.1344E+01
      5.734  0.3979E-11  0.1344E+01
      5.828  0.3338E-15  0.1344E+01
      5.922  0.0000E+00  0.1344E+01
      6.016  0.0000E+00  0.1344E+01
      6.110  0.0000E+00  0.1344E+01
      6.204  0.0000E+00  0.1344E+01
      6.298  0.0000E+00  0.1344E+01
      6.392  0.0000E+00  0.1344E+01
      6.486  0.0000E+00  0.1344E+01
