 vasp.5.4.1 24Jun15 (build Mar 14 2019 10:18:33) complex                        
  
 executed on INTEL-19.0.2+OPENMPI date 2023.01.24  11:29:51
 running on   36 total cores
 distrk:  each k-point on   36 cores,    1 groups
 distr:  one band on NCORES_PER_BAND=   6 cores,    6 groups


--------------------------------------------------------------------------------------------------------


 INCAR:
 POTCAR:    PAW_PBE Au 04Oct2007                  
 POTCAR:    PAW_PBE O 08Apr2002                   
 POTCAR:    PAW_PBE Pd 04Jan2005                  
 POTCAR:    PAW_PBE Au 04Oct2007                  
  local pseudopotential read in
  partial core-charges read in
  partial kinetic energy density read in
  atomic valenz-charges read in
  non local Contribution for L=           2  read in
    real space projection operators read in
  non local Contribution for L=           2  read in
    real space projection operators read in
  non local Contribution for L=           0  read in
    real space projection operators read in
  non local Contribution for L=           0  read in
    real space projection operators read in
  non local Contribution for L=           1  read in
    real space projection operators read in
  non local Contribution for L=           1  read in
    real space projection operators read in
    PAW grid and wavefunctions read in
 
   number of l-projection  operators is LMAX  =           6
   number of lm-projection operators is LMMAX =          18
 
 POTCAR:    PAW_PBE O 08Apr2002                   
  local pseudopotential read in
  partial core-charges read in
  partial kinetic energy density read in
  kinetic energy density of atom read in
  atomic valenz-charges read in
  non local Contribution for L=           0  read in
    real space projection operators read in
  non local Contribution for L=           0  read in
    real space projection operators read in
  non local Contribution for L=           1  read in
    real space projection operators read in
  non local Contribution for L=           1  read in
    real space projection operators read in
    PAW grid and wavefunctions read in
 
   number of l-projection  operators is LMAX  =           4
   number of lm-projection operators is LMMAX =           8
 
 POTCAR:    PAW_PBE Pd 04Jan2005                  
  local pseudopotential read in
  partial core-charges read in
  partial kinetic energy density read in
  atomic valenz-charges read in
  non local Contribution for L=           2  read in
    real space projection operators read in
  non local Contribution for L=           2  read in
    real space projection operators read in
  non local Contribution for L=           0  read in
    real space projection operators read in
  non local Contribution for L=           0  read in
    real space projection operators read in
  non local Contribution for L=           1  read in
    real space projection operators read in
  non local Contribution for L=           1  read in
    real space projection operators read in
    PAW grid and wavefunctions read in
 
   number of l-projection  operators is LMAX  =           6
   number of lm-projection operators is LMMAX =          18
 
 Optimization of the real space projectors (new method)

 maximal supplied QI-value         = 15.12
 optimisation between [QCUT,QGAM] = [ 10.13, 20.41] = [ 28.73,116.64] Ry 
 Optimized for a Real-space Cutoff    1.51 Angstroem

   l    n(q)    QCUT    max X(q) W(low)/X(q) W(high)/X(q)  e(spline) 
   2      8    10.129    60.898    0.46E-03    0.46E-03    0.14E-06
   2      8    10.129    58.894    0.47E-03    0.47E-03    0.14E-06
   0      9    10.129   109.617    0.16E-03    0.11E-03    0.54E-07
   0      9    10.129    75.026    0.15E-03    0.11E-03    0.52E-07
   1      9    10.129    16.344    0.96E-04    0.15E-03    0.14E-06
   1      9    10.129    10.160    0.81E-04    0.12E-03    0.11E-06
 Optimization of the real space projectors (new method)

 maximal supplied QI-value         = 24.76
 optimisation between [QCUT,QGAM] = [ 10.15, 20.30] = [ 28.85,115.39] Ry 
 Optimized for a Real-space Cutoff    1.38 Angstroem

   l    n(q)    QCUT    max X(q) W(low)/X(q) W(high)/X(q)  e(spline) 
   0      8    10.150    20.381    0.22E-03    0.32E-03    0.29E-06
   0      8    10.150    15.268    0.23E-03    0.35E-03    0.30E-06
   1      8    10.150     5.964    0.46E-03    0.53E-03    0.21E-06
   1      8    10.150     5.382    0.38E-03    0.45E-03    0.19E-06
 Optimization of the real space projectors (new method)

 maximal supplied QI-value         = 14.36
 optimisation between [QCUT,QGAM] = [ 10.20, 20.39] = [ 29.12,116.47] Ry 
 Optimized for a Real-space Cutoff    1.51 Angstroem

   l    n(q)    QCUT    max X(q) W(low)/X(q) W(high)/X(q)  e(spline) 
   2      8    10.197    59.108    0.26E-03    0.14E-03    0.96E-07
   2      8    10.197    58.101    0.27E-03    0.14E-03    0.98E-07
   0      9    10.197   102.235    0.54E-04    0.60E-05    0.72E-07
   0      9    10.197    58.388    0.52E-04    0.60E-05    0.68E-07
   1      9    10.197    22.191    0.18E-03    0.25E-03    0.79E-07
   1      9    10.197    15.590    0.15E-03    0.21E-03    0.69E-07
  PAW_PBE Au 04Oct2007                  :
 energy of atom  1       EATOM= -926.0867
 kinetic energy error for atom=    0.0062 (will be added to EATOM!!)
  PAW_PBE O 08Apr2002                   :
 energy of atom  2       EATOM= -432.3788
 kinetic energy error for atom=    0.1156 (will be added to EATOM!!)
  PAW_PBE Pd 04Jan2005                  :
 energy of atom  3       EATOM= -809.7530
 kinetic energy error for atom=    0.0091 (will be added to EATOM!!)
 
 
 POSCAR: Au  O Pd                                
  positions in direct lattice
  velocities in cartesian coordinates
 exchange correlation table for  LEXCH =        8
   RHO(1)=    0.500       N(1)  =     2000
   RHO(2)=  100.500       N(2)  =     4000

 VTST: version 3.2, (02/03/18)

 CHAIN: initializing optimizer
 
 OPT: Using VASP Conjugate-Gradient optimizer
 CHAIN: Read ICHAIN            0
 
 POSCAR: Au  O Pd                                
  positions in direct lattice
  velocities in cartesian coordinates
 


--------------------------------------------------------------------------------------------------------


 ion  position               nearest neighbor table
   1  0.333  0.833  0.382-  10 2.75  12 2.75  17 2.75  56 2.75  47 2.75  36 2.75  15 2.89  51 2.93
                            53 3.02
   2  0.913  0.919  0.474-  37 2.76  39 2.76  48 2.76  18 2.76  15 2.77  33 2.78   4 2.78  49 2.80
                            46 2.88   7 2.89  36 2.91  19 3.02
   3  0.083  0.583  0.382-   5 2.75   7 2.75  34 2.75  36 2.75   9 2.75  12 2.75  37 2.86  13 2.93
                            39 2.95
   4  0.660  0.919  0.475-  51 2.73  14 2.75  16 2.75  18 2.76   2 2.78  39 2.78  41 2.85  47 2.90
                            42 2.90   7 2.95  43 3.03  19 3.11
   5  0.083  0.333  0.382-   3 2.75   9 2.75  10 2.75  56 2.75  34 2.75  21 2.75  52 2.89  13 2.94
                             6 3.06
   6  0.914  0.418  0.481-  48 2.74  39 2.74  52 2.75  13 2.75  14 2.78  22 2.81  20 2.83  38 2.91
                             8 2.92   9 3.04  21 3.04   5 3.06
   7  0.833  0.833  0.382-   3 2.75   9 2.75  42 2.75  46 2.75  36 2.75  47 2.75   2 2.89  39 2.93
                             4 2.95
   8  0.993  0.244  0.572-  26 2.12  23 2.66  49 2.68  11 2.71  20 2.74  35 2.90   6 2.92  48 2.93
                            38 2.95  52 3.04
   9  0.833  0.583  0.382-   5 2.75   7 2.75  21 2.75  47 2.75   3 2.75  17 2.75  39 2.93  14 2.95
                             6 3.04
  10  0.333  0.083  0.382-   1 2.75   5 2.75  34 2.75  47 2.75  42 2.75  56 2.75  52 2.92  51 2.95
                            16 3.02
  11  0.240  0.999  0.566-  32 2.13  40 2.66  49 2.67   8 2.71  50 2.77  43 2.82  15 2.83  51 2.86
                            52 2.88  35 2.94
  12  0.333  0.583  0.382-   1 2.75  34 2.75  36 2.75  45 2.75  17 2.75   3 2.75  37 2.87  44 2.89
                            53 3.00
  13  0.164  0.419  0.476-  16 2.73  39 2.74   6 2.75  52 2.75  44 2.75  37 2.77  24 2.80   3 2.93
                             5 2.94  34 2.96  35 3.02  38 3.02
  14  0.660  0.670  0.475-  51 2.71   4 2.75  53 2.75  22 2.76  39 2.78   6 2.78  41 2.86  17 2.90
                            47 2.90  50 2.91   9 2.95  20 3.00
  15  0.165  0.919  0.474-  51 2.73  52 2.74  37 2.74  53 2.75   2 2.77  48 2.77  49 2.82  11 2.83
                            56 2.87  36 2.88   1 2.89  40 2.94
  16  0.411  0.169  0.480-  52 2.73  13 2.73   4 2.75  44 2.77  18 2.77  51 2.77  55 2.86  43 2.93
                            35 2.97  10 3.02  34 3.02  42 3.06
  17  0.583  0.583  0.382-   1 2.75  21 2.75  45 2.75  47 2.75  12 2.75   9 2.75  14 2.90  22 2.95
                            53 3.05
  18  0.661  0.170  0.473-  22 2.73  44 2.73  48 2.76   2 2.76   4 2.76  16 2.77  45 2.84  42 2.85
                            46 2.89  23 3.00  55 3.02  19 3.21
  19  0.764  0.989  0.576-  27 2.06  33 2.60  49 2.64  41 2.72  23 2.78  43 2.90  55 2.99   2 3.02
                             4 3.11  18 3.21
  20  0.749  0.497  0.571-  31 2.12   8 2.74  38 2.74  23 2.74  41 2.79  50 2.80   6 2.83  22 2.93
                            14 3.00
  21  0.833  0.333  0.382-   9 2.75  17 2.75  46 2.75  56 2.75   5 2.75  45 2.75  48 2.90  22 3.00
                             6 3.04
  22  0.659  0.419  0.477-  44 2.70  53 2.72  18 2.73  48 2.76  14 2.76   6 2.81  23 2.93  20 2.93
                            45 2.93  17 2.95  21 3.00
  23  0.749  0.248  0.570-  28 2.15   8 2.66  49 2.73  20 2.74  55 2.77  19 2.78  48 2.93  22 2.93
                            18 3.00
  24  0.259  0.502  0.562-  30 2.24  55 2.63  44 2.72  40 2.72  54 2.74  35 2.74  13 2.80  33 2.82
                            37 2.83  38 2.91
  25  0.590  0.817  0.610-  41 1.96  43 1.99  50 2.01
  26  0.071  0.346  0.619-  38 2.00  35 2.01   8 2.12
  27  0.580  0.093  0.617-  55 2.01  43 2.03  19 2.06
  28  0.571  0.341  0.620-  54 1.93  55 2.01  23 2.15
  29  0.268  0.714  0.640-  54 1.89  40 1.92
  30  0.072  0.608  0.613-  33 1.95  38 1.99  24 2.24
  31  0.572  0.589  0.620-  54 1.96  50 2.04  20 2.12
  32  0.320  0.089  0.618-  35 1.97  43 2.02  11 2.13
  33  0.999  0.755  0.562-  30 1.95  19 2.60  49 2.67  40 2.68  38 2.74  41 2.75   2 2.78  39 2.79
                            37 2.82  24 2.82
  34  0.333  0.333  0.382-   3 2.75  10 2.75  12 2.75  42 2.75   5 2.75  45 2.75  44 2.90  13 2.96
                            16 3.02
  35  0.247  0.262  0.577-  32 1.97  26 2.01  55 2.69  24 2.74  38 2.80  43 2.81   8 2.90  11 2.94
                            16 2.97  13 3.02  52 3.16
  36  0.083  0.833  0.382-   3 2.75  12 2.75  46 2.75  56 2.75   7 2.75   1 2.75  37 2.84  15 2.88
                             2 2.91
  37  0.164  0.670  0.472-  53 2.71  15 2.74  44 2.75   2 2.76  13 2.77  39 2.77  33 2.82  24 2.83
                            36 2.84   3 2.86  12 2.87  40 2.97
  38  0.990  0.513  0.573-  30 1.99  26 2.00  41 2.61  33 2.74  20 2.74  35 2.80   6 2.91  24 2.91
                            39 2.93   8 2.95  13 3.02
  39  0.914  0.668  0.476-   6 2.74  13 2.74   2 2.76  37 2.77  14 2.78  41 2.78   4 2.78  33 2.79
                             9 2.93  38 2.93   7 2.93   3 2.95
  40  0.242  0.757  0.569-  29 1.92  11 2.66  50 2.66  33 2.68  49 2.69  24 2.72  54 2.77  53 2.84
                            15 2.94  37 2.97
  41  0.753  0.749  0.565-  25 1.96  38 2.61  19 2.72  33 2.75  39 2.78  20 2.79  43 2.81   4 2.85
                            14 2.86  50 2.92
  42  0.583  0.083  0.382-   7 2.75  34 2.75  45 2.75  47 2.75  46 2.75  10 2.75  18 2.85   4 2.90
                            16 3.06
  43  0.495  0.000  0.574-  25 1.99  32 2.02  27 2.03  35 2.81  41 2.81  11 2.82  55 2.84  50 2.84
                            19 2.90  16 2.93  51 2.99   4 3.03
  44  0.414  0.419  0.474-  22 2.70  24 2.72  53 2.72  18 2.73  37 2.75  13 2.75  16 2.77  12 2.89
                            34 2.90  45 2.91  55 2.93
  45  0.583  0.333  0.382-  12 2.75  17 2.75  42 2.75  46 2.75  21 2.75  34 2.75  18 2.84  44 2.91
                            22 2.93
  46  0.833  0.083  0.382-   7 2.75  21 2.75  36 2.75  45 2.75  42 2.75  56 2.75   2 2.88  18 2.89
                            48 2.92
  47  0.583  0.833  0.382-   9 2.75  10 2.75  17 2.75  42 2.75   1 2.75   7 2.75   4 2.90  14 2.90
                            51 2.96
  48  0.912  0.171  0.476-   6 2.74  52 2.75  18 2.76  22 2.76   2 2.76  15 2.77  49 2.80  21 2.90
                            46 2.92  23 2.93   8 2.93  56 2.95
  49  0.997  1.000  0.562-  19 2.64  11 2.67  33 2.67   8 2.68  40 2.69  23 2.73   2 2.80  48 2.80
                            15 2.82
  50  0.489  0.745  0.567-  25 2.01  31 2.04  40 2.66  53 2.72  11 2.77  20 2.80  43 2.84  51 2.87
                            14 2.91  41 2.92  54 3.17
  51  0.414  0.916  0.477-  14 2.71   4 2.73  15 2.73  53 2.76  16 2.77  52 2.77  11 2.86  50 2.87
                             1 2.93  10 2.95  47 2.96  43 2.99
  52  0.163  0.169  0.475-  16 2.73  15 2.74   6 2.75  13 2.75  48 2.75  51 2.77  11 2.88   5 2.89
                            56 2.90  10 2.92   8 3.04  35 3.16
  53  0.412  0.667  0.480-  37 2.71  50 2.72  22 2.72  44 2.72  14 2.75  15 2.75  51 2.76  40 2.84
                            12 3.00   1 3.02  17 3.05
  54  0.428  0.535  0.630-  29 1.89  28 1.93  31 1.96  24 2.74  40 2.77  55 3.16  50 3.17
  55  0.492  0.259  0.570-  27 2.01  28 2.01  24 2.63  35 2.69  23 2.77  43 2.84  16 2.86  44 2.93
                            19 2.99  18 3.02  54 3.16
  56  0.083  0.083  0.382-   1 2.75   5 2.75  21 2.75  36 2.75  10 2.75  46 2.75  15 2.87  52 2.90
                            48 2.95
 
  LATTYP: Found a hexagonal cell.
 ALAT       =    11.0025815153
 C/A-ratio  =     2.3805127059
  
  Lattice vectors:
  
 A1 = (   5.5012907576,  -9.5285150994,   0.0000000000)
 A2 = ( -11.0025815153,   0.0000000000,   0.0000000000)
 A3 = (   0.0000000000,   0.0000000000, -26.1917850943)


Analysis of symmetry for initial positions (statically):
=====================================================================
 Subroutine PRICEL returns:
 Original cell was already a primitive cell.
 

 Routine SETGRP: Setting up the symmetry group for a 
 hexagonal supercell.


 Subroutine GETGRP returns: Found  1 space group operations
 (whereof  1 operations were pure point group operations)
 out of a pool of 24 trial point group operations.


The static configuration has the point symmetry C_1 .


Analysis of symmetry for dynamics (positions and initial velocities):
=====================================================================
 Subroutine PRICEL returns:
 Original cell was already a primitive cell.
 

 Routine SETGRP: Setting up the symmetry group for a 
 hexagonal supercell.


 Subroutine GETGRP returns: Found  1 space group operations
 (whereof  1 operations were pure point group operations)
 out of a pool of 24 trial point group operations.


The dynamic configuration has the point symmetry C_1 .


Analysis of constrained symmetry for selective dynamics:
=====================================================================
 Subroutine PRICEL returns:
 Original cell was already a primitive cell.
 

 Routine SETGRP: Setting up the symmetry group for a 
 hexagonal supercell.


 Subroutine GETGRP returns: Found  1 space group operations
 (whereof  1 operations were pure point group operations)
 out of a pool of 24 trial point group operations.


The constrained configuration has the point symmetry C_1 .
 
 
 KPOINTS: Automatic mesh                          

Automatic generation of k-mesh.
Space group operators:
 irot       det(A)        alpha          n_x          n_y          n_z        tau_x        tau_y        tau_z
    1     1.000000     0.000000     1.000000     0.000000     0.000000     0.000000     0.000000     0.000000
 
 Subroutine IBZKPT returns following result:
 ===========================================
 
 Found      6 irreducible k-points:
 
 Following reciprocal coordinates:
            Coordinates               Weight
  0.250000  0.250000  0.000000     16.000000
  0.000000  0.250000  0.000000     16.000000
 -0.250000  0.000000  0.000000     16.000000
 -0.250000  0.250000  0.000000     16.000000
  0.500000 -0.250000  0.000000     16.000000
 -0.250000  0.500000  0.000000     16.000000
 
 Following cartesian coordinates:
            Coordinates               Weight
  0.022722  0.013119  0.000000     16.000000
  0.000000  0.026237  0.000000     16.000000
 -0.022722  0.013119  0.000000     16.000000
 -0.022722  0.039356  0.000000     16.000000
  0.045444 -0.052474  0.000000     16.000000
 -0.022722  0.065593  0.000000     16.000000
 


--------------------------------------------------------------------------------------------------------




 Dimension of arrays:
   k-points           NKPTS =      6   k-points in BZ     NKDIM =      6   number of bands    NBANDS=    336
   number of dos      NEDOS =    301   number of ions     NIONS =     56
   non local maximal  LDIM  =      6   non local SUM 2l+1 LMDIM =     18
   total plane-waves  NPLWV = 373248
   max r-space proj   IRMAX =   2004   max aug-charges    IRDMAX=   8511
   dimension x,y,z NGX =    54 NGY =   54 NGZ =  128
   dimension x,y,z NGXF=   108 NGYF=  108 NGZF=  256
   support grid    NGXF=   108 NGYF=  108 NGZF=  256
   ions per type =              24   8  24
 NGX,Y,Z   is equivalent  to a cutoff of   8.16,  8.16,  8.12 a.u.
 NGXF,Y,Z  is equivalent  to a cutoff of  16.32, 16.32, 16.25 a.u.


 I would recommend the setting:
   dimension x,y,z NGX =    54 NGY =   54 NGZ =  128
 SYSTEM =  unknown system                          
 POSCAR =  Au  O Pd                                

 Startparameter for this run:
   NWRITE =      1    write-flag & timer
   PREC   = normal    normal or accurate (medium, high low for compatibility)
   ISTART =      0    job   : 0-new  1-cont  2-samecut
   ICHARG =      2    charge: 1-file 2-atom 10-const
   ISPIN  =      1    spin polarized calculation?
   LNONCOLLINEAR =      F non collinear calculations
   LSORBIT =      F    spin-orbit coupling
   INIWAV =      1    electr: 0-lowe 1-rand  2-diag
   LASPH  =      F    aspherical Exc in radial PAW
   METAGGA=      F    non-selfconsistent MetaGGA calc.

 Electronic Relaxation 1
   ENCUT  =  400.0 eV  29.40 Ry    5.42 a.u.  17.94 17.94 42.71*2*pi/ulx,y,z
   ENINI  =  400.0     initial cutoff
   ENAUG  =  605.4 eV  augmentation charge cutoff
   NELM   =    500;   NELMIN=  2; NELMDL= -5     # of ELM steps 
   EDIFF  = 0.1E-05   stopping-criterion for ELM
   LREAL  =      T    real-space projection
   NLSPLINE    = F    spline interpolate recip. space projectors
   LCOMPAT=      F    compatible to vasp.4.4
   GGA_COMPAT  = T    GGA compatible to vasp.4.4-vasp.4.6
   LMAXPAW     = -100 max onsite density
   LMAXMIX     =    2 max onsite mixed and CHGCAR
   VOSKOWN=      1    Vosko Wilk Nusair interpolation
   ROPT   =   -0.00050  -0.00050  -0.00050
 Ionic relaxation
   EDIFFG = -.2E-01   stopping-criterion for IOM
   NSW    =    500    number of steps for IOM
   NBLOCK =      1;   KBLOCK =    500    inner block; outer block 
   IBRION =      2    ionic relax: 0-MD 1-quasi-New 2-CG
   NFREE  =      2    steps in history (QN), initial steepest desc. (CG)
   ISIF   =      0    stress and relaxation
   IWAVPR =     11    prediction:  0-non 1-charg 2-wave 3-comb
   ISYM   =      2    0-nonsym 1-usesym 2-fastsym
   LCORR  =      T    Harris-Foulkes like correction to forces

   POTIM  = 0.3500    time-step for ionic-motion
   TEIN   =    0.0    initial temperature
   TEBEG  =    0.0;   TEEND  =   0.0 temperature during run
   SMASS  =  -3.00    Nose mass-parameter (am)
   estimated Nose-frequenzy (Omega)   =  0.10E-29 period in steps =****** mass=  -0.277E-26a.u.
   SCALEE = 1.0000    scale energy and forces
   NPACO  =    256;   APACO  = 16.0  distance and # of slots for P.C.
   PSTRESS=    0.0 pullay stress

  Mass of Ions in am
   POMASS = 196.97 16.00106.42
  Ionic Valenz
   ZVAL   =  11.00  6.00 10.00
  Atomic Wigner-Seitz radii
   RWIGS  =  -1.00 -1.00 -1.00
  virtual crystal weights 
   VCA    =   1.00  1.00  1.00
   NELECT =     552.0000    total number of electrons
   NUPDOWN=      -1.0000    fix difference up-down

 DOS related values:
   EMIN   =  10.00;   EMAX   =-10.00  energy-range for DOS
   EFERMI =   0.00
   ISMEAR =     0;   SIGMA  =   0.10  broadening in eV -4-tet -1-fermi 0-gaus

 Electronic relaxation 2 (details)
   IALGO  =     68    algorithm
   LDIAG  =      T    sub-space diagonalisation (order eigenvalues)
   LSUBROT=      F    optimize rotation matrix (better conditioning)
   TURBO    =      0    0=normal 1=particle mesh
   IRESTART =      0    0=no restart 2=restart with 2 vectors
   NREBOOT  =      0    no. of reboots
   NMIN     =      0    reboot dimension
   EREF     =   0.00    reference energy to select bands
   IMIX   =      4    mixing-type and parameters
     AMIX     =   0.40;   BMIX     =  1.00
     AMIX_MAG =   1.60;   BMIX_MAG =  1.00
     AMIN     =   0.10
     WC   =   100.;   INIMIX=   1;  MIXPRE=   1;  MAXMIX= -45

 Intra band minimization:
   WEIMIN = 0.0010     energy-eigenvalue tresh-hold
   EBREAK =  0.74E-09  absolut break condition
   DEPER  =   0.30     relativ break condition  

   TIME   =   0.40     timestep for ELM

  volume/ion in A,a.u.               =      49.03       330.90
  Fermi-wavevector in a.u.,A,eV,Ry     =   0.959017  1.812279 12.513458  0.919713
  Thomas-Fermi vector in A             =   2.088176
 
 Write flags
   LWAVE  =      F    write WAVECAR
   LCHARG =      F    write CHGCAR
   LVTOT  =      F    write LOCPOT, total local potential
   LVHAR  =      F    write LOCPOT, Hartree potential only
   LELF   =      F    write electronic localiz. function (ELF)
   LORBIT =      0    0 simple, 1 ext, 2 COOP (PROOUT)


 Dipole corrections
   LMONO  =      F    monopole corrections only (constant potential shift)
   LDIPOL =      T    correct potential (dipole corrections)
   IDIPOL =      3    1-x, 2-y, 3-z, 4-all directions 
   EPSILON=  1.0000000 bulk dielectric constant

 Exchange correlation treatment:
   GGA     =    PE    GGA type
   LEXCH   =     8    internal setting for exchange type
   VOSKOWN=      1    Vosko Wilk Nusair interpolation
   LHFCALC =     F    Hartree Fock is set to
   LHFONE  =     F    Hartree Fock one center treatment
   AEXX    =    0.0000 exact exchange contribution

 Linear response parameters
   LEPSILON=     F    determine dielectric tensor
   LRPA    =     F    only Hartree local field effects (RPA)
   LNABLA  =     F    use nabla operator in PAW spheres
   LVEL    =     F    velocity operator in full k-point grid
   LINTERFAST=   F  fast interpolation
   KINTER  =     0    interpolate to denser k-point grid
   CSHIFT  =0.1000    complex shift for real part using Kramers Kronig
   OMEGAMAX=  -1.0    maximum frequency
   DEG_THRESHOLD= 0.2000000E-02 threshold for treating states as degnerate
   RTIME   =    0.100 relaxation time in fs

 Orbital magnetization related:
   ORBITALMAG=     F  switch on orbital magnetization
   LCHIMAG   =     F  perturbation theory with respect to B field
   DQ        =  0.001000  dq finite difference perturbation B field



--------------------------------------------------------------------------------------------------------


 conjugate gradient relaxation of ions
   using selective dynamics as specified on POSCAR
 charge density and potential will be updated during run
 non-spin polarized calculation
 RMM-DIIS sequential band-by-band and
  variant of blocked Davidson during initial phase
 perform sub-space diagonalisation
    before iterative eigenvector-optimisation
 modified Broyden-mixing scheme, WC =      100.0
 initial mixing is a Kerker type mixing with AMIX =  0.4000 and BMIX =      1.0000
 Hartree-type preconditioning will be used
 using additional bands           60
 real space projection scheme for non local part
 use partial core corrections
 calculate Harris-corrections to forces 
   (improved forces if not selfconsistent)
 use gradient corrections 
 use of overlap-Matrix (Vanderbilt PP)
 Gauss-broadening in eV      SIGMA  =   0.10


--------------------------------------------------------------------------------------------------------


  energy-cutoff  :      400.00
  volume of cell :     2745.90
      direct lattice vectors                 reciprocal lattice vectors
    11.002581515  0.000000000  0.000000000     0.090887761 -0.052474073  0.000000000
     5.501290758  9.528515099  0.000000000     0.000000000  0.104948147  0.000000000
     0.000000000  0.000000000 26.191785094     0.000000000  0.000000000  0.038179910

  length of vectors
    11.002581515 11.002581515 26.191785094     0.104948147  0.104948147  0.038179910


 
 k-points in units of 2pi/SCALE and weight: Automatic mesh                          
   0.02272194  0.01311852  0.00000000       0.167
   0.00000000  0.02623704  0.00000000       0.167
  -0.02272194  0.01311852  0.00000000       0.167
  -0.02272194  0.03935555  0.00000000       0.167
   0.04544388 -0.05247407  0.00000000       0.167
  -0.02272194  0.06559259  0.00000000       0.167
 
 k-points in reciprocal lattice and weights: Automatic mesh                          
   0.25000000  0.25000000  0.00000000       0.167
   0.00000000  0.25000000  0.00000000       0.167
  -0.25000000  0.00000000  0.00000000       0.167
  -0.25000000  0.25000000  0.00000000       0.167
   0.50000000 -0.25000000  0.00000000       0.167
  -0.25000000  0.50000000  0.00000000       0.167
 
 position of ions in fractional coordinates (direct lattice) 
   0.33333333  0.83333333  0.38179910
   0.91278089  0.91906345  0.47410862
   0.08333333  0.58333333  0.38179910
   0.66017132  0.91946375  0.47522502
   0.08333333  0.33333333  0.38179910
   0.91418321  0.41826910  0.48092401
   0.83333333  0.83333333  0.38179910
   0.99282137  0.24382654  0.57245613
   0.83333333  0.58333333  0.38179910
   0.33333333  0.08333333  0.38179910
   0.23988942  0.99894151  0.56559231
   0.33333333  0.58333333  0.38179910
   0.16355251  0.41873529  0.47641091
   0.66042144  0.66953423  0.47509860
   0.16457106  0.91914006  0.47364230
   0.41091532  0.16937507  0.48039890
   0.58333333  0.58333333  0.38179910
   0.66135528  0.17008395  0.47270116
   0.76418973  0.98869025  0.57577470
   0.74930523  0.49719692  0.57097073
   0.83333333  0.33333333  0.38179910
   0.65864773  0.41929334  0.47724138
   0.74929109  0.24790333  0.57025066
   0.25863647  0.50180190  0.56152443
   0.59003159  0.81745737  0.61032378
   0.07140749  0.34626142  0.61918317
   0.57952068  0.09281822  0.61667593
   0.57071418  0.34096279  0.62015744
   0.26837085  0.71360170  0.64040902
   0.07181231  0.60782997  0.61338241
   0.57216405  0.58871253  0.62005135
   0.32019641  0.08940272  0.61794769
   0.99924368  0.75548051  0.56176928
   0.33333333  0.33333333  0.38179910
   0.24660946  0.26158355  0.57662304
   0.08333333  0.83333333  0.38179910
   0.16440839  0.66987542  0.47248464
   0.98995760  0.51300904  0.57305416
   0.91362391  0.66755500  0.47618243
   0.24170768  0.75651656  0.56887644
   0.75250969  0.74876664  0.56460845
   0.58333333  0.08333333  0.38179910
   0.49471371  0.00016630  0.57384743
   0.41381339  0.41883733  0.47442616
   0.58333333  0.33333333  0.38179910
   0.83333333  0.08333333  0.38179910
   0.58333333  0.83333333  0.38179910
   0.91204136  0.17063614  0.47553209
   0.99666508  0.99986028  0.56248173
   0.48927920  0.74508099  0.56701426
   0.41415206  0.91605158  0.47671306
   0.16312858  0.16884299  0.47454735
   0.41184300  0.66686777  0.47995024
   0.42843741  0.53474907  0.62968745
   0.49191366  0.25949565  0.56997636
   0.08333333  0.08333333  0.38179910
 
 position of ions in cartesian coordinates  (Angst):
   8.25193614  7.94042925 10.00000000
  15.09898147  8.75730998 12.41775107
   4.12596807  5.55830047 10.00000000
  12.32182621  8.76112423 12.44699155
   2.75064538  3.17617170 10.00000000
  12.35939515  3.98548340 12.59625833
  13.75322689  7.94042925 10.00000000
  12.26495871  2.32330491 14.99364801
  12.37790420  5.55830047 10.00000000
   4.12596807  0.79404292 10.00000000
   8.13487063  9.51842923 14.81387232
   6.87661345  5.55830047 10.00000000
   4.10308444  3.98992553 12.47805221
  10.94964317  6.37966702 12.44368043
   6.86716319  8.75803996 12.40553723
   5.45291079  1.61389289 12.58250483
   9.62725883  5.55830047 10.00000000
   8.21229663  1.62064749 12.38088727
  13.84713226  9.42074993 15.08056730
  10.97951666  4.73754837 14.95474276
  11.00258152  3.17617170 10.00000000
   9.55347995  3.99524289 12.49980371
   9.60792462  2.36215067 14.93588270
   5.60622704  4.78142703 14.70732709
  10.98894132  7.78915487 15.98546941
   2.69055146  3.29935717 16.21751246
   6.88684354  0.88441982 16.15184352
   8.15506478  3.24886909 16.24303046
   6.87850259  6.79956456 16.77345541
   4.13397026  5.79171708 16.06558028
   9.53396042  5.60955626 16.24025169
   4.01481743  0.85187513 16.18515316
  15.15037798  7.19860749 14.71374031
   5.50129076  3.17617170 10.00000000
   4.15238784  2.49250282 15.10278665
   5.50129076  7.94042925 10.00000000
   5.49409621  6.38291803 12.37521612
  13.71430110  4.88821442 15.00931140
  13.72463566  6.36080786 12.47206796
   6.82122608  7.20847951 14.89988936
  12.39873222  7.13463424 14.78810314
   6.87661345  0.79404292 10.00000000
   5.44404272  0.00158457 15.03008863
   6.85716152  3.99089780 12.42606809
   8.25193614  3.17617170 10.00000000
   9.62725883  0.79404292 10.00000000
  11.00258152  7.94042925 10.00000000
  10.97352842  1.62590905 12.45503435
  16.46641090  9.52718381 14.73240058
   9.48224141  7.09951544 14.85111557
   9.59620796  8.72861135 12.48596611
   2.72368981  1.60882295 12.42924225
   8.19996962  6.35425958 12.57075360
   7.65572768  5.09536463 16.49263844
   6.83988112  2.47260822 14.92869835
   1.37532269  0.79404292 10.00000000
 


--------------------------------------------------------------------------------------------------------


 k-point  1 :   0.2500 0.2500 0.0000  plane waves:   49913
 k-point  2 :   0.0000 0.2500 0.0000  plane waves:   49913
 k-point  3 :  -0.2500 0.0000 0.0000  plane waves:   49913
 k-point  4 :  -0.2500 0.2500 0.0000  plane waves:   49888
 k-point  5 :   0.5000-0.2500 0.0000  plane waves:   49888
 k-point  6 :  -0.2500 0.5000 0.0000  plane waves:   49888

 maximum and minimum number of plane-waves per node :      8356     8289

 maximum number of plane-waves:     49913
 maximum index in each direction: 
   IXMAX=   18   IYMAX=   18   IZMAX=   42
   IXMIN=  -18   IYMIN=  -18   IZMIN=  -42

 WARNING: aliasing errors must be expected set NGX to  74 to avoid them
 WARNING: aliasing errors must be expected set NGY to  74 to avoid them
 WARNING: aliasing errors must be expected set NGZ to 170 to avoid them
 aliasing errors are usually negligible using standard VASP settings
 and one can safely disregard these warnings

 real space projection operators:
  total allocation   :      13532.78 KBytes
  max/ min on nodes  :       2274.80       2236.42


 parallel 3D FFT for wavefunctions:
    minimum data exchange during FFTs selected (reduces bandwidth)
 parallel 3D FFT for charge:
    minimum data exchange during FFTs selected (reduces bandwidth)


 total amount of memory used by VASP on root node    93023. kBytes
========================================================================

   base      :      30000. kBytes
   nonlr-proj:       4680. kBytes
   fftplans  :       4744. kBytes
   grid      :       7835. kBytes
   one-center:        155. kBytes
   wavefun   :      45609. kBytes
 
     INWAV:  cpu time    0.0000: real time    0.0000
 Broyden mixing: mesh for mixing (old mesh)
   NGX = 35   NGY = 35   NGZ = 85
  (NGX  =108   NGY  =108   NGZ  =256)
  gives a total of 104125 points

 initial charge density was supplied:
 charge density of overlapping atoms calculated
 number of electron     552.0000000 magnetization 
 keeping initial charge density in first step


--------------------------------------------------------------------------------------------------------


 Maximum index for non-local projection operator          347
 Maximum index for augmentation-charges          442 (set IRDMAX)


--------------------------------------------------------------------------------------------------------


 First call to EWALD:  gamma=   0.127
 Maximum number of real-space cells 4x 4x 2
 Maximum number of reciprocal cells 2x 2x 5

 FEWALD executed in parallel
    FEWALD:  cpu time    0.0026: real time    0.0026


----------------------------------------- Iteration    1(   1)  ---------------------------------------


    POTLOK:  cpu time    0.0595: real time    0.0597
    SETDIJ:  cpu time    0.0072: real time    0.0072
     EDDAV:  cpu time   11.3995: real time   11.4177
       DOS:  cpu time    0.0015: real time    0.0015
    --------------------------------------------
      LOOP:  cpu time   11.4714: real time   11.5189

 eigenvalue-minimisations  :  4080
 total energy-change (2. order) : 0.3636990E+04  (-0.2101843E+05)
 number of electron     552.0000000 magnetization 
 augmentation part      552.0000000 magnetization 

 DIPCOR: dipole corrections for dipol
 direction  3 min pos     1,
 dipolmoment           0.000000      0.000000      0.000075 electrons x Angstroem
 Tr[quadrupol]    -11233.090558

 energy correction for charged system         0.000000 eV
 dipol+quadrupol energy correction           -0.000000 eV
 added-field ion interaction          0.000808 eV  (added to PSCEN)


 Free energy of the ion-electron system (eV)
  ---------------------------------------------------
  alpha Z        PSCENC =       862.57728895
  Ewald energy   TEWEN  =    239957.48526327
  -Hartree energ DENC   =   -285558.62847481
  -exchange      EXHF   =         0.00000000
  -V(xc)+E(xc)   XCENC  =      -114.07504877
  PAW double counting   =     43112.45544455   -41079.41300390
  entropy T*S    EENTRO =        -0.15363425
  eigenvalues    EBANDS =      1338.85024135
  atomic energy  EATOM  =     45117.89144060
  Solvation  Ediel_sol  =         0.00000000
  ---------------------------------------------------
  free energy    TOTEN  =      3636.98951699 eV

  energy without entropy =     3637.14315124  energy(sigma->0) =     3637.06633411


--------------------------------------------------------------------------------------------------------




----------------------------------------- Iteration    1(   2)  ---------------------------------------


     EDDAV:  cpu time   13.6185: real time   13.6275
       DOS:  cpu time    0.0014: real time    0.0014
    --------------------------------------------
      LOOP:  cpu time   13.6206: real time   13.6313

 eigenvalue-minimisations  :  4836
 total energy-change (2. order) :-0.3586011E+04  (-0.3329118E+04)
 number of electron     552.0000000 magnetization 
 augmentation part      552.0000000 magnetization 

 DIPCOR: dipole corrections for dipol
 direction  3 min pos     1,
 dipolmoment           0.000000      0.000000      0.000075 electrons x Angstroem
 Tr[quadrupol]    -11233.090558

 energy correction for charged system         0.000000 eV
 dipol+quadrupol energy correction           -0.000000 eV
 added-field ion interaction          0.000808 eV  (added to PSCEN)


 Free energy of the ion-electron system (eV)
  ---------------------------------------------------
  alpha Z        PSCENC =       862.57728895
  Ewald energy   TEWEN  =    239957.48526327
  -Hartree energ DENC   =   -285558.62847481
  -exchange      EXHF   =         0.00000000
  -V(xc)+E(xc)   XCENC  =      -114.07504877
  PAW double counting   =     43112.45544455   -41079.41300390
  entropy T*S    EENTRO =        -0.14676993
  eigenvalues    EBANDS =     -2247.16731269
  atomic energy  EATOM  =     45117.89144060
  Solvation  Ediel_sol  =         0.00000000
  ---------------------------------------------------
  free energy    TOTEN  =        50.97882727 eV

  energy without entropy =       51.12559720  energy(sigma->0) =       51.05221224


--------------------------------------------------------------------------------------------------------




----------------------------------------- Iteration    1(   3)  ---------------------------------------


     EDDAV:  cpu time   13.1038: real time   13.1759
       DOS:  cpu time    0.0014: real time    0.0014
    --------------------------------------------
      LOOP:  cpu time   13.1062: real time   13.1816

 eigenvalue-minimisations  :  4620
 total energy-change (2. order) :-0.3055849E+03  (-0.2854330E+03)
 number of electron     552.0000000 magnetization 
 augmentation part      552.0000000 magnetization 

 DIPCOR: dipole corrections for dipol
 direction  3 min pos     1,
 dipolmoment           0.000000      0.000000      0.000075 electrons x Angstroem
 Tr[quadrupol]    -11233.090558

 energy correction for charged system         0.000000 eV
 dipol+quadrupol energy correction           -0.000000 eV
 added-field ion interaction          0.000808 eV  (added to PSCEN)


 Free energy of the ion-electron system (eV)
  ---------------------------------------------------
  alpha Z        PSCENC =       862.57728895
  Ewald energy   TEWEN  =    239957.48526327
  -Hartree energ DENC   =   -285558.62847481
  -exchange      EXHF   =         0.00000000
  -V(xc)+E(xc)   XCENC  =      -114.07504877
  PAW double counting   =     43112.45544455   -41079.41300390
  entropy T*S    EENTRO =        -0.24455308
  eigenvalues    EBANDS =     -2552.65443059
  atomic energy  EATOM  =     45117.89144060
  Solvation  Ediel_sol  =         0.00000000
  ---------------------------------------------------
  free energy    TOTEN  =      -254.60607378 eV

  energy without entropy =     -254.36152070  energy(sigma->0) =     -254.48379724


--------------------------------------------------------------------------------------------------------




----------------------------------------- Iteration    1(   4)  ---------------------------------------


     EDDAV:  cpu time   13.3303: real time   13.3718
       DOS:  cpu time    0.0014: real time    0.0014
    --------------------------------------------
      LOOP:  cpu time   13.3325: real time   13.3758

 eigenvalue-minimisations  :  4452
 total energy-change (2. order) :-0.1047430E+02  (-0.1029906E+02)
 number of electron     552.0000000 magnetization 
 augmentation part      552.0000000 magnetization 

 DIPCOR: dipole corrections for dipol
 direction  3 min pos     1,
 dipolmoment           0.000000      0.000000      0.000075 electrons x Angstroem
 Tr[quadrupol]    -11233.090558

 energy correction for charged system         0.000000 eV
 dipol+quadrupol energy correction           -0.000000 eV
 added-field ion interaction          0.000808 eV  (added to PSCEN)


 Free energy of the ion-electron system (eV)
  ---------------------------------------------------
  alpha Z        PSCENC =       862.57728895
  Ewald energy   TEWEN  =    239957.48526327
  -Hartree energ DENC   =   -285558.62847481
  -exchange      EXHF   =         0.00000000
  -V(xc)+E(xc)   XCENC  =      -114.07504877
  PAW double counting   =     43112.45544455   -41079.41300390
  entropy T*S    EENTRO =        -0.25921841
  eigenvalues    EBANDS =     -2563.11406732
  atomic energy  EATOM  =     45117.89144060
  Solvation  Ediel_sol  =         0.00000000
  ---------------------------------------------------
  free energy    TOTEN  =      -265.08037585 eV

  energy without entropy =     -264.82115743  energy(sigma->0) =     -264.95076664


--------------------------------------------------------------------------------------------------------




----------------------------------------- Iteration    1(   5)  ---------------------------------------


     EDDAV:  cpu time   13.3127: real time   13.3215
       DOS:  cpu time    0.0015: real time    0.0015
    CHARGE:  cpu time    0.3527: real time    0.3527
    MIXING:  cpu time    0.0026: real time    0.0028
    --------------------------------------------
      LOOP:  cpu time   13.6709: real time   13.6828

 eigenvalue-minimisations  :  4668
 total energy-change (2. order) :-0.2909964E+00  (-0.2903016E+00)
 number of electron     551.9999613 magnetization 
 augmentation part      194.0291103 magnetization 

 DIPCOR: dipole corrections for dipol
 direction  3 min pos     1,
 dipolmoment           0.000000      0.000000      0.000075 electrons x Angstroem
 Tr[quadrupol]    -11233.090558

 energy correction for charged system         0.000000 eV
 dipol+quadrupol energy correction           -0.000000 eV
 added-field ion interaction          0.000808 eV  (added to PSCEN)


 Broyden mixing:
  rms(total) = 0.69109E+01    rms(broyden)= 0.69100E+01
  rms(prec ) = 0.70697E+01
  weight for this iteration     100.00

 Free energy of the ion-electron system (eV)
  ---------------------------------------------------
  alpha Z        PSCENC =       862.57728895
  Ewald energy   TEWEN  =    239957.48526327
  -Hartree energ DENC   =   -285558.62847481
  -exchange      EXHF   =         0.00000000
  -V(xc)+E(xc)   XCENC  =      -114.07504877
  PAW double counting   =     43112.45544455   -41079.41300390
  entropy T*S    EENTRO =        -0.26006975
  eigenvalues    EBANDS =     -2563.40421239
  atomic energy  EATOM  =     45117.89144060
  Solvation  Ediel_sol  =         0.00000000
  ---------------------------------------------------
  free energy    TOTEN  =      -265.37137225 eV

  energy without entropy =     -265.11130250  energy(sigma->0) =     -265.24133738


--------------------------------------------------------------------------------------------------------




----------------------------------------- Iteration    1(   6)  ---------------------------------------


    POTLOK:  cpu time    0.0544: real time    0.0545
    SETDIJ:  cpu time    0.0067: real time    0.0067
    EDDIAG:  cpu time    2.0462: real time    2.0472
  RMM-DIIS:  cpu time    5.2888: real time    5.3636
    ORTHCH:  cpu time    0.5324: real time    0.5327
       DOS:  cpu time    0.0014: real time    0.0014
    CHARGE:  cpu time    0.3483: real time    0.3484
    MIXING:  cpu time    0.0032: real time    0.0033
    --------------------------------------------
      LOOP:  cpu time    8.2823: real time    8.3607

 eigenvalue-minimisations  :  4039
 total energy-change (2. order) : 0.9193400E+01  (-0.1514739E+02)
 number of electron     551.9999577 magnetization 
 augmentation part      199.7242396 magnetization 

 DIPCOR: dipole corrections for dipol
 direction  3 min pos     1,
 dipolmoment           0.000000      0.000000      1.458907 electrons x Angstroem
 Tr[quadrupol]    -11229.916597

 energy correction for charged system         0.000000 eV
 dipol+quadrupol energy correction           -0.070130 eV
 added-field ion interaction         15.672463 eV  (added to PSCEN)


 Broyden mixing:
  rms(total) = 0.58663E+01    rms(broyden)= 0.58639E+01
  rms(prec ) = 0.63485E+01
  weight for this iteration     100.00

 eigenvalues of (default mixing * dielectric matrix)
  average eigenvalue GAMMA=   0.6470
  0.6470

 Free energy of the ion-electron system (eV)
  ---------------------------------------------------
  alpha Z        PSCENC =       878.17881478
  Ewald energy   TEWEN  =    239957.48526327
  -Hartree energ DENC   =   -285155.58617809
  -exchange      EXHF   =         0.00000000
  -V(xc)+E(xc)   XCENC  =      -119.41396279
  PAW double counting   =     46573.10280419   -44604.91862205
  entropy T*S    EENTRO =        -0.19642852
  eigenvalues    EBANDS =     -2902.72110349
  atomic energy  EATOM  =     45117.89144060
  Solvation  Ediel_sol  =         0.00000000
  ---------------------------------------------------
  free energy    TOTEN  =      -256.17797210 eV

  energy without entropy =     -255.98154358  energy(sigma->0) =     -256.07975784


--------------------------------------------------------------------------------------------------------




----------------------------------------- Iteration    1(   7)  ---------------------------------------


    POTLOK:  cpu time    0.0540: real time    0.0540
    SETDIJ:  cpu time    0.0064: real time    0.0064
    EDDIAG:  cpu time    2.0492: real time    2.0521
  RMM-DIIS:  cpu time    5.2967: real time    5.3003
    ORTHCH:  cpu time    0.5406: real time    0.5408
       DOS:  cpu time    0.0014: real time    0.0014
    CHARGE:  cpu time    0.3540: real time    0.3540
    MIXING:  cpu time    0.0024: real time    0.0024
    --------------------------------------------
      LOOP:  cpu time    8.3056: real time    8.3150

 eigenvalue-minimisations  :  4032
 total energy-change (2. order) :-0.5659241E+02  (-0.1002535E+02)
 number of electron     551.9999674 magnetization 
 augmentation part      196.5564871 magnetization 

 DIPCOR: dipole corrections for dipol
 direction  3 min pos     1,
 dipolmoment           0.000000      0.000000     -2.414450 electrons x Angstroem
 Tr[quadrupol]    -11232.240311

 energy correction for charged system         0.000000 eV
 dipol+quadrupol energy correction           -0.192082 eV
 added-field ion interaction        -25.937497 eV  (added to PSCEN)


 Broyden mixing:
  rms(total) = 0.88382E+01    rms(broyden)= 0.88368E+01
  rms(prec ) = 0.10632E+02
  weight for this iteration     100.00

 eigenvalues of (default mixing * dielectric matrix)
  average eigenvalue GAMMA=   0.4281
  0.7441  0.1121

 Free energy of the ion-electron system (eV)
  ---------------------------------------------------
  alpha Z        PSCENC =       836.44690302
  Ewald energy   TEWEN  =    239957.48526327
  -Hartree energ DENC   =   -285187.12535841
  -exchange      EXHF   =         0.00000000
  -V(xc)+E(xc)   XCENC  =      -127.24871400
  PAW double counting   =     47967.17790750   -46014.99861383
  entropy T*S    EENTRO =        -0.25777620
  eigenvalues    EBANDS =     -2862.14143728
  atomic energy  EATOM  =     45117.89144060
  Solvation  Ediel_sol  =         0.00000000
  ---------------------------------------------------
  free energy    TOTEN  =      -312.77038533 eV

  energy without entropy =     -312.51260913  energy(sigma->0) =     -312.64149723


--------------------------------------------------------------------------------------------------------




----------------------------------------- Iteration    1(   8)  ---------------------------------------


    POTLOK:  cpu time    0.0543: real time    0.0544
    SETDIJ:  cpu time    0.0066: real time    0.0066
    EDDIAG:  cpu time    2.0757: real time    2.0777
  RMM-DIIS:  cpu time    5.4006: real time    5.4038
    ORTHCH:  cpu time    0.5374: real time    0.5377
       DOS:  cpu time    0.0016: real time    0.0016
    CHARGE:  cpu time    0.3482: real time    0.3485
    MIXING:  cpu time    0.0026: real time    0.0026
    --------------------------------------------
      LOOP:  cpu time    8.4280: real time    8.4368

 eigenvalue-minimisations  :  4032
 total energy-change (2. order) : 0.6281127E+02  (-0.2138802E+01)
 number of electron     551.9999581 magnetization 
 augmentation part      200.6492933 magnetization 

 DIPCOR: dipole corrections for dipol
 direction  3 min pos     1,
 dipolmoment           0.000000      0.000000     -0.492268 electrons x Angstroem
 Tr[quadrupol]    -11234.733050

 energy correction for charged system         0.000000 eV
 dipol+quadrupol energy correction           -0.007985 eV
 added-field ion interaction         -5.288241 eV  (added to PSCEN)


 Broyden mixing:
  rms(total) = 0.46288E+01    rms(broyden)= 0.46283E+01
  rms(prec ) = 0.49893E+01
  weight for this iteration     100.00

 eigenvalues of (default mixing * dielectric matrix)
  average eigenvalue GAMMA=   0.6434
  1.4250  0.3517  0.1536

 Free energy of the ion-electron system (eV)
  ---------------------------------------------------
  alpha Z        PSCENC =       857.28025561
  Ewald energy   TEWEN  =    239957.48526327
  -Hartree energ DENC   =   -285211.46559596
  -exchange      EXHF   =         0.00000000
  -V(xc)+E(xc)   XCENC  =      -127.74020576
  PAW double counting   =     48467.51703727   -46523.81747224
  entropy T*S    EENTRO =        -0.25956100
  eigenvalues    EBANDS =     -2786.85027913
  atomic energy  EATOM  =     45117.89144060
  Solvation  Ediel_sol  =         0.00000000
  ---------------------------------------------------
  free energy    TOTEN  =      -249.95911734 eV

  energy without entropy =     -249.69955634  energy(sigma->0) =     -249.82933684


--------------------------------------------------------------------------------------------------------




----------------------------------------- Iteration    1(   9)  ---------------------------------------


    POTLOK:  cpu time    0.0555: real time    0.0556
    SETDIJ:  cpu time    0.0072: real time    0.0072
    EDDIAG:  cpu time    2.0723: real time    2.0731
  RMM-DIIS:  cpu time    5.3863: real time    5.3899
    ORTHCH:  cpu time    0.5357: real time    0.5396
       DOS:  cpu time    0.0014: real time    0.0029
    CHARGE:  cpu time    0.4838: real time    0.4860
    MIXING:  cpu time    0.0031: real time    0.0032
    --------------------------------------------
      LOOP:  cpu time    8.5462: real time    8.5616

 eigenvalue-minimisations  :  4034
 total energy-change (2. order) :-0.6791847E+01  (-0.7137535E+01)
 number of electron     551.9999653 magnetization 
 augmentation part      200.0321391 magnetization 

 DIPCOR: dipole corrections for dipol
 direction  3 min pos     1,
 dipolmoment           0.000000      0.000000     -0.084337 electrons x Angstroem
 Tr[quadrupol]    -11229.325454

 energy correction for charged system         0.000000 eV
 dipol+quadrupol energy correction           -0.000234 eV
 added-field ion interaction         -0.905997 eV  (added to PSCEN)


 Broyden mixing:
  rms(total) = 0.44647E+01    rms(broyden)= 0.44640E+01
  rms(prec ) = 0.49935E+01
  weight for this iteration     100.00

 eigenvalues of (default mixing * dielectric matrix)
  average eigenvalue GAMMA=   0.7944
  2.2580  0.4784  0.3028  0.1385

 Free energy of the ion-electron system (eV)
  ---------------------------------------------------
  alpha Z        PSCENC =       861.67024960
  Ewald energy   TEWEN  =    239957.48526327
  -Hartree energ DENC   =   -285020.60361293
  -exchange      EXHF   =         0.00000000
  -V(xc)+E(xc)   XCENC  =      -126.39448490
  PAW double counting   =     50189.45521806   -48266.61352329
  entropy T*S    EENTRO =        -0.25063775
  eigenvalues    EBANDS =     -2969.39087681
  atomic energy  EATOM  =     45117.89144060
  Solvation  Ediel_sol  =         0.00000000
  ---------------------------------------------------
  free energy    TOTEN  =      -256.75096415 eV

  energy without entropy =     -256.50032641  energy(sigma->0) =     -256.62564528


--------------------------------------------------------------------------------------------------------




----------------------------------------- Iteration    1(  10)  ---------------------------------------


    POTLOK:  cpu time    0.0696: real time    0.0703
    SETDIJ:  cpu time    0.0075: real time    0.0076
    EDDIAG:  cpu time    2.3574: real time    2.3763
  RMM-DIIS:  cpu time    5.4499: real time    5.4541
    ORTHCH:  cpu time    0.5361: real time    0.5365
       DOS:  cpu time    0.0014: real time    0.0014
    CHARGE:  cpu time    0.3485: real time    0.3485
    MIXING:  cpu time    0.0027: real time    0.0027
    --------------------------------------------
      LOOP:  cpu time    8.7739: real time    8.8009

 eigenvalue-minimisations  :  4034
 total energy-change (2. order) : 0.9172133E+01  (-0.1826059E+01)
 number of electron     551.9999602 magnetization 
 augmentation part      201.7798366 magnetization 

 DIPCOR: dipole corrections for dipol
 direction  3 min pos     1,
 dipolmoment           0.000000      0.000000      0.641723 electrons x Angstroem
 Tr[quadrupol]    -11230.862793

 energy correction for charged system         0.000000 eV
 dipol+quadrupol energy correction           -0.013569 eV
 added-field ion interaction          6.893775 eV  (added to PSCEN)


 Broyden mixing:
  rms(total) = 0.27859E+01    rms(broyden)= 0.27850E+01
  rms(prec ) = 0.30804E+01
  weight for this iteration     100.00

 eigenvalues of (default mixing * dielectric matrix)
  average eigenvalue GAMMA=   0.7199
  2.3049  0.4840  0.1370  0.3368  0.3368

 Free energy of the ion-electron system (eV)
  ---------------------------------------------------
  alpha Z        PSCENC =       869.45668780
  Ewald energy   TEWEN  =    239957.48526327
  -Hartree energ DENC   =   -285039.06812412
  -exchange      EXHF   =         0.00000000
  -V(xc)+E(xc)   XCENC  =      -125.74966659
  PAW double counting   =     51988.18590563   -50087.05533738
  entropy T*S    EENTRO =        -0.16416405
  eigenvalues    EBANDS =     -2928.56083651
  atomic energy  EATOM  =     45117.89144060
  Solvation  Ediel_sol  =         0.00000000
  ---------------------------------------------------
  free energy    TOTEN  =      -247.57883136 eV

  energy without entropy =     -247.41466731  energy(sigma->0) =     -247.49674934


--------------------------------------------------------------------------------------------------------




----------------------------------------- Iteration    1(  11)  ---------------------------------------


    POTLOK:  cpu time    0.0545: real time    0.0545
    SETDIJ:  cpu time    0.0065: real time    0.0065
    EDDIAG:  cpu time    2.0514: real time    2.0534
  RMM-DIIS:  cpu time    5.3118: real time    5.3875
    ORTHCH:  cpu time    0.5378: real time    0.5387
       DOS:  cpu time    0.0015: real time    0.0015
    CHARGE:  cpu time    0.3456: real time    0.3458
    MIXING:  cpu time    0.0029: real time    0.0029
    --------------------------------------------
      LOOP:  cpu time    8.3128: real time    8.3930

 eigenvalue-minimisations  :  4036
 total energy-change (2. order) : 0.9459432E+01  (-0.9816122E+00)
 number of electron     551.9999597 magnetization 
 augmentation part      202.3451217 magnetization 

 DIPCOR: dipole corrections for dipol
 direction  3 min pos     1,
 dipolmoment           0.000000      0.000000      0.540588 electrons x Angstroem
 Tr[quadrupol]    -11231.763413

 energy correction for charged system         0.000000 eV
 dipol+quadrupol energy correction           -0.009629 eV
 added-field ion interaction          5.807330 eV  (added to PSCEN)


 Broyden mixing:
  rms(total) = 0.18033E+01    rms(broyden)= 0.18026E+01
  rms(prec ) = 0.20238E+01
  weight for this iteration     100.00

 eigenvalues of (default mixing * dielectric matrix)
  average eigenvalue GAMMA=   0.7196
  2.3772  0.5016  0.5016  0.5281  0.1375  0.2718

 Free energy of the ion-electron system (eV)
  ---------------------------------------------------
  alpha Z        PSCENC =       868.37418267
  Ewald energy   TEWEN  =    239957.48526327
  -Hartree energ DENC   =   -285068.36815861
  -exchange      EXHF   =         0.00000000
  -V(xc)+E(xc)   XCENC  =      -126.46726856
  PAW double counting   =     52160.47659029   -50260.98713677
  entropy T*S    EENTRO =        -0.13145250
  eigenvalues    EBANDS =     -2886.39285951
  atomic energy  EATOM  =     45117.89144060
  Solvation  Ediel_sol  =         0.00000000
  ---------------------------------------------------
  free energy    TOTEN  =      -238.11939912 eV

  energy without entropy =     -237.98794662  energy(sigma->0) =     -238.05367287


--------------------------------------------------------------------------------------------------------




----------------------------------------- Iteration    1(  12)  ---------------------------------------


    POTLOK:  cpu time    0.0551: real time    0.0552
    SETDIJ:  cpu time    0.0065: real time    0.0065
    EDDIAG:  cpu time    2.0661: real time    2.0684
  RMM-DIIS:  cpu time    5.3541: real time    5.3570
    ORTHCH:  cpu time    0.5394: real time    0.5395
       DOS:  cpu time    0.0015: real time    0.0015
    CHARGE:  cpu time    0.3474: real time    0.3476
    MIXING:  cpu time    0.0030: real time    0.0030
    --------------------------------------------
      LOOP:  cpu time    8.3740: real time    8.3829

 eigenvalue-minimisations  :  4036
 total energy-change (2. order) : 0.3516544E+01  (-0.6838913E+00)
 number of electron     551.9999603 magnetization 
 augmentation part      201.5067151 magnetization 

 DIPCOR: dipole corrections for dipol
 direction  3 min pos     1,
 dipolmoment           0.000000      0.000000      0.481338 electrons x Angstroem
 Tr[quadrupol]    -11233.329639

 energy correction for charged system         0.000000 eV
 dipol+quadrupol energy correction           -0.007634 eV
 added-field ion interaction          5.170822 eV  (added to PSCEN)


 Broyden mixing:
  rms(total) = 0.10645E+01    rms(broyden)= 0.10629E+01
  rms(prec ) = 0.11753E+01
  weight for this iteration     100.00

 eigenvalues of (default mixing * dielectric matrix)
  average eigenvalue GAMMA=   0.6679
  2.3437  0.5884  0.5179  0.5179  0.1375  0.3039  0.2662

 Free energy of the ion-electron system (eV)
  ---------------------------------------------------
  alpha Z        PSCENC =       867.73966910
  Ewald energy   TEWEN  =    239957.48526327
  -Hartree energ DENC   =   -285132.78549277
  -exchange      EXHF   =         0.00000000
  -V(xc)+E(xc)   XCENC  =      -126.56342629
  PAW double counting   =     52327.14229625   -50427.06754702
  entropy T*S    EENTRO =        -0.16172412
  eigenvalues    EBANDS =     -2818.28333386
  atomic energy  EATOM  =     45117.89144060
  Solvation  Ediel_sol  =         0.00000000
  ---------------------------------------------------
  free energy    TOTEN  =      -234.60285484 eV

  energy without entropy =     -234.44113073  energy(sigma->0) =     -234.52199278


--------------------------------------------------------------------------------------------------------




----------------------------------------- Iteration    1(  13)  ---------------------------------------


    POTLOK:  cpu time    0.0547: real time    0.0554
    SETDIJ:  cpu time    0.0065: real time    0.0065
    EDDIAG:  cpu time    2.0806: real time    2.0846
  RMM-DIIS:  cpu time    5.4256: real time    5.4287
    ORTHCH:  cpu time    0.5465: real time    0.5469
       DOS:  cpu time    0.0015: real time    0.0015
    CHARGE:  cpu time    0.3444: real time    0.3444
    MIXING:  cpu time    0.0032: real time    0.0032
    --------------------------------------------
      LOOP:  cpu time    8.4638: real time    8.4745

 eigenvalue-minimisations  :  4038
 total energy-change (2. order) : 0.1242744E+01  (-0.1758991E+00)
 number of electron     551.9999596 magnetization 
 augmentation part      201.5220294 magnetization 

 DIPCOR: dipole corrections for dipol
 direction  3 min pos     1,
 dipolmoment           0.000000      0.000000      0.455303 electrons x Angstroem
 Tr[quadrupol]    -11233.466377

 energy correction for charged system         0.000000 eV
 dipol+quadrupol energy correction           -0.006830 eV
 added-field ion interaction          4.891144 eV  (added to PSCEN)


 Broyden mixing:
  rms(total) = 0.64124E+00    rms(broyden)= 0.64078E+00
  rms(prec ) = 0.66675E+00
  weight for this iteration     100.00

 eigenvalues of (default mixing * dielectric matrix)
  average eigenvalue GAMMA=   0.6447
  2.3405  0.5783  0.5783  0.6209  0.3354  0.3354  0.1375  0.2312

 Free energy of the ion-electron system (eV)
  ---------------------------------------------------
  alpha Z        PSCENC =       867.46079458
  Ewald energy   TEWEN  =    239957.48526327
  -Hartree energ DENC   =   -285140.63260802
  -exchange      EXHF   =         0.00000000
  -V(xc)+E(xc)   XCENC  =      -126.47796519
  PAW double counting   =     52312.31196444   -50411.31456899
  entropy T*S    EENTRO =        -0.15331877
  eigenvalues    EBANDS =     -2809.93111256
  atomic energy  EATOM  =     45117.89144060
  Solvation  Ediel_sol  =         0.00000000
  ---------------------------------------------------
  free energy    TOTEN  =      -233.36011064 eV

  energy without entropy =     -233.20679187  energy(sigma->0) =     -233.28345125


--------------------------------------------------------------------------------------------------------




----------------------------------------- Iteration    1(  14)  ---------------------------------------


    POTLOK:  cpu time    0.0545: real time    0.0545
    SETDIJ:  cpu time    0.0066: real time    0.0066
    EDDIAG:  cpu time    2.0762: real time    2.0782
  RMM-DIIS:  cpu time    5.3387: real time    5.3425
    ORTHCH:  cpu time    0.5429: real time    0.5432
       DOS:  cpu time    0.0016: real time    0.0016
    CHARGE:  cpu time    0.3518: real time    0.3518
    MIXING:  cpu time    0.0034: real time    0.0034
    --------------------------------------------
      LOOP:  cpu time    8.3764: real time    8.3853

 eigenvalue-minimisations  :  4038
 total energy-change (2. order) :-0.3731462E-01  (-0.2550675E-01)
 number of electron     551.9999596 magnetization 
 augmentation part      201.6367064 magnetization 

 DIPCOR: dipole corrections for dipol
 direction  3 min pos     1,
 dipolmoment           0.000000      0.000000      0.506455 electrons x Angstroem
 Tr[quadrupol]    -11233.370233

 energy correction for charged system         0.000000 eV
 dipol+quadrupol energy correction           -0.008451 eV
 added-field ion interaction          5.440645 eV  (added to PSCEN)


 Broyden mixing:
  rms(total) = 0.57198E+00    rms(broyden)= 0.57194E+00
  rms(prec ) = 0.62840E+00
  weight for this iteration     100.00

 eigenvalues of (default mixing * dielectric matrix)
  average eigenvalue GAMMA=   0.6721
  2.3205  0.8217  0.8217  0.5983  0.4103  0.4103  0.1375  0.2750  0.2537

 Free energy of the ion-electron system (eV)
  ---------------------------------------------------
  alpha Z        PSCENC =       868.00867527
  Ewald energy   TEWEN  =    239957.48526327
  -Hartree energ DENC   =   -285137.66175581
  -exchange      EXHF   =         0.00000000
  -V(xc)+E(xc)   XCENC  =      -126.28816296
  PAW double counting   =     52310.06350932   -50408.60853172
  entropy T*S    EENTRO =        -0.14270291
  eigenvalues    EBANDS =     -2814.14516032
  atomic energy  EATOM  =     45117.89144060
  Solvation  Ediel_sol  =         0.00000000
  ---------------------------------------------------
  free energy    TOTEN  =      -233.39742525 eV

  energy without entropy =     -233.25472235  energy(sigma->0) =     -233.32607380


--------------------------------------------------------------------------------------------------------




----------------------------------------- Iteration    1(  15)  ---------------------------------------


    POTLOK:  cpu time    0.0547: real time    0.0548
    SETDIJ:  cpu time    0.0071: real time    0.0071
    EDDIAG:  cpu time    2.0453: real time    2.0471
  RMM-DIIS:  cpu time    5.3727: real time    5.3759
    ORTHCH:  cpu time    0.5313: real time    0.5313
       DOS:  cpu time    0.0015: real time    0.0015
    CHARGE:  cpu time    0.3434: real time    0.3435
    MIXING:  cpu time    0.0036: real time    0.0036
    --------------------------------------------
      LOOP:  cpu time    8.3603: real time    8.3685

 eigenvalue-minimisations  :  4038
 total energy-change (2. order) :-0.1175523E-01  (-0.1237619E-01)
 number of electron     551.9999595 magnetization 
 augmentation part      201.6285458 magnetization 

 DIPCOR: dipole corrections for dipol
 direction  3 min pos     1,
 dipolmoment           0.000000      0.000000      0.510083 electrons x Angstroem
 Tr[quadrupol]    -11233.436508

 energy correction for charged system         0.000000 eV
 dipol+quadrupol energy correction           -0.008573 eV
 added-field ion interaction          5.479619 eV  (added to PSCEN)


 Broyden mixing:
  rms(total) = 0.53765E+00    rms(broyden)= 0.53759E+00
  rms(prec ) = 0.59775E+00
  weight for this iteration     100.00

 eigenvalues of (default mixing * dielectric matrix)
  average eigenvalue GAMMA=   0.7524
  2.3019  1.3514  1.3514  0.5699  0.4729  0.4729  0.1375  0.3149  0.3149  0.2357

 Free energy of the ion-electron system (eV)
  ---------------------------------------------------
  alpha Z        PSCENC =       868.04752756
  Ewald energy   TEWEN  =    239957.48526327
  -Hartree energ DENC   =   -285141.17186295
  -exchange      EXHF   =         0.00000000
  -V(xc)+E(xc)   XCENC  =      -126.22315122
  PAW double counting   =     52305.58411085   -50403.36661876
  entropy T*S    EENTRO =        -0.14521755
  eigenvalues    EBANDS =     -2811.51067229
  atomic energy  EATOM  =     45117.89144060
  Solvation  Ediel_sol  =         0.00000000
  ---------------------------------------------------
  free energy    TOTEN  =      -233.40918049 eV

  energy without entropy =     -233.26396294  energy(sigma->0) =     -233.33657171


--------------------------------------------------------------------------------------------------------




----------------------------------------- Iteration    1(  16)  ---------------------------------------


    POTLOK:  cpu time    0.0548: real time    0.0552
    SETDIJ:  cpu time    0.0074: real time    0.0074
    EDDIAG:  cpu time    2.0236: real time    2.0888
  RMM-DIIS:  cpu time    5.3854: real time    5.3882
    ORTHCH:  cpu time    0.5277: real time    0.5385
       DOS:  cpu time    0.0014: real time    0.0014
    CHARGE:  cpu time    0.3450: real time    0.3453
    MIXING:  cpu time    0.0036: real time    0.0036
    --------------------------------------------
      LOOP:  cpu time    8.3496: real time    8.4321

 eigenvalue-minimisations  :  4038
 total energy-change (2. order) : 0.5370578E-01  (-0.2209640E-01)
 number of electron     551.9999597 magnetization 
 augmentation part      201.5048576 magnetization 

 DIPCOR: dipole corrections for dipol
 direction  3 min pos     1,
 dipolmoment           0.000000      0.000000      0.526425 electrons x Angstroem
 Tr[quadrupol]    -11233.714866

 energy correction for charged system         0.000000 eV
 dipol+quadrupol energy correction           -0.009131 eV
 added-field ion interaction          5.655179 eV  (added to PSCEN)


 Broyden mixing:
  rms(total) = 0.41774E+00    rms(broyden)= 0.41754E+00
  rms(prec ) = 0.48277E+00
  weight for this iteration     100.00

 eigenvalues of (default mixing * dielectric matrix)
  average eigenvalue GAMMA=   0.7557
  2.1941  1.7590  1.4803  0.5386  0.5386  0.1375  0.4508  0.3737  0.3465  0.2611
  0.2322

 Free energy of the ion-electron system (eV)
  ---------------------------------------------------
  alpha Z        PSCENC =       868.22252965
  Ewald energy   TEWEN  =    239957.48526327
  -Hartree energ DENC   =   -285152.63990666
  -exchange      EXHF   =         0.00000000
  -V(xc)+E(xc)   XCENC  =      -126.12511536
  PAW double counting   =     52329.33797264   -50425.78366848
  entropy T*S    EENTRO =        -0.14578394
  eigenvalues    EBANDS =     -2801.59820643
  atomic energy  EATOM  =     45117.89144060
  Solvation  Ediel_sol  =         0.00000000
  ---------------------------------------------------
  free energy    TOTEN  =      -233.35547471 eV

  energy without entropy =     -233.20969076  energy(sigma->0) =     -233.28258273


--------------------------------------------------------------------------------------------------------




----------------------------------------- Iteration    1(  17)  ---------------------------------------


    POTLOK:  cpu time    0.0545: real time    0.0546
    SETDIJ:  cpu time    0.0066: real time    0.0066
    EDDIAG:  cpu time    2.3723: real time    2.3917
  RMM-DIIS:  cpu time    5.4461: real time    5.4557
    ORTHCH:  cpu time    0.5315: real time    0.5316
       DOS:  cpu time    0.0016: real time    0.0016
    CHARGE:  cpu time    0.3473: real time    0.3476
    MIXING:  cpu time    0.0037: real time    0.0037
    --------------------------------------------
      LOOP:  cpu time    8.7646: real time    8.7973

 eigenvalue-minimisations  :  4036
 total energy-change (2. order) : 0.1397869E+00  (-0.1522423E-01)
 number of electron     551.9999598 magnetization 
 augmentation part      201.3860084 magnetization 

 DIPCOR: dipole corrections for dipol
 direction  3 min pos     1,
 dipolmoment           0.000000      0.000000      0.494105 electrons x Angstroem
 Tr[quadrupol]    -11234.017589

 energy correction for charged system         0.000000 eV
 dipol+quadrupol energy correction           -0.008044 eV
 added-field ion interaction          5.307982 eV  (added to PSCEN)


 Broyden mixing:
  rms(total) = 0.17460E+00    rms(broyden)= 0.17418E+00
  rms(prec ) = 0.19473E+00
  weight for this iteration     100.00

 eigenvalues of (default mixing * dielectric matrix)
  average eigenvalue GAMMA=   0.7335
  2.1069  2.1069  1.3176  0.5885  0.5885  0.4266  0.4266  0.1375  0.3207  0.3207
  0.2311  0.2311

 Free energy of the ion-electron system (eV)
  ---------------------------------------------------
  alpha Z        PSCENC =       867.87641901
  Ewald energy   TEWEN  =    239957.48526327
  -Hartree energ DENC   =   -285163.67559544
  -exchange      EXHF   =         0.00000000
  -V(xc)+E(xc)   XCENC  =      -126.12857366
  PAW double counting   =     52347.42515845   -50443.15667334
  entropy T*S    EENTRO =        -0.17800163
  eigenvalues    EBANDS =     -2790.75512505
  atomic energy  EATOM  =     45117.89144060
  Solvation  Ediel_sol  =         0.00000000
  ---------------------------------------------------
  free energy    TOTEN  =      -233.21568780 eV

  energy without entropy =     -233.03768617  energy(sigma->0) =     -233.12668698


--------------------------------------------------------------------------------------------------------




----------------------------------------- Iteration    1(  18)  ---------------------------------------


    POTLOK:  cpu time    0.0546: real time    0.0546
    SETDIJ:  cpu time    0.0065: real time    0.0065
    EDDIAG:  cpu time    2.0406: real time    2.0421
  RMM-DIIS:  cpu time    5.4311: real time    5.4345
    ORTHCH:  cpu time    0.5307: real time    0.5310
       DOS:  cpu time    0.0015: real time    0.0015
    CHARGE:  cpu time    0.3509: real time    0.3509
    MIXING:  cpu time    0.0039: real time    0.0039
    --------------------------------------------
      LOOP:  cpu time    8.4205: real time    8.4275

 eigenvalue-minimisations  :  4036
 total energy-change (2. order) : 0.2206555E-01  (-0.2511126E-02)
 number of electron     551.9999598 magnetization 
 augmentation part      201.3696245 magnetization 

 DIPCOR: dipole corrections for dipol
 direction  3 min pos     1,
 dipolmoment           0.000000      0.000000      0.481732 electrons x Angstroem
 Tr[quadrupol]    -11234.069093

 energy correction for charged system         0.000000 eV
 dipol+quadrupol energy correction           -0.007646 eV
 added-field ion interaction          5.175061 eV  (added to PSCEN)


 Broyden mixing:
  rms(total) = 0.11050E+00    rms(broyden)= 0.11047E+00
  rms(prec ) = 0.11872E+00
  weight for this iteration     100.00

 eigenvalues of (default mixing * dielectric matrix)
  average eigenvalue GAMMA=   0.6916
  2.0980  2.0980  1.3153  0.5966  0.5966  0.4132  0.4132  0.1375  0.3114  0.3114
  0.2257  0.2368  0.2368

 Free energy of the ion-electron system (eV)
  ---------------------------------------------------
  alpha Z        PSCENC =       867.74389554
  Ewald energy   TEWEN  =    239957.48526327
  -Hartree energ DENC   =   -285165.44552065
  -exchange      EXHF   =         0.00000000
  -V(xc)+E(xc)   XCENC  =      -126.11556575
  PAW double counting   =     52356.82347102   -50452.51837026
  entropy T*S    EENTRO =        -0.18005700
  eigenvalues    EBANDS =     -2788.87817902
  atomic energy  EATOM  =     45117.89144060
  Solvation  Ediel_sol  =         0.00000000
  ---------------------------------------------------
  free energy    TOTEN  =      -233.19362224 eV

  energy without entropy =     -233.01356524  energy(sigma->0) =     -233.10359374


--------------------------------------------------------------------------------------------------------




----------------------------------------- Iteration    1(  19)  ---------------------------------------


    POTLOK:  cpu time    0.0546: real time    0.0546
    SETDIJ:  cpu time    0.0066: real time    0.0066
    EDDIAG:  cpu time    2.0446: real time    2.0461
  RMM-DIIS:  cpu time    5.3958: real time    5.3994
    ORTHCH:  cpu time    0.5282: real time    0.5285
       DOS:  cpu time    0.0016: real time    0.0016
    CHARGE:  cpu time    0.3426: real time    0.3427
    MIXING:  cpu time    0.0042: real time    0.0042
    --------------------------------------------
      LOOP:  cpu time    8.3791: real time    8.3863

 eigenvalue-minimisations  :  4046
 total energy-change (2. order) : 0.3970011E-02  (-0.1476833E-03)
 number of electron     551.9999599 magnetization 
 augmentation part      201.3692303 magnetization 

 DIPCOR: dipole corrections for dipol
 direction  3 min pos     1,
 dipolmoment           0.000000      0.000000      0.482830 electrons x Angstroem
 Tr[quadrupol]    -11234.085860

 energy correction for charged system         0.000000 eV
 dipol+quadrupol energy correction           -0.007681 eV
 added-field ion interaction          5.186852 eV  (added to PSCEN)


 Broyden mixing:
  rms(total) = 0.93258E-01    rms(broyden)= 0.93256E-01
  rms(prec ) = 0.10017E+00
  weight for this iteration     100.00

 eigenvalues of (default mixing * dielectric matrix)
  average eigenvalue GAMMA=   0.6999
  2.0896  2.0896  1.2980  0.5695  0.5695  0.5755  0.5755  0.1375  0.4001  0.4001
  0.3507  0.2869  0.2363  0.2203

 Free energy of the ion-electron system (eV)
  ---------------------------------------------------
  alpha Z        PSCENC =       867.75565172
  Ewald energy   TEWEN  =    239957.48526327
  -Hartree energ DENC   =   -285165.75258429
  -exchange      EXHF   =         0.00000000
  -V(xc)+E(xc)   XCENC  =      -126.11149009
  PAW double counting   =     52358.53072040   -50454.23703735
  entropy T*S    EENTRO =        -0.17990784
  eigenvalues    EBANDS =     -2788.57170865
  atomic energy  EATOM  =     45117.89144060
  Solvation  Ediel_sol  =         0.00000000
  ---------------------------------------------------
  free energy    TOTEN  =      -233.18965223 eV

  energy without entropy =     -233.00974439  energy(sigma->0) =     -233.09969831


--------------------------------------------------------------------------------------------------------




----------------------------------------- Iteration    1(  20)  ---------------------------------------


    POTLOK:  cpu time    0.0545: real time    0.0545
    SETDIJ:  cpu time    0.0065: real time    0.0065
    EDDIAG:  cpu time    2.0578: real time    2.0607
  RMM-DIIS:  cpu time    5.2884: real time    5.3277
    ORTHCH:  cpu time    0.5090: real time    0.5393
       DOS:  cpu time    0.0015: real time    0.0015
    CHARGE:  cpu time    0.3478: real time    0.3479
    MIXING:  cpu time    0.0046: real time    0.0046
    --------------------------------------------
      LOOP:  cpu time    8.2710: real time    8.3474

 eigenvalue-minimisations  :  4038
 total energy-change (2. order) : 0.2398060E-02  (-0.1640660E-03)
 number of electron     551.9999599 magnetization 
 augmentation part      201.3769102 magnetization 

 DIPCOR: dipole corrections for dipol
 direction  3 min pos     1,
 dipolmoment           0.000000      0.000000      0.483763 electrons x Angstroem
 Tr[quadrupol]    -11234.110977

 energy correction for charged system         0.000000 eV
 dipol+quadrupol energy correction           -0.007711 eV
 added-field ion interaction          5.196876 eV  (added to PSCEN)


 Broyden mixing:
  rms(total) = 0.80207E-01    rms(broyden)= 0.80201E-01
  rms(prec ) = 0.86114E-01
  weight for this iteration     100.00

 eigenvalues of (default mixing * dielectric matrix)
  average eigenvalue GAMMA=   0.7769
  2.2741  2.2741  1.2899  1.2899  0.9834  0.5542  0.5542  0.1375  0.4450  0.4450
  0.3570  0.3180  0.2754  0.2379  0.2184

 Free energy of the ion-electron system (eV)
  ---------------------------------------------------
  alpha Z        PSCENC =       867.76564636
  Ewald energy   TEWEN  =    239957.48526327
  -Hartree energ DENC   =   -285166.39704039
  -exchange      EXHF   =         0.00000000
  -V(xc)+E(xc)   XCENC  =      -126.09687366
  PAW double counting   =     52362.21717957   -50457.92971133
  entropy T*S    EENTRO =        -0.17893870
  eigenvalues    EBANDS =     -2787.94421988
  atomic energy  EATOM  =     45117.89144060
  Solvation  Ediel_sol  =         0.00000000
  ---------------------------------------------------
  free energy    TOTEN  =      -233.18725417 eV

  energy without entropy =     -233.00831547  energy(sigma->0) =     -233.09778482


--------------------------------------------------------------------------------------------------------




----------------------------------------- Iteration    1(  21)  ---------------------------------------


    POTLOK:  cpu time    0.0554: real time    0.0555
    SETDIJ:  cpu time    0.0067: real time    0.0067
    EDDIAG:  cpu time    2.0572: real time    2.0583
  RMM-DIIS:  cpu time    5.4215: real time    5.4272
    ORTHCH:  cpu time    0.5122: real time    0.5123
       DOS:  cpu time    0.0015: real time    0.0015
    CHARGE:  cpu time    0.3447: real time    0.3449
    MIXING:  cpu time    0.0047: real time    0.0047
    --------------------------------------------
      LOOP:  cpu time    8.4047: real time    8.4139

 eigenvalue-minimisations  :  4038
 total energy-change (2. order) : 0.3490282E-02  (-0.4936729E-03)
 number of electron     551.9999599 magnetization 
 augmentation part      201.3728974 magnetization 

 DIPCOR: dipole corrections for dipol
 direction  3 min pos     1,
 dipolmoment           0.000000      0.000000      0.487232 electrons x Angstroem
 Tr[quadrupol]    -11234.268007

 energy correction for charged system         0.000000 eV
 dipol+quadrupol energy correction           -0.007822 eV
 added-field ion interaction          5.234138 eV  (added to PSCEN)


 Broyden mixing:
  rms(total) = 0.39451E-01    rms(broyden)= 0.39415E-01
  rms(prec ) = 0.42957E-01
  weight for this iteration     100.00

 eigenvalues of (default mixing * dielectric matrix)
  average eigenvalue GAMMA=   0.7859
  2.3641  2.3641  1.4389  1.4389  0.9316  0.5823  0.5823  0.4910  0.4910  0.1375
  0.3546  0.3546  0.3131  0.2743  0.2374  0.2187

 Free energy of the ion-electron system (eV)
  ---------------------------------------------------
  alpha Z        PSCENC =       867.80279765
  Ewald energy   TEWEN  =    239957.48526327
  -Hartree energ DENC   =   -285170.98010940
  -exchange      EXHF   =         0.00000000
  -V(xc)+E(xc)   XCENC  =      -126.05339929
  PAW double counting   =     52375.10105154   -50470.72984225
  entropy T*S    EENTRO =        -0.17806396
  eigenvalues    EBANDS =     -2783.52290204
  atomic energy  EATOM  =     45117.89144060
  Solvation  Ediel_sol  =         0.00000000
  ---------------------------------------------------
  free energy    TOTEN  =      -233.18376389 eV

  energy without entropy =     -233.00569993  energy(sigma->0) =     -233.09473191


--------------------------------------------------------------------------------------------------------




----------------------------------------- Iteration    1(  22)  ---------------------------------------


    POTLOK:  cpu time    0.0546: real time    0.0546
    SETDIJ:  cpu time    0.0065: real time    0.0065
    EDDIAG:  cpu time    2.0208: real time    2.0217
[...]
 -0.001   0.001  -0.006   0.002  -8.177  -0.001   0.001  -0.006
 -8.322   0.002   0.002  -0.005  -0.001  -8.449   0.002   0.002
  0.002  -8.249  -0.003  -0.001   0.001   0.002  -8.378  -0.003
  0.002  -0.003  -8.240   0.001  -0.006   0.002  -0.003  -8.370
 -0.005  -0.001   0.001  -8.243   0.002  -0.005  -0.001   0.001
 -0.001   0.001  -0.006   0.002  -8.321  -0.001   0.001  -0.006
  0.001   0.002  -0.025  -0.002  -0.002   0.001   0.002  -0.025
  0.001   0.003  -0.037  -0.002  -0.003   0.001   0.003  -0.037
  0.000  -0.003   0.002  -0.000   0.003   0.000  -0.003   0.002
 -0.000  -0.003  -0.005  -0.000  -0.000  -0.000  -0.002  -0.005
 -0.003  -0.000  -0.000  -0.004  -0.000  -0.003  -0.000  -0.000
  0.000  -0.003   0.002  -0.000   0.004   0.001  -0.003   0.002
 -0.000  -0.003  -0.006  -0.000   0.000  -0.000  -0.003  -0.005
 -0.003  -0.000  -0.000  -0.003  -0.000  -0.003  -0.000  -0.000
 total augmentation occupancy for first ion, spin component:           1
  4.589  -0.023  -0.135   0.052  -0.153  -2.778   0.033   0.135  -0.091   0.137  -0.069   0.043  -0.042   0.014  -0.010   0.002
 -0.023   4.087   0.028  -0.084   0.008   0.033  -1.834  -0.044   0.075  -0.032  -0.104   0.028  -0.125  -0.016   0.015   0.004
 -0.135   0.028   4.445  -0.101   0.144   0.135  -0.044  -2.341   0.099  -0.164   1.023  -0.133  -0.038  -0.227   0.031   0.003
  0.052  -0.084  -0.101   4.171  -0.018  -0.091   0.075   0.099  -1.918   0.021   0.089  -0.040   0.011   0.028  -0.157  -0.001
 -0.153   0.008   0.144  -0.018   4.239   0.137  -0.033  -0.164   0.021  -2.429   0.149  -0.091  -0.048  -0.006   0.028   0.005
 -2.778   0.033   0.135  -0.091   0.137   2.848  -0.039  -0.133   0.121  -0.125   0.063  -0.040   0.035  -0.012   0.012  -0.002
  0.033  -1.834  -0.044   0.075  -0.033  -0.039   1.552   0.057  -0.068   0.050   0.091  -0.026   0.114   0.020  -0.012  -0.005
  0.135  -0.044  -2.341   0.099  -0.164  -0.133   0.057   2.181  -0.096   0.177  -0.955   0.153   0.033   0.233  -0.027  -0.002
 -0.091   0.075   0.099  -1.918   0.021   0.121  -0.068  -0.096   1.634  -0.023  -0.077   0.037  -0.009  -0.026   0.143   0.001
  0.137  -0.032  -0.164   0.021  -2.429  -0.125   0.050   0.177  -0.023   2.503  -0.132   0.082   0.041   0.007  -0.024  -0.002
 -0.069  -0.104   1.023   0.089   0.149   0.063   0.091  -0.955  -0.077  -0.132   2.448  -0.518  -0.004   0.110   0.001  -0.000
  0.043   0.028  -0.133  -0.040  -0.091  -0.040  -0.026   0.153   0.037   0.082  -0.518   0.151   0.010  -0.052  -0.002  -0.000
 -0.042  -0.125  -0.038   0.011  -0.048   0.035   0.114   0.033  -0.009   0.041  -0.004   0.010   0.201   0.004   0.003  -0.006
  0.014  -0.016  -0.227   0.028  -0.006  -0.012   0.020   0.233  -0.026   0.007   0.110  -0.052   0.004   0.093  -0.004  -0.000
 -0.010   0.015   0.031  -0.157   0.028   0.012  -0.012  -0.027   0.143  -0.024   0.001  -0.002   0.003  -0.004   0.192  -0.000
  0.002   0.004   0.003  -0.001   0.005  -0.002  -0.005  -0.002   0.001  -0.002  -0.000  -0.000  -0.006  -0.000  -0.000   0.000
 -0.001  -0.002   0.001  -0.001   0.000   0.000  -0.000  -0.006   0.001  -0.000  -0.007   0.002  -0.000  -0.003   0.000   0.000
 -0.003  -0.001  -0.002   0.004  -0.001   0.000   0.001   0.001  -0.006   0.001  -0.000   0.000  -0.000   0.000  -0.006   0.000


------------------------ aborting loop because EDIFF is reached ----------------------------------------


    CHARGE:  cpu time    0.3491: real time    0.3491
    FORLOC:  cpu time    0.0246: real time    0.0246
    FORNL :  cpu time    1.9188: real time    1.9199
    FORCOR:  cpu time    0.0762: real time    0.0762
    FORHAR:  cpu time    0.0346: real time    0.0345
    MIXING:  cpu time    0.0037: real time    0.0037
    OFIELD:  cpu time    0.0000: real time    0.0000

 VOLUME and BASIS-vectors are now :
 -----------------------------------------------------------------------------
  energy-cutoff  :      400.00
  volume of cell :     2745.90
      direct lattice vectors                 reciprocal lattice vectors
    11.002581515  0.000000000  0.000000000     0.090887761 -0.052474073  0.000000000
     5.501290758  9.528515099  0.000000000     0.000000000  0.104948147  0.000000000
     0.000000000  0.000000000 26.191785094     0.000000000  0.000000000  0.038179910

  length of vectors
    11.002581515 11.002581515 26.191785094     0.104948147  0.104948147  0.038179910


 FORCES acting on ions
    electron-ion (+dipol)            ewald-force                    non-local-force                 convergence-correction
 -----------------------------------------------------------------------------------------------
   -.315E+01 -.373E+01 0.250E+04   0.308E+01 0.431E+01 -.250E+04   0.100E+00 -.465E+00 0.703E-02   -.638E-03 0.101E-02 0.342E-03
   -.304E+01 -.259E+02 0.351E+03   0.341E+01 0.252E+02 -.350E+03   -.361E+00 0.699E+00 -.973E+00   -.262E-02 -.133E-02 0.282E-02
   -.113E+02 0.581E+01 0.251E+04   0.117E+02 -.561E+01 -.251E+04   -.268E+00 -.134E+00 -.534E+00   -.863E-03 0.369E-04 0.111E-02
   0.274E+01 -.235E+02 0.342E+03   -.377E+01 0.233E+02 -.342E+03   0.103E+01 0.239E+00 0.206E+00   0.951E-03 -.126E-02 0.242E-02
   0.160E+01 0.188E+02 0.249E+04   -.142E+01 -.195E+02 -.249E+04   -.186E+00 0.509E+00 -.173E+00   -.890E-03 -.603E-03 0.188E-02
   0.128E+02 0.262E+02 0.168E+03   -.123E+02 -.261E+02 -.167E+03   -.456E+00 -.615E-01 -.120E+01   0.985E-03 0.654E-03 -.806E-03
   0.184E+01 -.241E+02 0.252E+04   -.179E+01 0.247E+02 -.252E+04   -.782E-01 -.320E+00 -.859E-01   0.671E-03 -.676E-03 0.428E-03
   0.100E+03 0.714E+02 -.208E+04   -.102E+03 -.730E+02 0.208E+04   0.230E+01 0.163E+01 0.740E+00   0.318E-02 0.236E-02 -.254E-02
   0.830E+01 0.503E+01 0.250E+04   -.839E+01 -.439E+01 -.250E+04   0.627E-01 -.541E+00 0.315E+00   0.643E-03 -.883E-03 0.145E-02
   -.211E+02 -.428E+01 0.249E+04   0.216E+02 0.412E+01 -.249E+04   -.264E+00 0.121E+00 -.194E+00   -.166E-02 0.554E-03 0.113E-02
   0.104E+03 0.126E+02 -.186E+04   -.106E+03 -.139E+02 0.186E+04   0.216E+01 0.126E+01 0.146E+01   0.406E-02 0.771E-02 -.298E-02
   -.127E+02 0.160E+02 0.250E+04   0.125E+02 -.166E+02 -.250E+04   0.249E+00 0.416E+00 -.593E+00   -.408E-03 0.914E-03 0.154E-03
   0.843E+01 0.220E+02 0.307E+03   -.810E+01 -.220E+02 -.306E+03   -.328E+00 0.744E-01 -.392E+00   -.223E-02 -.626E-03 0.237E-02
   0.216E+02 0.216E+02 0.323E+03   -.220E+02 -.208E+02 -.323E+03   0.417E+00 -.815E+00 -.127E+00   0.330E-02 -.249E-02 -.128E-02
   -.483E+00 -.777E+01 0.358E+03   0.101E+01 0.767E+01 -.357E+03   -.523E+00 0.970E-01 -.511E+00   -.357E-03 0.170E-02 -.389E-02
   -.189E+01 0.679E+00 0.185E+03   0.165E+01 -.537E+00 -.183E+03   0.238E+00 -.140E+00 -.140E+01   -.257E-02 0.160E-02 -.431E-02
   0.168E+02 0.655E+01 0.249E+04   -.168E+02 -.639E+01 -.249E+04   -.134E+00 -.156E+00 0.311E+00   0.624E-03 0.168E-03 0.307E-03
   -.342E+01 -.220E+02 0.354E+03   0.349E+01 0.228E+02 -.356E+03   -.624E-01 -.813E+00 0.154E+01   -.228E-03 -.390E-03 0.105E-02
   -.119E+03 0.419E+02 -.198E+04   0.122E+03 -.433E+02 0.198E+04   -.230E+01 0.150E+01 0.304E+00   0.602E-02 -.370E-02 0.108E-01
   -.218E+02 0.644E+02 -.198E+04   0.229E+02 -.653E+02 0.198E+04   -.108E+01 0.847E+00 0.774E+00   0.282E-02 0.934E-03 -.699E-03
   0.126E+02 0.233E+02 0.249E+04   -.128E+02 -.247E+02 -.249E+04   0.970E-01 0.103E+01 0.719E-01   0.172E-02 -.636E-03 0.108E-02
   0.380E+02 -.832E+01 0.201E+03   -.393E+02 0.851E+01 -.201E+03   0.128E+01 -.175E+00 -.467E-02   0.494E-03 -.217E-02 0.804E-03
   -.682E+02 0.334E+02 -.195E+04   0.705E+02 -.345E+02 0.195E+04   -.234E+01 0.107E+01 0.103E+01   -.508E-03 -.118E-02 -.526E-03
   -.553E+02 0.302E+02 -.166E+04   0.579E+02 -.325E+02 0.166E+04   -.262E+01 0.225E+01 0.188E+01   -.111E-01 -.267E-02 -.311E-03
   -.460E+02 0.341E+02 -.165E+04   0.456E+02 -.383E+02 0.168E+04   0.419E+00 0.422E+01 -.279E+02   0.272E-02 -.320E-02 -.918E-03
   0.608E+02 -.337E+01 -.172E+04   -.616E+02 0.341E+01 0.175E+04   0.773E+00 -.432E-01 -.283E+02   -.104E-02 0.340E-02 -.156E-02
   -.649E+02 0.364E+02 -.170E+04   0.659E+02 -.356E+02 0.172E+04   -.967E+00 -.763E+00 -.281E+02   0.530E-02 -.218E-02 0.128E-02
   -.862E+02 0.851E+02 -.162E+04   0.937E+02 -.938E+02 0.164E+04   -.752E+01 0.861E+01 -.181E+02   0.139E-02 -.171E-02 -.190E-02
   0.917E+02 -.175E+03 -.177E+04   -.997E+02 0.189E+03 0.179E+04   0.795E+01 -.137E+02 -.225E+02   -.244E-02 0.171E-02 0.358E-02
   0.154E+02 -.446E+02 -.168E+04   -.101E+02 0.437E+02 0.170E+04   -.533E+01 0.881E+00 -.276E+02   -.183E-02 0.658E-03 -.425E-02
   -.103E+03 0.256E+02 -.160E+04   0.113E+03 -.241E+02 0.162E+04   -.993E+01 -.152E+01 -.181E+02   0.968E-02 -.141E-02 -.199E-02
   0.665E+02 0.250E+02 -.171E+04   -.694E+02 -.270E+02 0.174E+04   0.291E+01 0.198E+01 -.278E+02   -.140E-02 0.943E-03 -.549E-03
   0.114E+02 -.128E+03 -.163E+04   -.116E+02 0.128E+03 0.163E+04   0.263E+00 0.552E+00 -.630E+00   -.730E-02 -.259E-02 0.675E-02
   -.231E+02 0.261E+02 0.227E+04   0.236E+02 -.263E+02 -.227E+04   -.330E+00 0.153E-01 -.109E+01   -.141E-02 -.376E-04 0.982E-03
   -.393E+02 -.529E+02 -.178E+04   0.389E+02 0.518E+02 0.179E+04   0.441E+00 0.112E+01 -.205E+01   -.652E-02 -.813E-05 -.122E-01
   -.482E+01 -.232E+02 0.230E+04   0.492E+01 0.236E+02 -.230E+04   -.834E-01 -.115E+00 -.194E+01   0.146E-03 0.656E-03 -.196E-03
   -.229E+02 0.358E+01 0.348E+03   0.233E+02 -.346E+01 -.348E+03   -.358E+00 -.132E+00 -.121E+00   -.367E-02 -.225E-02 -.237E-02
   0.102E+03 -.397E+02 -.177E+04   -.102E+03 0.402E+02 0.177E+04   -.708E+00 -.517E+00 -.218E+01   -.224E-02 -.158E-02 -.423E-02
   0.408E+00 0.715E+01 0.280E+03   -.489E+00 -.727E+01 -.278E+03   0.895E-01 0.112E+00 -.188E+01   -.692E-03 -.330E-02 0.334E-02
   0.225E+02 -.799E+02 -.162E+04   -.226E+02 0.803E+02 0.162E+04   0.130E+00 -.337E+00 -.239E+01   -.336E-02 -.156E-02 -.110E-01
   -.100E+03 0.368E+02 -.165E+04   0.998E+02 -.367E+02 0.165E+04   0.284E+00 -.744E-01 -.894E-01   0.194E-03 -.377E-02 -.200E-02
   0.917E+01 -.236E+02 0.229E+04   -.916E+01 0.238E+02 -.229E+04   -.103E+00 0.255E-01 -.141E+01   -.152E-03 -.354E-03 0.405E-03
   -.131E+02 0.896E+01 -.172E+04   0.129E+02 -.883E+01 0.173E+04   0.239E+00 -.126E+00 -.251E+01   -.108E-01 -.156E-03 -.442E-02
   -.534E+02 -.333E+01 0.283E+03   0.534E+02 0.365E+01 -.282E+03   -.461E-02 -.321E+00 -.736E+00   -.252E-02 0.513E-05 0.249E-02
   0.108E+02 0.136E+02 0.228E+04   -.114E+02 -.137E+02 -.228E+04   0.368E+00 0.667E-01 -.173E+01   0.674E-03 -.328E-04 0.290E-03
   -.593E+01 -.131E+02 0.229E+04   0.625E+01 0.131E+02 -.229E+04   -.172E+00 0.234E-01 -.165E+01   0.145E-02 -.361E-03 0.437E-03
   0.694E+01 -.205E+02 0.229E+04   -.704E+01 0.208E+02 -.229E+04   0.477E-01 -.133E+00 -.148E+01   -.132E-03 -.260E-03 0.251E-03
   -.139E+01 -.117E+02 0.272E+03   0.164E+01 0.117E+02 -.271E+03   -.241E+00 0.517E-02 -.274E+00   0.596E-03 -.148E-02 -.348E-03
   0.179E+02 -.211E+02 -.178E+04   -.178E+02 0.215E+02 0.178E+04   -.103E+00 -.453E+00 0.143E+01   -.196E-02 0.847E-03 -.311E-02
   0.757E+02 0.907E+00 -.156E+04   -.756E+02 -.113E+01 0.156E+04   -.108E+00 0.226E+00 -.102E+01   0.399E-02 0.324E-02 -.268E-02
   0.988E-01 -.142E+02 0.272E+03   -.706E-01 0.137E+02 -.271E+03   -.299E-01 0.521E+00 -.933E+00   -.255E-02 0.119E-02 -.413E-02
   0.603E+01 -.689E+01 0.291E+03   -.630E+01 0.665E+01 -.292E+03   0.271E+00 0.243E+00 0.607E+00   -.185E-02 0.338E-02 -.181E-02
   0.393E+01 0.566E+02 0.163E+03   -.386E+01 -.563E+02 -.162E+03   -.754E-01 -.292E+00 -.143E+01   -.346E-03 0.530E-03 -.891E-02
   0.513E+02 0.760E+02 -.265E+04   -.478E+02 -.743E+02 0.265E+04   -.350E+01 -.164E+01 0.201E+01   -.722E-02 -.154E-01 -.392E-02
   0.544E+01 -.583E+02 -.166E+04   -.529E+01 0.583E+02 0.166E+04   -.163E+00 0.267E-02 -.193E+01   0.250E-02 0.511E-02 -.109E-01
   0.170E+02 -.231E+01 0.228E+04   -.175E+02 0.227E+01 -.228E+04   0.288E+00 0.417E-02 -.184E+01   0.223E-03 0.567E-03 0.105E-02
 -----------------------------------------------------------------------------------------------
   0.184E+02 -.644E+01 0.221E+03   0.576E-12 -.392E-12 -.546E-11   -.183E+02 0.651E+01 -.221E+03   -.293E-01 -.204E-01 -.517E-01
 
 
 POSITION                                       TOTAL-FORCE (eV/Angst)
 -----------------------------------------------------------------------------------
      8.25194      7.94043     10.00000         0.034781      0.117888     -0.085642
     15.11054      8.75714     12.41376         0.003021      0.002611      0.000185
      4.12597      5.55830     10.00000         0.123780      0.062328     -0.239344
     12.32013      8.76565     12.41960         0.002168      0.000566     -0.003203
      2.75065      3.17617     10.00000        -0.006783     -0.201798     -0.128505
     12.36684      3.98606     12.62809        -0.008698      0.001013     -0.002843
     13.75323      7.94043     10.00000        -0.022805      0.247638     -0.349553
     12.26970      2.33004     15.04950         0.002447     -0.001662     -0.000233
     12.37790      5.55830     10.00000        -0.033829      0.103628     -0.240000
      4.12597      0.79404     10.00000         0.292855     -0.037047      0.076733
      2.65431      0.00445     14.82028         0.010931     -0.002433      0.007072
      6.87661      5.55830     10.00000         0.053938     -0.205288     -0.017283
      4.11239      3.99217     12.47191         0.005914      0.000234      0.003945
     10.95397      6.37890     12.44559        -0.001421     -0.000439     -0.006780
      6.87294      8.76335     12.41481         0.007284     -0.003724     -0.002199
      5.46320      1.62043     12.63527         0.001247      0.002300      0.001104
      9.62726      5.55830     10.00000        -0.180081      0.002262     -0.256929
      8.21922      1.62966     12.37631         0.000529     -0.000594     -0.004438
     13.83167      9.45268     14.92508         0.003805      0.000346      0.000364
     10.98651      4.74352     14.98344         0.010896      0.002289     -0.006935
     11.00258      3.17617     10.00000        -0.120459     -0.404897     -0.082908
      9.56025      4.00368     12.51070         0.004853      0.006280     -0.005052
      9.61580      2.37630     14.94396         0.006725      0.000561     -0.001466
      5.62684      4.77964     14.70673         0.002876     -0.008785      0.014820
     11.00756      7.77407     15.99919         0.002293     -0.006195      0.000082
      2.71537      3.31824     16.23011        -0.004831     -0.003149      0.004803
      6.94791      0.85262     16.18043         0.009384      0.006378     -0.000663
      8.18847      3.24357     16.31923        -0.005275     -0.000962     -0.005871
      6.85966      6.78329     16.77791         0.008856      0.004209      0.007103
      4.15090      5.78756     16.06514         0.010977      0.004513     -0.006626
      9.53047      5.62578     16.25402         0.002834      0.006563      0.002298
      4.02417      0.86806     16.20896         0.004289     -0.003326      0.002000
     15.16209      7.20641     14.72363         0.009067      0.002336     -0.003751
      5.50129      3.17617     10.00000         0.183333     -0.202105      0.362118
      4.17061      2.49732     15.11173        -0.000650      0.009214      0.010068
      5.50129      7.94043     10.00000         0.013118      0.279416      0.093271
      5.50118      6.38291     12.37980        -0.003951     -0.008093     -0.000065
     13.72560      4.89641     15.00967         0.007504     -0.008078     -0.001777
     13.73156      6.36146     12.47393         0.007816     -0.006082     -0.008503
      6.83510      7.21200     14.91095         0.000892      0.010262     -0.000156
     12.40051      7.13660     14.76852        -0.003337      0.010595     -0.002494
      6.87661      0.79404     10.00000        -0.092226      0.168646      0.175471
      5.46618      0.00692     15.09083         0.003458      0.005051     -0.004150
      6.86631      3.99374     12.42807         0.002504     -0.004011      0.000736
      8.25194      3.17617     10.00000        -0.194983     -0.068588      0.148422
      9.62726      0.79404     10.00000         0.144685     -0.004408      0.180483
     11.00258      7.94043     10.00000        -0.045680      0.164811      0.126054
     10.98198      1.63410     12.46693         0.006177     -0.004099     -0.001283
     10.98306      0.00659     14.74826        -0.002561      0.002706     -0.002852
      9.49084      7.10931     14.85567        -0.004932      0.001910      0.008983
      9.60338      8.73539     12.49793        -0.004037     -0.004135      0.000613
      2.73221      1.61324     12.43449        -0.000476      0.005791     -0.001979
      8.20432      6.36291     12.57617        -0.001513     -0.000833      0.004497
      7.66204      5.08577     16.52399         0.003882     -0.003596     -0.010371
      6.85704      2.47742     15.01646        -0.010543     -0.002908      0.004466
      1.37532      0.79404     10.00000        -0.240049     -0.035110      0.248162
 -----------------------------------------------------------------------------------
    total drift:                               -0.006882      0.041335     -0.081748


--------------------------------------------------------------------------------------------------------



  FREE ENERGIE OF THE ION-ELECTRON SYSTEM (eV)
  ---------------------------------------------------
  free  energy   TOTEN  =      -233.20045937 eV

  energy  without entropy=     -233.02368919  energy(sigma->0) =     -233.11207428
 
 d Force = 0.3001203E-03[ 0.148E-03, 0.452E-03]  d Energy = 0.2911964E-03 0.892E-05
 d Force = 0.6283992E+01[ 0.630E+01, 0.627E+01]  d Ewald  = 0.6283988E+01 0.391E-05


--------------------------------------------------------------------------------------------------------


    POTLOK:  cpu time    0.0622: real time    0.0622


--------------------------------------------------------------------------------------------------------


 stress matrix after NEB project (eV)
      0.00000      0.00000      0.00000
      0.00000      0.00000      0.00000
      0.00000      0.00000      0.00000
  FORCES: max atom, RMS     0.017466    0.007764
  FORCE total and by dimension    0.058102    0.014820
  Stress total and by dimension    0.000000    0.000000
 Conjugate gradient step on ions:
 trial-energy change:   -0.000291  1 .order   -0.000300   -0.000452   -0.000148
  (g-gl).g = 0.304E-03      g.g   = 0.249E-03  gl.gl    = 0.401E-03
 g(Force)  = 0.249E-03   g(Stress)= 0.000E+00 ortho     = 0.206E-04
 gamma     =   0.75868
 trial     =   1.70917
 opt step  =   2.89158  (harmonic =   2.53971) maximal distance =0.00417686
 next E    =  -233.200508   (d E  =  -0.00034)


--------------------------------------------------------------------------------------------------------


  
 reached required accuracy - stopping structural energy minimisation
     LOOP+:  cpu time   83.3305: real time   84.3468
    4ORBIT:  cpu time    0.0000: real time    0.0000

 total amount of memory used by VASP on root node    93023. kBytes
========================================================================

   base      :      30000. kBytes
   nonlr-proj:       4680. kBytes
   fftplans  :       4744. kBytes
   grid      :       7835. kBytes
   one-center:        155. kBytes
   wavefun   :      45609. kBytes
 
  
  
 General timing and accounting informations for this job:
 ========================================================
  
                  Total CPU time used (sec):     2826.945
                            User time (sec):     2712.540
                          System time (sec):      114.405
                         Elapsed time (sec):     2846.832
  
                   Maximum memory used (kb):      963036.
                   Average memory used (kb):           0.
  
                          Minor page faults:       986979
                          Major page faults:            2
                 Voluntary context switches:        12009
