<?xml version="1.0" encoding="ISO-8859-1"?>
<modeling>
 <generator>
  <i name="program" type="string">vasp </i>
  <i name="version" type="string">5.4.1  </i>
  <i name="subversion" type="string">24Jun15 (build Mar 14 2019 10:18:33) complex                          parallel </i>
  <i name="platform" type="string">INTEL-19.0.2+OPENMPI-3.1.3 </i>
  <i name="date" type="string">2023 01 24 </i>
  <i name="time" type="string">11:29:51 </i>
 </generator>
 <incar>
  <i type="int" name="ISTART">     0</i>
  <i type="string" name="PREC">normal</i>
  <i type="string" name="ALGO"> Fast</i>
  <i type="int" name="NELM">   500</i>
  <i type="int" name="IBRION">     2</i>
  <i type="int" name="NFREE">     2</i>
  <i name="EDIFF">      0.00000100</i>
  <i name="EDIFFG">     -0.02000000</i>
  <i type="int" name="NSW">   500</i>
  <i type="int" name="ISIF">     0</i>
  <i type="int" name="ISYM">     2</i>
  <i name="ENCUT">    400.00000000</i>
  <i name="POTIM">      0.35000000</i>
  <i type="string" name="LREAL"> Auto</i>
  <i type="logical" name="LPLANE"> T  </i>
  <i type="int" name="ISMEAR">     0</i>
  <i name="SIGMA">      0.10000000</i>
  <i type="int" name="NWRITE">     1</i>
  <i type="logical" name="LWAVE"> F  </i>
  <i type="logical" name="LCHARG"> F  </i>
  <i type="logical" name="LVTOT"> F  </i>
  <i type="logical" name="LORBIT"> F  </i>
  <i type="logical" name="LAECHG"> F  </i>
  <v type="int" name="KPOINT_BSE">    -1     0     0     0</v>
  <i type="int" name="NELM">   500</i>
  <i type="string" name="GGA"> PE          ! optPBE-vdW XC-functional</i>
  <i type="int" name="VOSKOWN">     1</i>
  <i type="logical" name="LDIPOL"> T  </i>
  <i type="logical" name="LMONO"> F  </i>
  <i type="int" name="IDIPOL">     3</i>
  <v name="DIPOL">      0.00000000      0.00000000      0.50000000</v>
 </incar>
 <kpoints>
  <generation param="Monkhorst-Pack">
   <v type="int" name="divisions">       2        2        1 </v>
   <v name="usershift">      0.00000000       0.00000000       0.00000000 </v>
   <v name="genvec1">      0.50000000       0.00000000       0.00000000 </v>
   <v name="genvec2">      0.00000000       0.50000000       0.00000000 </v>
   <v name="genvec3">      0.00000000       0.00000000       1.00000000 </v>
   <v name="shift">      0.50000000       0.50000000       0.00000000 </v>
  </generation>
  <varray name="kpointlist" >
   <v>       0.25000000       0.25000000       0.00000000 </v>
   <v>       0.00000000       0.25000000       0.00000000 </v>
   <v>      -0.25000000       0.00000000       0.00000000 </v>
   <v>      -0.25000000       0.25000000       0.00000000 </v>
   <v>       0.50000000      -0.25000000       0.00000000 </v>
   <v>      -0.25000000       0.50000000       0.00000000 </v>
  </varray>
  <varray name="weights" >
   <v>       0.16666667 </v>
   <v>       0.16666667 </v>
   <v>       0.16666667 </v>
   <v>       0.16666667 </v>
   <v>       0.16666667 </v>
   <v>       0.16666667 </v>
  </varray>
 </kpoints>
 <parameters>
  <separator name="general" >
   <i type="string" name="SYSTEM">unknown system</i>
   <i type="logical" name="LCOMPAT"> F  </i>
  </separator>
  <separator name="electronic" >
   <i type="string" name="PREC">normal</i>
   <i name="ENMAX">    400.00000000</i>
   <i name="ENAUG">    605.39200000</i>
   <i name="EDIFF">      0.00000100</i>
   <i type="int" name="IALGO">    68</i>
   <i type="int" name="IWAVPR">    11</i>
   <i type="int" name="NBANDS">   336</i>
   <i name="NELECT">    552.00000000</i>
   <i type="int" name="TURBO">     0</i>
   <i type="int" name="IRESTART">     0</i>
   <i type="int" name="NREBOOT">     0</i>
   <i type="int" name="NMIN">     0</i>
   <i name="EREF">      0.00000000</i>
   <separator name="electronic smearing" >
    <i type="int" name="ISMEAR">     0</i>
    <i name="SIGMA">      0.10000000</i>
    <i name="KSPACING">      0.50000000</i>
    <i type="logical" name="KGAMMA"> T  </i>
   </separator>
   <separator name="electronic projectors" >
    <i type="logical" name="LREAL"> T  </i>
    <v name="ROPT">     -0.00050000     -0.00050000     -0.00050000</v>
    <i type="int" name="LMAXPAW">  -100</i>
    <i type="int" name="LMAXMIX">     2</i>
    <i type="logical" name="NLSPLINE"> F  </i>
   </separator>
   <separator name="electronic startup" >
    <i type="int" name="ISTART">     0</i>
    <i type="int" name="ICHARG">     2</i>
    <i type="int" name="INIWAV">     1</i>
   </separator>
   <separator name="electronic spin" >
    <i type="int" name="ISPIN">     1</i>
    <i type="logical" name="LNONCOLLINEAR"> F  </i>
    <v name="MAGMOM">      1.00000000      1.00000000      1.00000000      1.00000000      1.00000000      1.00000000      1.00000000      1.00000000      1.00000000      1.00000000      1.00000000      1.00000000      1.00000000      1.00000000      1.00000000      1.00000000      1.00000000      1.00000000      1.00000000      1.00000000
      1.00000000      1.00000000      1.00000000      1.00000000      1.00000000      1.00000000      1.00000000      1.00000000      1.00000000      1.00000000      1.00000000      1.00000000      1.00000000      1.00000000      1.00000000      1.00000000      1.00000000      1.00000000      1.00000000      1.00000000
      1.00000000      1.00000000      1.00000000      1.00000000      1.00000000      1.00000000      1.00000000      1.00000000      1.00000000      1.00000000      1.00000000      1.00000000      1.00000000      1.00000000      1.00000000      1.00000000</v>
    <i name="NUPDOWN">     -1.00000000</i>
    <i type="logical" name="LSORBIT"> F  </i>
    <v name="SAXIS">      0.00000000      0.00000000      1.00000000</v>
    <i type="logical" name="LSPIRAL"> F  </i>
    <v name="QSPIRAL">      0.00000000      0.00000000      0.00000000</v>
    <i type="logical" name="LZEROZ"> F  </i>
   </separator>
   <separator name="electronic exchange-correlation" >
    <i type="logical" name="LASPH"> F  </i>
    <i type="logical" name="LMETAGGA"> F  </i>
   </separator>
   <separator name="electronic convergence" >
    <i type="int" name="NELM">   500</i>
    <i type="int" name="NELMDL">    -5</i>
    <i type="int" name="NELMIN">     2</i>
    <i name="ENINI">    400.00000000</i>
    <separator name="electronic convergence detail" >
     <i type="logical" name="LDIAG"> T  </i>
     <i type="logical" name="LSUBROT"> F  </i>
     <i name="WEIMIN">      0.00100000</i>
     <i name="EBREAK">      0.00000000</i>
     <i name="DEPER">      0.30000000</i>
     <i type="int" name="NRMM">     4</i>
     <i name="TIME">      0.40000000</i>
    </separator>
   </separator>
   <separator name="electronic mixer" >
    <i name="AMIX">      0.40000000</i>
    <i name="BMIX">      1.00000000</i>
    <i name="AMIN">      0.10000000</i>
    <i name="AMIX_MAG">      1.60000000</i>
    <i name="BMIX_MAG">      1.00000000</i>
    <separator name="electronic mixer details" >
     <i type="int" name="IMIX">     4</i>
     <i type="logical" name="MIXFIRST"> F  </i>
     <i type="int" name="MAXMIX">   -45</i>
     <i name="WC">    100.00000000</i>
     <i type="int" name="INIMIX">     1</i>
     <i type="int" name="MIXPRE">     1</i>
     <i type="int" name="MREMOVE">     5</i>
    </separator>
   </separator>
   <separator name="electronic dipolcorrection" >
    <i type="logical" name="LDIPOL"> T  </i>
    <i type="logical" name="LMONO"> F  </i>
    <i type="int" name="IDIPOL">     3</i>
    <i name="EPSILON">      1.00000000</i>
    <v name="DIPOL">      0.00000000      0.00000000      0.50000000</v>
    <i name="EFIELD">      0.00000000</i>
   </separator>
  </separator>
  <separator name="grids" >
   <i type="int" name="NGX">    54</i>
   <i type="int" name="NGY">    54</i>
   <i type="int" name="NGZ">   128</i>
   <i type="int" name="NGXF">   108</i>
   <i type="int" name="NGYF">   108</i>
   <i type="int" name="NGZF">   256</i>
   <i type="logical" name="ADDGRID"> F  </i>
  </separator>
  <separator name="ionic" >
   <i type="int" name="NSW">   500</i>
   <i type="int" name="IBRION">     2</i>
   <i type="int" name="ISIF">     0</i>
   <i name="PSTRESS">      0.00000000</i>
   <i name="EDIFFG">     -0.02000000</i>
   <i type="int" name="NFREE">     2</i>
   <i name="POTIM">      0.35000000</i>
   <i name="SMASS">     -3.00000000</i>
   <i name="SCALEE">      1.00000000</i>
  </separator>
  <separator name="ionic md" >
   <i name="TEBEG">      0.00010000</i>
   <i name="TEEND">      0.00010000</i>
   <i type="int" name="NBLOCK">     1</i>
   <i type="int" name="KBLOCK">   500</i>
   <i type="int" name="NPACO">   256</i>
   <i name="APACO">     16.00000000</i>
  </separator>
  <separator name="symmetry" >
   <i type="int" name="ISYM">     2</i>
   <i name="SYMPREC">      0.00001000</i>
  </separator>
  <separator name="dos" >
   <i type="logical" name="LORBIT"> F  </i>
   <v name="RWIGS">     -1.00000000     -1.00000000     -1.00000000</v>
   <i type="int" name="NEDOS">   301</i>
   <i name="EMIN">     10.00000000</i>
   <i name="EMAX">    -10.00000000</i>
   <i name="EFERMI">      0.00000000</i>
  </separator>
  <separator name="writing" >
   <i type="int" name="NWRITE">     1</i>
   <i type="logical" name="LWAVE"> F  </i>
   <i type="logical" name="LCHARG"> F  </i>
   <i type="logical" name="LPARD"> F  </i>
   <i type="logical" name="LVTOT"> F  </i>
   <i type="logical" name="LVHAR"> F  </i>
   <i type="logical" name="LELF"> F  </i>
   <i type="logical" name="LOPTICS"> F  </i>
   <v name="STM">      0.00000000      0.00000000      0.00000000      0.00000000      0.00000000      0.00000000      0.00000000</v>
  </separator>
  <separator name="performance" >
   <i type="int" name="NPAR">     6</i>
   <i type="int" name="NSIM">     4</i>
   <i type="int" name="NBLK">    -1</i>
   <i type="logical" name="LPLANE"> T  </i>
   <i type="logical" name="LSCALAPACK"> T  </i>
   <i type="logical" name="LSCAAWARE"> F  </i>
   <i type="logical" name="LSCALU"> F  </i>
   <i type="logical" name="LASYNC"> F  </i>
   <i type="logical" name="LORBITALREAL"> F  </i>
  </separator>
  <separator name="miscellaneous" >
   <i type="int" name="IDIOT">     3</i>
   <i type="logical" name="LMUSIC"> F  </i>
   <v name="POMASS">    196.96600000     16.00000000    106.42000000</v>
   <v name="DARWINR">      0.00000000      0.00000000      0.00000000</v>
   <v name="DARWINV">      1.00000000      1.00000000      1.00000000</v>
   <i type="logical" name="LCORR"> T  </i>
  </separator>
  <i type="logical" name="GGA_COMPAT"> T  </i>
  <i type="logical" name="LBERRY"> F  </i>
  <i type="int" name="ICORELEVEL">     0</i>
  <i type="logical" name="LDAU"> F  </i>
  <i type="int" name="I_CONSTRAINED_M">     0</i>
  <separator name="electronic exchange-correlation" >
   <i type="string" name="GGA">PE</i>
   <i type="int" name="VOSKOWN">     1</i>
   <i type="logical" name="LHFCALC"> F  </i>
   <i type="string" name="PRECFOCK"></i>
   <i type="logical" name="LSYMGRAD"> F  </i>
   <i type="logical" name="LHFONE"> F  </i>
   <i type="logical" name="LRHFCALC"> F  </i>
   <i type="logical" name="LTHOMAS"> F  </i>
   <i type="logical" name="LMODELHF"> F  </i>
   <i name="ENCUT4O">     -1.00000000</i>
   <i type="int" name="EXXOEP">     0</i>
   <i type="int" name="FOURORBIT">     0</i>
   <i name="AEXX">      0.00000000</i>
   <i name="HFALPHA">      0.00000000</i>
   <i name="MCALPHA">      0.00000000</i>
   <i name="ALDAX">      1.00000000</i>
   <i name="AGGAX">      1.00000000</i>
   <i name="ALDAC">      1.00000000</i>
   <i name="AGGAC">      1.00000000</i>
   <i type="int" name="NKREDX">     1</i>
   <i type="int" name="NKREDY">     1</i>
   <i type="int" name="NKREDZ">     1</i>
   <i type="logical" name="SHIFTRED"> F  </i>
   <i type="logical" name="ODDONLY"> F  </i>
   <i type="logical" name="EVENONLY"> F  </i>
   <i type="int" name="LMAXFOCK">     0</i>
   <i type="int" name="NMAXFOCKAE">     0</i>
   <i type="logical" name="LFOCKAEDFT"> F  </i>
   <i name="HFSCREEN">      0.00000000</i>
   <i name="HFSCREENC">      0.00000000</i>
   <i type="int" name="NBANDSGWLOW">     0</i>
  </separator>
  <separator name="vdW DFT" >
   <i type="logical" name="LUSE_VDW"> F  </i>
   <i name="Zab_VDW">     -0.84910000</i>
   <i name="PARAM1">      0.12340000</i>
   <i name="PARAM2">      1.00000000</i>
   <i name="PARAM3">      0.00000000</i>
  </separator>
  <separator name="model GW" >
   <i type="int" name="MODEL_GW">     0</i>
   <i name="MODEL_EPS0">     29.42037089</i>
   <i name="MODEL_ALPHA">      1.00000000</i>
  </separator>
  <separator name="linear response parameters" >
   <i type="logical" name="LEPSILON"> F  </i>
   <i type="logical" name="LRPA"> F  </i>
   <i type="logical" name="LNABLA"> F  </i>
   <i type="logical" name="LVEL"> F  </i>
   <i type="int" name="KINTER">     0</i>
   <i name="CSHIFT">      0.10000000</i>
   <i name="OMEGAMAX">     -1.00000000</i>
   <i name="DEG_THRESHOLD">      0.00200000</i>
  </separator>
  <separator name="orbital magnetization" >
   <i type="logical" name="NUCIND"> F  </i>
   <v name="MAGPOS">      0.00000000      0.00000000      0.00000000</v>
   <i type="logical" name="LNICSALL"> T  </i>
   <i type="logical" name="ORBITALMAG"> F  </i>
   <i type="logical" name="LMAGBLOCH"> F  </i>
   <i type="logical" name="LCHIMAG"> F  </i>
   <i type="logical" name="LGAUGE"> T  </i>
   <i type="int" name="MAGATOM">     0</i>
   <v name="MAGDIPOL">      0.00000000      0.00000000      0.00000000</v>
   <v name="AVECCONST">      0.00000000      0.00000000      0.00000000</v>
  </separator>
  <separator name="response functions" >
   <i type="logical" name="LADDER"> F  </i>
   <i type="logical" name="LFXC"> F  </i>
   <i type="logical" name="LHARTREE"> T  </i>
   <i type="int" name="IBSE">     0</i>
   <v type="int" name="KPOINT">    -1     0     0     0</v>
   <i type="logical" name="LTCTE"> F  </i>
   <i type="logical" name="LTETE"> F  </i>
   <i type="logical" name="LTRIPLET"> F  </i>
   <i type="logical" name="LFXCEPS"> F  </i>
   <i type="logical" name="LFXHEG"> F  </i>
   <i type="int" name="NATURALO">     0</i>
   <i type="logical" name="L2ORDER"> F  </i>
   <i type="logical" name="LUSEW"> F  </i>
   <i name="ENCUTGW">     -2.00000000</i>
   <i name="ENCUTGWSOFT">     -2.00000000</i>
   <i name="ENCUTLF">     -1.00000000</i>
   <i type="int" name="LMAXMP2">    -1</i>
   <i name="SCISSOR">      0.00000000</i>
   <i type="int" name="NOMEGA">     0</i>
   <i type="int" name="NOMEGAR">     0</i>
   <i type="int" name="NBANDSGW">    -1</i>
   <i type="int" name="NBANDSO">    -1</i>
   <i type="int" name="NBANDSV">    -1</i>
   <i type="int" name="NELM">   500</i>
   <i type="int" name="NELMHF">     1</i>
   <i type="int" name="DIM">     3</i>
   <i type="int" name="ANTIRES">     0</i>
   <i name="OMEGAMAX">    -30.00000000</i>
   <i name="OMEGAMIN">    -30.00000000</i>
   <i name="OMEGATL">   -200.00000000</i>
   <i type="int" name="OMEGAGRID">     0</i>
   <i name="CSHIFT">     -0.10000000</i>
   <i type="logical" name="SELFENERGY"> F  </i>
   <i type="logical" name="LSPECTRAL"> F  </i>
   <i type="logical" name="LSPECTRALGW"> F  </i>
   <i type="logical" name="LSINGLES"> F  </i>
   <i type="logical" name="LFERMIGW"> F  </i>
   <i type="logical" name="ODDONLYGW"> F  </i>
   <i type="logical" name="EVENONLYGW"> F  </i>
   <i type="int" name="NKREDLFX">     1</i>
   <i type="int" name="NKREDLFY">     1</i>
   <i type="int" name="NKREDLFZ">     1</i>
   <i type="int" name="MAXMEM">  1800</i>
   <i type="int" name="TELESCOPE">     0</i>
   <i type="int" name="TAUPAR">     1</i>
   <i type="int" name="OMEGAPAR">    -1</i>
   <i name="LAMBDA">      1.00000000</i>
  </separator>
  <separator name="External order field" >
   <i name="OFIELD_KAPPA">      0.00000000</i>
   <v name="OFIELD_K">      0.00000000      0.00000000      0.00000000</v>
   <i name="OFIELD_Q6_NEAR">      0.00000000</i>
   <i name="OFIELD_Q6_FAR">      0.00000000</i>
   <i name="OFIELD_A">      0.00000000</i>
  </separator>
 </parameters>
 <atominfo>
  <atoms>      56 </atoms>
  <types>       3 </types>
  <array name="atoms" >
   <dimension dim="1">ion</dimension>
   <field type="string">element</field>
   <field type="int">atomtype</field>
   <set>
    <rc><c>Au</c><c>   1</c></rc>
    <rc><c>Au</c><c>   1</c></rc>
    <rc><c>Au</c><c>   1</c></rc>
    <rc><c>Au</c><c>   1</c></rc>
    <rc><c>Au</c><c>   1</c></rc>
    <rc><c>Au</c><c>   1</c></rc>
    <rc><c>Au</c><c>   1</c></rc>
    <rc><c>Au</c><c>   1</c></rc>
    <rc><c>Au</c><c>   1</c></rc>
    <rc><c>Au</c><c>   1</c></rc>
    <rc><c>Au</c><c>   1</c></rc>
    <rc><c>Au</c><c>   1</c></rc>
    <rc><c>Au</c><c>   1</c></rc>
    <rc><c>Au</c><c>   1</c></rc>
    <rc><c>Au</c><c>   1</c></rc>
    <rc><c>Au</c><c>   1</c></rc>
    <rc><c>Au</c><c>   1</c></rc>
    <rc><c>Au</c><c>   1</c></rc>
    <rc><c>Au</c><c>   1</c></rc>
    <rc><c>Au</c><c>   1</c></rc>
    <rc><c>Au</c><c>   1</c></rc>
    <rc><c>Au</c><c>   1</c></rc>
    <rc><c>Au</c><c>   1</c></rc>
    <rc><c>Au</c><c>   1</c></rc>
    <rc><c>O </c><c>   2</c></rc>
    <rc><c>O </c><c>   2</c></rc>
    <rc><c>O </c><c>   2</c></rc>
    <rc><c>O </c><c>   2</c></rc>
    <rc><c>O </c><c>   2</c></rc>
    <rc><c>O </c><c>   2</c></rc>
    <rc><c>O </c><c>   2</c></rc>
    <rc><c>O </c><c>   2</c></rc>
    <rc><c>Pd</c><c>   3</c></rc>
    <rc><c>Pd</c><c>   3</c></rc>
    <rc><c>Pd</c><c>   3</c></rc>
    <rc><c>Pd</c><c>   3</c></rc>
    <rc><c>Pd</c><c>   3</c></rc>
    <rc><c>Pd</c><c>   3</c></rc>
    <rc><c>Pd</c><c>   3</c></rc>
    <rc><c>Pd</c><c>   3</c></rc>
    <rc><c>Pd</c><c>   3</c></rc>
    <rc><c>Pd</c><c>   3</c></rc>
    <rc><c>Pd</c><c>   3</c></rc>
    <rc><c>Pd</c><c>   3</c></rc>
    <rc><c>Pd</c><c>   3</c></rc>
    <rc><c>Pd</c><c>   3</c></rc>
    <rc><c>Pd</c><c>   3</c></rc>
    <rc><c>Pd</c><c>   3</c></rc>
    <rc><c>Pd</c><c>   3</c></rc>
    <rc><c>Pd</c><c>   3</c></rc>
    <rc><c>Pd</c><c>   3</c></rc>
    <rc><c>Pd</c><c>   3</c></rc>
    <rc><c>Pd</c><c>   3</c></rc>
    <rc><c>Pd</c><c>   3</c></rc>
    <rc><c>Pd</c><c>   3</c></rc>
    <rc><c>Pd</c><c>   3</c></rc>
   </set>
  </array>
  <array name="atomtypes" >
   <dimension dim="1">type</dimension>
   <field type="int">atomspertype</field>
   <field type="string">element</field>
   <field>mass</field>
   <field>valence</field>
   <field type="string">pseudopotential</field>
   <set>
    <rc><c>  24</c><c>Au</c><c>    196.96600000</c><c>     11.00000000</c><c>  PAW_PBE Au 04Oct2007                  </c></rc>
    <rc><c>   8</c><c>O </c><c>     16.00000000</c><c>      6.00000000</c><c>  PAW_PBE O 08Apr2002                   </c></rc>
    <rc><c>  24</c><c>Pd</c><c>    106.42000000</c><c>     10.00000000</c><c>  PAW_PBE Pd 04Jan2005                  </c></rc>
   </set>
  </array>
 </atominfo>
 <structure name="initialpos" >
  <crystal>
   <varray name="basis" >
    <v>      11.00258152       0.00000000       0.00000000 </v>
    <v>       5.50129076       9.52851510       0.00000000 </v>
    <v>       0.00000000       0.00000000      26.19178509 </v>
   </varray>
   <i name="volume">   2745.90128299 </i>
   <varray name="rec_basis" >
    <v>       0.09088776      -0.05247407       0.00000000 </v>
    <v>       0.00000000       0.10494815       0.00000000 </v>
    <v>       0.00000000       0.00000000       0.03817991 </v>
   </varray>
  </crystal>
  <varray name="positions" >
   <v>       0.33333333       0.83333333       0.38179910 </v>
   <v>       0.91278089       0.91906345       0.47410862 </v>
   <v>       0.08333333       0.58333333       0.38179910 </v>
   <v>       0.66017132       0.91946375       0.47522502 </v>
   <v>       0.08333333       0.33333333       0.38179910 </v>
   <v>       0.91418321       0.41826910       0.48092401 </v>
   <v>       0.83333333       0.83333333       0.38179910 </v>
   <v>       0.99282137       0.24382654       0.57245613 </v>
   <v>       0.83333333       0.58333333       0.38179910 </v>
   <v>       0.33333333       0.08333333       0.38179910 </v>
   <v>       0.23988942       0.99894151       0.56559231 </v>
   <v>       0.33333333       0.58333333       0.38179910 </v>
   <v>       0.16355251       0.41873529       0.47641091 </v>
   <v>       0.66042144       0.66953423       0.47509860 </v>
   <v>       0.16457106       0.91914006       0.47364230 </v>
   <v>       0.41091532       0.16937507       0.48039890 </v>
   <v>       0.58333333       0.58333333       0.38179910 </v>
   <v>       0.66135528       0.17008395       0.47270116 </v>
   <v>       0.76418973       0.98869025       0.57577470 </v>
   <v>       0.74930523       0.49719692       0.57097073 </v>
   <v>       0.83333333       0.33333333       0.38179910 </v>
   <v>       0.65864773       0.41929334       0.47724138 </v>
   <v>       0.74929109       0.24790333       0.57025066 </v>
   <v>       0.25863647       0.50180190       0.56152443 </v>
   <v>       0.59003159       0.81745737       0.61032378 </v>
   <v>       0.07140749       0.34626142       0.61918317 </v>
   <v>       0.57952068       0.09281822       0.61667593 </v>
   <v>       0.57071418       0.34096279       0.62015744 </v>
   <v>       0.26837085       0.71360170       0.64040902 </v>
   <v>       0.07181231       0.60782997       0.61338241 </v>
   <v>       0.57216405       0.58871253       0.62005135 </v>
   <v>       0.32019641       0.08940272       0.61794769 </v>
   <v>       0.99924368       0.75548051       0.56176928 </v>
   <v>       0.33333333       0.33333333       0.38179910 </v>
   <v>       0.24660946       0.26158355       0.57662304 </v>
   <v>       0.08333333       0.83333333       0.38179910 </v>
   <v>       0.16440839       0.66987542       0.47248464 </v>
   <v>       0.98995760       0.51300904       0.57305416 </v>
   <v>       0.91362391       0.66755500       0.47618243 </v>
   <v>       0.24170768       0.75651656       0.56887644 </v>
   <v>       0.75250969       0.74876664       0.56460845 </v>
   <v>       0.58333333       0.08333333       0.38179910 </v>
   <v>       0.49471371       0.00016630       0.57384743 </v>
   <v>       0.41381339       0.41883733       0.47442616 </v>
   <v>       0.58333333       0.33333333       0.38179910 </v>
   <v>       0.83333333       0.08333333       0.38179910 </v>
   <v>       0.58333333       0.83333333       0.38179910 </v>
   <v>       0.91204136       0.17063614       0.47553209 </v>
   <v>       0.99666508       0.99986028       0.56248173 </v>
   <v>       0.48927920       0.74508099       0.56701426 </v>
   <v>       0.41415206       0.91605158       0.47671306 </v>
   <v>       0.16312858       0.16884299       0.47454735 </v>
   <v>       0.41184300       0.66686777       0.47995024 </v>
   <v>       0.42843741       0.53474907       0.62968745 </v>
   <v>       0.49191366       0.25949565       0.56997636 </v>
   <v>       0.08333333       0.08333333       0.38179910 </v>
  </varray>
  <varray name="selective"  type="logical" >
   <v type="logical" >  F  F  F </v>
   <v type="logical" >  T  T  T </v>
   <v type="logical" >  F  F  F </v>
   <v type="logical" >  T  T  T </v>
   <v type="logical" >  F  F  F </v>
   <v type="logical" >  T  T  T </v>
   <v type="logical" >  F  F  F </v>
   <v type="logical" >  T  T  T </v>
   <v type="logical" >  F  F  F </v>
   <v type="logical" >  F  F  F </v>
   <v type="logical" >  T  T  T </v>
   <v type="logical" >  F  F  F </v>
   <v type="logical" >  T  T  T </v>
   <v type="logical" >  T  T  T </v>
   <v type="logical" >  T  T  T </v>
   <v type="logical" >  T  T  T </v>
   <v type="logical" >  F  F  F </v>
   <v type="logical" >  T  T  T </v>
   <v type="logical" >  T  T  T </v>
   <v type="logical" >  T  T  T </v>
   <v type="logical" >  F  F  F </v>
   <v type="logical" >  T  T  T </v>
   <v type="logical" >  T  T  T </v>
   <v type="logical" >  T  T  T </v>
   <v type="logical" >  T  T  T </v>
   <v type="logical" >  T  T  T </v>
   <v type="logical" >  T  T  T </v>
   <v type="logical" >  T  T  T </v>
   <v type="logical" >  T  T  T </v>
   <v type="logical" >  T  T  T </v>
   <v type="logical" >  T  T  T </v>
   <v type="logical" >  T  T  T </v>
   <v type="logical" >  T  T  T </v>
   <v type="logical" >  F  F  F </v>
   <v type="logical" >  T  T  T </v>
   <v type="logical" >  F  F  F </v>
   <v type="logical" >  T  T  T </v>
   <v type="logical" >  T  T  T </v>
   <v type="logical" >  T  T  T </v>
   <v type="logical" >  T  T  T </v>
   <v type="logical" >  T  T  T </v>
   <v type="logical" >  F  F  F </v>
   <v type="logical" >  T  T  T </v>
   <v type="logical" >  T  T  T </v>
   <v type="logical" >  F  F  F </v>
   <v type="logical" >  F  F  F </v>
   <v type="logical" >  F  F  F </v>
   <v type="logical" >  T  T  T </v>
   <v type="logical" >  T  T  T </v>
   <v type="logical" >  T  T  T </v>
   <v type="logical" >  T  T  T </v>
   <v type="logical" >  T  T  T </v>
   <v type="logical" >  T  T  T </v>
   <v type="logical" >  T  T  T </v>
   <v type="logical" >  T  T  T </v>
   <v type="logical" >  F  F  F </v>
  </varray>
  <nose>
   <v>      -3.00000000       0.00000000       0.00010000       0.00010000 </v>
  </nose>
 </structure>
 <calculation>
  <scstep>
   <time name="dav">   11.40   11.42</time>
   <time name="total">   11.47   11.52</time>
   <dipole>
    <v name="dipole">      0.00000000       0.00000000       0.00007518 </v>
    <i name="Tr[quadrupol]"> -11233.09055815 </i>
    <i name="Echarged">      0.00000000 </i>
    <i name="Edipol_quadrupol">      0.00000000 </i>
    <i name="Eion">      0.00000000 </i>
   </dipole>
   <energy>
    <i name="alphaZ">    862.57728895 </i>
    <i name="ewald"> 239957.48526327 </i>
    <i name="hartreedc">-285558.62847481 </i>
    <i name="XCdc">   -114.07504877 </i>
    <i name="pawpsdc">  43112.45544455 </i>
    <i name="pawaedc"> -41079.41300390 </i>
    <i name="eentropy">     -0.15363425 </i>
    <i name="bandstr">   1338.85024135 </i>
    <i name="atom">  45117.89144060 </i>
    <i name="e_fr_energy">   3636.98951699 </i>
    <i name="e_wo_entrp">   3637.14315124 </i>
    <i name="e_0_energy">   3637.06633411 </i>
   </energy>
  </scstep>
  <scstep>
   <time name="dav">   13.62   13.63</time>
   <time name="total">   13.62   13.63</time>
   <dipole>
    <v name="dipole">      0.00000000       0.00000000       0.00007518 </v>
    <i name="Tr[quadrupol]"> -11233.09055815 </i>
    <i name="Echarged">      0.00000000 </i>
    <i name="Edipol_quadrupol">      0.00000000 </i>
    <i name="Eion">      0.00000000 </i>
   </dipole>
   <energy>
    <i name="e_fr_energy">     50.97882727 </i>
    <i name="e_wo_entrp">     51.12559720 </i>
    <i name="e_0_energy">     51.05221224 </i>
   </energy>
  </scstep>
  <scstep>
   <time name="dav">   13.10   13.18</time>
   <time name="total">   13.11   13.18</time>
   <dipole>
    <v name="dipole">      0.00000000       0.00000000       0.00007518 </v>
    <i name="Tr[quadrupol]"> -11233.09055815 </i>
    <i name="Echarged">      0.00000000 </i>
    <i name="Edipol_quadrupol">      0.00000000 </i>
    <i name="Eion">      0.00000000 </i>
   </dipole>
   <energy>
    <i name="e_fr_energy">   -254.60607378 </i>
    <i name="e_wo_entrp">   -254.36152070 </i>
    <i name="e_0_energy">   -254.48379724 </i>
   </energy>
  </scstep>
  <scstep>
   <time name="dav">   13.33   13.37</time>
   <time name="total">   13.33   13.38</time>
   <dipole>
    <v name="dipole">      0.00000000       0.00000000       0.00007518 </v>
    <i name="Tr[quadrupol]"> -11233.09055815 </i>
    <i name="Echarged">      0.00000000 </i>
    <i name="Edipol_quadrupol">      0.00000000 </i>
    <i name="Eion">      0.00000000 </i>
   </dipole>
   <energy>
    <i name="e_fr_energy">   -265.08037585 </i>
    <i name="e_wo_entrp">   -264.82115743 </i>
    <i name="e_0_energy">   -264.95076664 </i>
   </energy>
  </scstep>
  <scstep>
   <time name="dav">   13.31   13.32</time>
   <time name="total">   13.67   13.68</time>
   <dipole>
    <v name="dipole">      0.00000000       0.00000000       0.00007518 </v>
    <i name="Tr[quadrupol]"> -11233.09055815 </i>
    <i name="Echarged">      0.00000000 </i>
    <i name="Edipol_quadrupol">      0.00000000 </i>
    <i name="Eion">      0.00000000 </i>
   </dipole>
   <energy>
    <i name="e_fr_energy">   -265.37137225 </i>
    <i name="e_wo_entrp">   -265.11130250 </i>
    <i name="e_0_energy">   -265.24133738 </i>
   </energy>
  </scstep>
  <scstep>
   <time name="diag">    2.05    2.05</time>
   <time name="diis">    5.29    5.36</time>
   <time name="orth">    0.53    0.53</time>
   <time name="total">    8.28    8.36</time>
   <dipole>
    <v name="dipole">      0.00000000       0.00000000       1.45890654 </v>
    <i name="Tr[quadrupol]"> -11229.91659733 </i>
    <i name="Echarged">      0.00000000 </i>
    <i name="Edipol_quadrupol">      0.00000000 </i>
    <i name="Eion">      0.00000000 </i>
   </dipole>
   <energy>
    <i name="e_fr_energy">   -256.17797210 </i>
    <i name="e_wo_entrp">   -255.98154358 </i>
    <i name="e_0_energy">   -256.07975784 </i>
   </energy>
  </scstep>
  <scstep>
   <time name="diag">    2.05    2.05</time>
   <time name="diis">    5.30    5.30</time>
   <time name="orth">    0.54    0.54</time>
   <time name="total">    8.31    8.32</time>
   <dipole>
    <v name="dipole">      0.00000000       0.00000000      -2.41445027 </v>
    <i name="Tr[quadrupol]"> -11232.24031058 </i>
    <i name="Echarged">      0.00000000 </i>
    <i name="Edipol_quadrupol">      0.00000000 </i>
    <i name="Eion">      0.00000000 </i>
   </dipole>
   <energy>
    <i name="e_fr_energy">   -312.77038533 </i>
    <i name="e_wo_entrp">   -312.51260913 </i>
    <i name="e_0_energy">   -312.64149723 </i>
   </energy>
  </scstep>
  <scstep>
   <time name="diag">    2.08    2.08</time>
   <time name="diis">    5.40    5.40</time>
   <time name="orth">    0.54    0.54</time>
   <time name="total">    8.43    8.44</time>
   <dipole>
    <v name="dipole">      0.00000000       0.00000000      -0.49226783 </v>
    <i name="Tr[quadrupol]"> -11234.73305024 </i>
    <i name="Echarged">      0.00000000 </i>
    <i name="Edipol_quadrupol">      0.00000000 </i>
    <i name="Eion">      0.00000000 </i>
   </dipole>
   <energy>
    <i name="e_fr_energy">   -249.95911734 </i>
    <i name="e_wo_entrp">   -249.69955634 </i>
    <i name="e_0_energy">   -249.82933684 </i>
   </energy>
  </scstep>
  <scstep>
   <time name="diag">    2.07    2.07</time>
   <time name="diis">    5.39    5.39</time>
   <time name="orth">    0.54    0.54</time>
   <time name="total">    8.55    8.56</time>
   <dipole>
    <v name="dipole">      0.00000000       0.00000000      -0.08433681 </v>
    <i name="Tr[quadrupol]"> -11229.32545437 </i>
    <i name="Echarged">      0.00000000 </i>
    <i name="Edipol_quadrupol">      0.00000000 </i>
    <i name="Eion">      0.00000000 </i>
   </dipole>
   <energy>
    <i name="e_fr_energy">   -256.75096415 </i>
    <i name="e_wo_entrp">   -256.50032641 </i>
    <i name="e_0_energy">   -256.62564528 </i>
   </energy>
  </scstep>
  <scstep>
   <time name="diag">    2.36    2.38</time>
   <time name="diis">    5.45    5.45</time>
   <time name="orth">    0.54    0.54</time>
   <time name="total">    8.77    8.80</time>
   <dipole>
    <v name="dipole">      0.00000000       0.00000000       0.64172259 </v>
    <i name="Tr[quadrupol]"> -11230.86279331 </i>
    <i name="Echarged">      0.00000000 </i>
    <i name="Edipol_quadrupol">      0.00000000 </i>
    <i name="Eion">      0.00000000 </i>
   </dipole>
   <energy>
    <i name="e_fr_energy">   -247.57883136 </i>
    <i name="e_wo_entrp">   -247.41466731 </i>
    <i name="e_0_energy">   -247.49674934 </i>
   </energy>
  </scstep>
  <scstep>
   <time name="diag">    2.05    2.05</time>
   <time name="diis">    5.31    5.39</time>
   <time name="orth">    0.54    0.54</time>
   <time name="total">    8.31    8.39</time>
   <dipole>
    <v name="dipole">      0.00000000       0.00000000       0.54058842 </v>
    <i name="Tr[quadrupol]"> -11231.76341262 </i>
    <i name="Echarged">      0.00000000 </i>
    <i name="Edipol_quadrupol">      0.00000000 </i>
    <i name="Eion">      0.00000000 </i>
   </dipole>
   <energy>
    <i name="e_fr_energy">   -238.11939912 </i>
    <i name="e_wo_entrp">   -237.98794662 </i>
    <i name="e_0_energy">   -238.05367287 </i>
   </energy>
  </scstep>
  <scstep>
   <time name="diag">    2.07    2.07</time>
   <time name="diis">    5.35    5.36</time>
   <time name="orth">    0.54    0.54</time>
   <time name="total">    8.37    8.38</time>
   <dipole>
    <v name="dipole">      0.00000000       0.00000000       0.48133758 </v>
    <i name="Tr[quadrupol]"> -11233.32963893 </i>
    <i name="Echarged">      0.00000000 </i>
    <i name="Edipol_quadrupol">      0.00000000 </i>
    <i name="Eion">      0.00000000 </i>
   </dipole>
   <energy>
    <i name="e_fr_energy">   -234.60285484 </i>
    <i name="e_wo_entrp">   -234.44113073 </i>
    <i name="e_0_energy">   -234.52199278 </i>
   </energy>
  </scstep>
  <scstep>
   <time name="diag">    2.08    2.08</time>
   <time name="diis">    5.43    5.43</time>
   <time name="orth">    0.55    0.55</time>
   <time name="total">    8.46    8.47</time>
   <dipole>
    <v name="dipole">      0.00000000       0.00000000       0.45530312 </v>
    <i name="Tr[quadrupol]"> -11233.46637727 </i>
    <i name="Echarged">      0.00000000 </i>
    <i name="Edipol_quadrupol">      0.00000000 </i>
    <i name="Eion">      0.00000000 </i>
   </dipole>
   <energy>
    <i name="e_fr_energy">   -233.36011064 </i>
    <i name="e_wo_entrp">   -233.20679187 </i>
    <i name="e_0_energy">   -233.28345125 </i>
   </energy>
  </scstep>
  <scstep>
   <time name="diag">    2.08    2.08</time>
   <time name="diis">    5.34    5.34</time>
   <time name="orth">    0.54    0.54</time>
   <time name="total">    8.38    8.39</time>
   <dipole>
    <v name="dipole">      0.00000000       0.00000000       0.50645472 </v>
    <i name="Tr[quadrupol]"> -11233.37023252 </i>
    <i name="Echarged">      0.00000000 </i>
    <i name="Edipol_quadrupol">      0.00000000 </i>
    <i name="Eion">      0.00000000 </i>
   </dipole>
   <energy>
    <i name="e_fr_energy">   -233.39742525 </i>
    <i name="e_wo_entrp">   -233.25472235 </i>
    <i name="e_0_energy">   -233.32607380 </i>
   </energy>
  </scstep>
  <scstep>
   <time name="diag">    2.05    2.05</time>
   <time name="diis">    5.37    5.38</time>
   <time name="orth">    0.53    0.53</time>
   <time name="total">    8.36    8.37</time>
   <dipole>
    <v name="dipole">      0.00000000       0.00000000       0.51008268 </v>
    <i name="Tr[quadrupol]"> -11233.43650808 </i>
    <i name="Echarged">      0.00000000 </i>
    <i name="Edipol_quadrupol">      0.00000000 </i>
    <i name="Eion">      0.00000000 </i>
   </dipole>
   <energy>
    <i name="e_fr_energy">   -233.40918049 </i>
    <i name="e_wo_entrp">   -233.26396294 </i>
    <i name="e_0_energy">   -233.33657171 </i>
   </energy>
  </scstep>
  <scstep>
   <time name="diag">    2.02    2.09</time>
   <time name="diis">    5.39    5.39</time>
   <time name="orth">    0.53    0.54</time>
   <time name="total">    8.35    8.43</time>
   <dipole>
    <v name="dipole">      0.00000000       0.00000000       0.52642510 </v>
    <i name="Tr[quadrupol]"> -11233.71486564 </i>
    <i name="Echarged">      0.00000000 </i>
    <i name="Edipol_quadrupol">      0.00000000 </i>
    <i name="Eion">      0.00000000 </i>
   </dipole>
   <energy>
    <i name="e_fr_energy">   -233.35547471 </i>
    <i name="e_wo_entrp">   -233.20969076 </i>
    <i name="e_0_energy">   -233.28258273 </i>
   </energy>
  </scstep>
  <scstep>
   <time name="diag">    2.37    2.39</time>
   <time name="diis">    5.45    5.46</time>
   <time name="orth">    0.53    0.53</time>
   <time name="total">    8.76    8.80</time>
   <dipole>
    <v name="dipole">      0.00000000       0.00000000       0.49410545 </v>
    <i name="Tr[quadrupol]"> -11234.01758941 </i>
    <i name="Echarged">      0.00000000 </i>
    <i name="Edipol_quadrupol">      0.00000000 </i>
    <i name="Eion">      0.00000000 </i>
   </dipole>
   <energy>
    <i name="e_fr_energy">   -233.21568780 </i>
    <i name="e_wo_entrp">   -233.03768617 </i>
    <i name="e_0_energy">   -233.12668698 </i>
   </energy>
  </scstep>
  <scstep>
   <time name="diag">    2.04    2.04</time>
   <time name="diis">    5.43    5.43</time>
   <time name="orth">    0.53    0.53</time>
   <time name="total">    8.42    8.43</time>
   <dipole>
    <v name="dipole">      0.00000000       0.00000000       0.48173217 </v>
    <i name="Tr[quadrupol]"> -11234.06909250 </i>
    <i name="Echarged">      0.00000000 </i>
    <i name="Edipol_quadrupol">      0.00000000 </i>
    <i name="Eion">      0.00000000 </i>
   </dipole>
   <energy>
    <i name="e_fr_energy">   -233.19362224 </i>
    <i name="e_wo_entrp">   -233.01356524 </i>
    <i name="e_0_energy">   -233.10359374 </i>
   </energy>
  </scstep>
  <scstep>
   <time name="diag">    2.04    2.05</time>
   <time name="diis">    5.40    5.40</time>
   <time name="orth">    0.53    0.53</time>
   <time name="total">    8.38    8.39</time>
   <dipole>
    <v name="dipole">      0.00000000       0.00000000       0.48282977 </v>
    <i name="Tr[quadrupol]"> -11234.08586024 </i>
    <i name="Echarged">      0.00000000 </i>
    <i name="Edipol_quadrupol">      0.00000000 </i>
    <i name="Eion">      0.00000000 </i>
   </dipole>
   <energy>
    <i name="e_fr_energy">   -233.18965223 </i>
    <i name="e_wo_entrp">   -233.00974439 </i>
    <i name="e_0_energy">   -233.09969831 </i>
   </energy>
  </scstep>
  <scstep>
   <time name="diag">    2.06    2.06</time>
   <time name="diis">    5.29    5.33</time>
   <time name="orth">    0.51    0.54</time>
   <time name="total">    8.27    8.35</time>
   <dipole>
    <v name="dipole">      0.00000000       0.00000000       0.48376291 </v>
    <i name="Tr[quadrupol]"> -11234.11097747 </i>
    <i name="Echarged">      0.00000000 </i>
    <i name="Edipol_quadrupol">      0.00000000 </i>
    <i name="Eion">      0.00000000 </i>
   </dipole>
   <energy>
    <i name="e_fr_energy">   -233.18725417 </i>
    <i name="e_wo_entrp">   -233.00831547 </i>
    <i name="e_0_energy">   -233.09778482 </i>
   </energy>
  </scstep>
  <scstep>
   <time name="diag">    2.06    2.06</time>
   <time name="diis">    5.42    5.43</time>
   <time name="orth">    0.51    0.51</time>
   <time name="total">    8.40    8.41</time>
   <dipole>
    <v name="dipole">      0.00000000       0.00000000       0.48723155 </v>
    <i name="Tr[quadrupol]"> -11234.26800714 </i>
    <i name="Echarged">      0.00000000 </i>
    <i name="Edipol_quadrupol">      0.00000000 </i>
    <i name="Eion">      0.00000000 </i>
   </dipole>
   <energy>
    <i name="e_fr_energy">   -233.18376389 </i>
    <i name="e_wo_entrp">   -233.00569993 </i>
    <i name="e_0_energy">   -233.09473191 </i>
   </energy>
  </scstep>
  <scstep>
   <time name="diag">    2.02    2.02</time>
   <time name="diis">    5.38    5.38</time>
   <time name="orth">    0.51    0.51</time>
   <time name="total">    8.32    8.33</time>
   <dipole>
    <v name="dipole">      0.00000000       0.00000000       0.48829675 </v>
    <i name="Tr[quadrupol]"> -11234.33911035 </i>
    <i name="Echarged">      0.00000000 </i>
    <i name="Edipol_quadrupol">      0.00000000 </i>
    <i name="Eion">      0.00000000 </i>
   </dipole>
   <energy>
    <i name="e_fr_energy">   -233.18344498 </i>
    <i name="e_wo_entrp">   -233.00436128 </i>
    <i name="e_0_energy">   -233.09390313 </i>
   </energy>
  </scstep>
  <scstep>
   <time name="diag">    2.02    2.02</time>
   <time name="diis">    5.39    5.39</time>
   <time name="orth">    0.50    0.50</time>
   <time name="total">    8.33    8.33</time>
   <dipole>
    <v name="dipole">      0.00000000       0.00000000       0.49072919 </v>
    <i name="Tr[quadrupol]"> -11234.39046006 </i>
    <i name="Echarged">      0.00000000 </i>
    <i name="Edipol_quadrupol">      0.00000000 </i>
    <i name="Eion">      0.00000000 </i>
   </dipole>
   <energy>
    <i name="e_fr_energy">   -233.18320871 </i>
    <i name="e_wo_entrp">   -233.00501474 </i>
    <i name="e_0_energy">   -233.09411172 </i>
   </energy>
  </scstep>
  <scstep>
   <time name="diag">    2.18    2.19</time>
   <time name="diis">    5.46    5.48</time>
   <time name="orth">    0.50    0.50</time>
   <time name="total">    8.57    8.60</time>
   <dipole>
    <v name="dipole">      0.00000000       0.00000000       0.49301047 </v>
    <i name="Tr[quadrupol]"> -11234.43197539 </i>
    <i name="Echarged">      0.00000000 </i>
    <i name="Edipol_quadrupol">      0.00000000 </i>
    <i name="Eion">      0.00000000 </i>
   </dipole>
   <energy>
    <i name="e_fr_energy">   -233.18333767 </i>
    <i name="e_wo_entrp">   -233.00524897 </i>
    <i name="e_0_energy">   -233.09429332 </i>
   </energy>
  </scstep>
  <scstep>
   <time name="diag">    2.03    2.03</time>
   <time name="diis">    5.41    5.42</time>
   <time name="orth">    0.50    0.51</time>
   <time name="total">    8.35    8.40</time>
   <dipole>
    <v name="dipole">      0.00000000       0.00000000       0.49588170 </v>
    <i name="Tr[quadrupol]"> -11234.51234462 </i>
    <i name="Echarged">      0.00000000 </i>
    <i name="Edipol_quadrupol">      0.00000000 </i>
    <i name="Eion">      0.00000000 </i>
   </dipole>
   <energy>
    <i name="e_fr_energy">   -233.18373444 </i>
    <i name="e_wo_entrp">   -233.00527100 </i>
    <i name="e_0_energy">   -233.09450272 </i>
   </energy>
  </scstep>
  <scstep>
   <time name="diag">    2.00    2.02</time>
   <time name="diis">    5.42    5.42</time>
   <time name="orth">    0.50    0.50</time>
   <time name="total">    8.34    8.37</time>
   <dipole>
    <v name="dipole">      0.00000000       0.00000000       0.49964275 </v>
    <i name="Tr[quadrupol]"> -11234.58146344 </i>
    <i name="Echarged">      0.00000000 </i>
    <i name="Edipol_quadrupol">      0.00000000 </i>
    <i name="Eion">      0.00000000 </i>
   </dipole>
   <energy>
    <i name="e_fr_energy">   -233.18407898 </i>
    <i name="e_wo_entrp">   -233.00605713 </i>
    <i name="e_0_energy">   -233.09506805 </i>
   </energy>
  </scstep>
  <scstep>
   <time name="diag">    2.01    2.01</time>
   <time name="diis">    5.28    5.28</time>
   <time name="orth">    0.50    0.50</time>
   <time name="total">    8.20    8.21</time>
   <dipole>
    <v name="dipole">      0.00000000       0.00000000       0.50136352 </v>
    <i name="Tr[quadrupol]"> -11234.62449977 </i>
    <i name="Echarged">      0.00000000 </i>
    <i name="Edipol_quadrupol">      0.00000000 </i>
    <i name="Eion">      0.00000000 </i>
   </dipole>
   <energy>
    <i name="e_fr_energy">   -233.18430045 </i>
    <i name="e_wo_entrp">   -233.00611009 </i>
    <i name="e_0_energy">   -233.09520527 </i>
   </energy>
  </scstep>
  <scstep>
   <time name="diag">    2.02    2.02</time>
   <time name="diis">    4.74    4.75</time>
   <time name="orth">    0.50    0.50</time>
   <time name="total">    7.67    7.69</time>
   <dipole>
    <v name="dipole">      0.00000000       0.00000000       0.50268063 </v>
    <i name="Tr[quadrupol]"> -11234.65032044 </i>
    <i name="Echarged">      0.00000000 </i>
    <i name="Edipol_quadrupol">      0.00000000 </i>
    <i name="Eion">      0.00000000 </i>
   </dipole>
   <energy>
    <i name="e_fr_energy">   -233.18444678 </i>
    <i name="e_wo_entrp">   -233.00629854 </i>
    <i name="e_0_energy">   -233.09537266 </i>
   </energy>
  </scstep>
  <scstep>
   <time name="diag">    2.03    2.03</time>
   <time name="diis">    4.87    4.87</time>
   <time name="orth">    0.50    0.50</time>
   <time name="total">    7.81    7.82</time>
   <dipole>
    <v name="dipole">      0.00000000       0.00000000       0.50529161 </v>
    <i name="Tr[quadrupol]"> -11234.69925651 </i>
    <i name="Echarged">      0.00000000 </i>
    <i name="Edipol_quadrupol">      0.00000000 </i>
    <i name="Eion">      0.00000000 </i>
   </dipole>
   <energy>
    <i name="e_fr_energy">   -233.18472302 </i>
    <i name="e_wo_entrp">   -233.00654791 </i>
    <i name="e_0_energy">   -233.09563547 </i>
   </energy>
  </scstep>
  <scstep>
   <time name="diag">    2.00    2.00</time>
   <time name="diis">    4.71    4.71</time>
   <time name="orth">    0.50    0.50</time>
   <time name="total">    7.63    7.66</time>
   <dipole>
    <v name="dipole">      0.00000000       0.00000000       0.50776543 </v>
    <i name="Tr[quadrupol]"> -11234.74553198 </i>
    <i name="Echarged">      0.00000000 </i>
    <i name="Edipol_quadrupol">      0.00000000 </i>
    <i name="Eion">      0.00000000 </i>
   </dipole>
   <energy>
    <i name="e_fr_energy">   -233.18495003 </i>
    <i name="e_wo_entrp">   -233.00679929 </i>
    <i name="e_0_energy">   -233.09587466 </i>
   </energy>
  </scstep>
  <scstep>
   <time name="diag">    1.98    2.02</time>
   <time name="diis">    4.66    4.69</time>
   <time name="orth">    0.61    0.61</time>
   <time name="total">    7.74    7.81</time>
   <dipole>
    <v name="dipole">      0.00000000       0.00000000       0.51022484 </v>
    <i name="Tr[quadrupol]"> -11234.78831272 </i>
    <i name="Echarged">      0.00000000 </i>
    <i name="Edipol_quadrupol">      0.00000000 </i>
    <i name="Eion">      0.00000000 </i>
   </dipole>
   <energy>
    <i name="e_fr_energy">   -233.18512825 </i>
    <i name="e_wo_entrp">   -233.00693326 </i>
    <i name="e_0_energy">   -233.09603075 </i>
   </energy>
  </scstep>
  <scstep>
   <time name="diag">    2.02    2.02</time>
   <time name="diis">    4.05    4.05</time>
   <time name="orth">    0.50    0.50</time>
   <time name="total">    6.99    6.99</time>
   <dipole>
    <v name="dipole">      0.00000000       0.00000000       0.51240790 </v>
    <i name="Tr[quadrupol]"> -11234.82395907 </i>
    <i name="Echarged">      0.00000000 </i>
    <i name="Edipol_quadrupol">      0.00000000 </i>
    <i name="Eion">      0.00000000 </i>
   </dipole>
   <energy>
    <i name="e_fr_energy">   -233.18524049 </i>
    <i name="e_wo_entrp">   -233.00702000 </i>
    <i name="e_0_energy">   -233.09613024 </i>
   </energy>
  </scstep>
  <scstep>
   <time name="diag">    2.03    2.03</time>
   <time name="diis">    3.87    3.87</time>
   <time name="orth">    0.50    0.50</time>
   <time name="total">    6.81    6.82</time>
   <dipole>
    <v name="dipole">      0.00000000       0.00000000       0.51469829 </v>
    <i name="Tr[quadrupol]"> -11234.85500308 </i>
    <i name="Echarged">      0.00000000 </i>
    <i name="Edipol_quadrupol">      0.00000000 </i>
    <i name="Eion">      0.00000000 </i>
   </dipole>
   <energy>
    <i name="e_fr_energy">   -233.18531415 </i>
    <i name="e_wo_entrp">   -233.00709900 </i>
    <i name="e_0_energy">   -233.09620657 </i>
   </energy>
  </scstep>
  <scstep>
   <time name="diag">    2.00    2.00</time>
   <time name="diis">    3.48    3.49</time>
   <time name="orth">    0.50    0.50</time>
   <time name="total">    6.40    6.41</time>
   <dipole>
    <v name="dipole">      0.00000000       0.00000000       0.51607971 </v>
    <i name="Tr[quadrupol]"> -11234.87135468 </i>
    <i name="Echarged">      0.00000000 </i>
    <i name="Edipol_quadrupol">      0.00000000 </i>
    <i name="Eion">      0.00000000 </i>
   </dipole>
   <energy>
    <i name="e_fr_energy">   -233.18534323 </i>
    <i name="e_wo_entrp">   -233.00711102 </i>
    <i name="e_0_energy">   -233.09622713 </i>
   </energy>
  </scstep>
  <scstep>
   <time name="diag">    2.00    2.00</time>
   <time name="diis">    3.30    3.31</time>
   <time name="orth">    0.50    0.50</time>
   <time name="total">    6.23    6.23</time>
   <dipole>
    <v name="dipole">      0.00000000       0.00000000       0.51722661 </v>
    <i name="Tr[quadrupol]"> -11234.88243237 </i>
    <i name="Echarged">      0.00000000 </i>
    <i name="Edipol_quadrupol">      0.00000000 </i>
    <i name="Eion">      0.00000000 </i>
   </dipole>
   <energy>
    <i name="e_fr_energy">   -233.18536194 </i>
    <i name="e_wo_entrp">   -233.00713115 </i>
    <i name="e_0_energy">   -233.09624655 </i>
   </energy>
  </scstep>
  <scstep>
   <time name="diag">    2.02    2.02</time>
   <time name="diis">    2.98    2.98</time>
   <time name="orth">    0.49    0.50</time>
   <time name="total">    5.91    5.95</time>
   <dipole>
    <v name="dipole">      0.00000000       0.00000000       0.51790768 </v>
    <i name="Tr[quadrupol]"> -11234.88790555 </i>
    <i name="Echarged">      0.00000000 </i>
    <i name="Edipol_quadrupol">      0.00000000 </i>
    <i name="Eion">      0.00000000 </i>
   </dipole>
   <energy>
    <i name="e_fr_energy">   -233.18537200 </i>
    <i name="e_wo_entrp">   -233.00713609 </i>
    <i name="e_0_energy">   -233.09625405 </i>
   </energy>
  </scstep>
  <scstep>
   <time name="diag">    2.00    2.03</time>
   <time name="diis">    3.18    3.18</time>
   <time name="orth">    0.50    0.50</time>
   <time name="total">    6.09    6.12</time>
   <dipole>
    <v name="dipole">      0.00000000       0.00000000       0.51869489 </v>
    <i name="Tr[quadrupol]"> -11234.89313730 </i>
    <i name="Echarged">      0.00000000 </i>
    <i name="Edipol_quadrupol">      0.00000000 </i>
    <i name="Eion">      0.00000000 </i>
   </dipole>
   <energy>
    <i name="e_fr_energy">   -233.18538287 </i>
    <i name="e_wo_entrp">   -233.00714792 </i>
    <i name="e_0_energy">   -233.09626540 </i>
   </energy>
  </scstep>
  <scstep>
   <time name="diag">    2.00    2.01</time>
   <time name="diis">    3.17    3.17</time>
   <time name="orth">    0.50    0.50</time>
   <time name="total">    6.09    6.09</time>
   <dipole>
    <v name="dipole">      0.00000000       0.00000000       0.51976493 </v>
    <i name="Tr[quadrupol]"> -11234.89979888 </i>
    <i name="Echarged">      0.00000000 </i>
    <i name="Edipol_quadrupol">      0.00000000 </i>
    <i name="Eion">      0.00000000 </i>
   </dipole>
   <energy>
    <i name="e_fr_energy">   -233.18539490 </i>
    <i name="e_wo_entrp">   -233.00715483 </i>
    <i name="e_0_energy">   -233.09627487 </i>
   </energy>
  </scstep>
  <scstep>
   <time name="diag">    2.02    2.02</time>
   <time name="diis">    2.74    2.74</time>
   <time name="orth">    0.49    0.49</time>
   <time name="total">    5.66    5.67</time>
   <dipole>
    <v name="dipole">      0.00000000       0.00000000       0.52043974 </v>
    <i name="Tr[quadrupol]"> -11234.90376467 </i>
    <i name="Echarged">      0.00000000 </i>
    <i name="Edipol_quadrupol">      0.00000000 </i>
    <i name="Eion">      0.00000000 </i>
   </dipole>
   <energy>
    <i name="e_fr_energy">   -233.18540021 </i>
    <i name="e_wo_entrp">   -233.00715581 </i>
    <i name="e_0_energy">   -233.09627801 </i>
   </energy>
  </scstep>
  <scstep>
   <time name="diag">    2.01    2.01</time>
   <time name="diis">    2.82    2.84</time>
   <time name="orth">    0.49    0.49</time>
   <time name="total">    5.75    5.77</time>
   <dipole>
    <v name="dipole">      0.00000000       0.00000000       0.52088353 </v>
    <i name="Tr[quadrupol]"> -11234.90613127 </i>
    <i name="Echarged">      0.00000000 </i>
    <i name="Edipol_quadrupol">      0.00000000 </i>
    <i name="Eion">      0.00000000 </i>
   </dipole>
   <energy>
    <i name="e_fr_energy">   -233.18540305 </i>
    <i name="e_wo_entrp">   -233.00715979 </i>
    <i name="e_0_energy">   -233.09628142 </i>
   </energy>
  </scstep>
  <scstep>
   <time name="diag">    2.23    2.23</time>
   <time name="diis">    2.71    2.71</time>
   <time name="orth">    0.49    0.49</time>
   <time name="total">    5.85    5.86</time>
   <dipole>
    <v name="dipole">      0.00000000       0.00000000       0.52127639 </v>
    <i name="Tr[quadrupol]"> -11234.90826658 </i>
    <i name="Echarged">      0.00000000 </i>
    <i name="Edipol_quadrupol">      0.00000000 </i>
    <i name="Eion">      0.00000000 </i>
   </dipole>
   <energy>
    <i name="e_fr_energy">   -233.18540490 </i>
    <i name="e_wo_entrp">   -233.00715943 </i>
    <i name="e_0_energy">   -233.09628216 </i>
   </energy>
  </scstep>
  <scstep>
   <time name="diag">    2.00    2.00</time>
   <time name="diis">    2.34    2.34</time>
   <time name="orth">    0.49    0.49</time>
   <time name="total">    4.90    4.90</time>
   <dipole>
    <v name="dipole">      0.00000000       0.00000000       0.52146608 </v>
    <i name="Tr[quadrupol]"> -11234.90941698 </i>
    <i name="Echarged">      0.00000000 </i>
    <i name="Edipol_quadrupol">      0.00000000 </i>
    <i name="Eion">      0.00000000 </i>
   </dipole>
   <energy>
    <i name="alphaZ">    868.16942802 </i>
    <i name="ewald"> 239957.48526327 </i>
    <i name="hartreedc">-285185.17810836 </i>
    <i name="XCdc">   -126.00165557 </i>
    <i name="pawpsdc">  52382.39615258 </i>
    <i name="pawaedc"> -50477.98708663 </i>
    <i name="eentropy">     -0.17824762 </i>
    <i name="bandstr">  -2769.78259198 </i>
    <i name="atom">  45117.89144060 </i>
    <i name="e_fr_energy">   -233.18540569 </i>
    <i name="e_wo_entrp">   -233.00715806 </i>
    <i name="e_0_energy">   -233.09628187 </i>
   </energy>
  </scstep>
  <structure>
   <crystal>
    <varray name="basis" >
     <v>      11.00258152       0.00000000       0.00000000 </v>
     <v>       5.50129076       9.52851510       0.00000000 </v>
     <v>       0.00000000       0.00000000      26.19178509 </v>
    </varray>
    <i name="volume">   2745.90128299 </i>
    <varray name="rec_basis" >
     <v>       0.09088776      -0.05247407       0.00000000 </v>
     <v>       0.00000000       0.10494815       0.00000000 </v>
     <v>       0.00000000       0.00000000       0.03817991 </v>
    </varray>
   </crystal>
   <varray name="positions" >
    <v>       0.33333333       0.83333333       0.38179910 </v>
    <v>       0.91278089       0.91906345       0.47410862 </v>
    <v>       0.08333333       0.58333333       0.38179910 </v>
    <v>       0.66017132       0.91946375       0.47522502 </v>
    <v>       0.08333333       0.33333333       0.38179910 </v>
    <v>       0.91418321       0.41826910       0.48092401 </v>
    <v>       0.83333333       0.83333333       0.38179910 </v>
    <v>       0.99282137       0.24382654       0.57245613 </v>
    <v>       0.83333333       0.58333333       0.38179910 </v>
    <v>       0.33333333       0.08333333       0.38179910 </v>
    <v>       0.23988942       0.99894151       0.56559231 </v>
    <v>       0.33333333       0.58333333       0.38179910 </v>
    <v>       0.16355251       0.41873529       0.47641091 </v>
    <v>       0.66042144       0.66953423       0.47509860 </v>
    <v>       0.16457106       0.91914006       0.47364230 </v>
    <v>       0.41091532       0.16937507       0.48039890 </v>
    <v>       0.58333333       0.58333333       0.38179910 </v>
    <v>       0.66135528       0.17008395       0.47270116 </v>
    <v>       0.76418973       0.98869025       0.57577470 </v>
    <v>       0.74930523       0.49719692       0.57097073 </v>
    <v>       0.83333333       0.33333333       0.38179910 </v>
    <v>       0.65864773       0.41929334       0.47724138 </v>
    <v>       0.74929109       0.24790333       0.57025066 </v>
    <v>       0.25863647       0.50180190       0.56152443 </v>
    <v>       0.59003159       0.81745737       0.61032378 </v>
    <v>       0.07140749       0.34626142       0.61918317 </v>
    <v>       0.57952068       0.09281822       0.61667593 </v>
    <v>       0.57071418       0.34096279       0.62015744 </v>
    <v>       0.26837085       0.71360170       0.64040902 </v>
    <v>       0.07181231       0.60782997       0.61338241 </v>
    <v>       0.57216405       0.58871253       0.62005135 </v>
    <v>       0.32019641       0.08940272       0.61794769 </v>
    <v>       0.99924368       0.75548051       0.56176928 </v>
    <v>       0.33333333       0.33333333       0.38179910 </v>
    <v>       0.24660946       0.26158355       0.57662304 </v>
    <v>       0.08333333       0.83333333       0.38179910 </v>
    <v>       0.16440839       0.66987542       0.47248464 </v>
    <v>       0.98995760       0.51300904       0.57305416 </v>
    <v>       0.91362391       0.66755500       0.47618243 </v>
    <v>       0.24170768       0.75651656       0.56887644 </v>
    <v>       0.75250969       0.74876664       0.56460845 </v>
    <v>       0.58333333       0.08333333       0.38179910 </v>
    <v>       0.49471371       0.00016630       0.57384743 </v>
    <v>       0.41381339       0.41883733       0.47442616 </v>
    <v>       0.58333333       0.33333333       0.38179910 </v>
    <v>       0.83333333       0.08333333       0.38179910 </v>
    <v>       0.58333333       0.83333333       0.38179910 </v>
    <v>       0.91204136       0.17063614       0.47553209 </v>
    <v>       0.99666508       0.99986028       0.56248173 </v>
    <v>       0.48927920       0.74508099       0.56701426 </v>
    <v>       0.41415206       0.91605158       0.47671306 </v>
    <v>       0.16312858       0.16884299       0.47454735 </v>
    <v>       0.41184300       0.66686777       0.47995024 </v>
    <v>       0.42843741       0.53474907       0.62968745 </v>
    <v>       0.49191366       0.25949565       0.56997636 </v>
    <v>       0.08333333       0.08333333       0.38179910 </v>
   </varray>
  </structure>
  <varray name="forces" >
   <v>       0.03205781       0.11264042      -0.11688679 </v>
   <v>       0.00565751      -0.01745785       0.01491716 </v>
   <v>       0.12157494       0.05461835      -0.23953023 </v>
   <v>      -0.00077135       0.01942944      -0.00895764 </v>
   <v>       0.00801959      -0.20375349      -0.15444821 </v>
   <v>      -0.01347096      -0.00131266       0.02580276 </v>
   <v>      -0.04919389       0.25726217      -0.31285493 </v>
   <v>      -0.00954404       0.02053920       0.01993535 </v>
   <v>      -0.03350610       0.12665355      -0.26329728 </v>
   <v>       0.27604364      -0.04286367       0.02301246 </v>
   <v>       0.04452294       0.01330854       0.00759239 </v>
   <v>       0.04936975      -0.21476084      -0.03464745 </v>
   <v>       0.01068157       0.00703828      -0.02595119 </v>
   <v>       0.00887387      -0.01714195       0.01462091 </v>
   <v>       0.00043564      -0.01630415       0.00665002 </v>
   <v>      -0.00200969       0.00549725       0.02610370 </v>
   <v>      -0.18145085       0.00730015      -0.27315081 </v>
   <v>       0.00846761      -0.01112124       0.00419588 </v>
   <v>      -0.01500583       0.03071173      -0.04678435 </v>
   <v>       0.02288978      -0.01880551       0.00090145 </v>
   <v>      -0.13118261      -0.41283490      -0.12518129 </v>
   <v>      -0.00472675       0.02238417       0.00167529 </v>
   <v>       0.00457303       0.00001931       0.00157800 </v>
   <v>       0.01409170      -0.02048136       0.03859055 </v>
   <v>      -0.00821904      -0.02235815       0.02543253 </v>
   <v>       0.00036760       0.02169226       0.00534976 </v>
   <v>       0.02080530       0.01946080       0.00806188 </v>
   <v>      -0.00465038       0.01785297       0.06636218 </v>
   <v>      -0.02756737       0.00262682      -0.00418085 </v>
   <v>       0.01234898      -0.02875387       0.03186744 </v>
   <v>      -0.00782326       0.01529975       0.02386341 </v>
   <v>       0.01823435       0.02272736      -0.02468295 </v>
   <v>       0.02710616       0.04920863      -0.01681231 </v>
   <v>       0.17447478      -0.18790149       0.33095834 </v>
   <v>       0.00999917      -0.02731122      -0.00848163 </v>
   <v>       0.02318822       0.26769726       0.07568332 </v>
   <v>      -0.00449875      -0.02729403       0.00125952 </v>
   <v>      -0.02844130      -0.03021942       0.00180472 </v>
   <v>       0.00779511      -0.00126735      -0.00821585 </v>
   <v>      -0.00870568      -0.00200093       0.00161723 </v>
   <v>       0.00477838       0.00905005      -0.02924422 </v>
   <v>      -0.07489823       0.13734748       0.19014969 </v>
   <v>       0.00656512       0.03065958       0.02785601 </v>
   <v>       0.00699857       0.01126532       0.00583674 </v>
   <v>      -0.19470428      -0.07091006       0.13988260 </v>
   <v>       0.12939811      -0.00399123       0.18728259 </v>
   <v>      -0.02511290       0.16558181       0.14196313 </v>
   <v>       0.00172736       0.00549594       0.00139111 </v>
   <v>       0.00585038      -0.00709706       0.00731249 </v>
   <v>      -0.01048007       0.03573238      -0.02797560 </v>
   <v>       0.00641571      -0.00089124       0.01520878 </v>
   <v>       0.00240369       0.01028161       0.01083885 </v>
   <v>      -0.01115059       0.01532818       0.00945916 </v>
   <v>       0.01837246      -0.05782176      -0.00600845 </v>
   <v>       0.00299375      -0.03217650       0.01604102 </v>
   <v>      -0.23996862      -0.03787886       0.21623361 </v>
  </varray>
  <energy>
   <i name="e_fr_energy">   -233.18540569 </i>
   <i name="e_wo_entrp">   -233.09628187 </i>
   <i name="e_0_energy">     -0.17824762 </i>
  </energy>
  <time name="totalsc">  351.27  352.36</time>
 </calculation>
 <calculation>
  <scstep>
   <time name="dav">   11.65   11.71</time>
   <time name="total">   12.06   12.13</time>
   <dipole>
    <v name="dipole">      0.00000000       0.00000000       0.52158815 </v>
    <i name="Tr[quadrupol]"> -11235.59798998 </i>
    <i name="Echarged">      0.00000000 </i>
    <i name="Edipol_quadrupol">      0.00000000 </i>
    <i name="Eion">      0.00000000 </i>
   </dipole>
   <energy>
    <i name="alphaZ">    868.16876085 </i>
    <i name="ewald"> 239952.05048667 </i>
    <i name="hartreedc">-285179.88056337 </i>
    <i name="XCdc">   -126.00861131 </i>
    <i name="pawpsdc">  52382.39768059 </i>
    <i name="pawaedc"> -50477.98853643 </i>
    <i name="eentropy">     -0.17843959 </i>
    <i name="bandstr">  -2769.63817054 </i>
    <i name="atom">  45117.89144060 </i>
    <i name="e_fr_energy">   -233.18595253 </i>
    <i name="e_wo_entrp">   -233.00751294 </i>
    <i name="e_0_energy">   -233.09673274 </i>
   </energy>
  </scstep>
  <scstep>
   <time name="diag">    2.00    2.00</time>
   <time name="diis">    5.33    5.34</time>
   <time name="orth">    0.49    0.49</time>
   <time name="total">    8.23    8.24</time>
   <dipole>
    <v name="dipole">      0.00000000       0.00000000       0.52388999 </v>
    <i name="Tr[quadrupol]"> -11235.59641215 </i>
    <i name="Echarged">      0.00000000 </i>
    <i name="Edipol_quadrupol">      0.00000000 </i>
    <i name="Eion">      0.00000000 </i>
   </dipole>
   <energy>
    <i name="e_fr_energy">   -233.18696354 </i>
    <i name="e_wo_entrp">   -233.00911578 </i>
    <i name="e_0_energy">   -233.09803966 </i>
   </energy>
  </scstep>
  <scstep>
   <time name="diag">    2.00    2.00</time>
   <time name="diis">    5.39    5.39</time>
   <time name="orth">    0.49    0.49</time>
   <time name="total">    8.29    8.30</time>
   <dipole>
    <v name="dipole">      0.00000000       0.00000000       0.52076306 </v>
    <i name="Tr[quadrupol]"> -11235.59613786 </i>
    <i name="Echarged">      0.00000000 </i>
    <i name="Edipol_quadrupol">      0.00000000 </i>
    <i name="Eion">      0.00000000 </i>
   </dipole>
   <energy>
    <i name="e_fr_energy">   -233.18653204 </i>
    <i name="e_wo_entrp">   -233.00762487 </i>
    <i name="e_0_energy">   -233.09707846 </i>
   </energy>
  </scstep>
  <scstep>
   <time name="diag">    2.02    2.02</time>
   <time name="diis">    5.31    5.31</time>
   <time name="orth">    0.49    0.49</time>
   <time name="total">    8.24    8.25</time>
   <dipole>
    <v name="dipole">      0.00000000       0.00000000       0.52780291 </v>
    <i name="Tr[quadrupol]"> -11235.59649986 </i>
    <i name="Echarged">      0.00000000 </i>
    <i name="Edipol_quadrupol">      0.00000000 </i>
    <i name="Eion">      0.00000000 </i>
   </dipole>
   <energy>
    <i name="e_fr_energy">   -233.18693536 </i>
    <i name="e_wo_entrp">   -233.01060167 </i>
    <i name="e_0_energy">   -233.09876851 </i>
   </energy>
  </scstep>
  <scstep>
   <time name="diag">    2.00    2.00</time>
   <time name="diis">    5.26    5.34</time>
   <time name="orth">    0.49    0.49</time>
   <time name="total">    8.17    8.25</time>
   <dipole>
    <v name="dipole">      0.00000000       0.00000000       0.52120768 </v>
    <i name="Tr[quadrupol]"> -11235.59280047 </i>
    <i name="Echarged">      0.00000000 </i>
    <i name="Edipol_quadrupol">      0.00000000 </i>
    <i name="Eion">      0.00000000 </i>
   </dipole>
   <energy>
    <i name="e_fr_energy">   -233.18654646 </i>
    <i name="e_wo_entrp">   -233.00766280 </i>
    <i name="e_0_energy">   -233.09710463 </i>
   </energy>
  </scstep>
  <scstep>
   <time name="diag">    2.00    2.00</time>
   <time name="diis">    5.61    5.64</time>
   <time name="orth">    0.49    0.49</time>
   <time name="total">    8.52    8.56</time>
   <dipole>
    <v name="dipole">      0.00000000       0.00000000       0.52317290 </v>
    <i name="Tr[quadrupol]"> -11235.59599783 </i>
    <i name="Echarged">      0.00000000 </i>
    <i name="Edipol_quadrupol">      0.00000000 </i>
    <i name="Eion">      0.00000000 </i>
   </dipole>
   <energy>
    <i name="e_fr_energy">   -233.18653764 </i>
    <i name="e_wo_entrp">   -233.00838375 </i>
    <i name="e_0_energy">   -233.09746070 </i>
   </energy>
  </scstep>
  <scstep>
   <time name="diag">    2.00    2.01</time>
   <time name="diis">    5.38    5.39</time>
   <time name="orth">    0.49    0.49</time>
   <time name="total">    8.28    8.30</time>
   <dipole>
    <v name="dipole">      0.00000000       0.00000000       0.52226911 </v>
    <i name="Tr[quadrupol]"> -11235.59261232 </i>
    <i name="Echarged">      0.00000000 </i>
    <i name="Edipol_quadrupol">      0.00000000 </i>
    <i name="Eion">      0.00000000 </i>
   </dipole>
   <energy>
    <i name="e_fr_energy">   -233.18650803 </i>
    <i name="e_wo_entrp">   -233.00809448 </i>
    <i name="e_0_energy">   -233.09730126 </i>
   </energy>
  </scstep>
  <scstep>
   <time name="diag">    2.02    2.02</time>
   <time name="diis">    5.43    5.44</time>
   <time name="orth">    0.49    0.49</time>
   <time name="total">    8.36    8.37</time>
   <dipole>
    <v name="dipole">      0.00000000       0.00000000       0.52275396 </v>
    <i name="Tr[quadrupol]"> -11235.59445451 </i>
    <i name="Echarged">      0.00000000 </i>
    <i name="Edipol_quadrupol">      0.00000000 </i>
    <i name="Eion">      0.00000000 </i>
   </dipole>
   <energy>
    <i name="e_fr_energy">   -233.18649609 </i>
    <i name="e_wo_entrp">   -233.00813722 </i>
    <i name="e_0_energy">   -233.09731666 </i>
   </energy>
  </scstep>
  <scstep>
   <time name="diag">    2.01    2.01</time>
   <time name="diis">    3.73    3.73</time>
   <time name="orth">    0.49    0.49</time>
   <time name="total">    6.65    6.65</time>
   <dipole>
    <v name="dipole">      0.00000000       0.00000000       0.52255056 </v>
    <i name="Tr[quadrupol]"> -11235.59354654 </i>
    <i name="Echarged">      0.00000000 </i>
    <i name="Edipol_quadrupol">      0.00000000 </i>
    <i name="Eion">      0.00000000 </i>
   </dipole>
   <energy>
    <i name="e_fr_energy">   -233.18649435 </i>
    <i name="e_wo_entrp">   -233.00812334 </i>
    <i name="e_0_energy">   -233.09730885 </i>
   </energy>
  </scstep>
  <scstep>
   <time name="diag">    2.01    2.01</time>
   <time name="diis">    3.01    3.07</time>
   <time name="orth">    0.48    0.49</time>
   <time name="total">    5.56    5.63</time>
   <dipole>
    <v name="dipole">      0.00000000       0.00000000       0.52262399 </v>
    <i name="Tr[quadrupol]"> -11235.59382124 </i>
    <i name="Echarged">      0.00000000 </i>
    <i name="Edipol_quadrupol">      0.00000000 </i>
    <i name="Eion">      0.00000000 </i>
   </dipole>
   <energy>
    <i name="alphaZ">    868.17984891 </i>
    <i name="ewald"> 239952.05048667 </i>
    <i name="hartreedc">-285179.65732891 </i>
    <i name="XCdc">   -126.01150406 </i>
    <i name="pawpsdc">  52379.98497959 </i>
    <i name="pawaedc"> -50475.55595508 </i>
    <i name="eentropy">     -0.17837521 </i>
    <i name="bandstr">  -2769.89008663 </i>
    <i name="atom">  45117.89144060 </i>
    <i name="e_fr_energy">   -233.18649414 </i>
    <i name="e_wo_entrp">   -233.00811893 </i>
    <i name="e_0_energy">   -233.09730653 </i>
   </energy>
  </scstep>
  <structure>
   <crystal>
    <varray name="basis" >
     <v>      11.00258152       0.00000000       0.00000000 </v>
     <v>       5.50129076       9.52851510       0.00000000 </v>
     <v>       0.00000000       0.00000000      26.19178509 </v>
    </varray>
    <i name="volume">   2745.90128299 </i>
    <varray name="rec_basis" >
     <v>       0.09088776      -0.05247407       0.00000000 </v>
     <v>       0.00000000       0.10494815       0.00000000 </v>
     <v>       0.00000000       0.00000000       0.03817991 </v>
    </varray>
   </crystal>
   <varray name="positions" >
    <v>       0.33333333       0.83333333       0.38179910 </v>
    <v>       0.91282920       0.91900158       0.47412785 </v>
    <v>       0.08333333       0.58333333       0.38179910 </v>
    <v>       0.66013452       0.91953261       0.47521347 </v>
    <v>       0.08333333       0.33333333       0.38179910 </v>
    <v>       0.91414419       0.41826444       0.48095728 </v>
    <v>       0.83333333       0.83333333       0.38179910 </v>
    <v>       0.99275568       0.24389934       0.57248184 </v>
    <v>       0.83333333       0.58333333       0.38179910 </v>
    <v>       0.33333333       0.08333333       0.38179910 </v>
    <v>       0.24000249       0.99898867       0.56560210 </v>
    <v>       0.33333333       0.58333333       0.38179910 </v>
    <v>       0.16357283       0.41876023       0.47637745 </v>
    <v>       0.66047905       0.66947348       0.47511745 </v>
    <v>       0.16460128       0.91908228       0.47365087 </v>
    <v>       0.41089941       0.16939455       0.48043256 </v>
    <v>       0.58333333       0.58333333       0.38179910 </v>
    <v>       0.66140098       0.17004454       0.47270657 </v>
    <v>       0.76408925       0.98879909       0.57571438 </v>
    <v>       0.74940881       0.49713027       0.57097190 </v>
    <v>       0.83333333       0.33333333       0.38179910 </v>
    <v>       0.65859356       0.41937267       0.47724354 </v>
    <v>       0.74930509       0.24790340       0.57025269 </v>
    <v>       0.25871602       0.50172932       0.56157418 </v>
    <v>       0.59004598       0.81737813       0.61035658 </v>
    <v>       0.07137018       0.34633830       0.61919007 </v>
    <v>       0.57955005       0.09288719       0.61668633 </v>
    <v>       0.57066827       0.34102606       0.62024301 </v>
    <v>       0.26828158       0.71361101       0.64040363 </v>
    <v>       0.07190117       0.60772807       0.61342350 </v>
    <v>       0.57211293       0.58876676       0.62008212 </v>
    <v>       0.32021210       0.08948326       0.61791587 </v>
    <v>       0.99923967       0.75565491       0.56174761 </v>
    <v>       0.33333333       0.33333333       0.38179910 </v>
    <v>       0.24668855       0.26148676       0.57661210 </v>
    <v>       0.08333333       0.83333333       0.38179910 </v>
    <v>       0.16444295       0.66977869       0.47248626 </v>
    <v>       0.98992386       0.51290194       0.57305649 </v>
    <v>       0.91365008       0.66755050       0.47617184 </v>
    <v>       0.24168451       0.75650947       0.56887852 </v>
    <v>       0.75250832       0.74879871       0.56457074 </v>
    <v>       0.58333333       0.08333333       0.38179910 </v>
    <v>       0.49467953       0.00027496       0.57388335 </v>
    <v>       0.41381491       0.41887725       0.47443369 </v>
    <v>       0.58333333       0.33333333       0.38179910 </v>
    <v>       0.83333333       0.08333333       0.38179910 </v>
    <v>       0.58333333       0.83333333       0.38179910 </v>
    <v>       0.91203692       0.17065562       0.47553389 </v>
    <v>       0.99669561       0.99983513       0.56249116 </v>
    <v>       0.48918371       0.74520763       0.56697819 </v>
    <v>       0.41417334       0.91604842       0.47673267 </v>
    <v>       0.16311773       0.16887943       0.47456133 </v>
    <v>       0.41178161       0.66692209       0.47996244 </v>
    <v>       0.42859626       0.53454415       0.62967971 </v>
    <v>       0.49197986       0.25938161       0.56999704 </v>
    <v>       0.08333333       0.08333333       0.38179910 </v>
   </varray>
  </structure>
  <varray name="forces" >
   <v>       0.03258444       0.11314586      -0.11603065 </v>
   <v>       0.00642597      -0.01263683       0.00814097 </v>
   <v>       0.12126859       0.05548952      -0.24162321 </v>
   <v>      -0.00254877       0.01159724      -0.00917844 </v>
   <v>       0.00690030      -0.20413490      -0.15376833 </v>
   <v>      -0.00567027      -0.00213804       0.01810413 </v>
   <v>      -0.04865667       0.25788432      -0.31292684 </v>
   <v>      -0.00422420       0.00275471       0.02103157 </v>
   <v>      -0.03381075       0.12619160      -0.26260672 </v>
   <v>       0.27589441      -0.04318919       0.02504790 </v>
   <v>       0.01635509       0.00800156      -0.00205735 </v>
   <v>       0.05005474      -0.21460565      -0.03488443 </v>
   <v>       0.00760742       0.00594331      -0.01766848 </v>
   <v>       0.00681631      -0.00590877       0.01085712 </v>
   <v>       0.00054097      -0.00766918       0.00699200 </v>
   <v>      -0.00127267       0.00658639       0.01913896 </v>
   <v>      -0.18094761       0.00804117      -0.27244437 </v>
   <v>       0.00795584      -0.00128890       0.00237307 </v>
   <v>      -0.00842283       0.02448876      -0.04732027 </v>
   <v>       0.00035851       0.00277595       0.01347709 </v>
   <v>      -0.13077441      -0.41240305      -0.12403940 </v>
   <v>      -0.00601964       0.01279708       0.00332645 </v>
   <v>      -0.00337657       0.00322804       0.00435204 </v>
   <v>       0.00011513      -0.01419435       0.03233890 </v>
   <v>      -0.00389802      -0.01289660       0.00522485 </v>
   <v>       0.00677961       0.00854952       0.00783185 </v>
   <v>       0.01877463       0.01074928       0.01851868 </v>
   <v>       0.00442722      -0.02205012       0.05001420 </v>
   <v>      -0.01000802      -0.02759646      -0.01266391 </v>
   <v>       0.00390689      -0.01358665      -0.00549578 </v>
   <v>      -0.00104215       0.01871482       0.00656972 </v>
   <v>       0.01573826       0.01514702       0.00067624 </v>
   <v>       0.01174239       0.00360184       0.01108957 </v>
   <v>       0.17557247      -0.18839230       0.33153346 </v>
   <v>       0.00208676       0.00147372      -0.01135912 </v>
   <v>       0.02301405       0.26779327       0.07710105 </v>
   <v>      -0.00331249      -0.02285919       0.00353576 </v>
   <v>      -0.00105015       0.00003006       0.00247339 </v>
   <v>       0.00559535      -0.00158143      -0.00398008 </v>
   <v>      -0.00172445      -0.00238947       0.00771255 </v>
   <v>      -0.00033187       0.00873552      -0.01959689 </v>
   <v>      -0.07487408       0.13811439       0.19032130 </v>
   <v>       0.01765819       0.00123907       0.02696851 </v>
   <v>       0.00604895       0.00504226       0.00787642 </v>
   <v>      -0.19465193      -0.07138460       0.14150780 </v>
   <v>       0.12976027      -0.00479082       0.18867800 </v>
   <v>      -0.02545141       0.16525980       0.14369761 </v>
   <v>       0.00084137       0.00097477       0.00144414 </v>
   <v>       0.01671435       0.00403427       0.00851814 </v>
   <v>      -0.00021724       0.01538584      -0.01075130 </v>
   <v>       0.00669675      -0.00019678       0.01030582 </v>
   <v>       0.00050835       0.00654685       0.00838288 </v>
   <v>      -0.00445109       0.01189406       0.00718443 </v>
   <v>      -0.00535163       0.01090587       0.00231207 </v>
   <v>       0.01292549      -0.00911323       0.01570867 </v>
   <v>      -0.23958017      -0.03811126       0.21802827 </v>
  </varray>
  <energy>
   <i name="e_fr_energy">   -233.18649414 </i>
   <i name="e_wo_entrp">   -233.09730653 </i>
   <i name="e_0_energy">     -0.17837521 </i>
  </energy>
  <time name="totalsc">   85.99   86.31</time>
 </calculation>
 <calculation>
  <scstep>
   <time name="dav">   11.70   11.71</time>
   <time name="total">   12.11   12.12</time>
   <dipole>
    <v name="dipole">      0.00000000       0.00000000       0.52259133 </v>
    <i name="Tr[quadrupol]"> -11236.14852147 </i>
    <i name="Echarged">      0.00000000 </i>
    <i name="Edipol_quadrupol">      0.00000000 </i>
    <i name="Eion">      0.00000000 </i>
   </dipole>
   <energy>
    <i name="alphaZ">    868.17790597 </i>
    <i name="ewald"> 239947.68299669 </i>
    <i name="hartreedc">-285175.39212354 </i>
    <i name="XCdc">   -126.01701767 </i>
    <i name="pawpsdc">  52379.98908163 </i>
    <i name="pawaedc"> -50475.55998114 </i>
    <i name="eentropy">     -0.17852260 </i>
    <i name="bandstr">  -2769.78015940 </i>
    <i name="atom">  45117.89144060 </i>
    <i name="e_fr_energy">   -233.18637947 </i>
    <i name="e_wo_entrp">   -233.00785687 </i>
    <i name="e_0_energy">   -233.09711817 </i>
   </energy>
  </scstep>
  <scstep>
   <time name="diag">    2.01    2.01</time>
   <time name="diis">    5.31    5.32</time>
   <time name="orth">    0.49    0.49</time>
   <time name="total">    8.22    8.23</time>
   <dipole>
    <v name="dipole">      0.00000000       0.00000000       0.52448474 </v>
    <i name="Tr[quadrupol]"> -11236.14719443 </i>
    <i name="Echarged">      0.00000000 </i>
    <i name="Edipol_quadrupol">      0.00000000 </i>
    <i name="Eion">      0.00000000 </i>
   </dipole>
   <energy>
    <i name="e_fr_energy">   -233.18703134 </i>
    <i name="e_wo_entrp">   -233.00897650 </i>
    <i name="e_0_energy">   -233.09800392 </i>
   </energy>
  </scstep>
  <scstep>
   <time name="diag">    2.24    2.26</time>
   <time name="diis">    5.37    5.38</time>
   <time name="orth">    0.49    0.49</time>
   <time name="total">    8.52    8.56</time>
   <dipole>
    <v name="dipole">      0.00000000       0.00000000       0.52188577 </v>
    <i name="Tr[quadrupol]"> -11236.14683994 </i>
    <i name="Echarged">      0.00000000 </i>
    <i name="Edipol_quadrupol">      0.00000000 </i>
    <i name="Eion">      0.00000000 </i>
   </dipole>
   <energy>
    <i name="e_fr_energy">   -233.18675618 </i>
    <i name="e_wo_entrp">   -233.00783524 </i>
    <i name="e_0_energy">   -233.09729571 </i>
   </energy>
  </scstep>
  <scstep>
   <time name="diag">    2.01    2.01</time>
   <time name="diis">    5.32    5.40</time>
   <time name="orth">    0.49    0.49</time>
   <time name="total">    8.23    8.31</time>
   <dipole>
    <v name="dipole">      0.00000000       0.00000000       0.52760118 </v>
    <i name="Tr[quadrupol]"> -11236.14711892 </i>
    <i name="Echarged">      0.00000000 </i>
    <i name="Edipol_quadrupol">      0.00000000 </i>
    <i name="Eion">      0.00000000 </i>
   </dipole>
   <energy>
    <i name="e_fr_energy">   -233.18701514 </i>
    <i name="e_wo_entrp">   -233.01017912 </i>
    <i name="e_0_energy">   -233.09859713 </i>
   </energy>
  </scstep>
  <scstep>
   <time name="diag">    2.01    2.01</time>
   <time name="diis">    5.41    5.41</time>
   <time name="orth">    0.49    0.49</time>
   <time name="total">    8.31    8.32</time>
   <dipole>
    <v name="dipole">      0.00000000       0.00000000       0.52231224 </v>
    <i name="Tr[quadrupol]"> -11236.14403354 </i>
    <i name="Echarged">      0.00000000 </i>
[...]
       <r>   -19.3642    10.1130    15.0788 </r>
       <r>   -19.2702     8.1796    15.8477 </r>
       <r>   -19.1762     1.5587    15.9942 </r>
       <r>   -19.0822     0.0609    16.0000 </r>
       <r>   -18.9882     0.0005    16.0000 </r>
       <r>   -18.8942     0.0000    16.0000 </r>
       <r>   -18.8002     0.0000    16.0000 </r>
       <r>   -18.7062     0.0000    16.0000 </r>
       <r>   -18.6122     0.0000    16.0000 </r>
       <r>   -18.5182     0.0000    16.0000 </r>
       <r>   -18.4242     0.0000    16.0000 </r>
       <r>   -18.3302     0.0000    16.0000 </r>
       <r>   -18.2362     0.0000    16.0000 </r>
       <r>   -18.1422     0.0000    16.0000 </r>
       <r>   -18.0482     0.0000    16.0000 </r>
       <r>   -17.9542     0.0000    16.0000 </r>
       <r>   -17.8602     0.0000    16.0000 </r>
       <r>   -17.7662     0.0000    16.0000 </r>
       <r>   -17.6722     0.0000    16.0000 </r>
       <r>   -17.5782     0.0000    16.0000 </r>
       <r>   -17.4842     0.0000    16.0000 </r>
       <r>   -17.3902     0.0000    16.0000 </r>
       <r>   -17.2962     0.0000    16.0000 </r>
       <r>   -17.2022     0.0000    16.0000 </r>
       <r>   -17.1082     0.0000    16.0000 </r>
       <r>   -17.0142     0.0000    16.0000 </r>
       <r>   -16.9202     0.0000    16.0000 </r>
       <r>   -16.8262     0.0000    16.0000 </r>
       <r>   -16.7322     0.0000    16.0000 </r>
       <r>   -16.6382     0.0000    16.0000 </r>
       <r>   -16.5442     0.0000    16.0000 </r>
       <r>   -16.4502     0.0000    16.0000 </r>
       <r>   -16.3562     0.0000    16.0000 </r>
       <r>   -16.2622     0.0000    16.0000 </r>
       <r>   -16.1682     0.0000    16.0000 </r>
       <r>   -16.0742     0.0000    16.0000 </r>
       <r>   -15.9802     0.0000    16.0000 </r>
       <r>   -15.8862     0.0000    16.0000 </r>
       <r>   -15.7922     0.0000    16.0000 </r>
       <r>   -15.6982     0.0000    16.0000 </r>
       <r>   -15.6042     0.0000    16.0000 </r>
       <r>   -15.5102     0.0000    16.0000 </r>
       <r>   -15.4162     0.0000    16.0000 </r>
       <r>   -15.3222     0.0000    16.0000 </r>
       <r>   -15.2281     0.0000    16.0000 </r>
       <r>   -15.1341     0.0000    16.0000 </r>
       <r>   -15.0401     0.0000    16.0000 </r>
       <r>   -14.9461     0.0000    16.0000 </r>
       <r>   -14.8521     0.0000    16.0000 </r>
       <r>   -14.7581     0.0000    16.0000 </r>
       <r>   -14.6641     0.0000    16.0000 </r>
       <r>   -14.5701     0.0000    16.0000 </r>
       <r>   -14.4761     0.0000    16.0000 </r>
       <r>   -14.3821     0.0000    16.0000 </r>
       <r>   -14.2881     0.0000    16.0000 </r>
       <r>   -14.1941     0.0000    16.0000 </r>
       <r>   -14.1001     0.0000    16.0000 </r>
       <r>   -14.0061     0.0000    16.0000 </r>
       <r>   -13.9121     0.0000    16.0000 </r>
       <r>   -13.8181     0.0000    16.0000 </r>
       <r>   -13.7241     0.0000    16.0000 </r>
       <r>   -13.6301     0.0000    16.0000 </r>
       <r>   -13.5361     0.0000    16.0000 </r>
       <r>   -13.4421     0.0000    16.0000 </r>
       <r>   -13.3481     0.0000    16.0000 </r>
       <r>   -13.2541     0.0000    16.0000 </r>
       <r>   -13.1601     0.0000    16.0000 </r>
       <r>   -13.0661     0.0000    16.0000 </r>
       <r>   -12.9721     0.0000    16.0000 </r>
       <r>   -12.8781     0.0000    16.0000 </r>
       <r>   -12.7841     0.0000    16.0000 </r>
       <r>   -12.6901     0.0000    16.0000 </r>
       <r>   -12.5961     0.0000    16.0000 </r>
       <r>   -12.5021     0.0000    16.0000 </r>
       <r>   -12.4081     0.0000    16.0000 </r>
       <r>   -12.3141     0.0000    16.0000 </r>
       <r>   -12.2201     0.0000    16.0000 </r>
       <r>   -12.1261     0.0000    16.0000 </r>
       <r>   -12.0321     0.0000    16.0000 </r>
       <r>   -11.9381     0.0000    16.0000 </r>
       <r>   -11.8441     0.0000    16.0000 </r>
       <r>   -11.7501     0.0000    16.0000 </r>
       <r>   -11.6561     0.0000    16.0000 </r>
       <r>   -11.5621     0.0000    16.0000 </r>
       <r>   -11.4681     0.0000    16.0000 </r>
       <r>   -11.3741     0.0000    16.0000 </r>
       <r>   -11.2801     0.0000    16.0000 </r>
       <r>   -11.1861     0.0000    16.0000 </r>
       <r>   -11.0921     0.0000    16.0000 </r>
       <r>   -10.9981     0.0000    16.0000 </r>
       <r>   -10.9041     0.0000    16.0000 </r>
       <r>   -10.8101     0.0000    16.0000 </r>
       <r>   -10.7161     0.0000    16.0000 </r>
       <r>   -10.6221     0.0000    16.0000 </r>
       <r>   -10.5281     0.0000    16.0000 </r>
       <r>   -10.4341     0.0000    16.0000 </r>
       <r>   -10.3400     0.0000    16.0000 </r>
       <r>   -10.2460     0.0000    16.0000 </r>
       <r>   -10.1520     0.0000    16.0000 </r>
       <r>   -10.0580     0.0000    16.0000 </r>
       <r>    -9.9640     0.0000    16.0000 </r>
       <r>    -9.8700     0.0000    16.0000 </r>
       <r>    -9.7760     0.0000    16.0000 </r>
       <r>    -9.6820     0.0000    16.0000 </r>
       <r>    -9.5880     0.0001    16.0000 </r>
       <r>    -9.4940     0.0128    16.0012 </r>
       <r>    -9.4000     0.4500    16.0435 </r>
       <r>    -9.3060     3.2647    16.3504 </r>
       <r>    -9.2120     5.5543    16.8725 </r>
       <r>    -9.1180     4.9213    17.3351 </r>
       <r>    -9.0240     5.0306    17.8080 </r>
       <r>    -8.9300     1.9697    17.9932 </r>
       <r>    -8.8360     1.1594    18.1021 </r>
       <r>    -8.7420     2.9106    18.3757 </r>
       <r>    -8.6480     5.2690    18.8710 </r>
       <r>    -8.5540     7.1969    19.5476 </r>
       <r>    -8.4600     8.6492    20.3606 </r>
       <r>    -8.3660     9.8158    21.2833 </r>
       <r>    -8.2720    12.3510    22.4443 </r>
       <r>    -8.1780    18.6675    24.1991 </r>
       <r>    -8.0840    19.9638    26.0757 </r>
       <r>    -7.9900    19.0765    27.8690 </r>
       <r>    -7.8960    24.1831    30.1422 </r>
       <r>    -7.8020    29.0513    32.8731 </r>
       <r>    -7.7080    36.2618    36.2818 </r>
       <r>    -7.6140    37.4289    39.8002 </r>
       <r>    -7.5200    39.1041    43.4760 </r>
       <r>    -7.4260    48.5675    48.0415 </r>
       <r>    -7.3320    55.1150    53.2224 </r>
       <r>    -7.2380    60.8827    58.9455 </r>
       <r>    -7.1440    69.2005    65.4504 </r>
       <r>    -7.0500    71.7972    72.1995 </r>
       <r>    -6.9560    66.3430    78.4359 </r>
       <r>    -6.8620    67.4688    84.7781 </r>
       <r>    -6.7680    78.3476    92.1429 </r>
       <r>    -6.6740    86.3516   100.2601 </r>
       <r>    -6.5800    85.5564   108.3026 </r>
       <r>    -6.4860    80.3523   115.8559 </r>
       <r>    -6.3920    79.1079   123.2922 </r>
       <r>    -6.2980    80.0484   130.8169 </r>
       <r>    -6.2040    77.9128   138.1408 </r>
       <r>    -6.1100    78.8227   145.5503 </r>
       <r>    -6.0160    79.9956   153.0700 </r>
       <r>    -5.9220    78.3881   160.4387 </r>
       <r>    -5.8280    80.1726   167.9751 </r>
       <r>    -5.7340    82.2578   175.7074 </r>
       <r>    -5.6400    86.1240   183.8033 </r>
       <r>    -5.5459    89.3971   192.2068 </r>
       <r>    -5.4519    86.1334   200.3035 </r>
       <r>    -5.3579    82.7030   208.0777 </r>
       <r>    -5.2639    80.7383   215.6673 </r>
       <r>    -5.1699    83.0295   223.4722 </r>
       <r>    -5.0759    87.5654   231.7035 </r>
       <r>    -4.9819    87.4424   239.9233 </r>
       <r>    -4.8879    87.6526   248.1628 </r>
       <r>    -4.7939    87.8045   256.4166 </r>
       <r>    -4.6999    88.6370   264.7486 </r>
       <r>    -4.6059    88.6961   273.0862 </r>
       <r>    -4.5119    89.0186   281.4542 </r>
       <r>    -4.4179    89.1865   289.8379 </r>
       <r>    -4.3239    88.8138   298.1865 </r>
       <r>    -4.2299    90.7311   306.7154 </r>
       <r>    -4.1359    93.4016   315.4954 </r>
       <r>    -4.0419    95.1422   324.4389 </r>
       <r>    -3.9479    97.7953   333.6319 </r>
       <r>    -3.8539    98.8551   342.9244 </r>
       <r>    -3.7599    96.0923   351.9573 </r>
       <r>    -3.6659    91.4564   360.5544 </r>
       <r>    -3.5719    88.1461   368.8403 </r>
       <r>    -3.4779    88.5257   377.1619 </r>
       <r>    -3.3839    88.3820   385.4700 </r>
       <r>    -3.2899    86.6371   393.6140 </r>
       <r>    -3.1959    87.8064   401.8680 </r>
       <r>    -3.1019    90.4288   410.3685 </r>
       <r>    -3.0079    92.7363   419.0859 </r>
       <r>    -2.9139    92.4838   427.7795 </r>
       <r>    -2.8199    89.7626   436.2174 </r>
       <r>    -2.7259    87.0336   444.3987 </r>
       <r>    -2.6319    87.5034   452.6242 </r>
       <r>    -2.5379    85.9339   460.7021 </r>
       <r>    -2.4439    85.8531   468.7725 </r>
       <r>    -2.3499    90.4221   477.2724 </r>
       <r>    -2.2559    97.2698   486.4159 </r>
       <r>    -2.1619    98.9067   495.7133 </r>
       <r>    -2.0679    94.2083   504.5691 </r>
       <r>    -1.9739    85.9651   512.6500 </r>
       <r>    -1.8799    82.3652   520.3925 </r>
       <r>    -1.7859    80.0613   527.9184 </r>
       <r>    -1.6919    74.7161   534.9418 </r>
       <r>    -1.5979    68.6439   541.3945 </r>
       <r>    -1.5039    56.5407   546.7094 </r>
       <r>    -1.4099    43.3639   550.7857 </r>
       <r>    -1.3159    33.9673   553.9787 </r>
       <r>    -1.2219    27.0928   556.5255 </r>
       <r>    -1.1279    26.4524   559.0121 </r>
       <r>    -1.0339    25.9173   561.4483 </r>
       <r>    -0.9399    26.2611   563.9169 </r>
       <r>    -0.8459    27.5030   566.5023 </r>
       <r>    -0.7519    28.2198   569.1550 </r>
       <r>    -0.6578    28.6986   571.8527 </r>
       <r>    -0.5638    31.7152   574.8340 </r>
       <r>    -0.4698    31.2687   577.7733 </r>
       <r>    -0.3758    21.7173   579.8148 </r>
       <r>    -0.2818    16.1455   581.3325 </r>
       <r>    -0.1878    14.3758   582.6839 </r>
       <r>    -0.0938    10.1867   583.6414 </r>
       <r>     0.0002     9.0068   584.4881 </r>
       <r>     0.0942    11.6539   585.5836 </r>
       <r>     0.1882    14.7772   586.9727 </r>
       <r>     0.2822    16.1518   588.4910 </r>
       <r>     0.3762    17.0838   590.0969 </r>
       <r>     0.4702    18.3439   591.8213 </r>
       <r>     0.5642    19.7050   593.6736 </r>
       <r>     0.6582    19.4634   595.5032 </r>
       <r>     0.7522    17.5581   597.1536 </r>
       <r>     0.8462    13.8646   598.4570 </r>
       <r>     0.9402    13.8659   599.7604 </r>
       <r>     1.0342    10.7122   600.7673 </r>
       <r>     1.1282     8.9069   601.6046 </r>
       <r>     1.2222     8.5499   602.4083 </r>
       <r>     1.3162     8.3311   603.1914 </r>
       <r>     1.4102    11.3651   604.2598 </r>
       <r>     1.5042    15.0346   605.6731 </r>
       <r>     1.5982    17.9090   607.3565 </r>
       <r>     1.6922    17.7709   609.0270 </r>
       <r>     1.7862    16.0239   610.5333 </r>
       <r>     1.8802    18.1553   612.2400 </r>
       <r>     1.9742    18.5276   613.9816 </r>
       <r>     2.0682    14.4521   615.3401 </r>
       <r>     2.1622    15.3647   616.7844 </r>
       <r>     2.2562    16.1512   618.3027 </r>
       <r>     2.3502    16.3605   619.8406 </r>
       <r>     2.4442    12.4734   621.0131 </r>
       <r>     2.5382     9.5306   621.9090 </r>
       <r>     2.6322    10.1109   622.8594 </r>
       <r>     2.7262    11.6568   623.9552 </r>
       <r>     2.8202    12.1466   625.0970 </r>
       <r>     2.9142    10.1395   626.0501 </r>
       <r>     3.0082    10.2563   627.0143 </r>
       <r>     3.1022    12.1509   628.1565 </r>
       <r>     3.1962    15.5095   629.6144 </r>
       <r>     3.2902    18.5807   631.3610 </r>
       <r>     3.3842    16.5959   632.9211 </r>
       <r>     3.4782    15.5644   634.3841 </r>
       <r>     3.5722    15.2384   635.8166 </r>
       <r>     3.6662    12.9283   637.0319 </r>
       <r>     3.7602    14.3921   638.3847 </r>
       <r>     3.8542    17.4464   640.0247 </r>
       <r>     3.9482    19.3064   641.8396 </r>
       <r>     4.0422    17.3237   643.4680 </r>
       <r>     4.1363    13.4286   644.7304 </r>
       <r>     4.2303    15.9098   646.2259 </r>
       <r>     4.3243    19.3941   648.0490 </r>
       <r>     4.4183    22.8805   650.1998 </r>
       <r>     4.5123    26.0018   652.6440 </r>
       <r>     4.6063    25.9051   655.0792 </r>
       <r>     4.7003    22.8296   657.2252 </r>
       <r>     4.7943    27.0413   659.7671 </r>
       <r>     4.8883    30.6289   662.6463 </r>
       <r>     4.9823    28.2787   665.3045 </r>
       <r>     5.0763    28.1418   667.9499 </r>
       <r>     5.1703    25.5746   670.3540 </r>
       <r>     5.2643    14.3962   671.7073 </r>
       <r>     5.3583     2.9547   671.9850 </r>
       <r>     5.4523     0.1576   671.9998 </r>
       <r>     5.5463     0.0019   672.0000 </r>
       <r>     5.6403     0.0000   672.0000 </r>
       <r>     5.7343     0.0000   672.0000 </r>
       <r>     5.8283     0.0000   672.0000 </r>
       <r>     5.9223     0.0000   672.0000 </r>
       <r>     6.0163     0.0000   672.0000 </r>
       <r>     6.1103     0.0000   672.0000 </r>
       <r>     6.2043     0.0000   672.0000 </r>
       <r>     6.2983     0.0000   672.0000 </r>
       <r>     6.3923     0.0000   672.0000 </r>
       <r>     6.4863     0.0000   672.0000 </r>
      </set>
     </set>
    </array>
   </total>
  </dos>
 </calculation>
 <structure name="finalpos" >
  <crystal>
   <varray name="basis" >
    <v>      11.00258152       0.00000000       0.00000000 </v>
    <v>       5.50129076       9.52851510       0.00000000 </v>
    <v>       0.00000000       0.00000000      26.19178509 </v>
   </varray>
   <i name="volume">   2745.90128299 </i>
   <varray name="rec_basis" >
    <v>       0.09088776      -0.05247407       0.00000000 </v>
    <v>       0.00000000       0.10494815       0.00000000 </v>
    <v>       0.00000000       0.00000000       0.03817991 </v>
   </varray>
  </crystal>
  <varray name="positions" >
   <v>       0.33333333       0.83333333       0.38179910 </v>
   <v>       0.91384082       0.91904532       0.47395640 </v>
   <v>       0.08333333       0.58333333       0.38179910 </v>
   <v>       0.65978004       0.91993828       0.47417929 </v>
   <v>       0.08333333       0.33333333       0.38179910 </v>
   <v>       0.91482960       0.41832925       0.48213923 </v>
   <v>       0.83333333       0.83333333       0.38179910 </v>
   <v>       0.99289921       0.24453310       0.57458847 </v>
   <v>       0.83333333       0.58333333       0.38179910 </v>
   <v>       0.33333333       0.08333333       0.38179910 </v>
   <v>       0.24101051       0.00046750       0.56583700 </v>
   <v>       0.33333333       0.58333333       0.38179910 </v>
   <v>       0.16428073       0.41897125       0.47617633 </v>
   <v>       0.66085520       0.66945395       0.47517155 </v>
   <v>       0.16481782       0.91969694       0.47399620 </v>
   <v>       0.41150770       0.17006091       0.48241334 </v>
   <v>       0.58333333       0.58333333       0.38179910 </v>
   <v>       0.66151165       0.17102960       0.47252656 </v>
   <v>       0.76110913       0.99204136       0.56983824 </v>
   <v>       0.74962744       0.49782364       0.57206624 </v>
   <v>       0.83333333       0.33333333       0.38179910 </v>
   <v>       0.65882007       0.42017900       0.47765737 </v>
   <v>       0.74926428       0.24938830       0.57055921 </v>
   <v>       0.26060392       0.50161465       0.56150163 </v>
   <v>       0.59251531       0.81587422       0.61084750 </v>
   <v>       0.07267189       0.34824324       0.61966403 </v>
   <v>       0.58673948       0.08948097       0.61776748 </v>
   <v>       0.57402858       0.34040679       0.62306681 </v>
   <v>       0.26751216       0.71189326       0.64057894 </v>
   <v>       0.07356959       0.60739367       0.61336547 </v>
   <v>       0.57099591       0.59041498       0.62057701 </v>
   <v>       0.32019718       0.09110148       0.61885648 </v>
   <v>       0.99989901       0.75629948       0.56214702 </v>
   <v>       0.33333333       0.33333333       0.38179910 </v>
   <v>       0.24801257       0.26208937       0.57696460 </v>
   <v>       0.08333333       0.83333333       0.38179910 </v>
   <v>       0.16505317       0.66987437       0.47265975 </v>
   <v>       0.99055434       0.51386866       0.57306800 </v>
   <v>       0.91421959       0.66762293       0.47625360 </v>
   <v>       0.24278373       0.75688577       0.56929867 </v>
   <v>       0.75256858       0.74897271       0.56386077 </v>
   <v>       0.58333333       0.08333333       0.38179910 </v>
   <v>       0.49644521       0.00072648       0.57616662 </v>
   <v>       0.41449566       0.41913596       0.47450277 </v>
   <v>       0.58333333       0.33333333       0.38179910 </v>
   <v>       0.83333333       0.08333333       0.38179910 </v>
   <v>       0.58333333       0.83333333       0.38179910 </v>
   <v>       0.91237953       0.17149561       0.47598629 </v>
   <v>       0.99788014       0.00069135       0.56308712 </v>
   <v>       0.48954634       0.74610911       0.56718797 </v>
   <v>       0.41444788       0.91676322       0.47716984 </v>
   <v>       0.16367119       0.16930679       0.47474771 </v>
   <v>       0.41178419       0.66777595       0.48015697 </v>
   <v>       0.42951509       0.53374192       0.63088440 </v>
   <v>       0.49322061       0.26000091       0.57332702 </v>
   <v>       0.08333333       0.08333333       0.38179910 </v>
  </varray>
  <varray name="selective"  type="logical" >
   <v type="logical" >  F  F  F </v>
   <v type="logical" >  T  T  T </v>
   <v type="logical" >  F  F  F </v>
   <v type="logical" >  T  T  T </v>
   <v type="logical" >  F  F  F </v>
   <v type="logical" >  T  T  T </v>
   <v type="logical" >  F  F  F </v>
   <v type="logical" >  T  T  T </v>
   <v type="logical" >  F  F  F </v>
   <v type="logical" >  F  F  F </v>
   <v type="logical" >  T  T  T </v>
   <v type="logical" >  F  F  F </v>
   <v type="logical" >  T  T  T </v>
   <v type="logical" >  T  T  T </v>
   <v type="logical" >  T  T  T </v>
   <v type="logical" >  T  T  T </v>
   <v type="logical" >  F  F  F </v>
   <v type="logical" >  T  T  T </v>
   <v type="logical" >  T  T  T </v>
   <v type="logical" >  T  T  T </v>
   <v type="logical" >  F  F  F </v>
   <v type="logical" >  T  T  T </v>
   <v type="logical" >  T  T  T </v>
   <v type="logical" >  T  T  T </v>
   <v type="logical" >  T  T  T </v>
   <v type="logical" >  T  T  T </v>
   <v type="logical" >  T  T  T </v>
   <v type="logical" >  T  T  T </v>
   <v type="logical" >  T  T  T </v>
   <v type="logical" >  T  T  T </v>
   <v type="logical" >  T  T  T </v>
   <v type="logical" >  T  T  T </v>
   <v type="logical" >  T  T  T </v>
   <v type="logical" >  F  F  F </v>
   <v type="logical" >  T  T  T </v>
   <v type="logical" >  F  F  F </v>
   <v type="logical" >  T  T  T </v>
   <v type="logical" >  T  T  T </v>
   <v type="logical" >  T  T  T </v>
   <v type="logical" >  T  T  T </v>
   <v type="logical" >  T  T  T </v>
   <v type="logical" >  F  F  F </v>
   <v type="logical" >  T  T  T </v>
   <v type="logical" >  T  T  T </v>
   <v type="logical" >  F  F  F </v>
   <v type="logical" >  F  F  F </v>
   <v type="logical" >  F  F  F </v>
   <v type="logical" >  T  T  T </v>
   <v type="logical" >  T  T  T </v>
   <v type="logical" >  T  T  T </v>
   <v type="logical" >  T  T  T </v>
   <v type="logical" >  T  T  T </v>
   <v type="logical" >  T  T  T </v>
   <v type="logical" >  T  T  T </v>
   <v type="logical" >  T  T  T </v>
   <v type="logical" >  F  F  F </v>
  </varray>
  <nose>
   <v>      -3.00000000       0.00000000       0.00010000       0.00010000 </v>
  </nose>
 </structure>
</modeling>
