unknown system                          
           1
    11.002582    0.000000    0.000000
     5.501291    9.528515    0.000000
     0.000000    0.000000   26.191785
   Au   O    Pd
  24   8  24
Direct configuration=     1
   0.33333333  0.83333333  0.38179910
   0.91278089  0.91906345  0.47410862
   0.08333333  0.58333333  0.38179910
   0.66017132  0.91946375  0.47522502
   0.08333333  0.33333333  0.38179910
   0.91418321  0.41826910  0.48092401
   0.83333333  0.83333333  0.38179910
   0.99282137  0.24382654  0.57245613
   0.83333333  0.58333333  0.38179910
   0.33333333  0.08333333  0.38179910
   0.23988942  0.99894151  0.56559231
   0.33333333  0.58333333  0.38179910
   0.16355251  0.41873529  0.47641091
   0.66042144  0.66953423  0.47509860
   0.16457106  0.91914006  0.47364230
   0.41091532  0.16937507  0.48039890
   0.58333333  0.58333333  0.38179910
   0.66135528  0.17008395  0.47270116
   0.76418973  0.98869025  0.57577470
   0.74930523  0.49719692  0.57097073
   0.83333333  0.33333333  0.38179910
   0.65864773  0.41929334  0.47724138
   0.74929109  0.24790333  0.57025066
   0.25863647  0.50180190  0.56152443
   0.59003159  0.81745737  0.61032378
   0.07140749  0.34626142  0.61918317
   0.57952068  0.09281822  0.61667593
   0.57071418  0.34096279  0.62015744
   0.26837085  0.71360170  0.64040902
   0.07181231  0.60782997  0.61338241
   0.57216405  0.58871253  0.62005135
   0.32019641  0.08940272  0.61794769
   0.99924368  0.75548051  0.56176928
   0.33333333  0.33333333  0.38179910
   0.24660946  0.26158355  0.57662304
   0.08333333  0.83333333  0.38179910
   0.16440839  0.66987542  0.47248464
   0.98995760  0.51300904  0.57305416
   0.91362391  0.66755500  0.47618243
   0.24170768  0.75651656  0.56887644
   0.75250969  0.74876664  0.56460845
   0.58333333  0.08333333  0.38179910
   0.49471371  0.00016630  0.57384743
   0.41381339  0.41883733  0.47442616
   0.58333333  0.33333333  0.38179910
   0.83333333  0.08333333  0.38179910
   0.58333333  0.83333333  0.38179910
   0.91204136  0.17063614  0.47553209
   0.99666508  0.99986028  0.56248173
   0.48927920  0.74508099  0.56701426
   0.41415206  0.91605158  0.47671306
   0.16312858  0.16884299  0.47454735
   0.41184300  0.66686777  0.47995024
   0.42843741  0.53474907  0.62968745
   0.49191366  0.25949565  0.56997636
   0.08333333  0.08333333  0.38179910
Direct configuration=     2
   0.33333333  0.83333333  0.38179910
   0.91282920  0.91900158  0.47412785
   0.08333333  0.58333333  0.38179910
   0.66013452  0.91953261  0.47521347
   0.08333333  0.33333333  0.38179910
   0.91414419  0.41826444  0.48095728
   0.83333333  0.83333333  0.38179910
   0.99275568  0.24389934  0.57248184
   0.83333333  0.58333333  0.38179910
   0.33333333  0.08333333  0.38179910
   0.24000249  0.99898867  0.56560210
   0.33333333  0.58333333  0.38179910
   0.16357283  0.41876023  0.47637745
   0.66047905  0.66947348  0.47511745
   0.16460128  0.91908228  0.47365087
   0.41089941  0.16939455  0.48043256
   0.58333333  0.58333333  0.38179910
   0.66140098  0.17004454  0.47270657
   0.76408925  0.98879909  0.57571438
   0.74940881  0.49713027  0.57097190
   0.83333333  0.33333333  0.38179910
   0.65859356  0.41937267  0.47724354
   0.74930509  0.24790340  0.57025269
   0.25871602  0.50172932  0.56157418
   0.59004598  0.81737813  0.61035658
   0.07137018  0.34633830  0.61919007
   0.57955005  0.09288719  0.61668633
   0.57066827  0.34102606  0.62024301
   0.26828158  0.71361101  0.64040363
   0.07190117  0.60772807  0.61342350
   0.57211293  0.58876676  0.62008212
   0.32021210  0.08948326  0.61791587
   0.99923967  0.75565491  0.56174761
   0.33333333  0.33333333  0.38179910
   0.24668855  0.26148676  0.57661210
   0.08333333  0.83333333  0.38179910
   0.16444295  0.66977869  0.47248626
   0.98992386  0.51290194  0.57305649
   0.91365008  0.66755050  0.47617184
   0.24168451  0.75650947  0.56887852
   0.75250832  0.74879871  0.56457074
   0.58333333  0.08333333  0.38179910
   0.49467953  0.00027496  0.57388335
   0.41381491  0.41887725  0.47443369
   0.58333333  0.33333333  0.38179910
   0.83333333  0.08333333  0.38179910
   0.58333333  0.83333333  0.38179910
   0.91203692  0.17065562  0.47553389
   0.99669561  0.99983513  0.56249116
   0.48918371  0.74520763  0.56697819
   0.41417334  0.91604842  0.47673267
   0.16311773  0.16887943  0.47456133
   0.41178161  0.66692209  0.47996244
   0.42859626  0.53454415  0.62967971
   0.49197986  0.25938161  0.56999704
   0.08333333  0.08333333  0.38179910
Direct configuration=     3
   0.33333333  0.83333333  0.38179910
   0.91286810  0.91895174  0.47414335
   0.08333333  0.58333333  0.38179910
   0.66010488  0.91958808  0.47520417
   0.08333333  0.33333333  0.38179910
   0.91411275  0.41826070  0.48098408
   0.83333333  0.83333333  0.38179910
   0.99270276  0.24395797  0.57250254
   0.83333333  0.58333333  0.38179910
   0.33333333  0.08333333  0.38179910
   0.24009357  0.99902667  0.56560999
   0.33333333  0.58333333  0.38179910
   0.16358919  0.41878033  0.47635050
   0.66052546  0.66942454  0.47513264
   0.16462563  0.91903573  0.47365778
   0.41088659  0.16941024  0.48045967
   0.58333333  0.58333333  0.38179910
   0.66143779  0.17001279  0.47271093
   0.76400831  0.98888677  0.57566579
   0.74949224  0.49707659  0.57097283
   0.83333333  0.33333333  0.38179910
   0.65854992  0.41943657  0.47724528
   0.74931637  0.24790346  0.57025433
   0.25878009  0.50167085  0.56161426
   0.59005758  0.81731430  0.61038299
   0.07134012  0.34640023  0.61919562
   0.57957371  0.09294275  0.61669470
   0.57063129  0.34107703  0.62031193
   0.26820968  0.71361851  0.64039929
   0.07197274  0.60764598  0.61345660
   0.57207175  0.58881043  0.62010690
   0.32022474  0.08954815  0.61789023
   0.99923645  0.75579540  0.56173014
   0.33333333  0.33333333  0.38179910
   0.24675225  0.26140879  0.57660329
   0.08333333  0.83333333  0.38179910
   0.16447079  0.66970077  0.47248757
   0.98989667  0.51281567  0.57305836
   0.91367116  0.66754689  0.47616331
   0.24166584  0.75650376  0.56888020
   0.75250722  0.74882455  0.56454037
   0.58333333  0.08333333  0.38179910
   0.49465199  0.00036249  0.57391228
   0.41381613  0.41890941  0.47443975
   0.58333333  0.33333333  0.38179910
   0.83333333  0.08333333  0.38179910
   0.58333333  0.83333333  0.38179910
   0.91203335  0.17067131  0.47553533
   0.99672020  0.99981487  0.56249875
   0.48910680  0.74530964  0.56694913
   0.41419047  0.91604588  0.47674847
   0.16310900  0.16890878  0.47457258
   0.41173216  0.66696585  0.47997226
   0.42872422  0.53437908  0.62967347
   0.49203319  0.25928976  0.57001370
   0.08333333  0.08333333  0.38179910
Direct configuration=     4
   0.33333333  0.83333333  0.38179910
   0.91293214  0.91888516  0.47415923
   0.08333333  0.58333333  0.38179910
   0.66005966  0.91965536  0.47518421
   0.08333333  0.33333333  0.38179910
   0.91409516  0.41824449  0.48102287
   0.83333333  0.83333333  0.38179910
   0.99267840  0.24396941  0.57254573
   0.83333333  0.58333333  0.38179910
   0.33333333  0.08333333  0.38179910
   0.24014081  0.99907180  0.56560395
   0.33333333  0.58333333  0.38179910
   0.16361075  0.41881218  0.47631445
   0.66057709  0.66938857  0.47515636
   0.16464856  0.91899429  0.47367170
   0.41086133  0.16945080  0.48050248
   0.58333333  0.58333333  0.38179910
   0.66148295  0.17000441  0.47271588
   0.76389106  0.98902611  0.57556433
   0.74948401  0.49709296  0.57100210
   0.83333333  0.33333333  0.38179910
   0.65848092  0.41951271  0.47725222
   0.74928929  0.24792134  0.57026245
   0.25882111  0.50158741  0.56168257
   0.59007687  0.81723956  0.61039303
   0.07135012  0.34644941  0.61921303
   0.57963805  0.09300408  0.61673488
   0.57072533  0.34093919  0.62041701
   0.26824284  0.71345354  0.64037196
   0.07202966  0.60756856  0.61344324
   0.57201167  0.58892103  0.62012000
   0.32026079  0.08963428  0.61789320
   0.99929425  0.75580700  0.56175576
   0.33333333  0.33333333  0.38179910
   0.24675236  0.26142913  0.57657797
   0.08333333  0.83333333  0.38179910
   0.16452345  0.66956856  0.47249409
   0.98990024  0.51282411  0.57305924
   0.91370208  0.66754025  0.47615470
   0.24166605  0.75649279  0.56889650
   0.75247668  0.74887540  0.56450092
   0.58333333  0.08333333  0.38179910
   0.49473400  0.00036458  0.57397206
   0.41383160  0.41893960  0.47445607
   0.58333333  0.33333333  0.38179910
   0.83333333  0.08333333  0.38179910
   0.58333333  0.83333333  0.38179910
   0.91203368  0.17068049  0.47553866
   0.99679325  0.99984083  0.56251713
   0.48906920  0.74539070  0.56693075
   0.41422206  0.91604259  0.47676804
   0.16309317  0.16894629  0.47458990
   0.41167317  0.66703617  0.47998848
   0.42866320  0.53445160  0.62968198
   0.49213160  0.25923649  0.57004695
   0.08333333  0.08333333  0.38179910
Direct configuration=     5
   0.33333333  0.83333333  0.38179910
   0.91307142  0.91874036  0.47419377
   0.08333333  0.58333333  0.38179910
   0.65996132  0.91980168  0.47514080
   0.08333333  0.33333333  0.38179910
   0.91405690  0.41820924  0.48110722
   0.83333333  0.83333333  0.38179910
   0.99262541  0.24399428  0.57263965
   0.83333333  0.58333333  0.38179910
   0.33333333  0.08333333  0.38179910
   0.24024354  0.99916994  0.56559081
   0.33333333  0.58333333  0.38179910
   0.16365766  0.41888145  0.47623606
   0.66068938  0.66931033  0.47520796
   0.16469840  0.91890417  0.47370198
   0.41080638  0.16953899  0.48059559
   0.58333333  0.58333333  0.38179910
   0.66158118  0.16998619  0.47272664
   0.76363607  0.98932914  0.57534368
   0.74946611  0.49712857  0.57106575
   0.83333333  0.33333333  0.38179910
   0.65833086  0.41967829  0.47726731
   0.74923040  0.24796023  0.57028010
   0.25891032  0.50140596  0.56183114
   0.59011884  0.81707700  0.61041487
   0.07137185  0.34655637  0.61925088
   0.57977798  0.09313745  0.61682225
   0.57092984  0.34063941  0.62064553
   0.26831497  0.71309477  0.64031252
   0.07215344  0.60740020  0.61341420
   0.57188101  0.58916155  0.62014849
   0.32033920  0.08982161  0.61789965
   0.99941997  0.75583223  0.56181146
   0.33333333  0.33333333  0.38179910
   0.24675260  0.26147335  0.57652289
   0.08333333  0.83333333  0.38179910
   0.16463797  0.66928106  0.47250827
   0.98990799  0.51284248  0.57306117
   0.91376931  0.66752583  0.47613599
   0.24166652  0.75646892  0.56893195
   0.75241025  0.74898599  0.56441514
   0.58333333  0.08333333  0.38179910
   0.49491235  0.00036912  0.57410207
   0.41386525  0.41900525  0.47449156
   0.58333333  0.33333333  0.38179910
   0.83333333  0.08333333  0.38179910
   0.58333333  0.83333333  0.38179910
   0.91203439  0.17070045  0.47554590
   0.99695211  0.99989727  0.56255709
   0.48898745  0.74556701  0.56689076
   0.41429077  0.91603544  0.47681061
   0.16305875  0.16902787  0.47462757
   0.41154488  0.66718911  0.48002374
   0.42853047  0.53460931  0.62970049
   0.49234561  0.25912066  0.57011924
   0.08333333  0.08333333  0.38179910
Direct configuration=     6
   0.33333333  0.83333333  0.38179910
   0.91312413  0.91869653  0.47420617
   0.08333333  0.58333333  0.38179910
   0.65994346  0.91982719  0.47511740
   0.08333333  0.33333333  0.38179910
   0.91407049  0.41820008  0.48113826
   0.83333333  0.83333333  0.38179910
   0.99262414  0.24399304  0.57268699
   0.83333333  0.58333333  0.38179910
   0.33333333  0.08333333  0.38179910
   0.24024956  0.99920543  0.56558150
   0.33333333  0.58333333  0.38179910
   0.16366888  0.41889199  0.47621656
   0.66070628  0.66931688  0.47522125
   0.16469802  0.91889524  0.47371316
   0.41079782  0.16957780  0.48063217
   0.58333333  0.58333333  0.38179910
   0.66159803  0.17001117  0.47272660
   0.76360906  0.98940101  0.57522982
   0.74939622  0.49718196  0.57110835
   0.83333333  0.33333333  0.38179910
   0.65829172  0.41971374  0.47727740
   0.74919498  0.24800970  0.57029234
   0.25895446  0.50132562  0.56186711
   0.59015938  0.81703085  0.61040988
   0.07141513  0.34657008  0.61926240
   0.57986012  0.09314339  0.61687411
   0.57097316  0.34058908  0.62073363
   0.26825725  0.71303337  0.64031826
   0.07218994  0.60735727  0.61339579
   0.57181378  0.58926235  0.62014855
   0.32037193  0.08989176  0.61792069
   0.99943363  0.75581456  0.56184658
   0.33333333  0.33333333  0.38179910
   0.24670641  0.26153864  0.57650227
   0.08333333  0.83333333  0.38179910
   0.16468274  0.66919648  0.47252200
   0.98989793  0.51290236  0.57305392
   0.91378685  0.66751930  0.47613510
   0.24166451  0.75650206  0.56891832
   0.75237635  0.74903098  0.56439089
   0.58333333  0.08333333  0.38179910
   0.49502466  0.00033370  0.57416579
   0.41388371  0.41900867  0.47451648
   0.58333333  0.33333333  0.38179910
   0.83333333  0.08333333  0.38179910
   0.58333333  0.83333333  0.38179910
   0.91203576  0.17069959  0.47555154
   0.99699771  0.99993945  0.56257399
   0.48900543  0.74557720  0.56689115
   0.41431060  0.91604353  0.47682117
   0.16304783  0.16904551  0.47464013
   0.41151540  0.66723974  0.48003529
   0.42866688  0.53446885  0.62971565
   0.49241380  0.25915826  0.57016144
   0.08333333  0.08333333  0.38179910
Direct configuration=     7
   0.33333333  0.83333333  0.38179910
   0.91327528  0.91857082  0.47424172
   0.08333333  0.58333333  0.38179910
   0.65989221  0.91990033  0.47505028
   0.08333333  0.33333333  0.38179910
   0.91410948  0.41817381  0.48122727
   0.83333333  0.83333333  0.38179910
   0.99262050  0.24398951  0.57282276
   0.83333333  0.58333333  0.38179910
   0.33333333  0.08333333  0.38179910
   0.24026680  0.99930723  0.56555480
   0.33333333  0.58333333  0.38179910
   0.16370109  0.41892222  0.47616065
   0.66075473  0.66933567  0.47525935
   0.16469690  0.91886964  0.47374523
   0.41077326  0.16968911  0.48073707
   0.58333333  0.58333333  0.38179910
   0.66164636  0.17008279  0.47272647
   0.76353158  0.98960715  0.57490326
   0.74919577  0.49733506  0.57123053
   0.83333333  0.33333333  0.38179910
   0.65817948  0.41981541  0.47730632
   0.74909341  0.24815160  0.57032743
   0.25908107  0.50109519  0.56197029
   0.59027568  0.81689848  0.61039555
   0.07153925  0.34660942  0.61929545
   0.58009572  0.09316040  0.61702284
   0.57109742  0.34044475  0.62098631
   0.26809167  0.71285727  0.64033469
   0.07229462  0.60723414  0.61334298
   0.57162094  0.58955147  0.62014874
   0.32046580  0.09009297  0.61798103
   0.99947281  0.75576391  0.56194731
   0.33333333  0.33333333  0.38179910
   0.24657393  0.26172591  0.57644314
   0.08333333  0.83333333  0.38179910
   0.16481118  0.66895392  0.47256138
   0.98986908  0.51307414  0.57303314
   0.91383717  0.66750057  0.47613254
   0.24165876  0.75659709  0.56887923
   0.75227911  0.74916003  0.56432133
   0.58333333  0.08333333  0.38179910
   0.49534678  0.00023213  0.57434856
   0.41393665  0.41901847  0.47458797
   0.58333333  0.33333333  0.38179910
   0.83333333  0.08333333  0.38179910
   0.58333333  0.83333333  0.38179910
   0.91203967  0.17069713  0.47556772
   0.99712852  0.00006043  0.56262248
   0.48905701  0.74560642  0.56689227
   0.41436747  0.91606674  0.47685145
   0.16301650  0.16909610  0.47467616
   0.41143084  0.66738493  0.48006841
   0.42905810  0.53406599  0.62975913
   0.49260939  0.25926611  0.57028247
   0.08333333  0.08333333  0.38179910
Direct configuration=     8
   0.33333333  0.83333333  0.38179910
   0.91331361  0.91855932  0.47425231
   0.08333333  0.58333333  0.38179910
   0.65991152  0.91989481  0.47500927
   0.08333333  0.33333333  0.38179910
   0.91413425  0.41818178  0.48127128
   0.83333333  0.83333333  0.38179910
   0.99258601  0.24404824  0.57289808
   0.83333333  0.58333333  0.38179910
   0.33333333  0.08333333  0.38179910
   0.24031386  0.99936952  0.56555789
   0.33333333  0.58333333  0.38179910
   0.16370356  0.41889909  0.47616022
   0.66073715  0.66937497  0.47525507
   0.16466852  0.91890290  0.47374587
   0.41079955  0.16972000  0.48078807
   0.58333333  0.58333333  0.38179910
   0.66163840  0.17012992  0.47271848
   0.76351566  0.98966321  0.57473600
   0.74915683  0.49736860  0.57128533
   0.83333333  0.33333333  0.38179910
   0.65820092  0.41981887  0.47732506
   0.74909405  0.24825326  0.57034730
   0.25914190  0.50108070  0.56196301
   0.59038439  0.81685496  0.61040524
   0.07159231  0.34664184  0.61929157
   0.58029504  0.09307097  0.61707719
   0.57123697  0.34036716  0.62109104
   0.26808864  0.71271596  0.64031810
   0.07236348  0.60718803  0.61335616
   0.57152646  0.58963551  0.62016320
   0.32048459  0.09019000  0.61799791
   0.99942412  0.75580565  0.56197944
   0.33333333  0.33333333  0.38179910
   0.24657082  0.26173641  0.57643324
   0.08333333  0.83333333  0.38179910
   0.16483821  0.66895993  0.47259162
   0.98980212  0.51312066  0.57301126
   0.91383098  0.66749756  0.47614317
   0.24171635  0.75657169  0.56888746
   0.75228815  0.74918136  0.56429786
   0.58333333  0.08333333  0.38179910
   0.49542040  0.00026789  0.57444112
   0.41396684  0.41898880  0.47463227
   0.58333333  0.33333333  0.38179910
   0.83333333  0.08333333  0.38179910
   0.58333333  0.83333333  0.38179910
   0.91203629  0.17070093  0.47558153
   0.99712567  0.00010151  0.56264701
   0.48904596  0.74561464  0.56689318
   0.41436693  0.91611213  0.47685421
   0.16302006  0.16908121  0.47468160
   0.41145481  0.66740057  0.48007286
   0.42907357  0.53402564  0.62980997
   0.49266308  0.25932685  0.57036483
   0.08333333  0.08333333  0.38179910
Direct configuration=     9
   0.33333333  0.83333333  0.38179910
   0.91342861  0.91852481  0.47428406
   0.08333333  0.58333333  0.38179910
   0.65996946  0.91987826  0.47488625
   0.08333333  0.33333333  0.38179910
   0.91420856  0.41820568  0.48140330
   0.83333333  0.83333333  0.38179910
   0.99248254  0.24422442  0.57312405
   0.83333333  0.58333333  0.38179910
   0.33333333  0.08333333  0.38179910
   0.24045504  0.99955637  0.56556714
   0.33333333  0.58333333  0.38179910
   0.16371097  0.41882968  0.47615895
   0.66068443  0.66949289  0.47524222
   0.16458336  0.91900268  0.47374778
   0.41087840  0.16981265  0.48094105
   0.58333333  0.58333333  0.38179910
   0.66161450  0.17027128  0.47269451
   0.76346789  0.98983140  0.57423423
   0.74904001  0.49746922  0.57144972
   0.83333333  0.33333333  0.38179910
   0.65826522  0.41982925  0.47738128
   0.74909596  0.24855826  0.57040691
   0.25932438  0.50103722  0.56194114
   0.59071051  0.81672443  0.61043429
   0.07175148  0.34673908  0.61927994
   0.58089299  0.09280267  0.61724024
   0.57165561  0.34013439  0.62140524
   0.26807957  0.71229202  0.64026830
   0.07257008  0.60704971  0.61339568
   0.57124301  0.58988764  0.62020658
   0.32054094  0.09048109  0.61804857
   0.99927806  0.75593089  0.56207583
   0.33333333  0.33333333  0.38179910
   0.24656151  0.26176792  0.57640353
   0.08333333  0.83333333  0.38179910
   0.16491930  0.66897795  0.47268234
   0.98960125  0.51326022  0.57294562
   0.91381241  0.66748852  0.47617505
   0.24188911  0.75649551  0.56891217
   0.75231529  0.74924536  0.56422745
   0.58333333  0.08333333  0.38179910
   0.49564127  0.00037516  0.57471881
   0.41405743  0.41889981  0.47476518
   0.58333333  0.33333333  0.38179910
   0.83333333  0.08333333  0.38179910
   0.58333333  0.83333333  0.38179910
   0.91202616  0.17071234  0.47562294
   0.99711712  0.00022475  0.56272062
   0.48901281  0.74563930  0.56689591
   0.41436529  0.91624832  0.47686247
   0.16303075  0.16903653  0.47469795
   0.41152674  0.66744747  0.48008620
   0.42912000  0.53390459  0.62996249
   0.49282413  0.25950907  0.57061191
   0.08333333  0.08333333  0.38179910
Direct configuration=    10
   0.33333333  0.83333333  0.38179910
   0.91347687  0.91851033  0.47429739
   0.08333333  0.58333333  0.38179910
   0.65999377  0.91987131  0.47483462
   0.08333333  0.33333333  0.38179910
   0.91423974  0.41821571  0.48145872
   0.83333333  0.83333333  0.38179910
   0.99243911  0.24429837  0.57321889
   0.83333333  0.58333333  0.38179910
   0.33333333  0.08333333  0.38179910
   0.24051429  0.99963479  0.56557103
   0.33333333  0.58333333  0.38179910
   0.16371408  0.41880055  0.47615842
   0.66066230  0.66954238  0.47523683
   0.16454762  0.91904456  0.47374858
   0.41091150  0.16985154  0.48100526
   0.58333333  0.58333333  0.38179910
   0.66160448  0.17033062  0.47268446
   0.76344784  0.98990199  0.57402364
   0.74899098  0.49751145  0.57151872
   0.83333333  0.33333333  0.38179910
   0.65829221  0.41983361  0.47740488
   0.74909676  0.24868627  0.57043192
   0.25940097  0.50101898  0.56193197
   0.59084739  0.81666964  0.61044648
   0.07181828  0.34677990  0.61927506
   0.58114395  0.09269006  0.61730867
   0.57183132  0.34003670  0.62153711
   0.26807576  0.71211410  0.64024741
   0.07265679  0.60699165  0.61341226
   0.57112405  0.58999346  0.62022478
   0.32056459  0.09060326  0.61806984
   0.99921675  0.75598345  0.56211628
   0.33333333  0.33333333  0.38179910
   0.24655761  0.26178114  0.57639107
   0.08333333  0.83333333  0.38179910
   0.16495333  0.66898551  0.47272042
   0.98951694  0.51331880  0.57291807
   0.91380461  0.66748472  0.47618844
   0.24196162  0.75646353  0.56892254
   0.75232669  0.74927222  0.56419789
   0.58333333  0.08333333  0.38179910
   0.49573397  0.00042018  0.57483536
   0.41409545  0.41886246  0.47482096
   0.58333333  0.33333333  0.38179910
   0.83333333  0.08333333  0.38179910
   0.58333333  0.83333333  0.38179910
   0.91202190  0.17071712  0.47564032
   0.99711353  0.00027647  0.56275151
   0.48899889  0.74564965  0.56689706
   0.41436460  0.91630548  0.47686594
   0.16303523  0.16901778  0.47470481
   0.41155693  0.66746716  0.48009180
   0.42913948  0.53385378  0.63002651
   0.49289172  0.25958555  0.57071561
   0.08333333  0.08333333  0.38179910
Direct configuration=    11
   0.33333333  0.83333333  0.38179910
   0.91348223  0.91852218  0.47429848
   0.08333333  0.58333333  0.38179910
   0.66000649  0.91988057  0.47479664
   0.08333333  0.33333333  0.38179910
   0.91423226  0.41822405  0.48149724
   0.83333333  0.83333333  0.38179910
   0.99240969  0.24432784  0.57329172
   0.83333333  0.58333333  0.38179910
   0.33333333  0.08333333  0.38179910
   0.24054723  0.99968220  0.56557571
   0.33333333  0.58333333  0.38179910
   0.16372191  0.41878256  0.47616675
   0.66064778  0.66955250  0.47522504
   0.16454417  0.91907546  0.47375154
   0.41095815  0.16984317  0.48105942
   0.58333333  0.58333333  0.38179910
   0.66160628  0.17034943  0.47267567
   0.76329933  0.99003835  0.57386597
   0.74898412  0.49755615  0.57156288
   0.83333333  0.33333333  0.38179910
   0.65834452  0.41984437  0.47742341
   0.74910261  0.24875414  0.57045248
   0.25939375  0.50108192  0.56191612
   0.59095906  0.81661787  0.61046519
   0.07184117  0.34685722  0.61927062
   0.58139960  0.09258755  0.61733009
   0.57195981  0.34001752  0.62163169
   0.26803589  0.71203860  0.64024618
   0.07271163  0.60694326  0.61341288
   0.57103677  0.59004534  0.62025196
   0.32056630  0.09067487  0.61809894
   0.99924096  0.75597342  0.56214935
   0.33333333  0.33333333  0.38179910
   0.24662136  0.26178966  0.57637485
   0.08333333  0.83333333  0.38179910
   0.16495663  0.66903730  0.47274730
   0.98952818  0.51333183  0.57291416
   0.91381249  0.66748107  0.47619789
   0.24199154  0.75647093  0.56892113
   0.75232482  0.74927902  0.56417570
   0.58333333  0.08333333  0.38179910
   0.49576933  0.00047832  0.57491237
   0.41412388  0.41884799  0.47485046
   0.58333333  0.33333333  0.38179910
   0.83333333  0.08333333  0.38179910
   0.58333333  0.83333333  0.38179910
   0.91201533  0.17074397  0.47565760
   0.99715549  0.00030422  0.56277763
   0.48898924  0.74569811  0.56689939
   0.41434938  0.91635718  0.47686859
   0.16304838  0.16900488  0.47470470
   0.41158652  0.66746146  0.48008505
   0.42918597  0.53373999  0.63008142
   0.49296387  0.25956511  0.57082529
   0.08333333  0.08333333  0.38179910
Direct configuration=    12
   0.33333333  0.83333333  0.38179910
   0.91349829  0.91855774  0.47430176
   0.08333333  0.58333333  0.38179910
   0.66004464  0.91990837  0.47468267
   0.08333333  0.33333333  0.38179910
   0.91420982  0.41824904  0.48161280
   0.83333333  0.83333333  0.38179910
   0.99232143  0.24441623  0.57351021
   0.83333333  0.58333333  0.38179910
   0.33333333  0.08333333  0.38179910
   0.24064603  0.99982440  0.56558976
   0.33333333  0.58333333  0.38179910
   0.16374542  0.41872858  0.47619175
   0.66060421  0.66958288  0.47518968
   0.16453381  0.91916816  0.47376041
   0.41109808  0.16981805  0.48122189
   0.58333333  0.58333333  0.38179910
   0.66161169  0.17040587  0.47264931
   0.76285380  0.99044742  0.57339299
   0.74896353  0.49769026  0.57169537
   0.83333333  0.33333333  0.38179910
   0.65850145  0.41987664  0.47747899
   0.74912015  0.24895778  0.57051414
   0.25937207  0.50127076  0.56186859
   0.59129407  0.81646258  0.61052131
   0.07190984  0.34708917  0.61925729
   0.58216652  0.09228003  0.61739437
   0.57234529  0.33995998  0.62191543
   0.26791626  0.71181209  0.64024250
   0.07287614  0.60679810  0.61341474
   0.57077493  0.59020099  0.62033350
   0.32057144  0.09088971  0.61818627
   0.99931360  0.75594333  0.56224856
   0.33333333  0.33333333  0.38179910
   0.24681260  0.26181522  0.57632619
   0.08333333  0.83333333  0.38179910
   0.16496651  0.66919265  0.47282796
   0.98956192  0.51337091  0.57290241
   0.91383612  0.66747010  0.47622627
   0.24208130  0.75649314  0.56891689
   0.75231921  0.74929941  0.56410913
   0.58333333  0.08333333  0.38179910
   0.49587539  0.00065275  0.57514340
   0.41420917  0.41880460  0.47493897
   0.58333333  0.33333333  0.38179910
   0.83333333  0.08333333  0.38179910
   0.58333333  0.83333333  0.38179910
   0.91199560  0.17082451  0.47570944
   0.99728138  0.00038749  0.56285596
   0.48896028  0.74584350  0.56690637
   0.41430372  0.91651228  0.47687654
   0.16308784  0.16896616  0.47470437
   0.41167528  0.66744436  0.48006481
   0.42932544  0.53339863  0.63024617
   0.49318031  0.25950379  0.57115433
   0.08333333  0.08333333  0.38179910
Direct configuration=    13
   0.33333333  0.83333333  0.38179910
   0.91353043  0.91862886  0.47430832
   0.08333333  0.58333333  0.38179910
   0.66012095  0.91996397  0.47445475
   0.08333333  0.33333333  0.38179910
   0.91416494  0.41829902  0.48184393
   0.83333333  0.83333333  0.38179910
   0.99214491  0.24459302  0.57394718
   0.83333333  0.58333333  0.38179910
   0.33333333  0.08333333  0.38179910
   0.24084362  0.00010881  0.56561785
   0.33333333  0.58333333  0.38179910
   0.16379244  0.41862062  0.47624176
   0.66051707  0.66964363  0.47511895
   0.16451309  0.91935354  0.47377815
   0.41137795  0.16976782  0.48154685
   0.58333333  0.58333333  0.38179910
   0.66162250  0.17051876  0.47259658
   0.76196275  0.99126557  0.57244701
   0.74892236  0.49795848  0.57196035
   0.83333333  0.33333333  0.38179910
   0.65881532  0.41994119  0.47759016
   0.74915524  0.24936505  0.57063745
   0.25932873  0.50164843  0.56177353
   0.59196408  0.81615198  0.61063357
   0.07204719  0.34755309  0.61923063
   0.58370037  0.09166497  0.61752292
   0.57311625  0.33984489  0.62248291
   0.26767700  0.71135909  0.64023515
   0.07320517  0.60650778  0.61341845
   0.57025125  0.59051229  0.62049657
   0.32058171  0.09131939  0.61836092
   0.99945887  0.75588315  0.56244697
   0.33333333  0.33333333  0.38179910
   0.24719510  0.26186635  0.57622887
   0.08333333  0.83333333  0.38179910
   0.16498627  0.66950336  0.47298927
   0.98962939  0.51344906  0.57287891
   0.91388339  0.66744817  0.47628303
   0.24226083  0.75653756  0.56890841
   0.75230800  0.74934019  0.56397599
   0.58333333  0.08333333  0.38179910
   0.49608750  0.00100161  0.57560546
   0.41437975  0.41871781  0.47511599
   0.58333333  0.33333333  0.38179910
   0.83333333  0.08333333  0.38179910
   0.58333333  0.83333333  0.38179910
   0.91195616  0.17098559  0.47581313
   0.99753315  0.00055401  0.56301263
   0.48890236  0.74613427  0.56692035
   0.41421239  0.91682248  0.47689245
   0.16316676  0.16888872  0.47470372
   0.41185281  0.66741017  0.48002432
   0.42960438  0.53271589  0.63057567
   0.49361321  0.25938116  0.57181243
   0.08333333  0.08333333  0.38179910
Direct configuration=    14
   0.33333333  0.83333333  0.38179910
   0.91351277  0.91858978  0.47430472
   0.08333333  0.58333333  0.38179910
   0.66007902  0.91993342  0.47457998
   0.08333333  0.33333333  0.38179910
   0.91418960  0.41827156  0.48171694
   0.83333333  0.83333333  0.38179910
   0.99224190  0.24449589  0.57370710
   0.83333333  0.58333333  0.38179910
   0.33333333  0.08333333  0.38179910
   0.24073506 -0.00004745  0.56560241
   0.33333333  0.58333333  0.38179910
   0.16376661  0.41867994  0.47621429
   0.66056495  0.66961025  0.47515781
   0.16452447  0.91925169  0.47376840
   0.41122418  0.16979542  0.48136831
   0.58333333  0.58333333  0.38179910
   0.66161656  0.17045674  0.47262555
   0.76245231  0.99081606  0.57296675
   0.74894498  0.49781111  0.57181476
   0.83333333  0.33333333  0.38179910
   0.65864288  0.41990573  0.47752908
   0.74913596  0.24914128  0.57056970
   0.25935254  0.50144093  0.56182576
   0.59159596  0.81632263  0.61057189
   0.07197173  0.34729820  0.61924527
   0.58285764  0.09200290  0.61745229
   0.57269267  0.33990812  0.62217112
   0.26780845  0.71160798  0.64023919
   0.07302439  0.60666729  0.61341641
   0.57053897  0.59034126  0.62040697
   0.32057607  0.09108332  0.61826496
   0.99937906  0.75591621  0.56233796
   0.33333333  0.33333333  0.38179910
   0.24698495  0.26183826  0.57628234
   0.08333333  0.83333333  0.38179910
   0.16497541  0.66933265  0.47290064
   0.98959232  0.51340612  0.57289182
   0.91385742  0.66746022  0.47625185
   0.24216219  0.75651316  0.56891307
   0.75231416  0.74931778  0.56404914
   0.58333333  0.08333333  0.38179910
   0.49597096  0.00080994  0.57535160
   0.41428603  0.41876550  0.47501873
   0.58333333  0.33333333  0.38179910