  48  48   0   0
  0.5349325E+02  0.1100258E-08  0.1100258E-08  0.2449179E-08  0.3500000E-15
  1.000000000000000E-004
  CAR 
 unknown system                          
      6.34431017     -9.75172536  301     -1.08952430      1.00000000
     -9.752  0.0000E+00  0.0000E+00
     -9.698  0.0000E+00  0.0000E+00
     -9.644  0.0000E+00  0.0000E+00
     -9.591  0.0000E+00  0.0000E+00
     -9.537  0.0000E+00  0.0000E+00
     -9.483  0.0000E+00  0.0000E+00
     -9.430  0.0000E+00  0.0000E+00
     -9.376  0.0000E+00  0.0000E+00
     -9.322  0.6208E-17  0.3331E-18
     -9.269  0.2358E-14  0.1269E-15
     -9.215  0.5284E-12  0.2848E-13
     -9.162  0.6757E-10  0.3654E-11
     -9.108  0.4941E-08  0.2688E-09
     -9.054  0.2071E-06  0.1138E-07
     -9.001  0.4986E-05  0.2789E-06
     -8.947  0.6911E-04  0.3987E-05
     -8.893  0.5529E-03  0.3365E-04
     -8.840  0.2559E-02  0.1710E-03
     -8.786  0.6877E-02  0.5400E-03
     -8.732  0.1084E-01  0.1122E-02
     -8.679  0.1064E-01  0.1693E-02
     -8.625  0.8707E-02  0.2160E-02
     -8.571  0.9504E-02  0.2670E-02
     -8.518  0.1076E-01  0.3247E-02
     -8.464  0.8432E-02  0.3699E-02
     -8.410  0.4149E-02  0.3922E-02
     -8.357  0.1460E-02  0.4000E-02
     -8.303  0.1248E-02  0.4067E-02
     -8.249  0.2872E-02  0.4221E-02
     -8.196  0.5346E-02  0.4508E-02
     -8.142  0.7737E-02  0.4923E-02
     -8.088  0.9185E-02  0.5416E-02
     -8.035  0.9308E-02  0.5916E-02
     -7.981  0.1054E-01  0.6481E-02
     -7.928  0.1471E-01  0.7270E-02
     -7.874  0.1836E-01  0.8255E-02
     -7.820  0.1792E-01  0.9216E-02
     -7.767  0.1553E-01  0.1005E-01
     -7.713  0.1458E-01  0.1083E-01
     -7.659  0.1425E-01  0.1160E-01
     -7.606  0.1437E-01  0.1237E-01
     -7.552  0.1669E-01  0.1326E-01
     -7.498  0.1933E-01  0.1430E-01
     -7.445  0.1985E-01  0.1537E-01
     -7.391  0.1966E-01  0.1642E-01
     -7.337  0.2106E-01  0.1755E-01
     -7.284  0.2392E-01  0.1883E-01
     -7.230  0.2614E-01  0.2024E-01
     -7.176  0.2694E-01  0.2168E-01
     -7.123  0.2949E-01  0.2326E-01
     -7.069  0.3569E-01  0.2518E-01
     -7.015  0.4266E-01  0.2747E-01
     -6.962  0.4898E-01  0.3010E-01
     -6.908  0.5651E-01  0.3313E-01
     -6.854  0.6538E-01  0.3664E-01
     -6.801  0.7335E-01  0.4057E-01
     -6.747  0.8050E-01  0.4489E-01
     -6.693  0.8998E-01  0.4972E-01
     -6.640  0.1017E+00  0.5518E-01
     -6.586  0.1084E+00  0.6099E-01
     -6.533  0.1070E+00  0.6673E-01
     -6.479  0.1033E+00  0.7227E-01
     -6.425  0.1005E+00  0.7767E-01
     -6.372  0.1026E+00  0.8317E-01
     -6.318  0.1162E+00  0.8940E-01
     -6.264  0.1385E+00  0.9684E-01
     -6.211  0.1592E+00  0.1054E+00
     -6.157  0.1712E+00  0.1146E+00
     -6.103  0.1730E+00  0.1238E+00
     -6.050  0.1665E+00  0.1328E+00
     -5.996  0.1569E+00  0.1412E+00
     -5.942  0.1508E+00  0.1493E+00
     -5.889  0.1497E+00  0.1573E+00
     -5.835  0.1481E+00  0.1653E+00
     -5.781  0.1408E+00  0.1728E+00
     -5.728  0.1313E+00  0.1799E+00
     -5.674  0.1282E+00  0.1867E+00
     -5.620  0.1300E+00  0.1937E+00
     -5.567  0.1297E+00  0.2007E+00
     -5.513  0.1284E+00  0.2076E+00
     -5.459  0.1316E+00  0.2146E+00
     -5.406  0.1392E+00  0.2221E+00
     -5.352  0.1464E+00  0.2300E+00
     -5.298  0.1523E+00  0.2381E+00
     -5.245  0.1607E+00  0.2467E+00
     -5.191  0.1721E+00  0.2560E+00
     -5.138  0.1809E+00  0.2657E+00
     -5.084  0.1825E+00  0.2755E+00
     -5.030  0.1790E+00  0.2851E+00
     -4.977  0.1752E+00  0.2945E+00
     -4.923  0.1715E+00  0.3037E+00
     -4.869  0.1670E+00  0.3126E+00
     -4.816  0.1639E+00  0.3214E+00
     -4.762  0.1661E+00  0.3304E+00
     -4.708  0.1741E+00  0.3397E+00
     -4.655  0.1821E+00  0.3495E+00
     -4.601  0.1856E+00  0.3594E+00
     -4.547  0.1836E+00  0.3693E+00
     -4.494  0.1760E+00  0.3787E+00
     -4.440  0.1659E+00  0.3876E+00
     -4.386  0.1587E+00  0.3961E+00
     -4.333  0.1588E+00  0.4047E+00
     -4.279  0.1671E+00  0.4136E+00
     -4.225  0.1790E+00  0.4232E+00
     -4.172  0.1876E+00  0.4333E+00
     -4.118  0.1889E+00  0.4434E+00
     -4.064  0.1860E+00  0.4534E+00
     -4.011  0.1847E+00  0.4633E+00
     -3.957  0.1854E+00  0.4733E+00
     -3.903  0.1867E+00  0.4833E+00
     -3.850  0.1889E+00  0.4934E+00
     -3.796  0.1924E+00  0.5037E+00
     -3.743  0.1956E+00  0.5142E+00
     -3.689  0.1961E+00  0.5247E+00
     -3.635  0.1973E+00  0.5353E+00
     -3.582  0.2036E+00  0.5463E+00
     -3.528  0.2112E+00  0.5576E+00
     -3.474  0.2144E+00  0.5691E+00
     -3.421  0.2141E+00  0.5806E+00
     -3.367  0.2129E+00  0.5920E+00
     -3.313  0.2105E+00  0.6033E+00
     -3.260  0.2040E+00  0.6142E+00
     -3.206  0.1939E+00  0.6246E+00
     -3.152  0.1857E+00  0.6346E+00
     -3.099  0.1809E+00  0.6443E+00
     -3.045  0.1763E+00  0.6538E+00
     -2.991  0.1713E+00  0.6630E+00
     -2.938  0.1700E+00  0.6721E+00
     -2.884  0.1756E+00  0.6815E+00
     -2.830  0.1854E+00  0.6915E+00
     -2.777  0.1955E+00  0.7019E+00
     -2.723  0.2016E+00  0.7128E+00
     -2.669  0.1990E+00  0.7234E+00
     -2.616  0.1893E+00  0.7336E+00
     -2.562  0.1798E+00  0.7432E+00
     -2.509  0.1747E+00  0.7526E+00
     -2.455  0.1735E+00  0.7619E+00
     -2.401  0.1740E+00  0.7713E+00
     -2.348  0.1740E+00  0.7806E+00
     -2.294  0.1740E+00  0.7899E+00
     -2.240  0.1781E+00  0.7995E+00
     -2.187  0.1858E+00  0.8095E+00
     -2.133  0.1898E+00  0.8196E+00
     -2.079  0.1881E+00  0.8297E+00
     -2.026  0.1864E+00  0.8397E+00
     -1.972  0.1907E+00  0.8500E+00
     -1.918  0.1991E+00  0.8606E+00
     -1.865  0.2055E+00  0.8717E+00
     -1.811  0.2070E+00  0.8828E+00
     -1.757  0.2019E+00  0.8936E+00
     -1.704  0.1911E+00  0.9039E+00
     -1.650  0.1796E+00  0.9135E+00
     -1.596  0.1726E+00  0.9228E+00
     -1.543  0.1740E+00  0.9321E+00
     -1.489  0.1821E+00  0.9419E+00
     -1.435  0.1881E+00  0.9520E+00
     -1.382  0.1885E+00  0.9621E+00
     -1.328  0.1857E+00  0.9720E+00
     -1.274  0.1788E+00  0.9816E+00
     -1.221  0.1663E+00  0.9906E+00
     -1.167  0.1489E+00  0.9985E+00
     -1.114  0.1272E+00  0.1005E+01
     -1.060  0.1021E+00  0.1011E+01
     -1.006  0.7393E-01  0.1015E+01
     -0.953  0.4662E-01  0.1017E+01
     -0.899  0.2814E-01  0.1019E+01
     -0.845  0.2115E-01  0.1020E+01
     -0.792  0.2080E-01  0.1021E+01
     -0.738  0.2190E-01  0.1022E+01
     -0.684  0.2267E-01  0.1023E+01
     -0.631  0.2570E-01  0.1025E+01
     -0.577  0.3276E-01  0.1027E+01
     -0.523  0.4012E-01  0.1029E+01
     -0.470  0.4232E-01  0.1031E+01
     -0.416  0.3736E-01  0.1033E+01
     -0.362  0.2902E-01  0.1035E+01
     -0.309  0.2537E-01  0.1036E+01
     -0.255  0.3125E-01  0.1038E+01
     -0.201  0.4166E-01  0.1040E+01
     -0.148  0.4607E-01  0.1042E+01
     -0.094  0.4071E-01  0.1045E+01
     -0.040  0.3089E-01  0.1046E+01
      0.013  0.2521E-01  0.1048E+01
      0.067  0.2711E-01  0.1049E+01
      0.121  0.3111E-01  0.1051E+01
      0.174  0.3232E-01  0.1052E+01
      0.228  0.3244E-01  0.1054E+01
      0.281  0.3392E-01  0.1056E+01
      0.335  0.3491E-01  0.1058E+01
      0.389  0.3467E-01  0.1060E+01
      0.442  0.3649E-01  0.1062E+01
      0.496  0.4041E-01  0.1064E+01
      0.550  0.4322E-01  0.1066E+01
      0.603  0.4416E-01  0.1068E+01
      0.657  0.4246E-01  0.1071E+01
      0.711  0.3787E-01  0.1073E+01
      0.764  0.3406E-01  0.1075E+01
      0.818  0.3140E-01  0.1076E+01
      0.872  0.2712E-01  0.1078E+01
      0.925  0.2432E-01  0.1079E+01
      0.979  0.2517E-01  0.1080E+01
      1.033  0.2557E-01  0.1082E+01
      1.086  0.2340E-01  0.1083E+01
      1.140  0.2058E-01  0.1084E+01
      1.194  0.1884E-01  0.1085E+01
      1.247  0.1766E-01  0.1086E+01
      1.301  0.1517E-01  0.1087E+01
      1.355  0.1227E-01  0.1088E+01
      1.408  0.1345E-01  0.1088E+01
      1.462  0.2149E-01  0.1089E+01
      1.515  0.3153E-01  0.1091E+01
      1.569  0.3475E-01  0.1093E+01
      1.623  0.3027E-01  0.1095E+01
      1.676  0.2491E-01  0.1096E+01
      1.730  0.2467E-01  0.1097E+01
      1.784  0.3071E-01  0.1099E+01
      1.837  0.3735E-01  0.1101E+01
      1.891  0.3673E-01  0.1103E+01
      1.945  0.2944E-01  0.1105E+01
      1.998  0.2299E-01  0.1106E+01
      2.052  0.2155E-01  0.1107E+01
      2.106  0.2461E-01  0.1108E+01
      2.159  0.2885E-01  0.1110E+01
      2.213  0.3149E-01  0.1111E+01
      2.267  0.3437E-01  0.1113E+01
      2.320  0.3871E-01  0.1115E+01
      2.374  0.4310E-01  0.1118E+01
      2.428  0.4695E-01  0.1120E+01
      2.481  0.4825E-01  0.1123E+01
      2.535  0.4538E-01  0.1125E+01
      2.589  0.4140E-01  0.1127E+01
      2.642  0.3966E-01  0.1130E+01
      2.696  0.4030E-01  0.1132E+01
      2.750  0.4030E-01  0.1134E+01
      2.803  0.3564E-01  0.1136E+01
      2.857  0.2708E-01  0.1137E+01
      2.910  0.1954E-01  0.1138E+01
      2.964  0.1502E-01  0.1139E+01
      3.018  0.1119E-01  0.1140E+01
      3.071  0.9013E-02  0.1140E+01
      3.125  0.1155E-01  0.1141E+01
      3.179  0.1679E-01  0.1142E+01
      3.232  0.2084E-01  0.1143E+01
      3.286  0.2276E-01  0.1144E+01
      3.340  0.2273E-01  0.1145E+01
      3.393  0.2187E-01  0.1146E+01
      3.447  0.2279E-01  0.1148E+01
      3.501  0.2582E-01  0.1149E+01
      3.554  0.2986E-01  0.1151E+01
      3.608  0.3495E-01  0.1153E+01
      3.662  0.3763E-01  0.1155E+01
      3.715  0.3566E-01  0.1156E+01
      3.769  0.3332E-01  0.1158E+01
      3.823  0.3138E-01  0.1160E+01
      3.876  0.2685E-01  0.1161E+01
      3.930  0.2254E-01  0.1163E+01
      3.984  0.2283E-01  0.1164E+01
      4.037  0.2556E-01  0.1165E+01
      4.091  0.2600E-01  0.1167E+01
      4.145  0.2478E-01  0.1168E+01
      4.198  0.2486E-01  0.1169E+01
      4.252  0.2415E-01  0.1171E+01
      4.305  0.2049E-01  0.1172E+01
      4.359  0.1885E-01  0.1173E+01
      4.413  0.2247E-01  0.1174E+01
      4.466  0.2680E-01  0.1175E+01
      4.520  0.3125E-01  0.1177E+01
      4.574  0.4025E-01  0.1179E+01
      4.627  0.5001E-01  0.1182E+01
      4.681  0.5149E-01  0.1185E+01
      4.735  0.4772E-01  0.1187E+01
      4.788  0.4909E-01  0.1190E+01
      4.842  0.5460E-01  0.1193E+01
      4.896  0.5804E-01  0.1196E+01
      4.949  0.6164E-01  0.1199E+01
      5.003  0.6931E-01  0.1203E+01
      5.057  0.7509E-01  0.1207E+01
      5.110  0.7022E-01  0.1211E+01
      5.164  0.5924E-01  0.1214E+01
      5.218  0.5369E-01  0.1217E+01
      5.271  0.5205E-01  0.1219E+01
      5.325  0.4326E-01  0.1222E+01
      5.379  0.2626E-01  0.1223E+01
      5.432  0.1086E-01  0.1224E+01
      5.486  0.2955E-02  0.1224E+01
      5.540  0.5146E-03  0.1224E+01
      5.593  0.5594E-04  0.1224E+01
      5.647  0.3714E-05  0.1224E+01
      5.700  0.1478E-06  0.1224E+01
      5.754  0.3471E-08  0.1224E+01
      5.808  0.4758E-10  0.1224E+01
      5.861  0.3773E-12  0.1224E+01
      5.915  0.1717E-14  0.1224E+01
      5.969  0.4138E-17  0.1224E+01
      6.022  0.0000E+00  0.1224E+01
      6.076  0.0000E+00  0.1224E+01
      6.130  0.0000E+00  0.1224E+01
      6.183  0.0000E+00  0.1224E+01
      6.237  0.0000E+00  0.1224E+01
      6.291  0.0000E+00  0.1224E+01
      6.344  0.0000E+00  0.1224E+01
