       N       E                     dE             d eps       ncg     rms          rms(c)
DAV:   1     0.320147760139E+04    0.32015E+04   -0.18982E+05  3672   0.112E+03
DAV:   2     0.138507581904E+02   -0.31876E+04   -0.29323E+04  4380   0.263E+02
DAV:   3    -0.200841208907E+03   -0.21469E+03   -0.19958E+03  4128   0.651E+01
DAV:   4    -0.206626383280E+03   -0.57852E+01   -0.57224E+01  4224   0.108E+01
DAV:   5    -0.206811290899E+03   -0.18491E+00   -0.18432E+00  4380   0.197E+00    0.624E+01
RMM:   6    -0.201297691169E+03    0.55136E+01   -0.95343E+01  3679   0.153E+01    0.563E+01
RMM:   7    -0.203441353083E+03   -0.21437E+01   -0.56512E+01  3683   0.124E+01    0.410E+01
RMM:   8    -0.212146478040E+03   -0.87051E+01   -0.64918E+01  3679   0.130E+01    0.357E+01
RMM:   9    -0.210246475599E+03    0.19000E+01   -0.40841E+01  3677   0.964E+00    0.369E+01
RMM:  10    -0.195789685973E+03    0.14457E+02   -0.24108E+01  3681   0.775E+00    0.202E+01
RMM:  11    -0.190056729303E+03    0.57330E+01   -0.86042E+00  3681   0.477E+00    0.967E+00
RMM:  12    -0.189120343716E+03    0.93639E+00   -0.28116E+00  3680   0.263E+00    0.761E+00
RMM:  13    -0.188861079078E+03    0.25926E+00   -0.99653E-01  3680   0.152E+00    0.695E+00
RMM:  14    -0.188722119471E+03    0.13896E+00   -0.74102E-01  3679   0.135E+00    0.489E+00
RMM:  15    -0.188675939847E+03    0.46180E-01   -0.31284E-01  3679   0.863E-01    0.416E+00
RMM:  16    -0.188608021562E+03    0.67918E-01   -0.17516E-01  3680   0.665E-01    0.332E+00
RMM:  17    -0.188525270149E+03    0.82751E-01   -0.10216E-01  3680   0.500E-01    0.205E+00
RMM:  18    -0.188497600446E+03    0.27670E-01   -0.41505E-02  3680   0.319E-01    0.129E+00
RMM:  19    -0.188487322310E+03    0.10278E-01   -0.17118E-02  3683   0.200E-01    0.846E-01
RMM:  20    -0.188482136525E+03    0.51858E-02   -0.94420E-03  3680   0.145E-01    0.531E-01
RMM:  21    -0.188480717257E+03    0.14193E-02   -0.26177E-03  3679   0.774E-02    0.432E-01
RMM:  22    -0.188479178146E+03    0.15391E-02   -0.16567E-03  3682   0.603E-02    0.277E-01
RMM:  23    -0.188478935645E+03    0.24250E-03   -0.12323E-03  3680   0.526E-02    0.186E-01
RMM:  24    -0.188478995078E+03   -0.59433E-04   -0.46481E-04  3684   0.331E-02    0.124E-01
RMM:  25    -0.188479150935E+03   -0.15586E-03   -0.14985E-04  3681   0.174E-02    0.730E-02
RMM:  26    -0.188479500701E+03   -0.34977E-03   -0.88785E-05  3679   0.140E-02    0.454E-02
RMM:  27    -0.188480109171E+03   -0.60847E-03   -0.69546E-05  3678   0.121E-02    0.475E-02
RMM:  28    -0.188480333878E+03   -0.22471E-03   -0.21948E-05  3624   0.701E-03    0.240E-02
RMM:  29    -0.188480863579E+03   -0.52970E-03   -0.24714E-05  3639   0.699E-03    0.252E-02
RMM:  30    -0.188481419463E+03   -0.55588E-03   -0.30973E-05  3658   0.783E-03    0.276E-02
RMM:  31    -0.188481869004E+03   -0.44954E-03   -0.27196E-05  3448   0.685E-03    0.131E-02
RMM:  32    -0.188482072020E+03   -0.20302E-03   -0.12766E-05  2997   0.463E-03    0.121E-02
RMM:  33    -0.188482206405E+03   -0.13439E-03   -0.62255E-06  2727   0.309E-03    0.656E-03
RMM:  34    -0.188482262527E+03   -0.56122E-04   -0.20780E-06  2328   0.189E-03    0.485E-03
RMM:  35    -0.188482320008E+03   -0.57481E-04   -0.16646E-06  2245   0.170E-03    0.209E-03
RMM:  36    -0.188482338906E+03   -0.18898E-04   -0.46911E-07  2075   0.877E-04    0.155E-03
RMM:  37    -0.188482361870E+03   -0.22964E-04   -0.39561E-07  2128   0.908E-04    0.140E-03
RMM:  38    -0.188482372404E+03   -0.10535E-04   -0.19872E-07  1631   0.643E-04    0.103E-03
RMM:  39    -0.188482376323E+03   -0.39190E-05   -0.10436E-07  1365   0.513E-04    0.643E-04
RMM:  40    -0.188482377789E+03   -0.14656E-05   -0.61142E-08  1318   0.442E-04    0.405E-04
RMM:  41    -0.188482378121E+03   -0.33205E-06   -0.25745E-08   790   0.324E-04
   1 F= -.18848238E+03 E0= -.18834489E+03  d E =-.188482E+03
       N       E                     dE             d eps       ncg     rms          rms(c)
DAV:   1    -0.189609954475E+03   -0.11276E+01   -0.39257E+02  3684   0.304E+01    0.392E+00
RMM:   2    -0.190011255915E+03   -0.40130E+00   -0.40922E+00  3678   0.438E+00    0.243E+00
RMM:   3    -0.190162860759E+03   -0.15160E+00   -0.41430E-01  3705   0.112E+00    0.447E+00
RMM:   4    -0.190014363218E+03    0.14850E+00   -0.18665E-01  3687   0.718E-01    0.201E+00
RMM:   5    -0.190070170945E+03   -0.55808E-01   -0.10436E-01  3685   0.494E-01    0.292E+00
RMM:   6    -0.190012522197E+03    0.57649E-01   -0.71652E-02  3686   0.407E-01    0.170E+00
RMM:   7    -0.189981539863E+03    0.30982E-01   -0.27994E-02  3682   0.267E-01    0.522E-01
RMM:   8    -0.189980042253E+03    0.14976E-02   -0.75270E-03  3681   0.136E-01    0.415E-01
RMM:   9    -0.189978462778E+03    0.15795E-02   -0.28176E-03  3685   0.827E-02    0.218E-01
RMM:  10    -0.189978205455E+03    0.25732E-03   -0.11076E-03  3685   0.527E-02    0.139E-01
RMM:  11    -0.189978032152E+03    0.17330E-03   -0.33285E-04  3686   0.289E-02    0.665E-02
RMM:  12    -0.189978023266E+03    0.88860E-05   -0.87563E-05  3683   0.151E-02    0.477E-02
RMM:  13    -0.189978016533E+03    0.67325E-05   -0.33445E-05  3678   0.949E-03    0.329E-02
RMM:  14    -0.189978011909E+03    0.46242E-05   -0.20264E-05  3672   0.732E-03    0.184E-02
RMM:  15    -0.189978010456E+03    0.14530E-05   -0.70833E-06  3111   0.435E-03    0.967E-03
RMM:  16    -0.189978010278E+03    0.17828E-06   -0.19567E-06  2214   0.239E-03
   2 F= -.18997801E+03 E0= -.18984073E+03  d E =-.149563E+01
       N       E                     dE             d eps       ncg     rms          rms(c)
DAV:   1    -0.188371806556E+03    0.16062E+01   -0.36899E+03  3672   0.956E+01    0.937E+00
RMM:   2    -0.191956886008E+03   -0.35851E+01   -0.36378E+01  3678   0.132E+01    0.603E+00
RMM:   3    -0.192867068106E+03   -0.91018E+00   -0.28568E+00  3709   0.290E+00    0.111E+01
RMM:   4    -0.191794582233E+03    0.10725E+01   -0.10773E+00  3687   0.173E+00    0.463E+00
RMM:   5    -0.192007526723E+03   -0.21294E+00   -0.54830E-01  3686   0.116E+00    0.588E+00
RMM:   6    -0.192090160731E+03   -0.82634E-01   -0.58823E-01  3683   0.116E+00    0.599E+00
RMM:   7    -0.191655743296E+03    0.43442E+00   -0.29331E-01  3683   0.845E-01    0.146E+00
RMM:   8    -0.191646664445E+03    0.90789E-02   -0.82315E-02  3681   0.447E-01    0.148E+00
RMM:   9    -0.191624943546E+03    0.21721E-01   -0.31405E-02  3685   0.281E-01    0.639E-01
RMM:  10    -0.191622065236E+03    0.28783E-02   -0.92638E-03  3683   0.151E-01    0.419E-01
RMM:  11    -0.191621160305E+03    0.90493E-03   -0.34277E-03  3683   0.921E-02    0.251E-01
RMM:  12    -0.191620843582E+03    0.31672E-03   -0.13124E-03  3683   0.578E-02    0.173E-01
RMM:  13    -0.191620727284E+03    0.11630E-03   -0.49652E-04  3683   0.366E-02    0.105E-01
RMM:  14    -0.191620665447E+03    0.61837E-04   -0.18660E-04  3681   0.219E-02    0.584E-02
RMM:  15    -0.191620643259E+03    0.22188E-04   -0.60399E-05  3680   0.123E-02    0.253E-02
RMM:  16    -0.191620645395E+03   -0.21358E-05   -0.16012E-05  3670   0.625E-03    0.150E-02
RMM:  17    -0.191620648749E+03   -0.33540E-05   -0.47539E-06  2827   0.352E-03    0.103E-02
RMM:  18    -0.191620654455E+03   -0.57055E-05   -0.18400E-06  2236   0.232E-03    0.773E-03
RMM:  19    -0.191620659297E+03   -0.48425E-05   -0.10076E-06  2097   0.182E-03    0.258E-03
RMM:  20    -0.191620663049E+03   -0.37521E-05   -0.28024E-07  1962   0.850E-04    0.176E-03
RMM:  21    -0.191620666137E+03   -0.30872E-05   -0.12603E-07  1330   0.588E-04    0.938E-04
RMM:  22    -0.191620670214E+03   -0.40770E-05   -0.10547E-07  1299   0.499E-04    0.944E-04
RMM:  23    -0.191620674118E+03   -0.39040E-05   -0.14867E-07  1520   0.512E-04    0.782E-04
RMM:  24    -0.191620679162E+03   -0.50443E-05   -0.24927E-07  1674   0.578E-04    0.746E-04
RMM:  25    -0.191620680728E+03   -0.15662E-05   -0.89231E-08   933   0.398E-04    0.585E-04
RMM:  26    -0.191620682163E+03   -0.14346E-05   -0.12120E-07  1176   0.433E-04    0.383E-04
RMM:  27    -0.191620682892E+03   -0.72890E-06   -0.58543E-08   861   0.402E-04
   3 F= -.19162068E+03 E0= -.19148757E+03  d E =-.313830E+01
       N       E                     dE             d eps       ncg     rms          rms(c)
DAV:   1    -0.191780734760E+03   -0.16005E+00   -0.29221E+02  3684   0.265E+01    0.240E+00
RMM:   2    -0.192094272422E+03   -0.31354E+00   -0.33103E+00  3685   0.388E+00    0.153E+00
RMM:   3    -0.192133569430E+03   -0.39297E-01   -0.22887E-01  3714   0.837E-01    0.243E+00
RMM:   4    -0.192082792974E+03    0.50776E-01   -0.63908E-02  3685   0.433E-01    0.935E-01
RMM:   5    -0.192104975307E+03   -0.22182E-01   -0.48439E-02  3684   0.343E-01    0.172E+00
RMM:   6    -0.192094488021E+03    0.10487E-01   -0.31540E-02  3684   0.274E-01    0.133E+00
RMM:   7    -0.192077748690E+03    0.16739E-01   -0.12811E-02  3684   0.173E-01    0.494E-01
RMM:   8    -0.192076036809E+03    0.17119E-02   -0.45221E-03  3682   0.107E-01    0.324E-01
RMM:   9    -0.192074785959E+03    0.12509E-02   -0.19368E-03  3683   0.697E-02    0.134E-01
RMM:  10    -0.192074632198E+03    0.15376E-03   -0.46495E-04  3684   0.336E-02    0.673E-02
RMM:  11    -0.192074601737E+03    0.30461E-04   -0.12036E-04  3684   0.170E-02    0.467E-02
RMM:  12    -0.192074597245E+03    0.44922E-05   -0.50245E-05  3685   0.112E-02    0.371E-02
RMM:  13    -0.192074591291E+03    0.59545E-05   -0.24598E-05  3682   0.801E-03    0.216E-02
RMM:  14    -0.192074589921E+03    0.13693E-05   -0.75572E-06  3165   0.455E-03    0.115E-02
RMM:  15    -0.192074589794E+03    0.12753E-06   -0.22702E-06  2213   0.265E-03
   4 F= -.19207459E+03 E0= -.19194442E+03  d E =-.453907E+00
       N       E                     dE             d eps       ncg     rms          rms(c)
DAV:   1    -0.192048734183E+03    0.25856E-01   -0.83282E+01  3732   0.141E+01    0.118E+00
RMM:   2    -0.192139413831E+03   -0.90680E-01   -0.95710E-01  3684   0.208E+00    0.792E-01
RMM:   3    -0.192150962987E+03   -0.11549E-01   -0.66758E-02  3713   0.451E-01    0.133E+00
RMM:   4    -0.192135925529E+03    0.15037E-01   -0.15663E-02  3685   0.216E-01    0.493E-01
RMM:   5    -0.192147528264E+03   -0.11603E-01   -0.11512E-02  3686   0.163E-01    0.118E+00
RMM:   6    -0.192138082348E+03    0.94459E-02   -0.10765E-02  3683   0.157E-01    0.641E-01
RMM:   7    -0.192134220910E+03    0.38614E-02   -0.50249E-03  3682   0.112E-01    0.222E-01
RMM:   8    -0.192133888425E+03    0.33248E-03   -0.12282E-03  3682   0.562E-02    0.157E-01
RMM:   9    -0.192133556462E+03    0.33196E-03   -0.53329E-04  3684   0.366E-02    0.630E-02
RMM:  10    -0.192133518129E+03    0.38333E-04   -0.12359E-04  3683   0.171E-02    0.328E-02
RMM:  11    -0.192133508894E+03    0.92359E-05   -0.35523E-05  3684   0.910E-03    0.192E-02
RMM:  12    -0.192133510791E+03   -0.18976E-05   -0.16711E-05  3674   0.639E-03    0.203E-02
RMM:  13    -0.192133509293E+03    0.14983E-05   -0.64937E-06  3222   0.414E-03    0.108E-02
RMM:  14    -0.192133509660E+03   -0.36682E-06   -0.19096E-06  2179   0.243E-03
   5 F= -.19213351E+03 E0= -.19200499E+03  d E =-.512827E+00
       N       E                     dE             d eps       ncg     rms          rms(c)
DAV:   1    -0.192143572573E+03   -0.10063E-01   -0.43874E+01  3696   0.102E+01    0.836E-01
RMM:   2    -0.192190639115E+03   -0.47067E-01   -0.48510E-01  3684   0.149E+00    0.649E-01
RMM:   3    -0.192209172477E+03   -0.18533E-01   -0.37968E-02  3715   0.331E-01    0.143E+00
RMM:   4    -0.192190517683E+03    0.18655E-01   -0.10719E-02  3685   0.165E-01    0.632E-01
RMM:   5    -0.192187995486E+03    0.25222E-02   -0.49218E-03  3682   0.113E-01    0.385E-01
RMM:   6    -0.192188573928E+03   -0.57844E-03   -0.60391E-03  3685   0.123E-01    0.414E-01
RMM:   7    -0.192186896468E+03    0.16775E-02   -0.29485E-03  3682   0.870E-02    0.122E-01
RMM:   8    -0.192186802370E+03    0.94098E-04   -0.49389E-04  3682   0.361E-02    0.939E-02
RMM:   9    -0.192186687156E+03    0.11521E-03   -0.20496E-04  3682   0.228E-02    0.481E-02
RMM:  10    -0.192186658963E+03    0.28193E-04   -0.69666E-05  3682   0.130E-02    0.257E-02
RMM:  11    -0.192186651923E+03    0.70396E-05   -0.18859E-05  3678   0.670E-03    0.127E-02
RMM:  12    -0.192186651484E+03    0.43889E-06   -0.10986E-05  3672   0.509E-03    0.974E-03
RMM:  13    -0.192186651233E+03    0.25150E-06   -0.28679E-06  2335   0.284E-03
   6 F= -.19218665E+03 E0= -.19205873E+03  d E =-.531416E-01
       N       E                     dE             d eps       ncg     rms          rms(c)
DAV:   1    -0.192186587364E+03    0.64120E-04   -0.11187E+00  3744   0.163E+00    0.129E-01
RMM:   2    -0.192187773833E+03   -0.11865E-02   -0.12372E-02  3684   0.238E-01    0.101E-01
RMM:   3    -0.192188158959E+03   -0.38513E-03   -0.92946E-04  3715   0.522E-02    0.213E-01
RMM:   4    -0.192187761987E+03    0.39697E-03   -0.24740E-04  3685   0.252E-02    0.101E-01
RMM:   5    -0.192187708483E+03    0.53504E-04   -0.11790E-04  3683   0.174E-02    0.624E-02
RMM:   6    -0.192187721554E+03   -0.13070E-04   -0.15461E-04  3685   0.196E-02    0.643E-02
RMM:   7    -0.192187680826E+03    0.40728E-04   -0.76517E-05  3682   0.140E-02    0.197E-02
RMM:   8    -0.192187678739E+03    0.20864E-05   -0.12081E-05  3663   0.571E-03    0.142E-02
RMM:   9    -0.192187676224E+03    0.25158E-05   -0.49378E-06  2851   0.359E-03    0.812E-03
RMM:  10    -0.192187675313E+03    0.91104E-06   -0.19534E-06  1996   0.241E-03
   7 F= -.19218768E+03 E0= -.19205985E+03  d E =-.541657E-01
       N       E                     dE             d eps       ncg     rms          rms(c)
DAV:   1    -0.192191545514E+03   -0.38693E-02   -0.58993E+00  3696   0.373E+00    0.239E-01
RMM:   2    -0.192197923195E+03   -0.63777E-02   -0.66218E-02  3682   0.551E-01    0.223E-01
RMM:   3    -0.192198558229E+03   -0.63503E-03   -0.44704E-03  3733   0.118E-01    0.304E-01
RMM:   4    -0.192197909553E+03    0.64868E-03   -0.77818E-04  3680   0.457E-02    0.205E-01
RMM:   5    -0.192197668462E+03    0.24109E-03   -0.51276E-04  3687   0.358E-02    0.162E-01
RMM:   6    -0.192197638126E+03    0.30336E-04   -0.73033E-04  3681   0.425E-02    0.160E-01
RMM:   7    -0.192197451715E+03    0.18641E-03   -0.60257E-04  3683   0.385E-02    0.655E-02
RMM:   8    -0.192197429581E+03    0.22134E-04   -0.10814E-04  3686   0.171E-02    0.330E-02
RMM:   9    -0.192197415474E+03    0.14107E-04   -0.27464E-05  3678   0.824E-03    0.271E-02
RMM:  10    -0.192197404842E+03    0.10632E-04   -0.20070E-05  3673   0.693E-03    0.154E-02
RMM:  11    -0.192197402203E+03    0.26384E-05   -0.70223E-06  3503   0.404E-03    0.838E-03
RMM:  12    -0.192197401653E+03    0.55079E-06   -0.45819E-06  3009   0.329E-03
   8 F= -.19219740E+03 E0= -.19206961E+03  d E =-.972634E-02
       N       E                     dE             d eps       ncg     rms          rms(c)
DAV:   1    -0.192195445932E+03    0.19563E-02   -0.55879E+00  3672   0.363E+00    0.231E-01
RMM:   2    -0.192201472778E+03   -0.60268E-02   -0.62659E-02  3683   0.536E-01    0.214E-01
RMM:   3    -0.192202044307E+03   -0.57153E-03   -0.41775E-03  3734   0.114E-01    0.290E-01
RMM:   4    -0.192201457018E+03    0.58729E-03   -0.71620E-04  3679   0.439E-02    0.197E-01
RMM:   5    -0.192201233237E+03    0.22378E-03   -0.47412E-04  3687   0.344E-02    0.156E-01
RMM:   6    -0.192201205352E+03    0.27886E-04   -0.69778E-04  3681   0.416E-02    0.155E-01
RMM:   7    -0.192201033235E+03    0.17212E-03   -0.56103E-04  3683   0.372E-02    0.648E-02
RMM:   8    -0.192201010834E+03    0.22401E-04   -0.10216E-04  3686   0.166E-02    0.313E-02
RMM:   9    -0.192200997041E+03    0.13793E-04   -0.26339E-05  3678   0.806E-03    0.251E-02
RMM:  10    -0.192200987465E+03    0.95759E-05   -0.18400E-05  3672   0.661E-03    0.139E-02
RMM:  11    -0.192200985438E+03    0.20270E-05   -0.61440E-06  3337   0.379E-03    0.840E-03
RMM:  12    -0.192200984904E+03    0.53459E-06   -0.43374E-06  2795   0.327E-03
   9 F= -.19220098E+03 E0= -.19207321E+03  d E =-.133096E-01
       N       E                     dE             d eps       ncg     rms          rms(c)
DAV:   1    -0.192201527696E+03   -0.54226E-03   -0.78099E+00  3672   0.429E+00    0.223E-01
RMM:   2    -0.192210022164E+03   -0.84945E-02   -0.86375E-02  3681   0.635E-01    0.266E-01
RMM:   3    -0.192210101351E+03   -0.79188E-04   -0.55299E-03  3805   0.133E-01    0.242E-01
RMM:   4    -0.192209887350E+03    0.21400E-03   -0.68628E-04  3674   0.437E-02    0.223E-01
RMM:   5    -0.192209598042E+03    0.28931E-03   -0.36195E-04  3693   0.300E-02    0.178E-01
RMM:   6    -0.192209464191E+03    0.13385E-03   -0.86134E-04  3683   0.451E-02    0.175E-01
RMM:   7    -0.192209300248E+03    0.16394E-03   -0.11120E-03  3683   0.516E-02    0.943E-02
RMM:   8    -0.192209282031E+03    0.18217E-04   -0.25898E-04  3683   0.256E-02    0.588E-02
RMM:   9    -0.192209253552E+03    0.28480E-04   -0.36937E-05  3682   0.991E-03    0.451E-02
RMM:  10    -0.192209222267E+03    0.31285E-04   -0.45586E-05  3681   0.103E-02    0.265E-02
RMM:  11    -0.192209213289E+03    0.89778E-05   -0.22285E-05  3672   0.703E-03    0.146E-02
RMM:  12    -0.192209211026E+03    0.22626E-05   -0.21115E-05  3680   0.675E-03    0.946E-03
RMM:  13    -0.192209210710E+03    0.31590E-06   -0.44444E-06  2958   0.330E-03
  10 F= -.19220921E+03 E0= -.19208115E+03  d E =-.822581E-02
       N       E                     dE             d eps       ncg     rms          rms(c)
DAV:   1    -0.192199631338E+03    0.95797E-02   -0.14071E+01  3672   0.575E+00    0.297E-01
RMM:   2    -0.192214966511E+03   -0.15335E-01   -0.15541E-01  3681   0.852E-01    0.358E-01
RMM:   3    -0.192215086596E+03   -0.12008E-03   -0.99555E-03  3796   0.178E-01    0.323E-01
RMM:   4    -0.192214689980E+03    0.39662E-03   -0.12147E-03  3674   0.583E-02    0.296E-01
RMM:   5    -0.192214174501E+03    0.51548E-03   -0.62047E-04  3693   0.394E-02    0.236E-01
RMM:   6    -0.192213932807E+03    0.24169E-03   -0.15310E-03  3683   0.601E-02    0.236E-01
RMM:   7    -0.192213609814E+03    0.32299E-03   -0.20410E-03  3683   0.699E-02    0.123E-01
RMM:   8    -0.192213582819E+03    0.26994E-04   -0.46435E-04  3683   0.342E-02    0.791E-02
RMM:   9    -0.192213531107E+03    0.51712E-04   -0.66433E-05  3685   0.133E-02    0.605E-02
RMM:  10    -0.192213474635E+03    0.56473E-04   -0.82330E-05  3682   0.138E-02    0.357E-02
RMM:  11    -0.192213458408E+03    0.16227E-04   -0.39966E-05  3680   0.942E-03    0.197E-02
RMM:  12    -0.192213453989E+03    0.44193E-05   -0.38718E-05  3684   0.914E-03    0.125E-02
RMM:  13    -0.192213453459E+03    0.53020E-06   -0.83965E-06  3635   0.441E-03
  11 F= -.19221345E+03 E0= -.19208504E+03  d E =-.124686E-01
       N       E                     dE             d eps       ncg     rms          rms(c)
DAV:   1    -0.192209877415E+03    0.35766E-02   -0.10442E+01  3672   0.498E+00    0.242E-01
RMM:   2    -0.192221202251E+03   -0.11325E-01   -0.11377E-01  3680   0.732E-01    0.311E-01
RMM:   3    -0.192221257174E+03   -0.54923E-04   -0.73581E-03  3773   0.153E-01    0.286E-01
RMM:   4    -0.192220810046E+03    0.44713E-03   -0.82645E-04  3674   0.486E-02    0.229E-01
RMM:   5    -0.192220512369E+03    0.29768E-03   -0.32756E-04  3694   0.292E-02    0.186E-01
RMM:   6    -0.192220303765E+03    0.20860E-03   -0.82486E-04  3684   0.445E-02    0.174E-01
RMM:   7    -0.192220130205E+03    0.17356E-03   -0.15561E-03  3683   0.609E-02    0.103E-01
RMM:   8    -0.192220117423E+03    0.12782E-04   -0.36022E-04  3683   0.298E-02    0.658E-02
RMM:   9    -0.192220090544E+03    0.26879E-04   -0.45419E-05  3690   0.109E-02    0.496E-02
RMM:  10    -0.192220056574E+03    0.33970E-04   -0.43013E-05  3679   0.102E-02    0.311E-02
RMM:  11    -0.192220043477E+03    0.13097E-04   -0.32461E-05  3682   0.859E-03    0.165E-02
RMM:  12    -0.192220040345E+03    0.31321E-05   -0.32881E-05  3679   0.848E-03    0.645E-03
RMM:  13    -0.192220040579E+03   -0.23433E-06   -0.32498E-06  2389   0.299E-03
  12 F= -.19222004E+03 E0= -.19209138E+03  d E =-.658712E-02
       N       E                     dE             d eps       ncg     rms          rms(c)
DAV:   1    -0.192214657563E+03    0.53828E-02   -0.83524E+00  3672   0.445E+00    0.216E-01
RMM:   2    -0.192223710581E+03   -0.90530E-02   -0.91019E-02  3680   0.655E-01    0.277E-01
RMM:   3    -0.192223751040E+03   -0.40459E-04   -0.58844E-03  3772   0.137E-01    0.256E-01
RMM:   4    -0.192223393107E+03    0.35793E-03   -0.65786E-04  3674   0.434E-02    0.203E-01
RMM:   5    -0.192223158967E+03    0.23414E-03   -0.25707E-04  3694   0.259E-02    0.166E-01
RMM:   6    -0.192222994268E+03    0.16470E-03   -0.65248E-04  3684   0.396E-02    0.154E-01
RMM:   7    -0.192222861686E+03    0.13258E-03   -0.12445E-03  3683   0.544E-02    0.922E-02
RMM:   8    -0.192222852471E+03    0.92144E-05   -0.28897E-04  3683   0.267E-02    0.586E-02
RMM:   9    -0.192222831409E+03    0.21063E-04   -0.36061E-05  3688   0.973E-03    0.444E-02
RMM:  10    -0.192222804518E+03    0.26890E-04   -0.33646E-05  3679   0.902E-03    0.281E-02
RMM:  11    -0.192222793890E+03    0.10628E-04   -0.25704E-05  3675   0.764E-03    0.151E-02
RMM:  12    -0.192222791398E+03    0.24918E-05   -0.26467E-05  3679   0.761E-03    0.662E-03
RMM:  13    -0.192222791533E+03   -0.13426E-06   -0.27350E-06  2198   0.277E-03
  13 F= -.19222279E+03 E0= -.19209392E+03  d E =-.933807E-02
       N       E                     dE             d eps       ncg     rms          rms(c)
DAV:   1    -0.192221378780E+03    0.14126E-02   -0.17906E+00  3708   0.206E+00    0.995E-02
RMM:   2    -0.192223304235E+03   -0.19255E-02   -0.19498E-02  3680   0.303E-01    0.128E-01
RMM:   3    -0.192223303271E+03    0.96462E-06   -0.12581E-03  3773   0.632E-02    0.118E-01
RMM:   4    -0.192223226122E+03    0.77149E-04   -0.13794E-04  3674   0.199E-02    0.934E-02
RMM:   5    -0.192223181540E+03    0.44583E-04   -0.53232E-05  3692   0.118E-02    0.771E-02
RMM:   6    -0.192223152214E+03    0.29325E-04   -0.14176E-04  3683   0.184E-02    0.720E-02
RMM:   7    -0.192223130009E+03    0.22206E-04   -0.27172E-04  3682   0.254E-02    0.430E-02
RMM:   8    -0.192223129214E+03    0.79482E-06   -0.63310E-05  3682   0.125E-02    0.275E-02
RMM:   9    -0.192223124745E+03    0.44686E-05   -0.76260E-06  3185   0.452E-03    0.207E-02
RMM:  10    -0.192223118906E+03    0.58393E-05   -0.73229E-06  3597   0.425E-03    0.132E-02
RMM:  11    -0.192223116727E+03    0.21790E-05   -0.52740E-06  3139   0.355E-03    0.743E-03
RMM:  12    -0.192223116309E+03    0.41809E-06   -0.54363E-06  3434   0.360E-03
  14 F= -.19222312E+03 E0= -.19209416E+03  d E =-.966285E-02
       N       E                     dE             d eps       ncg     rms          rms(c)
DAV:   1    -0.192218979582E+03    0.41371E-02   -0.78890E+00  3672   0.434E+00    0.216E-01
RMM:   2    -0.192227677917E+03   -0.86983E-02   -0.87866E-02  3681   0.636E-01    0.273E-01
RMM:   3    -0.192227799387E+03   -0.12147E-03   -0.56998E-03  3728   0.132E-01    0.276E-01
RMM:   4    -0.192227333051E+03    0.46634E-03   -0.73643E-04  3676   0.455E-02    0.204E-01
RMM:   5    -0.192227018118E+03    0.31493E-03   -0.21132E-04  3694   0.239E-02    0.133E-01
RMM:   6    -0.192226952916E+03    0.65202E-04   -0.38437E-04  3683   0.306E-02    0.136E-01
RMM:   7    -0.192226815892E+03    0.13702E-03   -0.12243E-03  3680   0.537E-02    0.667E-02
RMM:   8    -0.192226832790E+03   -0.16898E-04   -0.21099E-04  3676   0.228E-02    0.513E-02
RMM:   9    -0.192226812742E+03    0.20048E-04   -0.29039E-05  3680   0.885E-03    0.353E-02
RMM:  10    -0.192226799456E+03    0.13286E-04   -0.15989E-05  3672   0.628E-03    0.250E-02
RMM:  11    -0.192226791249E+03    0.82070E-05   -0.18693E-05  3674   0.656E-03    0.137E-02
RMM:  12    -0.192226789894E+03    0.13551E-05   -0.14881E-05  3672   0.574E-03    0.903E-03
RMM:  13    -0.192226789736E+03    0.15850E-06   -0.39144E-06  2608   0.313E-03
  15 F= -.19222679E+03 E0= -.19209775E+03  d E =-.367343E-02
       N       E                     dE             d eps       ncg     rms          rms(c)
DAV:   1    -0.192226356532E+03    0.43336E-03   -0.73151E-01  3708   0.132E+00    0.654E-02
RMM:   2    -0.192227151513E+03   -0.79498E-03   -0.81165E-03  3681   0.194E-01    0.845E-02
RMM:   3    -0.192227152822E+03   -0.13097E-05   -0.52519E-04  3728   0.401E-02    0.829E-02
RMM:   4    -0.192227110538E+03    0.42284E-04   -0.65818E-05  3676   0.136E-02    0.615E-02
RMM:   5    -0.192227085314E+03    0.25225E-04   -0.18443E-05  3680   0.711E-03    0.410E-02
RMM:   6    -0.192227084113E+03    0.12006E-05   -0.37100E-05  3681   0.951E-03    0.424E-02
RMM:   7    -0.192227077465E+03    0.66479E-05   -0.11890E-04  3678   0.167E-02    0.209E-02
RMM:   8    -0.192227079849E+03   -0.23836E-05   -0.20142E-05  3672   0.704E-03    0.165E-02
RMM:   9    -0.192227077831E+03    0.20184E-05   -0.26534E-06  2402   0.278E-03    0.109E-02
RMM:  10    -0.192227076541E+03    0.12899E-05   -0.15188E-06  1960   0.214E-03    0.794E-03
RMM:  11    -0.192227075767E+03    0.77329E-06   -0.17946E-06  1946   0.233E-03
  16 F= -.19222708E+03 E0= -.19209802E+03  d E =-.395946E-02
       N       E                     dE             d eps       ncg     rms          rms(c)
DAV:   1    -0.192223324420E+03    0.37521E-02   -0.75806E+00  3672   0.425E+00    0.206E-01
RMM:   2    -0.192232009458E+03   -0.86850E-02   -0.85010E-02  3681   0.625E-01    0.308E-01
RMM:   3    -0.192231993915E+03    0.15542E-04   -0.57073E-03  3734   0.131E-01    0.280E-01
RMM:   4    -0.192231480385E+03    0.51353E-03   -0.74222E-04  3674   0.452E-02    0.201E-01
RMM:   5    -0.192231183025E+03    0.29736E-03   -0.19820E-04  3688   0.237E-02    0.139E-01
RMM:   6    -0.192231137758E+03    0.45267E-04   -0.40020E-04  3682   0.312E-02    0.148E-01
RMM:   7    -0.192230964219E+03    0.17354E-03   -0.14387E-03  3681   0.579E-02    0.609E-02
RMM:   8    -0.192230992136E+03   -0.27917E-04   -0.19610E-04  3675   0.218E-02    0.528E-02
RMM:   9    -0.192230971853E+03    0.20283E-04   -0.22762E-05  3685   0.804E-03    0.380E-02
RMM:  10    -0.192230960372E+03    0.11481E-04   -0.11473E-05  3646   0.536E-03    0.296E-02
RMM:  11    -0.192230947202E+03    0.13170E-04   -0.37363E-05  3677   0.917E-03    0.152E-02
RMM:  12    -0.192230945401E+03    0.18011E-05   -0.14421E-05  3671   0.566E-03    0.752E-03
RMM:  13    -0.192230945655E+03   -0.25374E-06   -0.36182E-06  2564   0.301E-03
  17 F= -.19223095E+03 E0= -.19210178E+03  d E =-.386989E-02
       N       E                     dE             d eps       ncg     rms          rms(c)
DAV:   1    -0.192224481113E+03    0.64643E-02   -0.82477E+00  3672   0.443E+00    0.215E-01
RMM:   2    -0.192233923310E+03   -0.94422E-02   -0.92264E-02  3680   0.651E-01    0.321E-01
RMM:   3    -0.192233883016E+03    0.40293E-04   -0.61882E-03  3734   0.137E-01    0.289E-01
RMM:   4    -0.192233332472E+03    0.55054E-03   -0.79339E-04  3675   0.468E-02    0.209E-01
RMM:   5    -0.192233012908E+03    0.31956E-03   -0.20989E-04  3688   0.244E-02    0.145E-01
RMM:   6    -0.192232960529E+03    0.52379E-04   -0.44862E-04  3682   0.330E-02    0.156E-01
RMM:   7    -0.192232762049E+03    0.19848E-03   -0.15909E-03  3681   0.609E-02    0.631E-02
RMM:   8    -0.192232792725E+03   -0.30676E-04   -0.21115E-04  3675   0.227E-02    0.554E-02
RMM:   9    -0.192232769718E+03    0.23008E-04   -0.24935E-05  3686   0.841E-03    0.398E-02
RMM:  10    -0.192232757373E+03    0.12344E-04   -0.12816E-05  3670   0.566E-03    0.309E-02
RMM:  11    -0.192232743372E+03    0.14001E-04   -0.40417E-05  3678   0.954E-03    0.159E-02
RMM:  12    -0.192232741539E+03    0.18337E-05   -0.15945E-05  3672   0.595E-03    0.819E-03
RMM:  13    -0.192232741777E+03   -0.23894E-06   -0.41210E-06  2708   0.319E-03
  18 F= -.19223274E+03 E0= -.19210347E+03  d E =-.566601E-02
       N       E                     dE             d eps       ncg     rms          rms(c)
DAV:   1    -0.192226670535E+03    0.60710E-02   -0.92079E+00  3672   0.468E+00    0.227E-01
RMM:   2    -0.192237102598E+03   -0.10432E-01   -0.10364E-01  3680   0.691E-01    0.310E-01
RMM:   3    -0.192237197152E+03   -0.94554E-04   -0.68671E-03  3747   0.145E-01    0.297E-01
RMM:   4    -0.192236621725E+03    0.57543E-03   -0.84005E-04  3675   0.483E-02    0.215E-01
RMM:   5    -0.192236299158E+03    0.32257E-03   -0.24868E-04  3691   0.263E-02    0.157E-01
RMM:   6    -0.192236274275E+03    0.24883E-04   -0.66386E-04  3681   0.398E-02    0.185E-01
RMM:   7    -0.192236000380E+03    0.27389E-03   -0.16313E-03  3679   0.619E-02    0.703E-02
RMM:   8    -0.192236032470E+03   -0.32090E-04   -0.24563E-04  3674   0.245E-02    0.590E-02
RMM:   9    -0.192236007716E+03    0.24754E-04   -0.28824E-05  3685   0.891E-03    0.431E-02
RMM:  10    -0.192235991708E+03    0.16008E-04   -0.18556E-05  3672   0.675E-03    0.347E-02
RMM:  11    -0.192235973626E+03    0.18082E-04   -0.55525E-05  3678   0.111E-02    0.172E-02
RMM:  12    -0.192235971397E+03    0.22294E-05   -0.16867E-05  3672   0.612E-03    0.618E-03
RMM:  13    -0.192235972087E+03   -0.69008E-06   -0.38860E-06  2604   0.311E-03
  19 F= -.19223597E+03 E0= -.19210664E+03  d E =-.323031E-02
       N       E                     dE             d eps       ncg     rms          rms(c)
DAV:   1    -0.192235395086E+03    0.57631E-03   -0.82237E-01  3708   0.140E+00    0.671E-02
RMM:   2    -0.192236310269E+03   -0.91518E-03   -0.92130E-03  3681   0.206E-01    0.925E-02
RMM:   3    -0.192236305787E+03    0.44813E-05   -0.60498E-04  3750   0.432E-02    0.854E-02
RMM:   4    -0.192236262193E+03    0.43595E-04   -0.70972E-05  3674   0.141E-02    0.641E-02
RMM:   5    -0.192236237927E+03    0.24266E-04   -0.20782E-05  3684   0.762E-03    0.476E-02
RMM:   6    -0.192236241244E+03   -0.33170E-05   -0.61689E-05  3680   0.121E-02    0.566E-02
RMM:   7    -0.192236223680E+03    0.17564E-04   -0.15243E-04  3674   0.189E-02    0.218E-02
RMM:   8    -0.192236227548E+03   -0.38681E-05   -0.22702E-05  3672   0.745E-03    0.181E-02
RMM:   9    -0.192236225310E+03    0.22381E-05   -0.24918E-06  2303   0.272E-03    0.133E-02
RMM:  10    -0.192236223833E+03    0.14773E-05   -0.16318E-06  1969   0.223E-03    0.108E-02
RMM:  11    -0.192236222146E+03    0.16862E-05   -0.57771E-06  3327   0.377E-03    0.531E-03
RMM:  12    -0.192236221943E+03    0.20359E-06   -0.15165E-06  1950   0.207E-03
  20 F= -.19223622E+03 E0= -.19210686E+03  d E =-.348017E-02
       N       E                     dE             d eps       ncg     rms          rms(c)
DAV:   1    -0.192232530180E+03    0.36920E-02   -0.49704E+00  3672   0.344E+00    0.172E-01
RMM:   2    -0.192238220809E+03   -0.56906E-02   -0.56565E-02  3680   0.509E-01    0.232E-01
RMM:   3    -0.192238301431E+03   -0.80622E-04   -0.38665E-03  3740   0.109E-01    0.235E-01
RMM:   4    -0.192237907802E+03    0.39363E-03   -0.46722E-04  3676   0.361E-02    0.152E-01
RMM:   5    -0.192237750911E+03    0.15689E-03   -0.15015E-04  3690   0.203E-02    0.115E-01
RMM:   6    -0.192237726206E+03    0.24705E-04   -0.30697E-04  3681   0.272E-02    0.128E-01
RMM:   7    -0.192237595573E+03    0.13063E-03   -0.86022E-04  3682   0.450E-02    0.486E-02
RMM:   8    -0.192237611440E+03   -0.15867E-04   -0.12427E-04  3676   0.175E-02    0.422E-02
RMM:   9    -0.192237596517E+03    0.14923E-04   -0.16819E-05  3677   0.683E-03    0.289E-02
RMM:  10    -0.192237589529E+03    0.69881E-05   -0.91065E-06  3531   0.474E-03    0.228E-02
RMM:  11    -0.192237581853E+03    0.76760E-05   -0.23686E-05  3677   0.729E-03    0.118E-02
RMM:  12    -0.192237580817E+03    0.10355E-05   -0.67056E-06  3371   0.391E-03    0.511E-03
RMM:  13    -0.192237581016E+03   -0.19911E-06   -0.17970E-06  2009   0.225E-03
  21 F= -.19223758E+03 E0= -.19210808E+03  d E =-.135907E-02
       N       E                     dE             d eps       ncg     rms          rms(c)
DAV:   1    -0.192237576377E+03    0.44399E-05   -0.10157E-02  3876   0.155E-01    0.772E-03
RMM:   2    -0.192237588048E+03   -0.11671E-04   -0.11388E-04  3683   0.231E-02    0.121E-02
RMM:   3    -0.192237586926E+03    0.11220E-05   -0.75332E-06  3480   0.491E-03    0.791E-03
RMM:   4    -0.192237586618E+03    0.30873E-06   -0.64617E-07  1942   0.155E-03
  22 F= -.19223759E+03 E0= -.19210808E+03  d E =-.136467E-02
       N       E                     dE             d eps       ncg     rms          rms(c)
DAV:   1    -0.192236607071E+03    0.97986E-03   -0.14758E+00  3672   0.187E+00    0.101E-01
RMM:   2    -0.192238361672E+03   -0.17546E-02   -0.17119E-02  3681   0.278E-01    0.150E-01
RMM:   3    -0.192238371779E+03   -0.10107E-04   -0.12357E-03  3732   0.605E-02    0.146E-01
RMM:   4    -0.192238214130E+03    0.15765E-03   -0.17302E-04  3675   0.217E-02    0.905E-02
RMM:   5    -0.192238155598E+03    0.58532E-04   -0.66711E-05  3690   0.134E-02    0.657E-02
RMM:   6    -0.192238148737E+03    0.68609E-05   -0.10002E-04  3681   0.156E-02    0.657E-02
RMM:   7    -0.192238121292E+03    0.27445E-04   -0.25954E-04  3680   0.247E-02    0.270E-02
RMM:   8    -0.192238122358E+03   -0.10659E-05   -0.28763E-05  3672   0.852E-03    0.237E-02
RMM:   9    -0.192238116794E+03    0.55638E-05   -0.51789E-06  2914   0.376E-03    0.144E-02
RMM:  10    -0.192238114608E+03    0.21861E-05   -0.31341E-06  2451   0.293E-03    0.104E-02
RMM:  11    -0.192238112960E+03    0.16478E-05   -0.62997E-06  3418   0.388E-03    0.520E-03
RMM:  12    -0.192238112823E+03    0.13666E-06   -0.12629E-06  1943   0.190E-03
  23 F= -.19223811E+03 E0= -.19210861E+03  d E =-.526206E-03
