  48  48   0   0
  0.5349325E+02  0.1100258E-08  0.1100258E-08  0.2449179E-08  0.3500000E-15
  1.000000000000000E-004
  CAR 
 unknown system                          
      6.35436666     -9.78791175  301     -1.09504234      1.00000000
     -9.788  0.0000E+00  0.0000E+00
     -9.734  0.0000E+00  0.0000E+00
     -9.680  0.0000E+00  0.0000E+00
     -9.626  0.0000E+00  0.0000E+00
     -9.573  0.0000E+00  0.0000E+00
     -9.519  0.0000E+00  0.0000E+00
     -9.465  0.0000E+00  0.0000E+00
     -9.411  0.0000E+00  0.0000E+00
     -9.357  0.8941E-17  0.4811E-18
     -9.304  0.3459E-14  0.1866E-15
     -9.250  0.7692E-12  0.4158E-13
     -9.196  0.9704E-10  0.5263E-11
     -9.142  0.6957E-08  0.3796E-09
     -9.088  0.2840E-06  0.1566E-07
     -9.035  0.6616E-05  0.3716E-06
     -8.981  0.8816E-04  0.5115E-05
     -8.927  0.6736E-03  0.4136E-04
     -8.873  0.2958E-02  0.2005E-03
     -8.819  0.7492E-02  0.6037E-03
     -8.766  0.1106E-01  0.1199E-02
     -8.712  0.1022E-01  0.1749E-02
     -8.658  0.8362E-02  0.2199E-02
     -8.604  0.9756E-02  0.2724E-02
     -8.550  0.1103E-01  0.3317E-02
     -8.497  0.8097E-02  0.3753E-02
     -8.443  0.3542E-02  0.3943E-02
     -8.389  0.9521E-03  0.3994E-02
     -8.335  0.4437E-03  0.4018E-02
     -8.281  0.1300E-02  0.4088E-02
     -8.227  0.3355E-02  0.4269E-02
     -8.174  0.6011E-02  0.4592E-02
     -8.120  0.8547E-02  0.5052E-02
     -8.066  0.1094E-01  0.5641E-02
     -8.012  0.1416E-01  0.6403E-02
     -7.958  0.1838E-01  0.7392E-02
     -7.905  0.1989E-01  0.8462E-02
     -7.851  0.1625E-01  0.9337E-02
     -7.797  0.1142E-01  0.9951E-02
     -7.743  0.1104E-01  0.1055E-01
     -7.689  0.1552E-01  0.1138E-01
     -7.636  0.2012E-01  0.1246E-01
     -7.582  0.2207E-01  0.1365E-01
     -7.528  0.2189E-01  0.1483E-01
     -7.474  0.1943E-01  0.1587E-01
     -7.420  0.1552E-01  0.1671E-01
     -7.367  0.1320E-01  0.1742E-01
     -7.313  0.1557E-01  0.1826E-01
     -7.259  0.2258E-01  0.1947E-01
     -7.205  0.3014E-01  0.2109E-01
     -7.151  0.3542E-01  0.2300E-01
     -7.098  0.3847E-01  0.2507E-01
     -7.044  0.4095E-01  0.2727E-01
     -6.990  0.4806E-01  0.2986E-01
     -6.936  0.6120E-01  0.3315E-01
     -6.882  0.7399E-01  0.3713E-01
     -6.828  0.8341E-01  0.4162E-01
     -6.775  0.9169E-01  0.4655E-01
     -6.721  0.9767E-01  0.5181E-01
     -6.667  0.9829E-01  0.5710E-01
     -6.613  0.9310E-01  0.6211E-01
     -6.559  0.8601E-01  0.6674E-01
     -6.506  0.8509E-01  0.7131E-01
     -6.452  0.9449E-01  0.7640E-01
     -6.398  0.1088E+00  0.8225E-01
     -6.344  0.1199E+00  0.8870E-01
     -6.290  0.1274E+00  0.9556E-01
     -6.237  0.1366E+00  0.1029E+00
     -6.183  0.1478E+00  0.1109E+00
     -6.129  0.1573E+00  0.1193E+00
     -6.075  0.1619E+00  0.1280E+00
     -6.021  0.1622E+00  0.1368E+00
     -5.968  0.1626E+00  0.1455E+00
     -5.914  0.1642E+00  0.1544E+00
     -5.860  0.1643E+00  0.1632E+00
     -5.806  0.1608E+00  0.1718E+00
     -5.752  0.1528E+00  0.1801E+00
     -5.699  0.1428E+00  0.1877E+00
     -5.645  0.1356E+00  0.1950E+00
     -5.591  0.1332E+00  0.2022E+00
     -5.537  0.1328E+00  0.2094E+00
     -5.483  0.1347E+00  0.2166E+00
     -5.429  0.1420E+00  0.2242E+00
     -5.376  0.1515E+00  0.2324E+00
     -5.322  0.1572E+00  0.2409E+00
     -5.268  0.1604E+00  0.2495E+00
     -5.214  0.1637E+00  0.2583E+00
     -5.160  0.1642E+00  0.2671E+00
     -5.107  0.1620E+00  0.2759E+00
     -5.053  0.1603E+00  0.2845E+00
     -4.999  0.1597E+00  0.2931E+00
     -4.945  0.1609E+00  0.3017E+00
     -4.891  0.1659E+00  0.3107E+00
     -4.838  0.1731E+00  0.3200E+00
     -4.784  0.1763E+00  0.3295E+00
     -4.730  0.1729E+00  0.3388E+00
     -4.676  0.1681E+00  0.3478E+00
     -4.622  0.1665E+00  0.3568E+00
     -4.569  0.1658E+00  0.3657E+00
     -4.515  0.1653E+00  0.3746E+00
     -4.461  0.1666E+00  0.3835E+00
     -4.407  0.1678E+00  0.3926E+00
     -4.353  0.1680E+00  0.4016E+00
     -4.300  0.1704E+00  0.4108E+00
     -4.246  0.1757E+00  0.4202E+00
     -4.192  0.1801E+00  0.4299E+00
     -4.138  0.1808E+00  0.4397E+00
     -4.084  0.1792E+00  0.4493E+00
     -4.030  0.1776E+00  0.4589E+00
     -3.977  0.1774E+00  0.4684E+00
     -3.923  0.1815E+00  0.4782E+00
     -3.869  0.1889E+00  0.4883E+00
     -3.815  0.1942E+00  0.4988E+00
     -3.761  0.1972E+00  0.5094E+00
     -3.708  0.2010E+00  0.5202E+00
     -3.654  0.2042E+00  0.5312E+00
     -3.600  0.2044E+00  0.5422E+00
     -3.546  0.2021E+00  0.5531E+00
     -3.492  0.1982E+00  0.5637E+00
     -3.439  0.1936E+00  0.5742E+00
     -3.385  0.1894E+00  0.5843E+00
     -3.331  0.1879E+00  0.5945E+00
     -3.277  0.1897E+00  0.6047E+00
     -3.223  0.1898E+00  0.6149E+00
     -3.170  0.1856E+00  0.6249E+00
     -3.116  0.1810E+00  0.6346E+00
     -3.062  0.1793E+00  0.6443E+00
     -3.008  0.1802E+00  0.6539E+00
     -2.954  0.1827E+00  0.6638E+00
     -2.901  0.1861E+00  0.6738E+00
     -2.847  0.1897E+00  0.6840E+00
     -2.793  0.1924E+00  0.6944E+00
     -2.739  0.1942E+00  0.7048E+00
     -2.685  0.1945E+00  0.7153E+00
     -2.632  0.1924E+00  0.7256E+00
     -2.578  0.1885E+00  0.7358E+00
     -2.524  0.1826E+00  0.7456E+00
     -2.470  0.1767E+00  0.7551E+00
     -2.416  0.1751E+00  0.7645E+00
     -2.362  0.1770E+00  0.7740E+00
     -2.309  0.1780E+00  0.7836E+00
     -2.255  0.1780E+00  0.7932E+00
     -2.201  0.1796E+00  0.8029E+00
     -2.147  0.1820E+00  0.8127E+00
     -2.093  0.1836E+00  0.8225E+00
     -2.040  0.1841E+00  0.8324E+00
     -1.986  0.1848E+00  0.8424E+00
     -1.932  0.1878E+00  0.8525E+00
     -1.878  0.1946E+00  0.8630E+00
     -1.824  0.2047E+00  0.8740E+00
     -1.771  0.2138E+00  0.8855E+00
     -1.717  0.2161E+00  0.8971E+00
     -1.663  0.2120E+00  0.9085E+00
     -1.609  0.2080E+00  0.9197E+00
     -1.555  0.2069E+00  0.9308E+00
     -1.502  0.2062E+00  0.9419E+00
     -1.448  0.2022E+00  0.9528E+00
     -1.394  0.1947E+00  0.9633E+00
     -1.340  0.1852E+00  0.9733E+00
     -1.286  0.1742E+00  0.9826E+00
     -1.233  0.1609E+00  0.9913E+00
     -1.179  0.1416E+00  0.9989E+00
     -1.125  0.1158E+00  0.1005E+01
     -1.071  0.9083E-01  0.1010E+01
     -1.017  0.7154E-01  0.1014E+01
     -0.963  0.5327E-01  0.1017E+01
     -0.910  0.3400E-01  0.1019E+01
     -0.856  0.1968E-01  0.1020E+01
     -0.802  0.1432E-01  0.1020E+01
     -0.748  0.1606E-01  0.1021E+01
     -0.694  0.2061E-01  0.1022E+01
     -0.641  0.2632E-01  0.1024E+01
     -0.587  0.3417E-01  0.1026E+01
     -0.533  0.4232E-01  0.1028E+01
     -0.479  0.4569E-01  0.1030E+01
     -0.425  0.4249E-01  0.1033E+01
     -0.372  0.3628E-01  0.1035E+01
     -0.318  0.3292E-01  0.1036E+01
     -0.264  0.3695E-01  0.1038E+01
     -0.210  0.4205E-01  0.1041E+01
     -0.156  0.3798E-01  0.1043E+01
     -0.103  0.2806E-01  0.1044E+01
     -0.049  0.2181E-01  0.1045E+01
      0.005  0.2176E-01  0.1047E+01
      0.059  0.2605E-01  0.1048E+01
      0.113  0.3091E-01  0.1050E+01
      0.166  0.3230E-01  0.1051E+01
      0.220  0.3127E-01  0.1053E+01
      0.274  0.3101E-01  0.1055E+01
      0.328  0.3209E-01  0.1056E+01
      0.382  0.3494E-01  0.1058E+01
      0.436  0.3880E-01  0.1060E+01
      0.489  0.4167E-01  0.1063E+01
      0.543  0.4448E-01  0.1065E+01
      0.597  0.4766E-01  0.1068E+01
      0.651  0.4806E-01  0.1070E+01
      0.705  0.4582E-01  0.1073E+01
      0.758  0.4317E-01  0.1075E+01
      0.812  0.3774E-01  0.1077E+01
      0.866  0.2820E-01  0.1078E+01
      0.920  0.1865E-01  0.1080E+01
      0.974  0.1458E-01  0.1080E+01
      1.027  0.1893E-01  0.1081E+01
      1.081  0.2661E-01  0.1083E+01
      1.135  0.2724E-01  0.1084E+01
      1.189  0.1947E-01  0.1085E+01
      1.243  0.1216E-01  0.1086E+01
      1.296  0.1069E-01  0.1086E+01
      1.350  0.1266E-01  0.1087E+01
      1.404  0.1496E-01  0.1088E+01
      1.458  0.1959E-01  0.1089E+01
      1.512  0.2802E-01  0.1091E+01
      1.565  0.3435E-01  0.1092E+01
      1.619  0.3252E-01  0.1094E+01
      1.673  0.2591E-01  0.1096E+01
      1.727  0.2374E-01  0.1097E+01
      1.781  0.2999E-01  0.1098E+01
      1.835  0.3700E-01  0.1100E+01
      1.888  0.3462E-01  0.1102E+01
      1.942  0.2583E-01  0.1104E+01
      1.996  0.2115E-01  0.1105E+01
      2.050  0.2312E-01  0.1106E+01
      2.104  0.2740E-01  0.1108E+01
      2.157  0.3178E-01  0.1109E+01
      2.211  0.3705E-01  0.1111E+01
      2.265  0.4300E-01  0.1114E+01
      2.319  0.4734E-01  0.1116E+01
      2.373  0.4787E-01  0.1119E+01
      2.426  0.4502E-01  0.1121E+01
      2.480  0.4098E-01  0.1123E+01
      2.534  0.3770E-01  0.1125E+01
      2.588  0.3714E-01  0.1127E+01
      2.642  0.4011E-01  0.1129E+01
      2.695  0.4516E-01  0.1132E+01
      2.749  0.4626E-01  0.1134E+01
      2.803  0.3727E-01  0.1136E+01
      2.857  0.2274E-01  0.1138E+01
      2.911  0.1380E-01  0.1138E+01
      2.964  0.1239E-01  0.1139E+01
      3.018  0.1175E-01  0.1140E+01
      3.072  0.1059E-01  0.1140E+01
      3.126  0.1273E-01  0.1141E+01
      3.180  0.1736E-01  0.1142E+01
      3.234  0.2173E-01  0.1143E+01
      3.287  0.2383E-01  0.1144E+01
      3.341  0.2178E-01  0.1145E+01
      3.395  0.1782E-01  0.1146E+01
      3.449  0.1605E-01  0.1147E+01
      3.503  0.1877E-01  0.1148E+01
      3.556  0.2536E-01  0.1150E+01
      3.610  0.3334E-01  0.1151E+01
      3.664  0.4078E-01  0.1154E+01
      3.718  0.4472E-01  0.1156E+01
      3.772  0.4133E-01  0.1158E+01
      3.825  0.3240E-01  0.1160E+01
      3.879  0.2561E-01  0.1161E+01
      3.933  0.2496E-01  0.1163E+01
      3.987  0.2841E-01  0.1164E+01
      4.041  0.2994E-01  0.1166E+01
      4.094  0.2560E-01  0.1167E+01
      4.148  0.2006E-01  0.1168E+01
      4.202  0.1879E-01  0.1169E+01
      4.256  0.1938E-01  0.1170E+01
      4.310  0.1835E-01  0.1171E+01
      4.363  0.1794E-01  0.1172E+01
      4.417  0.2163E-01  0.1174E+01
      4.471  0.2783E-01  0.1175E+01
      4.525  0.3569E-01  0.1177E+01
      4.579  0.4738E-01  0.1179E+01
      4.633  0.5651E-01  0.1183E+01
      4.686  0.5408E-01  0.1185E+01
      4.740  0.4599E-01  0.1188E+01
      4.794  0.4358E-01  0.1190E+01
      4.848  0.4763E-01  0.1193E+01
      4.902  0.5272E-01  0.1196E+01
      4.955  0.5782E-01  0.1199E+01
      5.009  0.6563E-01  0.1202E+01
      5.063  0.7374E-01  0.1206E+01
      5.117  0.7461E-01  0.1210E+01
      5.171  0.6761E-01  0.1214E+01
      5.224  0.5943E-01  0.1217E+01
      5.278  0.5108E-01  0.1220E+01
      5.332  0.3911E-01  0.1222E+01
      5.386  0.2381E-01  0.1223E+01
      5.440  0.1042E-01  0.1224E+01
      5.493  0.3042E-02  0.1224E+01
      5.547  0.5652E-03  0.1224E+01
      5.601  0.6468E-04  0.1224E+01
      5.655  0.4456E-05  0.1224E+01
      5.709  0.1816E-06  0.1224E+01
      5.762  0.4325E-08  0.1224E+01
      5.816  0.5960E-10  0.1224E+01
      5.870  0.4719E-12  0.1224E+01
      5.924  0.2138E-14  0.1224E+01
      5.978  0.5502E-17  0.1224E+01
      6.032  0.0000E+00  0.1224E+01
      6.085  0.0000E+00  0.1224E+01
      6.139  0.0000E+00  0.1224E+01
      6.193  0.0000E+00  0.1224E+01
      6.247  0.0000E+00  0.1224E+01
      6.301  0.0000E+00  0.1224E+01
      6.354  0.0000E+00  0.1224E+01
