       N       E                     dE             d eps       ncg     rms          rms(c)
DAV:   1     0.320102541925E+04    0.32010E+04   -0.18981E+05  3672   0.112E+03
DAV:   2     0.137247901799E+02   -0.31873E+04   -0.29272E+04  4392   0.263E+02
DAV:   3    -0.200144682326E+03   -0.21387E+03   -0.19905E+03  4152   0.651E+01
DAV:   4    -0.205860454474E+03   -0.57158E+01   -0.56533E+01  4272   0.107E+01
DAV:   5    -0.206043116080E+03   -0.18266E+00   -0.18205E+00  4464   0.196E+00    0.625E+01
RMM:   6    -0.203183473645E+03    0.28596E+01   -0.94132E+01  3678   0.152E+01    0.566E+01
RMM:   7    -0.224319130896E+03   -0.21136E+02   -0.65559E+01  3679   0.126E+01    0.542E+01
RMM:   8    -0.214319222724E+03    0.99999E+01   -0.86486E+01  3680   0.140E+01    0.381E+01
RMM:   9    -0.204318759498E+03    0.10000E+02   -0.42167E+01  3682   0.106E+01    0.297E+01
RMM:  10    -0.194570456452E+03    0.97483E+01   -0.16210E+01  3682   0.677E+00    0.165E+01
RMM:  11    -0.191269583571E+03    0.33009E+01   -0.88827E+00  3679   0.461E+00    0.135E+01
RMM:  12    -0.188910895715E+03    0.23587E+01   -0.32050E+00  3680   0.281E+00    0.714E+00
RMM:  13    -0.188538779335E+03    0.37212E+00   -0.88788E-01  3681   0.145E+00    0.542E+00
RMM:  14    -0.188592287786E+03   -0.53508E-01   -0.37998E-01  3679   0.952E-01    0.512E+00
RMM:  15    -0.188562439139E+03    0.29849E-01   -0.30755E-01  3680   0.878E-01    0.470E+00
RMM:  16    -0.188415250944E+03    0.14719E+00   -0.22161E-01  3680   0.738E-01    0.295E+00
RMM:  17    -0.188336953312E+03    0.78298E-01   -0.90018E-02  3680   0.460E-01    0.155E+00
RMM:  18    -0.188312008319E+03    0.24945E-01   -0.34995E-02  3679   0.278E-01    0.102E+00
RMM:  19    -0.188304394846E+03    0.76135E-02   -0.10153E-02  3687   0.156E-01    0.671E-01
RMM:  20    -0.188302300593E+03    0.20943E-02   -0.29581E-03  3681   0.842E-02    0.497E-01
RMM:  21    -0.188302040325E+03    0.26027E-03   -0.33004E-03  3681   0.903E-02    0.470E-01
RMM:  22    -0.188299532165E+03    0.25082E-02   -0.29720E-03  3680   0.805E-02    0.217E-01
RMM:  23    -0.188299310822E+03    0.22134E-03   -0.63963E-04  3684   0.391E-02    0.113E-01
RMM:  24    -0.188299434060E+03   -0.12324E-03   -0.37850E-04  3680   0.282E-02    0.836E-02
RMM:  25    -0.188299626779E+03   -0.19272E-03   -0.14006E-04  3681   0.172E-02    0.539E-02
RMM:  26    -0.188299950812E+03   -0.32403E-03   -0.74291E-05  3680   0.120E-02    0.408E-02
RMM:  27    -0.188300399254E+03   -0.44844E-03   -0.51869E-05  3673   0.103E-02    0.359E-02
RMM:  28    -0.188300872264E+03   -0.47301E-03   -0.36180E-05  3672   0.904E-03    0.199E-02
RMM:  29    -0.188301522738E+03   -0.65047E-03   -0.40144E-05  3668   0.817E-03    0.223E-02
RMM:  30    -0.188302325902E+03   -0.80316E-03   -0.63815E-05  3672   0.103E-02    0.163E-02
RMM:  31    -0.188302601772E+03   -0.27587E-03   -0.19708E-05  3126   0.550E-03    0.882E-03
RMM:  32    -0.188302741324E+03   -0.13955E-03   -0.69483E-06  2735   0.338E-03    0.588E-03
RMM:  33    -0.188302850590E+03   -0.10927E-03   -0.31662E-06  2503   0.237E-03    0.434E-03
RMM:  34    -0.188302905987E+03   -0.55398E-04   -0.11545E-06  2190   0.156E-03    0.284E-03
RMM:  35    -0.188302964594E+03   -0.58607E-04   -0.96464E-07  2168   0.135E-03    0.179E-03
RMM:  36    -0.188302997177E+03   -0.32583E-04   -0.69323E-07  2146   0.117E-03    0.291E-03
RMM:  37    -0.188303012924E+03   -0.15747E-04   -0.37252E-07  1978   0.837E-04    0.171E-03
RMM:  38    -0.188303019452E+03   -0.65280E-05   -0.19486E-07  1444   0.577E-04    0.130E-03
RMM:  39    -0.188303022144E+03   -0.26918E-05   -0.10000E-07  1302   0.472E-04    0.650E-04
RMM:  40    -0.188303024020E+03   -0.18767E-05   -0.44811E-08   976   0.393E-04    0.504E-04
RMM:  41    -0.188303024917E+03   -0.89638E-06   -0.23919E-08   727   0.339E-04
   1 F= -.18830302E+03 E0= -.18817842E+03  d E =-.188303E+03
       N       E                     dE             d eps       ncg     rms          rms(c)
DAV:   1    -0.189402144645E+03   -0.10991E+01   -0.37768E+02  3672   0.298E+01    0.379E+00
RMM:   2    -0.189788283461E+03   -0.38614E+00   -0.39729E+00  3681   0.431E+00    0.232E+00
RMM:   3    -0.189933565057E+03   -0.14528E+00   -0.36599E-01  3708   0.104E+00    0.382E+00
RMM:   4    -0.189818632350E+03    0.11493E+00   -0.16294E-01  3687   0.640E-01    0.256E+00
RMM:   5    -0.189806732473E+03    0.11900E-01   -0.96677E-02  3684   0.481E-01    0.212E+00
RMM:   6    -0.189774216467E+03    0.32516E-01   -0.47034E-02  3687   0.352E-01    0.117E+00
RMM:   7    -0.189761657861E+03    0.12559E-01   -0.17319E-02  3679   0.213E-01    0.527E-01
RMM:   8    -0.189760179329E+03    0.14785E-02   -0.53350E-03  3679   0.115E-01    0.392E-01
RMM:   9    -0.189758630620E+03    0.15487E-02   -0.22741E-03  3687   0.759E-02    0.152E-01
RMM:  10    -0.189758486995E+03    0.14363E-03   -0.76279E-04  3687   0.433E-02    0.999E-02
RMM:  11    -0.189758393428E+03    0.93567E-04   -0.20944E-04  3688   0.229E-02    0.471E-02
RMM:  12    -0.189758392679E+03    0.74816E-06   -0.47002E-05  3684   0.110E-02    0.372E-02
RMM:  13    -0.189758383980E+03    0.86995E-05   -0.25002E-05  3679   0.814E-03    0.203E-02
RMM:  14    -0.189758382431E+03    0.15489E-05   -0.10113E-05  3499   0.521E-03    0.108E-02
RMM:  15    -0.189758382245E+03    0.18549E-06   -0.26155E-06  2396   0.269E-03
   2 F= -.18975838E+03 E0= -.18963564E+03  d E =-.145536E+01
       N       E                     dE             d eps       ncg     rms          rms(c)
DAV:   1    -0.188289284569E+03    0.14691E+01   -0.35450E+03  3672   0.938E+01    0.903E+00
RMM:   2    -0.191662337975E+03   -0.33731E+01   -0.34996E+01  3680   0.129E+01    0.535E+00
RMM:   3    -0.192169436973E+03   -0.50710E+00   -0.21317E+00  3708   0.253E+00    0.746E+00
RMM:   4    -0.191703824211E+03    0.46561E+00   -0.69732E-01  3683   0.134E+00    0.565E+00
RMM:   5    -0.191728391414E+03   -0.24567E-01   -0.53372E-01  3685   0.113E+00    0.525E+00
RMM:   6    -0.191487598627E+03    0.24079E+00   -0.38222E-01  3685   0.101E+00    0.231E+00
RMM:   7    -0.191459094596E+03    0.28504E-01   -0.14444E-01  3685   0.606E-01    0.183E+00
RMM:   8    -0.191424171603E+03    0.34923E-01   -0.45714E-02  3684   0.342E-01    0.792E-01
RMM:   9    -0.191417059517E+03    0.71121E-02   -0.13922E-02  3683   0.188E-01    0.358E-01
RMM:  10    -0.191416257924E+03    0.80159E-03   -0.47780E-03  3686   0.106E-01    0.242E-01
RMM:  11    -0.191415932366E+03    0.32556E-03   -0.16703E-03  3684   0.644E-02    0.172E-01
RMM:  12    -0.191415795333E+03    0.13703E-03   -0.55192E-04  3685   0.389E-02    0.990E-02
RMM:  13    -0.191415732177E+03    0.63156E-04   -0.23642E-04  3681   0.246E-02    0.576E-02
RMM:  14    -0.191415711324E+03    0.20853E-04   -0.65598E-05  3678   0.131E-02    0.268E-02
RMM:  15    -0.191415715495E+03   -0.41706E-05   -0.20002E-05  3676   0.707E-03    0.173E-02
RMM:  16    -0.191415721403E+03   -0.59076E-05   -0.55544E-06  3005   0.387E-03    0.710E-03
RMM:  17    -0.191415728114E+03   -0.67117E-05   -0.16724E-06  2155   0.222E-03    0.540E-03
RMM:  18    -0.191415735720E+03   -0.76061E-05   -0.69917E-07  2090   0.150E-03    0.227E-03
RMM:  19    -0.191415741500E+03   -0.57797E-05   -0.30384E-07  2062   0.852E-04    0.201E-03
RMM:  20    -0.191415747243E+03   -0.57424E-05   -0.18124E-07  1531   0.630E-04    0.101E-03
RMM:  21    -0.191415754992E+03   -0.77493E-05   -0.24459E-07  1705   0.618E-04    0.128E-03
RMM:  22    -0.191415762592E+03   -0.76005E-05   -0.35640E-07  1788   0.673E-04    0.117E-03
RMM:  23    -0.191415767255E+03   -0.46624E-05   -0.27720E-07  1525   0.577E-04    0.717E-04
RMM:  24    -0.191415769137E+03   -0.18818E-05   -0.14604E-07  1272   0.458E-04    0.523E-04
RMM:  25    -0.191415770572E+03   -0.14357E-05   -0.10986E-07  1077   0.422E-04    0.356E-04
RMM:  26    -0.191415771069E+03   -0.49712E-06   -0.40838E-08   731   0.367E-04
   3 F= -.19141577E+03 E0= -.19130128E+03  d E =-.311275E+01
       N       E                     dE             d eps       ncg     rms          rms(c)
DAV:   1    -0.191565977738E+03   -0.15021E+00   -0.31583E+02  3672   0.275E+01    0.248E+00
RMM:   2    -0.191898645128E+03   -0.33267E+00   -0.34971E+00  3687   0.400E+00    0.148E+00
RMM:   3    -0.191967015264E+03   -0.68370E-01   -0.22039E-01  3707   0.821E-01    0.299E+00
RMM:   4    -0.191903830610E+03    0.63185E-01   -0.61037E-02  3687   0.406E-01    0.157E+00
RMM:   5    -0.191897216912E+03    0.66137E-02   -0.37508E-02  3684   0.302E-01    0.133E+00
RMM:   6    -0.191888262113E+03    0.89548E-02   -0.39897E-02  3685   0.318E-01    0.871E-01
RMM:   7    -0.191880790311E+03    0.74718E-02   -0.14378E-02  3684   0.190E-01    0.368E-01
RMM:   8    -0.191879361379E+03    0.14289E-02   -0.37303E-03  3683   0.973E-02    0.230E-01
RMM:   9    -0.191878637895E+03    0.72348E-03   -0.13103E-03  3683   0.576E-02    0.813E-02
RMM:  10    -0.191878633858E+03    0.40368E-05   -0.30027E-04  3686   0.265E-02    0.848E-02
RMM:  11    -0.191878564811E+03    0.69047E-04   -0.10456E-04  3684   0.162E-02    0.343E-02
RMM:  12    -0.191878566992E+03   -0.21809E-05   -0.39903E-05  3680   0.100E-02    0.276E-02
RMM:  13    -0.191878562713E+03    0.42794E-05   -0.14992E-05  3677   0.630E-03    0.140E-02
RMM:  14    -0.191878562454E+03    0.25941E-06   -0.38162E-06  2727   0.329E-03
   4 F= -.19187856E+03 E0= -.19176672E+03  d E =-.462791E+00
       N       E                     dE             d eps       ncg     rms          rms(c)
DAV:   1    -0.191868301538E+03    0.10261E-01   -0.47400E+01  3744   0.106E+01    0.876E-01
RMM:   2    -0.191919096013E+03   -0.50794E-01   -0.53361E-01  3686   0.156E+00    0.568E-01
RMM:   3    -0.191931855071E+03   -0.12759E-01   -0.35641E-02  3709   0.329E-01    0.124E+00
RMM:   4    -0.191919765258E+03    0.12090E-01   -0.95105E-03  3686   0.159E-01    0.617E-01
RMM:   5    -0.191917442778E+03    0.23225E-02   -0.43847E-03  3685   0.105E-01    0.397E-01
RMM:   6    -0.191917227056E+03    0.21572E-03   -0.62216E-03  3684   0.125E-01    0.327E-01
RMM:   7    -0.191916247750E+03    0.97931E-03   -0.23458E-03  3684   0.768E-02    0.151E-01
RMM:   8    -0.191916019200E+03    0.22855E-03   -0.56336E-04  3684   0.382E-02    0.944E-02
RMM:   9    -0.191915901380E+03    0.11782E-03   -0.20895E-04  3680   0.231E-02    0.410E-02
RMM:  10    -0.191915893673E+03    0.77069E-05   -0.57194E-05  3683   0.116E-02    0.355E-02
RMM:  11    -0.191915880549E+03    0.13124E-04   -0.22940E-05  3678   0.745E-03    0.128E-02
RMM:  12    -0.191915881625E+03   -0.10763E-05   -0.78436E-06  3656   0.439E-03    0.101E-02
RMM:  13    -0.191915882091E+03   -0.46580E-06   -0.26266E-06  2290   0.274E-03
   5 F= -.19191588E+03 E0= -.19180478E+03  d E =-.500111E+00
       N       E                     dE             d eps       ncg     rms          rms(c)
DAV:   1    -0.191927572181E+03   -0.11691E-01   -0.32086E+01  3720   0.872E+00    0.778E-01
RMM:   2    -0.191961941098E+03   -0.34369E-01   -0.35190E-01  3685   0.127E+00    0.550E-01
RMM:   3    -0.191977692282E+03   -0.15751E-01   -0.28533E-02  3706   0.289E-01    0.134E+00
RMM:   4    -0.191962355927E+03    0.15336E-01   -0.92897E-03  3689   0.154E-01    0.580E-01
RMM:   5    -0.191960034181E+03    0.23217E-02   -0.37865E-03  3685   0.983E-02    0.326E-01
RMM:   6    -0.191959814520E+03    0.21966E-03   -0.39160E-03  3684   0.100E-01    0.230E-01
RMM:   7    -0.191959340283E+03    0.47424E-03   -0.13422E-03  3681   0.584E-02    0.127E-01
RMM:   8    -0.191959207728E+03    0.13255E-03   -0.38058E-04  3681   0.314E-02    0.910E-02
RMM:   9    -0.191959114079E+03    0.93649E-04   -0.15283E-04  3681   0.198E-02    0.384E-02
RMM:  10    -0.191959099799E+03    0.14280E-04   -0.44035E-05  3684   0.102E-02    0.215E-02
RMM:  11    -0.191959095255E+03    0.45433E-05   -0.11963E-05  3672   0.544E-03    0.979E-03
RMM:  12    -0.191959095386E+03   -0.13031E-06   -0.42739E-06  2745   0.334E-03
   6 F= -.19195910E+03 E0= -.19184871E+03  d E =-.432133E-01
       N       E                     dE             d eps       ncg     rms          rms(c)
DAV:   1    -0.191958367439E+03    0.72782E-03   -0.37409E+00  3744   0.297E+00    0.260E-01
RMM:   2    -0.191962389559E+03   -0.40221E-02   -0.41158E-02  3686   0.434E-01    0.192E-01
RMM:   3    -0.191964117855E+03   -0.17283E-02   -0.33338E-03  3710   0.989E-02    0.446E-01
RMM:   4    -0.191962396586E+03    0.17213E-02   -0.10598E-03  3689   0.518E-02    0.203E-01
RMM:   5    -0.191962128126E+03    0.26846E-03   -0.43030E-04  3683   0.333E-02    0.106E-01
RMM:   6    -0.191962127380E+03    0.74575E-06   -0.46812E-04  3685   0.346E-02    0.828E-02
RMM:   7    -0.191962063581E+03    0.63799E-04   -0.16820E-04  3684   0.206E-02    0.427E-02
RMM:   8    -0.191962048609E+03    0.14972E-04   -0.43146E-05  3676   0.107E-02    0.303E-02
RMM:   9    -0.191962038850E+03    0.97591E-05   -0.17442E-05  3672   0.669E-03    0.144E-02
RMM:  10    -0.191962036406E+03    0.24440E-05   -0.55671E-06  3290   0.366E-03    0.662E-03
RMM:  11    -0.191962036059E+03    0.34698E-06   -0.13870E-06  2004   0.203E-03
   7 F= -.19196204E+03 E0= -.19185190E+03  d E =-.461540E-01
       N       E                     dE             d eps       ncg     rms          rms(c)
DAV:   1    -0.191964659457E+03   -0.26231E-02   -0.63607E+00  3696   0.387E+00    0.253E-01
RMM:   2    -0.191971270437E+03   -0.66110E-02   -0.70863E-02  3686   0.568E-01    0.192E-01
RMM:   3    -0.191971409927E+03   -0.13949E-03   -0.40022E-03  3722   0.114E-01    0.185E-01
RMM:   4    -0.191971270129E+03    0.13980E-03   -0.81320E-04  3684   0.485E-02    0.181E-01
RMM:   5    -0.191971514855E+03   -0.24473E-03   -0.56082E-04  3687   0.361E-02    0.240E-01
RMM:   6    -0.191971096210E+03    0.41864E-03   -0.69023E-04  3684   0.405E-02    0.145E-01
RMM:   7    -0.191970961286E+03    0.13492E-03   -0.40703E-04  3684   0.321E-02    0.615E-02
RMM:   8    -0.191970927948E+03    0.33338E-04   -0.78260E-05  3685   0.146E-02    0.297E-02
RMM:   9    -0.191970917328E+03    0.10620E-04   -0.31555E-05  3678   0.876E-03    0.257E-02
RMM:  10    -0.191970908556E+03    0.87721E-05   -0.16348E-05  3672   0.623E-03    0.127E-02
RMM:  11    -0.191970907017E+03    0.15391E-05   -0.48329E-06  3001   0.345E-03    0.725E-03
RMM:  12    -0.191970906570E+03    0.44733E-06   -0.26629E-06  2065   0.273E-03
   8 F= -.19197091E+03 E0= -.19186074E+03  d E =-.887051E-02
       N       E                     dE             d eps       ncg     rms          rms(c)
DAV:   1    -0.191970632171E+03    0.27485E-03   -0.14866E+00  3744   0.187E+00    0.120E-01
RMM:   2    -0.191972174256E+03   -0.15421E-02   -0.16566E-02  3686   0.275E-01    0.924E-02
RMM:   3    -0.191972205254E+03   -0.30998E-04   -0.93631E-04  3722   0.550E-02    0.898E-02
RMM:   4    -0.191972171184E+03    0.34070E-04   -0.18492E-04  3684   0.232E-02    0.873E-02
RMM:   5    -0.191972223733E+03   -0.52550E-04   -0.12520E-04  3687   0.171E-02    0.114E-01
RMM:   6    -0.191972128592E+03    0.95141E-04   -0.16228E-04  3684   0.197E-02    0.684E-02
RMM:   7    -0.191972100587E+03    0.28006E-04   -0.97348E-05  3684   0.157E-02    0.298E-02
RMM:   8    -0.191972092675E+03    0.79122E-05   -0.18403E-05  3672   0.707E-03    0.136E-02
RMM:   9    -0.191972090098E+03    0.25763E-05   -0.74627E-06  3665   0.424E-03    0.116E-02
RMM:  10    -0.191972088199E+03    0.18992E-05   -0.31100E-06  2258   0.286E-03    0.568E-03
RMM:  11    -0.191972087974E+03    0.22506E-06   -0.13392E-06  1936   0.208E-03
   9 F= -.19197209E+03 E0= -.19186191E+03  d E =-.100519E-01
       N       E                     dE             d eps       ncg     rms          rms(c)
DAV:   1    -0.191972979560E+03   -0.89136E-03   -0.47159E+00  3672   0.331E+00    0.202E-01
RMM:   2    -0.191977912974E+03   -0.49334E-02   -0.51369E-02  3687   0.489E-01    0.186E-01
RMM:   3    -0.191978178370E+03   -0.26540E-03   -0.30970E-03  3749   0.100E-01    0.215E-01
RMM:   4    -0.191978059779E+03    0.11859E-03   -0.58414E-04  3681   0.391E-02    0.210E-01
RMM:   5    -0.191977753230E+03    0.30655E-03   -0.42056E-04  3685   0.323E-02    0.138E-01
RMM:   6    -0.191977667772E+03    0.85458E-04   -0.67951E-04  3684   0.407E-02    0.105E-01
RMM:   7    -0.191977641040E+03    0.26732E-04   -0.37856E-04  3686   0.308E-02    0.742E-02
RMM:   8    -0.191977597424E+03    0.43616E-04   -0.75165E-05  3684   0.141E-02    0.352E-02
RMM:   9    -0.191977584940E+03    0.12484E-04   -0.22124E-05  3678   0.747E-03    0.266E-02
RMM:  10    -0.191977573271E+03    0.11669E-04   -0.21691E-05  3678   0.701E-03    0.142E-02
RMM:  11    -0.191977571184E+03    0.20872E-05   -0.83707E-06  3654   0.437E-03    0.933E-03
RMM:  12    -0.191977570367E+03    0.81681E-06   -0.56458E-06  3396   0.357E-03
  10 F= -.19197757E+03 E0= -.19186706E+03  d E =-.548239E-02
       N       E                     dE             d eps       ncg     rms          rms(c)
DAV:   1    -0.191972284358E+03    0.52868E-02   -0.82181E+00  3672   0.437E+00    0.263E-01
RMM:   2    -0.191980882805E+03   -0.85984E-02   -0.89349E-02  3687   0.645E-01    0.243E-01
RMM:   3    -0.191981346761E+03   -0.46396E-03   -0.53530E-03  3750   0.132E-01    0.283E-01
RMM:   4    -0.191981118042E+03    0.22872E-03   -0.99420E-04  3681   0.511E-02    0.273E-01
RMM:   5    -0.191980590633E+03    0.52741E-03   -0.71868E-04  3684   0.422E-02    0.179E-01
RMM:   6    -0.191980429784E+03    0.16085E-03   -0.11993E-03  3684   0.540E-02    0.134E-01
RMM:   7    -0.191980389765E+03    0.40020E-04   -0.64031E-04  3686   0.400E-02    0.948E-02
RMM:   8    -0.191980318520E+03    0.71244E-04   -0.12295E-04  3685   0.180E-02    0.459E-02
RMM:   9    -0.191980296618E+03    0.21902E-04   -0.38336E-05  3678   0.979E-03    0.354E-02
RMM:  10    -0.191980276433E+03    0.20185E-04   -0.37107E-05  3684   0.918E-03    0.182E-02
RMM:  11    -0.191980273146E+03    0.32866E-05   -0.14733E-05  3672   0.578E-03    0.127E-02
RMM:  12    -0.191980271654E+03    0.14926E-05   -0.97023E-06  3672   0.463E-03    0.542E-03
RMM:  13    -0.191980271576E+03    0.78006E-07   -0.13227E-06  1970   0.196E-03
  11 F= -.19198027E+03 E0= -.19186932E+03  d E =-.818360E-02
       N       E                     dE             d eps       ncg     rms          rms(c)
DAV:   1    -0.191978195877E+03    0.20758E-02   -0.55830E+00  3672   0.362E+00    0.184E-01
RMM:   2    -0.191984036168E+03   -0.58403E-02   -0.61006E-02  3682   0.534E-01    0.176E-01
RMM:   3    -0.191984113915E+03   -0.77747E-04   -0.35277E-03  3762   0.107E-01    0.163E-01
RMM:   4    -0.191984109381E+03    0.45346E-05   -0.46821E-04  3678   0.363E-02    0.188E-01
RMM:   5    -0.191983878711E+03    0.23067E-03   -0.22245E-04  3688   0.236E-02    0.135E-01
RMM:   6    -0.191983738246E+03    0.14046E-03   -0.64530E-04  3684   0.393E-02    0.101E-01
RMM:   7    -0.191983740746E+03   -0.24999E-05   -0.54582E-04  3685   0.364E-02    0.764E-02
RMM:   8    -0.191983710489E+03    0.30257E-04   -0.10316E-04  3685   0.163E-02    0.424E-02
RMM:   9    -0.191983694015E+03    0.16475E-04   -0.22357E-05  3678   0.761E-03    0.325E-02
RMM:  10    -0.191983677657E+03    0.16358E-04   -0.25925E-05  3684   0.776E-03    0.181E-02
RMM:  11    -0.191983673906E+03    0.37505E-05   -0.13563E-05  3672   0.553E-03    0.119E-02
RMM:  12    -0.191983672559E+03    0.13471E-05   -0.11014E-05  3675   0.490E-03    0.510E-03
RMM:  13    -0.191983672593E+03   -0.34408E-07   -0.15054E-06  1976   0.206E-03
  12 F= -.19198367E+03 E0= -.19187246E+03  d E =-.340102E-02
       N       E                     dE             d eps       ncg     rms          rms(c)
DAV:   1    -0.191982595885E+03    0.10767E-02   -0.15560E+00  3672   0.191E+00    0.965E-02
RMM:   2    -0.191984214565E+03   -0.16187E-02   -0.16987E-02  3682   0.282E-01    0.930E-02
RMM:   3    -0.191984230738E+03   -0.16172E-04   -0.98018E-04  3765   0.563E-02    0.851E-02
RMM:   4    -0.191984229819E+03    0.91873E-06   -0.12723E-04  3678   0.189E-02    0.981E-02
RMM:   5    -0.191984169315E+03    0.60504E-04   -0.60308E-05  3689   0.123E-02    0.715E-02
RMM:   6    -0.191984133084E+03    0.36231E-04   -0.18276E-04  3684   0.209E-02    0.528E-02
RMM:   7    -0.191984136891E+03   -0.38066E-05   -0.15466E-04  3685   0.194E-02    0.402E-02
RMM:   8    -0.191984128752E+03    0.81387E-05   -0.28307E-05  3677   0.854E-03    0.227E-02
RMM:   9    -0.191984124111E+03    0.46412E-05   -0.60576E-06  3014   0.401E-03    0.174E-02
RMM:  10    -0.191984119444E+03    0.46667E-05   -0.76046E-06  3669   0.428E-03    0.956E-03
RMM:  11    -0.191984118393E+03    0.10515E-05   -0.37462E-06  2498   0.306E-03    0.651E-03
RMM:  12    -0.191984118056E+03    0.33655E-06   -0.32482E-06  2081   0.306E-03
  13 F= -.19198412E+03 E0= -.19187276E+03  d E =-.384648E-02
       N       E                     dE             d eps       ncg     rms          rms(c)
DAV:   1    -0.191982205254E+03    0.19131E-02   -0.32574E+00  3672   0.278E+00    0.138E-01
RMM:   2    -0.191985602009E+03   -0.33968E-02   -0.35695E-02  3682   0.407E-01    0.124E-01
RMM:   3    -0.191985630756E+03   -0.28747E-04   -0.20358E-03  3734   0.807E-02    0.118E-01
RMM:   4    -0.191985553382E+03    0.77374E-04   -0.23773E-04  3678   0.269E-02    0.110E-01
RMM:   5    -0.191985502274E+03    0.51108E-04   -0.78100E-05  3690   0.139E-02    0.933E-02
RMM:   6    -0.191985420754E+03    0.81520E-04   -0.36503E-04  3683   0.294E-02    0.665E-02
RMM:   7    -0.191985423360E+03   -0.26059E-05   -0.26145E-04  3686   0.251E-02    0.514E-02
RMM:   8    -0.191985410912E+03    0.12448E-04   -0.48370E-05  3684   0.112E-02    0.313E-02
RMM:   9    -0.191985402594E+03    0.83183E-05   -0.11298E-05  3651   0.544E-03    0.215E-02
RMM:  10    -0.191985395257E+03    0.73370E-05   -0.10993E-05  3672   0.509E-03    0.117E-02
RMM:  11    -0.191985393299E+03    0.19577E-05   -0.82821E-06  3672   0.429E-03    0.636E-03
RMM:  12    -0.191985392997E+03    0.30225E-06   -0.39209E-06  2503   0.309E-03
  14 F= -.19198539E+03 E0= -.19187394E+03  d E =-.127494E-02
       N       E                     dE             d eps       ncg     rms          rms(c)
DAV:   1    -0.191985388484E+03    0.48154E-05   -0.48784E-03  3888   0.108E-01    0.638E-03
RMM:   2    -0.191985393846E+03   -0.53622E-05   -0.56226E-05  3687   0.159E-02    0.604E-03
RMM:   3    -0.191985393781E+03    0.64654E-07   -0.32874E-06  2308   0.351E-03
  15 F= -.19198539E+03 E0= -.19187396E+03  d E =-.127573E-02
       N       E                     dE             d eps       ncg     rms          rms(c)
DAV:   1    -0.191984945278E+03    0.44857E-03   -0.15376E+00  3672   0.190E+00    0.895E-02
RMM:   2    -0.191986570700E+03   -0.16254E-02   -0.16693E-02  3679   0.279E-01    0.964E-02
RMM:   3    -0.191986567759E+03    0.29407E-05   -0.10247E-03  3764   0.574E-02    0.819E-02
RMM:   4    -0.191986520550E+03    0.47209E-04   -0.99968E-05  3675   0.176E-02    0.709E-02
RMM:   5    -0.191986514241E+03    0.63090E-05   -0.35883E-05  3688   0.941E-03    0.723E-02
RMM:   6    -0.191986480148E+03    0.34093E-04   -0.18922E-04  3681   0.212E-02    0.616E-02
RMM:   7    -0.191986461829E+03    0.18320E-04   -0.14215E-04  3680   0.185E-02    0.315E-02
RMM:   8    -0.191986464137E+03   -0.23089E-05   -0.26645E-05  3681   0.821E-03    0.237E-02
RMM:   9    -0.191986459346E+03    0.47915E-05   -0.48462E-06  2882   0.366E-03    0.160E-02
RMM:  10    -0.191986456174E+03    0.31718E-05   -0.50910E-06  3217   0.356E-03    0.121E-02
RMM:  11    -0.191986454029E+03    0.21450E-05   -0.53473E-06  3424   0.359E-03    0.550E-03
RMM:  12    -0.191986453752E+03    0.27747E-06   -0.25167E-06  1988   0.261E-03
  16 F= -.19198645E+03 E0= -.19187492E+03  d E =-.105997E-02
       N       E                     dE             d eps       ncg     rms          rms(c)
DAV:   1    -0.191986032513E+03    0.42152E-03   -0.75323E-01  3672   0.133E+00    0.625E-02
RMM:   2    -0.191986830124E+03   -0.79761E-03   -0.81455E-03  3679   0.196E-01    0.727E-02
RMM:   3    -0.191986846504E+03   -0.16380E-04   -0.51171E-04  3769   0.403E-02    0.762E-02
RMM:   4    -0.191986808612E+03    0.37891E-04   -0.58041E-05  3674   0.128E-02    0.593E-02
RMM:   5    -0.191986784672E+03    0.23940E-04   -0.19010E-05  3686   0.720E-03    0.427E-02
RMM:   6    -0.191986777272E+03    0.74001E-05   -0.10786E-04  3680   0.160E-02    0.427E-02
RMM:   7    -0.191986769458E+03    0.78144E-05   -0.74411E-05  3678   0.133E-02    0.233E-02
RMM:   8    -0.191986770156E+03   -0.69839E-06   -0.13274E-05  3673   0.581E-03    0.168E-02
RMM:   9    -0.191986767732E+03    0.24239E-05   -0.23117E-06  2303   0.259E-03    0.116E-02
RMM:  10    -0.191986765955E+03    0.17775E-05   -0.25946E-06  2018   0.271E-03    0.875E-03
RMM:  11    -0.191986764891E+03    0.10637E-05   -0.28350E-06  1995   0.293E-03    0.433E-03
RMM:  12    -0.191986764770E+03    0.12110E-06   -0.20699E-06  1930   0.251E-03
  17 F= -.19198676E+03 E0= -.19187516E+03  d E =-.137099E-02
       N       E                     dE             d eps       ncg     rms          rms(c)
DAV:   1    -0.191986165356E+03    0.59954E-03   -0.15645E+00  3672   0.193E+00    0.908E-02
RMM:   2    -0.191987875817E+03   -0.17105E-02   -0.17102E-02  3679   0.283E-01    0.124E-01
RMM:   3    -0.191987920025E+03   -0.44208E-04   -0.11253E-03  3752   0.590E-02    0.129E-01
RMM:   4    -0.191987789180E+03    0.13084E-03   -0.14213E-04  3677   0.199E-02    0.850E-02
RMM:   5    -0.191987738716E+03    0.50464E-04   -0.43036E-05  3685   0.110E-02    0.618E-02
RMM:   6    -0.191987736902E+03    0.18149E-05   -0.20704E-04  3684   0.222E-02    0.712E-02
RMM:   7    -0.191987704102E+03    0.32799E-04   -0.18518E-04  3685   0.209E-02    0.285E-02
RMM:   8    -0.191987708610E+03   -0.45077E-05   -0.26664E-05  3676   0.821E-03    0.241E-02
RMM:   9    -0.191987703572E+03    0.50377E-05   -0.47237E-06  2867   0.362E-03    0.167E-02
RMM:  10    -0.191987700682E+03    0.28903E-05   -0.42152E-06  2795   0.332E-03    0.132E-02
RMM:  11    -0.191987697800E+03    0.28816E-05   -0.98316E-06  3672   0.480E-03    0.461E-03
RMM:  12    -0.191987697663E+03    0.13695E-06   -0.18010E-06  1956   0.221E-03
  18 F= -.19198770E+03 E0= -.19187603E+03  d E =-.932893E-03
