unknown system                          
           1
    11.002582    0.000000    0.000000
     5.501291    9.528515    0.000000
     0.000000    0.000000   24.491785
   Au   Pd
  24  24
Direct configuration=     1
   0.08333333  0.08333333  0.40830017
   0.50000000  0.25000000  0.59169983
   0.41666667  0.41666667  0.50000000
   0.58333333  0.33333333  0.40830017
   0.50000000  0.00000000  0.59169983
   0.41666667  0.16666667  0.50000000
   0.66666667  0.91666667  0.50000000
   0.16666667  0.91666667  0.50000000
   0.33333333  0.83333333  0.40830017
   0.25000000  0.50000000  0.59169983
   0.16666667  0.66666667  0.50000000
   0.66666667  0.16666667  0.50000000
   0.25000000  0.25000000  0.59169983
   0.33333333  0.33333333  0.40830017
   0.50000000  0.50000000  0.59169983
   0.66666667  0.66666667  0.50000000
   0.33333333  0.08333333  0.40830017
   0.75000000  0.25000000  0.59169983
   0.00000000  0.00000000  0.59169983
   0.00000000  0.50000000  0.59169983
   0.91666667  0.66666667  0.50000000
   0.25000000  0.00000000  0.59169983
   0.08333333  0.33333333  0.40830017
   0.91666667  0.41666667  0.50000000
   0.50000000  0.75000000  0.59169983
   0.83333333  0.83333333  0.40830017
   0.83333333  0.33333333  0.40830017
   0.83333333  0.08333333  0.40830017
   0.83333333  0.58333333  0.40830017
   0.66666667  0.41666667  0.50000000
   0.41666667  0.91666667  0.50000000
   0.75000000  0.50000000  0.59169983
   0.75000000  0.00000000  0.59169983
   0.25000000  0.75000000  0.59169983
   0.41666667  0.66666667  0.50000000
   0.58333333  0.58333333  0.40830017
   0.58333333  0.08333333  0.40830017
   0.33333333  0.58333333  0.40830017
   0.16666667  0.41666667  0.50000000
   0.16666667  0.16666667  0.50000000
   0.00000000  0.75000000  0.59169983
   0.91666667  0.91666667  0.50000000
   0.08333333  0.83333333  0.40830017
   0.08333333  0.58333333  0.40830017
   0.00000000  0.25000000  0.59169983
   0.91666667  0.16666667  0.50000000
   0.58333333  0.83333333  0.40830017
   0.75000000  0.75000000  0.59169983
Direct configuration=     2
   0.08150884  0.08378791  0.40640811
   0.50084570  0.24922441  0.59432158
   0.41616327  0.41857855  0.49949898
   0.58446170  0.33366479  0.40619394
   0.50113170 -0.00175527  0.59393105
   0.41580082  0.16603066  0.49955199
   0.66752473  0.91605720  0.49961596
   0.16656233  0.91637511  0.50002646
   0.33464317  0.83165969  0.40641955
   0.24889160  0.50138261  0.59395953
   0.16610937  0.66743048  0.49958725
   0.66946663  0.16498379  0.49951712
   0.24867060  0.25024064  0.59363010
   0.33265227  0.33438194  0.40605982
   0.50030022  0.50174293  0.59366288
   0.66501481  0.66662605  0.49995704
   0.33457558  0.08229654  0.40635949
   0.75103972  0.25018584  0.59361085
  -0.00063018 -0.00037464  0.59352857
  -0.00083716  0.50040311  0.59385826
   0.91704563  0.66752421  0.49960579
   0.25034140 -0.00051446  0.59352855
   0.08228651  0.33460872  0.40640414
   0.91631857  0.41509213  0.49995571
   0.50038860  0.74932895  0.59261736
   0.83346051  0.83351340  0.40719379
   0.83286736  0.33354448  0.40731811
   0.83379983  0.08271526  0.40737821
   0.83282333  0.58373888  0.40691119
   0.66718863  0.41733386  0.49974606
   0.41707735  0.91568309  0.50000243
   0.74966803  0.50037159  0.59281277
   0.75087311 -0.00110820  0.59295845
   0.25041391  0.74979881  0.59289125
   0.41757225  0.66658757  0.49996700
   0.58354972  0.58342855  0.40737087
   0.58433201  0.08220623  0.40691169
   0.33309362  0.58395176  0.40711311
   0.16626458  0.41678235  0.49974042
   0.16605107  0.16695057  0.50023099
  -0.00072094  0.75083285  0.59290508
   0.91646754  0.91700450  0.49974976
   0.08246156  0.83309647  0.40719804
   0.08296913  0.58403343  0.40712272
  -0.00054173  0.25031666  0.59268305
   0.91624065  0.16717930  0.49975989
   0.58389042  0.83295601  0.40712508
   0.74992162  0.75012071  0.59309997
Direct configuration=     3
   0.07603536  0.08515164  0.40073193
   0.50338279  0.24689763  0.60218682
   0.41465306  0.42431418  0.49799594
   0.58784681  0.33465914  0.39987526
   0.50452679 -0.00702109  0.60062471
   0.41320330  0.16412264  0.49820797
   0.67009892  0.91422878  0.49846384
   0.16624932  0.91550043  0.50010583
   0.33857269  0.82663877  0.40077770
   0.24556642  0.50553044  0.60073865
   0.16443749  0.66972191  0.49834899
   0.67786651  0.15993517  0.49806846
   0.24468242  0.25096257  0.59942091
   0.33060908  0.33752776  0.39933876
   0.50120089  0.50697172  0.59955203
   0.66005925  0.66650420  0.49982814
   0.33830234  0.07918615  0.40053744
   0.75415889  0.25074338  0.59934390
  -0.00252072 -0.00149855  0.59901478
  -0.00334865  0.50161243  0.60033355
   0.91818252  0.67009684  0.49842315
   0.25136561 -0.00205784  0.59901470
   0.07914605  0.33843489  0.40071606
   0.91527429  0.41036851  0.49982283
   0.50155439  0.74731581  0.59536996
   0.83384202  0.83405358  0.40387466
   0.83146943  0.33417791  0.40437194
   0.83519932  0.08086102  0.40461232
   0.83129332  0.58495550  0.40274426
   0.66875453  0.41933542  0.49898423
   0.41830938  0.91273236  0.50000971
   0.74867212  0.50148636  0.59615159
   0.75349245 -0.00443282  0.59673431
   0.25165565  0.74919525  0.59646550
   0.42028899  0.66635027  0.49986800
   0.58419886  0.58371421  0.40458297
   0.58732806  0.07882493  0.40274624
   0.33237449  0.58580703  0.40355195
   0.16505832  0.41712940  0.49896167
   0.16420427  0.16780227  0.50092395
  -0.00288375  0.75333142  0.59652082
   0.91587015  0.91801802  0.49899905
   0.07984625  0.83238588  0.40389164
   0.08187653  0.58613374  0.40359039
  -0.00216694  0.25126664  0.59563272
   0.91496259  0.16871720  0.49903956
   0.58556169  0.83182404  0.40359982
   0.74968646  0.75048284  0.59730038
Direct configuration=     4
   0.07844321  0.08421735  0.39944383
   0.50292661  0.24762218  0.60315962
   0.41684974  0.42033187  0.49854860
   0.58692851  0.33403011  0.39837835
   0.50405753 -0.00572733  0.60191582
   0.41439169  0.16546705  0.49860357
   0.66778426  0.91491102  0.49900901
   0.16642425  0.91715937  0.49993583
   0.33677084  0.82840896  0.39937446
   0.24671122  0.50457565  0.60196775
   0.16560652  0.66890166  0.49897948
   0.67212592  0.16447099  0.49869300
   0.24648875  0.25092977  0.60051922
   0.33188780  0.33683033  0.39778335
   0.50095280  0.50416945  0.60085890
   0.66435551  0.66640198  0.49988455
   0.33640024  0.07957671  0.39913085
   0.75219617  0.25126298  0.60053349
  -0.00133842 -0.00162621  0.60023859
  -0.00438489  0.50275269  0.60146645
   0.91740599  0.66694803  0.49890094
   0.25096110 -0.00230813  0.60022788
   0.07955029  0.33751574  0.39936306
   0.91629185  0.41369640  0.49984904
   0.50163296  0.74853549  0.59640440
   0.83380527  0.83369790  0.40238102
   0.83156689  0.33481345  0.40313405
   0.83460513  0.08070025  0.40306091
   0.83085333  0.58546655  0.40206774
   0.66669296  0.41729607  0.49943457
   0.41655308  0.91472298  0.50000916
   0.74951258  0.50199576  0.59699958
   0.75226479 -0.00366983  0.59747771
   0.25073415  0.74985054  0.59714075
   0.41783693  0.66694751  0.49992978
   0.58500192  0.58328050  0.40333910
   0.58693217  0.08017011  0.40170659
   0.33238074  0.58561522  0.40225063
   0.16522654  0.41697070  0.49926850
   0.16514775  0.16614166  0.50045789
  -0.00265497  0.75252692  0.59723850
   0.91819155  0.91746076  0.49944708
   0.08056487  0.83272842  0.40270348
   0.08136826  0.58643366  0.40236059
  -0.00184573  0.25066570  0.59651934
   0.91686158  0.16657559  0.49941471
   0.58653631  0.83111401  0.40257488
   0.75044347  0.74944147  0.59791341
Direct configuration=     5
   0.07937736  0.08385489  0.39894410
   0.50274963  0.24790328  0.60353703
   0.41770197  0.41878689  0.49876302
   0.58657224  0.33378607  0.39779761
   0.50387547 -0.00522540  0.60241672
   0.41485274  0.16598863  0.49875705
   0.66688627  0.91517570  0.49922051
   0.16649211  0.91780298  0.49986987
   0.33607180  0.82909572  0.39883007
   0.24715535  0.50420523  0.60244459
   0.16606005  0.66858344  0.49922408
   0.66989881  0.16623070  0.49893530
   0.24718954  0.25091704  0.60094531
   0.33238389  0.33655976  0.39717991
   0.50085656  0.50308228  0.60136591
   0.66602228  0.66636232  0.49990644
   0.33566230  0.07972823  0.39858515
   0.75143471  0.25146457  0.60099500
  -0.00087973 -0.00167573  0.60071339
  -0.00478691  0.50319506  0.60190597
   0.91710472  0.66572642  0.49908630
   0.25080417 -0.00240523  0.60069855
   0.07970712  0.33715915  0.39883815
   0.91668662  0.41498749  0.49985920
   0.50166344  0.74900867  0.59680572
   0.83379101  0.83355990  0.40180154
   0.83160470  0.33506002  0.40265380
   0.83437462  0.08063788  0.40245903
   0.83068264  0.58566481  0.40180527
   0.66589315  0.41650489  0.49960928
   0.41587171  0.91549526  0.50000894
   0.74983864  0.50219339  0.59732856
   0.75178850 -0.00337383  0.59776612
   0.25037664  0.75010477  0.59740272
   0.41688563  0.66717922  0.49995375
   0.58531347  0.58311224  0.40285653
   0.58677858  0.08069198  0.40130326
   0.33238317  0.58554080  0.40174577
   0.16529180  0.41690912  0.49938754
   0.16551378  0.16549741  0.50027708
  -0.00256621  0.75221481  0.59751693
   0.91909215  0.91724456  0.49962090
   0.08084366  0.83286131  0.40224252
   0.08117107  0.58655001  0.40188348
  -0.00172111  0.25043255  0.59686331
   0.91759831  0.16574473  0.49956025
   0.58691442  0.83083854  0.40217724
   0.75073715  0.74903745  0.59815124
Direct configuration=     6
   0.07985062  0.08382706  0.39846221
   0.50195305  0.24821882  0.60387921
   0.41686959  0.41799259  0.49900123
   0.58615003  0.33367834  0.39717409
   0.50314750 -0.00405581  0.60281941
   0.41454531  0.16669452  0.49890976
   0.66683095  0.91643170  0.49941824
   0.16698257  0.91791764  0.49969080
   0.33576589  0.82948177  0.39838311
   0.24755380  0.50352262  0.60280167
   0.16660953  0.66718213  0.49944293
   0.66935889  0.16592869  0.49919529
   0.24789170  0.25090055  0.60111393
   0.33261690  0.33595526  0.39670402
   0.50045734  0.50285087  0.60172635
   0.66491447  0.66595697  0.49991712
   0.33531488  0.08045299  0.39819505
   0.75129899  0.25109825  0.60133512
  -0.00107838 -0.00128030  0.60116685
  -0.00360896  0.50247992  0.60237176
   0.91768907  0.66629502  0.49923248
   0.25081381 -0.00192084  0.60111864
   0.08041398  0.33661520  0.39841184
   0.91713875  0.41396806  0.49981340
   0.50171120  0.74878979  0.59691760
   0.83368851  0.83352934  0.40154861
   0.83202695  0.33473188  0.40247958
   0.83403674  0.08101713  0.40217437
   0.83108704  0.58546252  0.40146369
   0.66624790  0.41650427  0.49983920
   0.41562385  0.91602695  0.49995194
   0.74952956  0.50199633  0.59747673
   0.75136241 -0.00272683  0.59775627
   0.25034158  0.74995501  0.59754148
   0.41739847  0.66701533  0.49993755
   0.58513690  0.58318970  0.40268316
   0.58608732  0.08122394  0.40115116
   0.33255353  0.58509196  0.40146051
   0.16663794  0.41621849  0.49952307
   0.16609933  0.16598069  0.49999169
  -0.00229224  0.75174310  0.59758197
   0.91796139  0.91744089  0.49976876
   0.08135402  0.83285469  0.40191589
   0.08128814  0.58639020  0.40166269
  -0.00134791  0.25040132  0.59692497
   0.91701626  0.16622210  0.49967375
   0.58646826  0.83126016  0.40193065
   0.75050256  0.74948904  0.59836022
Direct configuration=     7
   0.08001224  0.08381756  0.39829764
   0.50168101  0.24832659  0.60399607
   0.41658533  0.41772133  0.49908259
   0.58600584  0.33364154  0.39696116
   0.50289888 -0.00365638  0.60295693
   0.41444032  0.16693559  0.49896191
   0.66681206  0.91686063  0.49948576
   0.16715007  0.91795680  0.49962965
   0.33566141  0.82961362  0.39823047
   0.24768988  0.50328950  0.60292361
   0.16679718  0.66670357  0.49951767
   0.66917450  0.16582555  0.49928408
   0.24813149  0.25089492  0.60117151
   0.33269647  0.33574882  0.39654149
   0.50032101  0.50277184  0.60184945
   0.66453614  0.66581854  0.49992076
   0.33519624  0.08070050  0.39806182
   0.75125264  0.25097315  0.60145128
  -0.00114623 -0.00114526  0.60132172
  -0.00320668  0.50223569  0.60253083
   0.91788863  0.66648920  0.49928240
   0.25081711 -0.00175541  0.60126210
   0.08065538  0.33642944  0.39826625
   0.91729316  0.41361992  0.49979776
   0.50172751  0.74871503  0.59695580
   0.83365351  0.83351890  0.40146223
   0.83217116  0.33461982  0.40242009
   0.83392135  0.08114664  0.40207716
   0.83122515  0.58539344  0.40134703
   0.66636904  0.41650406  0.49991772
   0.41553921  0.91620852  0.49993247
   0.74942401  0.50192904  0.59752733
   0.75121690 -0.00250587  0.59775290
   0.25032960  0.74990387  0.59758887
   0.41757362  0.66695937  0.49993201
   0.58507660  0.58321615  0.40262396
   0.58585124  0.08140562  0.40109921
   0.33261171  0.58493867  0.40136309
   0.16709766  0.41598263  0.49956935
   0.16629930  0.16614573  0.49989423
  -0.00219867  0.75158200  0.59760419
   0.91757522  0.91750793  0.49981926
   0.08152831  0.83285243  0.40180434
   0.08132813  0.58633562  0.40158729
  -0.00122046  0.25039065  0.59694602
   0.91681748  0.16638513  0.49971251
   0.58631589  0.83140415  0.40184643
   0.75042244  0.74964327  0.59843158
Direct configuration=     8
   0.07973657  0.08388030  0.39804203
   0.50154785  0.24850570  0.60434359
   0.41665223  0.41796771  0.49911513
   0.58598971  0.33374753  0.39667931
   0.50273238 -0.00354086  0.60318979
   0.41428909  0.16657335  0.49896345
   0.66677811  0.91657777  0.49950085
   0.16686676  0.91766773  0.49953895
   0.33588441  0.82945134  0.39800005
   0.24772655  0.50330248  0.60322932
   0.16698190  0.66685877  0.49948886
   0.66958128  0.16584316  0.49928896
   0.24805526  0.25075361  0.60124720
   0.33258067  0.33573073  0.39621724
   0.50014570  0.50299146  0.60200611
   0.66429706  0.66609694  0.49985665
   0.33548259  0.08087739  0.39785905
   0.75134087  0.25081770  0.60164045
  -0.00116851 -0.00114067  0.60149226
  -0.00284654  0.50180998  0.60272499
   0.91766213  0.66666471  0.49928474
   0.25082501 -0.00157652  0.60143297
   0.08083428  0.33653524  0.39805391
   0.91759102  0.41338926  0.49971971
   0.50162235  0.74867149  0.59690903
   0.83351853  0.83364435  0.40150937
   0.83230026  0.33434193  0.40245666
   0.83385753  0.08142496  0.40214239
   0.83155291  0.58521079  0.40130787
   0.66634434  0.41636339  0.49999181
   0.41596980  0.91636797  0.49988041
   0.74941991  0.50166142  0.59753371
   0.75112907 -0.00224841  0.59776655
   0.25027245  0.74994655  0.59754973
   0.41773867  0.66646657  0.49986233
   0.58486120  0.58319488  0.40262062
   0.58556712  0.08144624  0.40113547
   0.33276378  0.58460855  0.40139389
   0.16697311  0.41584284  0.49957205
   0.16643433  0.16649600  0.49968825
  -0.00204576  0.75151919  0.59760593
   0.91753081  0.91764160  0.49981347
   0.08165603  0.83277841  0.40184033
   0.08157044  0.58611975  0.40161429
  -0.00101456  0.25050240  0.59685189
   0.91638430  0.16640719  0.49971300
   0.58587858  0.83185507  0.40188951
   0.75014838  0.74995204  0.59843587
Direct configuration=     9
   0.07960331  0.08391062  0.39791846
   0.50148348  0.24859229  0.60451159
   0.41668457  0.41808682  0.49913086
   0.58598192  0.33379877  0.39654306
   0.50265188 -0.00348502  0.60330236
   0.41421598  0.16639824  0.49896419
   0.66676170  0.91644103  0.49950814
   0.16672981  0.91752799  0.49949511
   0.33599222  0.82937290  0.39788866
   0.24774428  0.50330875  0.60337711
   0.16707120  0.66693381  0.49947493
   0.66977793  0.16585168  0.49929132
   0.24801841  0.25068529  0.60128380
   0.33252469  0.33572199  0.39606049
   0.50006096  0.50309764  0.60208184
   0.66418148  0.66623153  0.49982566
   0.33562101  0.08096290  0.39776102
   0.75138353  0.25074256  0.60173190
  -0.00117927 -0.00113845  0.60157470
  -0.00267244  0.50160419  0.60281886
   0.91755263  0.66674956  0.49928587
   0.25082883 -0.00149003  0.60151558
   0.08092077  0.33658639  0.39795126
   0.91773501  0.41327775  0.49968198
   0.50157151  0.74865044  0.59688641
   0.83345328  0.83370500  0.40153216
   0.83236268  0.33420759  0.40247434
   0.83382668  0.08155951  0.40217392
   0.83171135  0.58512249  0.40128894
   0.66633240  0.41629539  0.50002762
   0.41617796  0.91644505  0.49985524
   0.74941793  0.50153205  0.59753679
   0.75108662 -0.00212394  0.59777315
   0.25024483  0.74996719  0.59753081
   0.41781847  0.66622833  0.49982864
   0.58475706  0.58318459  0.40261901
   0.58542977  0.08146588  0.40115299
   0.33283730  0.58444896  0.40140878
   0.16691289  0.41577527  0.49957335
   0.16649961  0.16666532  0.49958867
  -0.00197184  0.75148883  0.59760678
   0.91750933  0.91770621  0.49981068
   0.08171778  0.83274263  0.40185773
   0.08168758  0.58601539  0.40162735
  -0.00091502  0.25055642  0.59680638
   0.91617488  0.16641786  0.49971324
   0.58566717  0.83207305  0.40191033
   0.75001590  0.75010131  0.59843794
Direct configuration=    10
   0.07958185  0.08388534  0.39768642
   0.50147722  0.24873683  0.60488955
   0.41689169  0.41783209  0.49912886
   0.58597407  0.33382869  0.39630222
   0.50269355 -0.00355501  0.60356319
   0.41446097  0.16635387  0.49897569
   0.66684372  0.91632249  0.49954009
   0.16673634  0.91767966  0.49942051
   0.33610704  0.82929019  0.39772495
   0.24769243  0.50344645  0.60372038
   0.16691568  0.66703552  0.49945197
   0.66959697  0.16593603  0.49926942
   0.24802015  0.25058279  0.60135464
   0.33254036  0.33587883  0.39572095
   0.50003506  0.50325207  0.60222852
   0.66440894  0.66605683  0.49974431
   0.33560726  0.08096036  0.39751145
   0.75146466  0.25075566  0.60194311
  -0.00104048 -0.00119361  0.60170340
  -0.00286723  0.50169086  0.60295979
   0.91748967  0.66660432  0.49930738
   0.25074737 -0.00156973  0.60156662
   0.08090720  0.33665592  0.39771469
   0.91761100  0.41349660  0.49958716
   0.50140977  0.74873198  0.59677148
   0.83340005  0.83382197  0.40163862
   0.83236549  0.33416684  0.40256263
   0.83369307  0.08166571  0.40227565
   0.83179977  0.58506277  0.40132763
   0.66636077  0.41629560  0.50009157
   0.41603758  0.91635800  0.49981784
   0.74954278  0.50138871  0.59746230
   0.75098248 -0.00199129  0.59778281
   0.25015486  0.75018059  0.59744622
   0.41791159  0.66612893  0.49974033
   0.58480824  0.58307586  0.40265668
   0.58540267  0.08157253  0.40126819
   0.33292968  0.58423722  0.40146580
   0.16671940  0.41604675  0.49956431
   0.16641268  0.16643489  0.49931953
  -0.00195907  0.75147055  0.59757003
   0.91760449  0.91764364  0.49981159
   0.08174634  0.83264492  0.40193569
   0.08185096  0.58599439  0.40173614
  -0.00089389  0.25054045  0.59663387
   0.91635311  0.16627534  0.49973795
   0.58550825  0.83218542  0.40196620
   0.74996346  0.75010517  0.59840165
Direct configuration=    11
   0.07955353  0.08385196  0.39738015
   0.50146896  0.24892762  0.60538843
   0.41716507  0.41749585  0.49912623
   0.58596371  0.33386818  0.39598432
   0.50274854 -0.00364739  0.60390747
   0.41478433  0.16629532  0.49899087
   0.66695197  0.91616603  0.49958226
   0.16674497  0.91787986  0.49932205
   0.33625859  0.82918102  0.39750886
   0.24762400  0.50362821  0.60417348
   0.16671040  0.66716977  0.49942166
   0.66935811  0.16604736  0.49924052
   0.24802246  0.25044749  0.60144814
   0.33256103  0.33608585  0.39527279
   0.50000087  0.50345591  0.60242212
   0.66470917  0.66582623  0.49963693
   0.33558909  0.08095700  0.39718205
   0.75157175  0.25077296  0.60222189
  -0.00085727 -0.00126643  0.60187327
  -0.00312434  0.50180527  0.60314582
   0.91740658  0.66641262  0.49933576
   0.25063985 -0.00167493  0.60163400
   0.08088929  0.33674770  0.39740244
   0.91744731  0.41378547  0.49946200
   0.50119627  0.74883961  0.59661978
   0.83332979  0.83397637  0.40177914
   0.83236920  0.33411306  0.40267916
   0.83351673  0.08180589  0.40240993
   0.83191647  0.58498393  0.40137871
   0.66639822  0.41629588  0.50017597
   0.41585229  0.91624310  0.49976848
   0.74970757  0.50119949  0.59736397
   0.75084504 -0.00181620  0.59779555
   0.25003610  0.75046226  0.59733456
   0.41803450  0.66599772  0.49962377
   0.58487578  0.58293235  0.40270641
   0.58536691  0.08171330  0.40142026
   0.33305161  0.58395774  0.40154106
   0.16646401  0.41640510  0.49955237
   0.16629794  0.16613074  0.49896428
  -0.00194222  0.75144641  0.59752153
   0.91773008  0.91756105  0.49981280
   0.08178405  0.83251595  0.40203859
   0.08206660  0.58596667  0.40187973
  -0.00086600  0.25051937  0.59640617
   0.91658837  0.16608724  0.49977057
   0.58529850  0.83233375  0.40203995
   0.74989424  0.75011028  0.59835376
Direct configuration=    12
   0.07965315  0.08371125  0.39714347
   0.50146434  0.24902360  0.60580989
   0.41686557  0.41744427  0.49918863
   0.58604189  0.33379797  0.39576613
   0.50282144 -0.00371905  0.60415769
   0.41439797  0.16654123  0.49902595
   0.66686570  0.91629606  0.49972095
   0.16698916  0.91787976  0.49921500
   0.33612787  0.82909763  0.39737387
   0.24752891  0.50368648  0.60450373
   0.16694665  0.66685383  0.49955348
   0.66940191  0.16603410  0.49934570
   0.24810889  0.25057211  0.60140197
   0.33268562  0.33592610  0.39490755
   0.49999562  0.50348255  0.60253692
   0.66455823  0.66582826  0.49961156
   0.33535905  0.08108467  0.39691094
   0.75151807  0.25082156  0.60241330
  -0.00106682 -0.00122105  0.60192264
  -0.00327954  0.50200550  0.60326326
   0.91754620  0.66640130  0.49943172
   0.25064234 -0.00161406  0.60156870
   0.08091165  0.33667952  0.39716502
   0.91768074  0.41349789  0.49938182
   0.50126806  0.74890975  0.59643767
   0.83337164  0.83394286  0.40190625
   0.83228325  0.33420004  0.40274494
   0.83361697  0.08166138  0.40251670
   0.83177018  0.58516759  0.40137437
   0.66648531  0.41608573  0.50026577
   0.41570572  0.91619374  0.49974530
   0.74967115  0.50137520  0.59724731
   0.75084778 -0.00175709  0.59778124
   0.25001674  0.75038666  0.59717919
   0.41788924  0.66610528  0.49955623
   0.58511119  0.58276814  0.40273240
   0.58530817  0.08188634  0.40153603
   0.33309784  0.58413886  0.40158487
   0.16684212  0.41612717  0.49957221
   0.16642923  0.16624886  0.49867664
  -0.00210216  0.75153822  0.59745839
   0.91763117  0.91762405  0.49991528
   0.08179042  0.83260838  0.40208181
   0.08200718  0.58602094  0.40198740
  -0.00081387  0.25040411  0.59613423
   0.91662347  0.16609912  0.49982908
   0.58549533  0.83215577  0.40209369
   0.74988927  0.74999740  0.59832309
Direct configuration=    13
   0.07970574  0.08363698  0.39701853
   0.50146190  0.24907427  0.60603237
   0.41670747  0.41741704  0.49922156
   0.58608317  0.33376091  0.39565095
   0.50285992 -0.00375687  0.60428978
   0.41419401  0.16667105  0.49904447
   0.66682016  0.91636470  0.49979417
   0.16711806  0.91787971  0.49915849
   0.33605887  0.82905362  0.39730261
   0.24747872  0.50371725  0.60467807
   0.16707136  0.66668705  0.49962307
   0.66942502  0.16602710  0.49940122
   0.24815451  0.25063789  0.60137760
   0.33275139  0.33584177  0.39471475
   0.49999284  0.50349662  0.60259752
   0.66447855  0.66582933  0.49959817
   0.33523761  0.08115206  0.39676782
   0.75148974  0.25084722  0.60251435
  -0.00117743 -0.00119709  0.60194870
  -0.00336147  0.50211120  0.60332525
   0.91761990  0.66639532  0.49948237
   0.25064365 -0.00158192  0.60153423
   0.08092346  0.33664352  0.39703969
   0.91780396  0.41334608  0.49933950
   0.50130596  0.74894677  0.59634154
   0.83339374  0.83392517  0.40197335
   0.83223788  0.33424596  0.40277967
   0.83366988  0.08158509  0.40257306
   0.83169296  0.58526454  0.40137209
   0.66653129  0.41597479  0.50031317
   0.41562835  0.91616768  0.49973306
   0.74965193  0.50146795  0.59718572
   0.75084923 -0.00172588  0.59777369
   0.25000652  0.75034674  0.59709718
   0.41781256  0.66616205  0.49952057
   0.58523546  0.58268146  0.40274613
   0.58527717  0.08197769  0.40159715
   0.33312225  0.58423447  0.40160800
   0.16704171  0.41598045  0.49958269
   0.16649853  0.16631122  0.49852480
  -0.00218658  0.75158669  0.59742505
   0.91757895  0.91765731  0.49996937
   0.08179379  0.83265717  0.40210463
   0.08197581  0.58604959  0.40204424
  -0.00078635  0.25034327  0.59599068
   0.91664200  0.16610539  0.49985997
   0.58559924  0.83206182  0.40212206
   0.74988664  0.74993781  0.59830690
Direct configuration=    14
   0.07957634  0.08368392  0.39686739
   0.50149060  0.24900171  0.60634061
   0.41682101  0.41734857  0.49928704
   0.58611759  0.33370746  0.39563920
   0.50287099 -0.00360680  0.60444182
   0.41414910  0.16646143  0.49905023
   0.66635708  0.91663903  0.49994720
   0.16692513  0.91787747  0.49908527
   0.33615339  0.82908752  0.39722417
   0.24741102  0.50378744  0.60488820
   0.16719511  0.66660110  0.49977031
   0.66923148  0.16620143  0.49956867
   0.24815287  0.25081545  0.60124921
   0.33279134  0.33574630  0.39449020
   0.49995618  0.50346674  0.60261588
   0.66449202  0.66582947  0.49958367
   0.33539267  0.08098778  0.39659751
   0.75133427  0.25102468  0.60260920
  -0.00123069 -0.00118509  0.60188684
  -0.00319085  0.50197538  0.60335445
   0.91775235  0.66623367  0.49956451
   0.25063042 -0.00139739  0.60135292
   0.08080059  0.33674454  0.39688844
   0.91807997  0.41334087  0.49924771
   0.50134672  0.74896315  0.59622156
   0.83343608  0.83386071  0.40208119
   0.83230649  0.33418084  0.40277601
   0.83382010  0.08149747  0.40264742
   0.83172534  0.58534481  0.40136079
   0.66630482  0.41586937  0.50036790
   0.41580183  0.91639710  0.49966433
   0.74952720  0.50157351  0.59709134
   0.75069390 -0.00169869  0.59782664
   0.24999691  0.75022849  0.59698645
   0.41778514  0.66597988  0.49948725
   0.58529308  0.58264278  0.40274767
   0.58515001  0.08198183  0.40170097
   0.33313606  0.58423407  0.40162154
   0.16708317  0.41576571  0.49957000
   0.16668106  0.16647450  0.49834924
  -0.00230197  0.75167139  0.59743592
   0.91780881  0.91762614  0.50007779
   0.08176327  0.83270810  0.40215288
   0.08194723  0.58594866  0.40212248
  -0.00067746  0.25032222  0.59581360
   0.91669972  0.16594133  0.49986542
   0.58559255  0.83212814  0.40216438
   0.74981998  0.74998584  0.59831664
Direct configuration=    15
   0.07958136  0.08368210  0.39687325
   0.50148949  0.24900452  0.60632865
   0.41681661  0.41735123  0.49928450
   0.58611625  0.33370954  0.39563965
   0.50287056 -0.00361262  0.60443592
   0.41415084  0.16646955  0.49905001
   0.66637504  0.91662840  0.49994127
   0.16693261  0.91787755  0.49908810
   0.33614972  0.82908620  0.39722721
   0.24741365  0.50378472  0.60488005
   0.16719031  0.66660444  0.49976460
   0.66923898  0.16619467  0.49956218
   0.24815293  0.25080856  0.60125419
   0.33278979  0.33575000  0.39449891
   0.49995760  0.50346790  0.60261517
   0.66449150  0.66582946  0.49958423
   0.33538666  0.08099415  0.39660411
   0.75134030  0.25101780  0.60260552
  -0.00122862 -0.00118555  0.60188924
  -0.00319746  0.50198065  0.60335332
   0.91774721  0.66623994  0.49956132
   0.25063094 -0.00140455  0.60135995
   0.08080536  0.33674062  0.39689431
   0.91806926  0.41334107  0.49925127
   0.50134514  0.74896251  0.59622621
   0.83343444  0.83386321  0.40207701
   0.83230383  0.33418337  0.40277616
   0.83381428  0.08150087  0.40264453
   0.83172408  0.58534170  0.40136122
   0.66631360  0.41587346  0.50036577
   0.41579510  0.91638820  0.49966700
   0.74953204  0.50156942  0.59709500
   0.75069992 -0.00169974  0.59782458
   0.24999728  0.75023308  0.59699074
   0.41778620  0.66598694  0.49948854
   0.58529085  0.58264428  0.40274761
   0.58515494  0.08198167  0.40169694
   0.33313553  0.58423409  0.40162101
   0.16708156  0.41577403  0.49957049
   0.16667398  0.16646817  0.49835605
  -0.00229749  0.75166810  0.59743550
   0.91779989  0.91762735  0.50007358
   0.08176445  0.83270612  0.40215101
   0.08194834  0.58595257  0.40211944
  -0.00068168  0.25032303  0.59582046
   0.91669748  0.16594769  0.49986521
   0.58559281  0.83212557  0.40216274
   0.74982256  0.74998398  0.59831626
Direct configuration=    16
   0.07953033  0.08379437  0.39680958
   0.50146184  0.24896464  0.60653679
   0.41687107  0.41720184  0.49933025
   0.58612447  0.33364019  0.39576104
   0.50276715 -0.00345376  0.60453504
   0.41428411  0.16646760  0.49902447
   0.66645888  0.91660262  0.50004218
   0.16693028  0.91793080  0.49903168
   0.33629245  0.82913249  0.39720438
   0.24744681  0.50380133  0.60499744
   0.16722032  0.66649543  0.49982035
   0.66912298  0.16617027  0.49969093
   0.24818547  0.25087093  0.60112173
   0.33275527  0.33573702  0.39442391
   0.49985154  0.50346683  0.60259848
   0.66462676  0.66573003  0.49955681
   0.33546980  0.08088322  0.39652438
   0.75134222  0.25109838  0.60263346
  -0.00119024 -0.00111086  0.60179552
  -0.00315090  0.50187862  0.60331402
   0.91766282  0.66631677  0.49961868
   0.25065455 -0.00133006  0.60111930
   0.08077770  0.33678890  0.39679836
   0.91795766  0.41345542  0.49916965
   0.50125543  0.74902080  0.59616188
   0.83338927  0.83388137  0.40219424
   0.83234429  0.33412969  0.40275508
   0.83378862  0.08149161  0.40271973
   0.83179027  0.58534604  0.40135350
   0.66629539  0.41594104  0.50033945
   0.41580994  0.91646589  0.49957706
   0.74953158  0.50153939  0.59702234
   0.75062137 -0.00167699  0.59791848
   0.25002168  0.75024513  0.59696097
   0.41784976  0.66593800  0.49946457
   0.58526332  0.58266447  0.40274557
   0.58514790  0.08190183  0.40179007
   0.33309135  0.58411795  0.40163308
   0.16709660  0.41579262  0.49953014
   0.16667059  0.16635283  0.49827345
  -0.00237760  0.75169388  0.59751602
   0.91776086  0.91755484  0.50012319
   0.08179514  0.83261601  0.40218684
   0.08202783  0.58582692  0.40218616
  -0.00068261  0.25040699  0.59572146
   0.91669054  0.16594969  0.49983202
   0.58556557  0.83222693  0.40217990
   0.74979960  0.75004005  0.59835638
Direct configuration=    17
   0.07949462  0.08387292  0.39676504
   0.50144250  0.24893673  0.60668243
   0.41690918  0.41709732  0.49936226
   0.58613021  0.33359167  0.39584598