  48  48   0   0
  0.5349325E+02  0.1100258E-08  0.1100258E-08  0.2449179E-08  0.3500000E-15
  1.000000000000000E-004
  CAR 
 unknown system                          
      6.36929356     -9.85657419  301     -1.09414269      1.00000000
     -9.857  0.0000E+00  0.0000E+00
     -9.802  0.0000E+00  0.0000E+00
     -9.748  0.0000E+00  0.0000E+00
     -9.694  0.0000E+00  0.0000E+00
     -9.640  0.0000E+00  0.0000E+00
     -9.586  0.0000E+00  0.0000E+00
     -9.532  0.0000E+00  0.0000E+00
     -9.478  0.0000E+00  0.0000E+00
     -9.424  0.1368E-16  0.7401E-18
     -9.370  0.5483E-14  0.2973E-15
     -9.316  0.1197E-11  0.6507E-13
     -9.262  0.1474E-09  0.8038E-11
     -9.208  0.1025E-07  0.5623E-09
     -9.153  0.4032E-06  0.2237E-07
     -9.099  0.8999E-05  0.5091E-06
     -9.045  0.1142E-03  0.6686E-05
     -8.991  0.8265E-03  0.5139E-04
     -8.937  0.3418E-02  0.2363E-03
     -8.883  0.8103E-02  0.6745E-03
     -8.829  0.1110E-01  0.1275E-02
     -8.775  0.9367E-02  0.1782E-02
     -8.721  0.7125E-02  0.2167E-02
     -8.667  0.8832E-02  0.2645E-02
     -8.613  0.1100E-01  0.3240E-02
     -8.559  0.8726E-02  0.3712E-02
     -8.504  0.4059E-02  0.3931E-02
     -8.450  0.1157E-02  0.3994E-02
     -8.396  0.6936E-03  0.4031E-02
     -8.342  0.2410E-02  0.4162E-02
     -8.288  0.6429E-02  0.4509E-02
     -8.234  0.1023E-01  0.5063E-02
     -8.180  0.9884E-02  0.5597E-02
     -8.126  0.6951E-02  0.5973E-02
     -8.072  0.7742E-02  0.6392E-02
     -8.018  0.1449E-01  0.7176E-02
     -7.964  0.2069E-01  0.8295E-02
     -7.909  0.1893E-01  0.9319E-02
     -7.855  0.1248E-01  0.9994E-02
     -7.801  0.9299E-02  0.1050E-01
     -7.747  0.9857E-02  0.1103E-01
     -7.693  0.1019E-01  0.1158E-01
     -7.639  0.1005E-01  0.1212E-01
     -7.585  0.1261E-01  0.1281E-01
     -7.531  0.1834E-01  0.1380E-01
     -7.477  0.2359E-01  0.1507E-01
     -7.423  0.2409E-01  0.1638E-01
     -7.369  0.1899E-01  0.1740E-01
     -7.315  0.1498E-01  0.1821E-01
     -7.260  0.2103E-01  0.1935E-01
     -7.206  0.3498E-01  0.2124E-01
     -7.152  0.4569E-01  0.2372E-01
     -7.098  0.5038E-01  0.2644E-01
     -7.044  0.5468E-01  0.2940E-01
     -6.990  0.6035E-01  0.3266E-01
     -6.936  0.6459E-01  0.3616E-01
     -6.882  0.6677E-01  0.3977E-01
     -6.828  0.7043E-01  0.4358E-01
     -6.774  0.7694E-01  0.4774E-01
     -6.720  0.8239E-01  0.5219E-01
     -6.665  0.8276E-01  0.5667E-01
     -6.611  0.7904E-01  0.6095E-01
     -6.557  0.7778E-01  0.6515E-01
     -6.503  0.8413E-01  0.6970E-01
     -6.449  0.9682E-01  0.7494E-01
     -6.395  0.1098E+00  0.8088E-01
     -6.341  0.1187E+00  0.8729E-01
     -6.287  0.1266E+00  0.9414E-01
     -6.233  0.1395E+00  0.1017E+00
     -6.179  0.1574E+00  0.1102E+00
     -6.125  0.1721E+00  0.1195E+00
     -6.071  0.1748E+00  0.1290E+00
     -6.016  0.1688E+00  0.1381E+00
     -5.962  0.1636E+00  0.1469E+00
     -5.908  0.1612E+00  0.1557E+00
     -5.854  0.1583E+00  0.1642E+00
     -5.800  0.1567E+00  0.1727E+00
     -5.746  0.1580E+00  0.1812E+00
     -5.692  0.1558E+00  0.1897E+00
     -5.638  0.1457E+00  0.1976E+00
     -5.584  0.1334E+00  0.2048E+00
     -5.530  0.1283E+00  0.2117E+00
     -5.476  0.1305E+00  0.2188E+00
     -5.422  0.1332E+00  0.2260E+00
     -5.367  0.1341E+00  0.2332E+00
     -5.313  0.1346E+00  0.2405E+00
     -5.259  0.1367E+00  0.2479E+00
     -5.205  0.1427E+00  0.2556E+00
     -5.151  0.1509E+00  0.2638E+00
     -5.097  0.1574E+00  0.2723E+00
     -5.043  0.1610E+00  0.2810E+00
     -4.989  0.1640E+00  0.2899E+00
     -4.935  0.1699E+00  0.2990E+00
     -4.881  0.1782E+00  0.3087E+00
     -4.827  0.1838E+00  0.3186E+00
     -4.772  0.1828E+00  0.3285E+00
     -4.718  0.1777E+00  0.3381E+00
     -4.664  0.1733E+00  0.3475E+00
     -4.610  0.1707E+00  0.3567E+00
     -4.556  0.1685E+00  0.3658E+00
     -4.502  0.1668E+00  0.3749E+00
     -4.448  0.1660E+00  0.3838E+00
     -4.394  0.1671E+00  0.3929E+00
     -4.340  0.1696E+00  0.4020E+00
     -4.286  0.1723E+00  0.4114E+00
     -4.232  0.1743E+00  0.4208E+00
     -4.178  0.1751E+00  0.4303E+00
     -4.123  0.1753E+00  0.4397E+00
     -4.069  0.1754E+00  0.4492E+00
     -4.015  0.1778E+00  0.4588E+00
     -3.961  0.1855E+00  0.4689E+00
     -3.907  0.1932E+00  0.4793E+00
     -3.853  0.1923E+00  0.4897E+00
     -3.799  0.1841E+00  0.4997E+00
     -3.745  0.1768E+00  0.5092E+00
     -3.691  0.1773E+00  0.5188E+00
     -3.637  0.1853E+00  0.5289E+00
     -3.583  0.1931E+00  0.5393E+00
     -3.528  0.1962E+00  0.5499E+00
     -3.474  0.1968E+00  0.5606E+00
     -3.420  0.1968E+00  0.5712E+00
     -3.366  0.1974E+00  0.5819E+00
     -3.312  0.1985E+00  0.5926E+00
     -3.258  0.1972E+00  0.6033E+00
     -3.204  0.1919E+00  0.6137E+00
     -3.150  0.1865E+00  0.6237E+00
     -3.096  0.1867E+00  0.6338E+00
     -3.042  0.1907E+00  0.6442E+00
     -2.988  0.1918E+00  0.6545E+00
     -2.934  0.1888E+00  0.6647E+00
     -2.879  0.1866E+00  0.6748E+00
     -2.825  0.1890E+00  0.6851E+00
     -2.771  0.1944E+00  0.6956E+00
     -2.717  0.1992E+00  0.7063E+00
     -2.663  0.2023E+00  0.7173E+00
     -2.609  0.2048E+00  0.7284E+00
     -2.555  0.2048E+00  0.7394E+00
     -2.501  0.1983E+00  0.7502E+00
     -2.447  0.1877E+00  0.7603E+00
     -2.393  0.1775E+00  0.7699E+00
     -2.339  0.1685E+00  0.7790E+00
     -2.285  0.1625E+00  0.7878E+00
     -2.230  0.1626E+00  0.7966E+00
     -2.176  0.1677E+00  0.8057E+00
     -2.122  0.1747E+00  0.8151E+00
     -2.068  0.1818E+00  0.8250E+00
     -2.014  0.1882E+00  0.8351E+00
     -1.960  0.1942E+00  0.8456E+00
     -1.906  0.1997E+00  0.8564E+00
     -1.852  0.2028E+00  0.8674E+00
     -1.798  0.2039E+00  0.8784E+00
     -1.744  0.2052E+00  0.8895E+00
     -1.690  0.2052E+00  0.9006E+00
     -1.635  0.2047E+00  0.9117E+00
     -1.581  0.2075E+00  0.9229E+00
     -1.527  0.2136E+00  0.9345E+00
     -1.473  0.2182E+00  0.9463E+00
     -1.419  0.2148E+00  0.9579E+00
     -1.365  0.2019E+00  0.9688E+00
     -1.311  0.1851E+00  0.9788E+00
     -1.257  0.1676E+00  0.9879E+00
     -1.203  0.1482E+00  0.9959E+00
     -1.149  0.1252E+00  0.1003E+01
     -1.095  0.9756E-01  0.1008E+01
     -1.041  0.7033E-01  0.1012E+01
     -0.986  0.5092E-01  0.1015E+01
     -0.932  0.3908E-01  0.1017E+01
     -0.878  0.3040E-01  0.1018E+01
     -0.824  0.2340E-01  0.1020E+01
     -0.770  0.1943E-01  0.1021E+01
     -0.716  0.1937E-01  0.1022E+01
     -0.662  0.2245E-01  0.1023E+01
     -0.608  0.2779E-01  0.1024E+01
     -0.554  0.3492E-01  0.1026E+01
     -0.500  0.4256E-01  0.1029E+01
     -0.446  0.4738E-01  0.1031E+01
     -0.391  0.4633E-01  0.1034E+01
     -0.337  0.4208E-01  0.1036E+01
     -0.283  0.4144E-01  0.1038E+01
     -0.229  0.4260E-01  0.1040E+01
     -0.175  0.3793E-01  0.1042E+01
     -0.121  0.2952E-01  0.1044E+01
     -0.067  0.2341E-01  0.1045E+01
     -0.013  0.1983E-01  0.1046E+01
      0.041  0.1738E-01  0.1047E+01
      0.095  0.1794E-01  0.1048E+01
      0.149  0.2341E-01  0.1050E+01
      0.203  0.2874E-01  0.1051E+01
      0.258  0.2962E-01  0.1053E+01
      0.312  0.3140E-01  0.1054E+01
      0.366  0.3662E-01  0.1056E+01
      0.420  0.4081E-01  0.1059E+01
      0.474  0.4298E-01  0.1061E+01
      0.528  0.4524E-01  0.1063E+01
      0.582  0.4826E-01  0.1066E+01
      0.636  0.5082E-01  0.1069E+01
      0.690  0.4996E-01  0.1071E+01
      0.744  0.4481E-01  0.1074E+01
      0.798  0.3894E-01  0.1076E+01
      0.852  0.3457E-01  0.1078E+01
      0.907  0.3111E-01  0.1080E+01
      0.961  0.2796E-01  0.1081E+01
      1.015  0.2401E-01  0.1082E+01
      1.069  0.1804E-01  0.1083E+01
      1.123  0.1231E-01  0.1084E+01
      1.177  0.1148E-01  0.1085E+01
      1.231  0.1459E-01  0.1085E+01
      1.285  0.1636E-01  0.1086E+01
      1.339  0.1503E-01  0.1087E+01
      1.393  0.1292E-01  0.1088E+01
      1.447  0.1481E-01  0.1089E+01
      1.502  0.2333E-01  0.1090E+01
      1.556  0.3271E-01  0.1092E+01
      1.610  0.3541E-01  0.1094E+01
      1.664  0.3206E-01  0.1095E+01
      1.718  0.2843E-01  0.1097E+01
      1.772  0.2787E-01  0.1098E+01
      1.826  0.2933E-01  0.1100E+01
      1.880  0.2981E-01  0.1102E+01
      1.934  0.2837E-01  0.1103E+01
      1.988  0.2562E-01  0.1104E+01
      2.042  0.2284E-01  0.1106E+01
      2.096  0.2495E-01  0.1107E+01
      2.151  0.3327E-01  0.1109E+01
      2.205  0.4040E-01  0.1111E+01
      2.259  0.4327E-01  0.1113E+01
      2.313  0.4608E-01  0.1116E+01
      2.367  0.5020E-01  0.1119E+01
      2.421  0.5235E-01  0.1121E+01
      2.475  0.4999E-01  0.1124E+01
      2.529  0.4482E-01  0.1127E+01
      2.583  0.4032E-01  0.1129E+01
      2.637  0.3909E-01  0.1131E+01
      2.691  0.3875E-01  0.1133E+01
      2.746  0.3445E-01  0.1135E+01
      2.800  0.2661E-01  0.1136E+01
      2.854  0.1861E-01  0.1137E+01
      2.908  0.1311E-01  0.1138E+01
      2.962  0.1190E-01  0.1139E+01
      3.016  0.1262E-01  0.1139E+01
      3.070  0.1180E-01  0.1140E+01
      3.124  0.1145E-01  0.1141E+01
      3.178  0.1382E-01  0.1141E+01
      3.232  0.1744E-01  0.1142E+01
      3.286  0.2087E-01  0.1143E+01
      3.340  0.2212E-01  0.1145E+01
      3.395  0.2039E-01  0.1146E+01
      3.449  0.2090E-01  0.1147E+01
      3.503  0.2856E-01  0.1148E+01
      3.557  0.3916E-01  0.1150E+01
      3.611  0.4488E-01  0.1153E+01
      3.665  0.4304E-01  0.1155E+01
      3.719  0.3680E-01  0.1157E+01
      3.773  0.2987E-01  0.1159E+01
      3.827  0.2446E-01  0.1160E+01
      3.881  0.2277E-01  0.1161E+01
      3.935  0.2464E-01  0.1163E+01
      3.989  0.2778E-01  0.1164E+01
      4.044  0.2919E-01  0.1166E+01
      4.098  0.2600E-01  0.1167E+01
      4.152  0.2182E-01  0.1168E+01
      4.206  0.2222E-01  0.1170E+01
      4.260  0.2241E-01  0.1171E+01
      4.314  0.1787E-01  0.1172E+01
      4.368  0.1603E-01  0.1173E+01
      4.422  0.2190E-01  0.1174E+01
      4.476  0.2901E-01  0.1175E+01
      4.530  0.3393E-01  0.1177E+01
      4.584  0.4152E-01  0.1179E+01
      4.639  0.5175E-01  0.1182E+01
      4.693  0.5913E-01  0.1185E+01
      4.747  0.6210E-01  0.1189E+01
      4.801  0.6033E-01  0.1192E+01
      4.855  0.5462E-01  0.1195E+01
      4.909  0.5078E-01  0.1198E+01
      4.963  0.5392E-01  0.1201E+01
      5.017  0.6338E-01  0.1204E+01
      5.071  0.7131E-01  0.1208E+01
      5.125  0.6801E-01  0.1212E+01
      5.179  0.5757E-01  0.1215E+01
      5.233  0.5171E-01  0.1218E+01
      5.288  0.4793E-01  0.1220E+01
      5.342  0.3728E-01  0.1222E+01
      5.396  0.2171E-01  0.1223E+01
      5.450  0.9083E-02  0.1224E+01
      5.504  0.2633E-02  0.1224E+01
      5.558  0.5033E-03  0.1224E+01
      5.612  0.6041E-04  0.1224E+01
      5.666  0.4387E-05  0.1224E+01
      5.720  0.1880E-06  0.1224E+01
      5.774  0.4673E-08  0.1224E+01
      5.828  0.6670E-10  0.1224E+01
      5.883  0.5424E-12  0.1224E+01
      5.937  0.2500E-14  0.1224E+01
      5.991  0.5474E-17  0.1224E+01
      6.045  0.0000E+00  0.1224E+01
      6.099  0.0000E+00  0.1224E+01
      6.153  0.0000E+00  0.1224E+01
      6.207  0.0000E+00  0.1224E+01
      6.261  0.0000E+00  0.1224E+01
      6.315  0.0000E+00  0.1224E+01
      6.369  0.0000E+00  0.1224E+01
