 vasp.5.4.1 24Jun15 (build Mar 14 2019 10:18:33) complex                        
  
 executed on INTEL-19.0.2+OPENMPI date 2022.06.20  18:30:35
 running on   36 total cores
 distrk:  each k-point on   36 cores,    1 groups
 distr:  one band on NCORES_PER_BAND=   6 cores,    6 groups


--------------------------------------------------------------------------------------------------------


 INCAR:
 POTCAR:    PAW_PBE Au 04Oct2007                  
 POTCAR:    PAW_PBE Pd 04Jan2005                  
 POTCAR:    PAW_PBE Au 04Oct2007                  
  local pseudopotential read in
  partial core-charges read in
  partial kinetic energy density read in
  atomic valenz-charges read in
  non local Contribution for L=           2  read in
    real space projection operators read in
  non local Contribution for L=           2  read in
    real space projection operators read in
  non local Contribution for L=           0  read in
    real space projection operators read in
  non local Contribution for L=           0  read in
    real space projection operators read in
  non local Contribution for L=           1  read in
    real space projection operators read in
  non local Contribution for L=           1  read in
    real space projection operators read in
    PAW grid and wavefunctions read in
 
   number of l-projection  operators is LMAX  =           6
   number of lm-projection operators is LMMAX =          18
 
 POTCAR:    PAW_PBE Pd 04Jan2005                  
  local pseudopotential read in
  partial core-charges read in
  partial kinetic energy density read in
  atomic valenz-charges read in
  non local Contribution for L=           2  read in
    real space projection operators read in
  non local Contribution for L=           2  read in
    real space projection operators read in
  non local Contribution for L=           0  read in
    real space projection operators read in
  non local Contribution for L=           0  read in
    real space projection operators read in
  non local Contribution for L=           1  read in
    real space projection operators read in
  non local Contribution for L=           1  read in
    real space projection operators read in
    PAW grid and wavefunctions read in
 
   number of l-projection  operators is LMAX  =           6
   number of lm-projection operators is LMMAX =          18
 
 Optimization of the real space projectors (new method)

 maximal supplied QI-value         = 15.12
 optimisation between [QCUT,QGAM] = [ 10.13, 20.41] = [ 28.73,116.64] Ry 
 Optimized for a Real-space Cutoff    1.51 Angstroem

   l    n(q)    QCUT    max X(q) W(low)/X(q) W(high)/X(q)  e(spline) 
   2      8    10.129    60.898    0.46E-03    0.46E-03    0.14E-06
   2      8    10.129    58.894    0.47E-03    0.47E-03    0.14E-06
   0      9    10.129   109.617    0.16E-03    0.11E-03    0.54E-07
   0      9    10.129    75.026    0.15E-03    0.11E-03    0.52E-07
   1      9    10.129    16.344    0.96E-04    0.15E-03    0.14E-06
   1      9    10.129    10.160    0.81E-04    0.12E-03    0.11E-06
 Optimization of the real space projectors (new method)

 maximal supplied QI-value         = 14.36
 optimisation between [QCUT,QGAM] = [ 10.20, 20.39] = [ 29.12,116.47] Ry 
 Optimized for a Real-space Cutoff    1.51 Angstroem

   l    n(q)    QCUT    max X(q) W(low)/X(q) W(high)/X(q)  e(spline) 
   2      8    10.197    59.108    0.26E-03    0.14E-03    0.96E-07
   2      8    10.197    58.101    0.27E-03    0.14E-03    0.98E-07
   0      9    10.197   102.235    0.54E-04    0.60E-05    0.72E-07
   0      9    10.197    58.388    0.52E-04    0.60E-05    0.68E-07
   1      9    10.197    22.191    0.18E-03    0.25E-03    0.79E-07
   1      9    10.197    15.590    0.15E-03    0.21E-03    0.69E-07
  PAW_PBE Au 04Oct2007                  :
 energy of atom  1       EATOM= -926.0867
 kinetic energy error for atom=    0.0062 (will be added to EATOM!!)
  PAW_PBE Pd 04Jan2005                  :
 energy of atom  2       EATOM= -809.7530
 kinetic energy error for atom=    0.0091 (will be added to EATOM!!)
 
 
 POSCAR: Au Pd                                   
  positions in cartesian coordinates
  No initial velocities read in
 exchange correlation table for  LEXCH =        8
   RHO(1)=    0.500       N(1)  =     2000
   RHO(2)=  100.500       N(2)  =     4000

 VTST: version 3.2, (02/03/18)

 CHAIN: initializing optimizer
 
 OPT: Using VASP Conjugate-Gradient optimizer
 CHAIN: Read ICHAIN            0
 
 POSCAR: Au Pd                                   
  positions in cartesian coordinates
  No initial velocities read in
 


--------------------------------------------------------------------------------------------------------


 ion  position               nearest neighbor table
   1  0.083  0.083  0.408-  12 2.75   7 2.75  13 2.75  22 2.75  34 2.75  26 2.75  19 2.75   6 2.75
                            15 2.75
   2  0.500  0.000  0.592-  45 2.75   5 2.75  32 2.75  42 2.75  25 2.75  48 2.75  40 2.75  28 2.75
                             9 2.75
   3  0.583  0.833  0.408-   5 2.75   4 2.75  18 2.75  19 2.75  39 2.75  16 2.75   7 2.75  27 2.75
                             9 2.75
   4  0.583  0.083  0.408-  10 2.75   3 2.75  16 2.75  46 2.75  47 2.75  19 2.75  26 2.75   5 2.75
                            45 2.75
   5  0.667  0.917  0.500-   3 2.75  48 2.75   2 2.75  20 2.75  27 2.75  45 2.75  10 2.75   9 2.75
                            38 2.75   4 2.75  28 2.75  16 2.75
   6  0.167  0.917  0.500-  22 2.75  31 2.75  33 2.75  12 2.75  15 2.75  21 2.75  44 2.75  38 2.75
                             9 2.75   1 2.75  40 2.75   7 2.75
   7  0.333  0.833  0.408-   9 2.75   1 2.75  19 2.75  39 2.75  43 2.75   3 2.75  22 2.75  21 2.75
                             6 2.75
   8  0.250  0.500  0.592-  44 2.75  11 2.75  31 2.75  32 2.75  42 2.75  14 2.75  24 2.75  29 2.75
                            41 2.75
   9  0.417  0.917  0.500-   7 2.75  25 2.75  40 2.75  12 2.75  27 2.75  21 2.75  45 2.75   6 2.75
                             5 2.75  19 2.75   2 2.75   3 2.75
  10  0.667  0.167  0.500-   4 2.75  28 2.75  32 2.75  23 2.75   5 2.75  11 2.75  38 2.75  15 2.75
                            45 2.75  46 2.75  26 2.75  30 2.75
  11  0.417  0.417  0.500-  47 2.75  32 2.75   8 2.75  10 2.75  44 2.75  45 2.75  21 2.75  41 2.75
                            23 2.75  43 2.75  46 2.75  29 2.75
  12  0.167  0.167  0.500-   1 2.75  40 2.75  36 2.75  35 2.75   6 2.75   9 2.75  41 2.75  15 2.75
                            45 2.75  34 2.75  42 2.75  19 2.75
  13  0.833  0.333  0.408-  35 2.75  18 2.75  26 2.75   1 2.75  39 2.75  34 2.75  46 2.75  15 2.75
                            23 2.75
  14  0.000  0.750  0.592-  38 2.75  44 2.75  28 2.75  33 2.75   8 2.75  24 2.75  31 2.75  48 2.75
                            20 2.75
  15  0.917  0.167  0.500-  26 2.75  33 2.75  30 2.75  23 2.75   6 2.75  35 2.75  38 2.75  10 2.75
                            12 2.75  13 2.75  36 2.75   1 2.75
  16  0.833  0.833  0.408-  38 2.75  18 2.75  26 2.75  37 2.75   4 2.75  22 2.75   3 2.75  20 2.75
                             5 2.75
  17  0.750  0.500  0.592-  27 2.75  35 2.75  30 2.75  25 2.75  36 2.75  48 2.75  24 2.75  29 2.75
                            23 2.75
  18  0.833  0.583  0.408-  20 2.75  13 2.75  16 2.75   3 2.75  34 2.75  37 2.75  39 2.75  35 2.75
                            27 2.75
  19  0.333  0.083  0.408-  45 2.75   7 2.75  34 2.75   3 2.75  47 2.75   1 2.75   4 2.75   9 2.75
                            12 2.75
  20  0.917  0.667  0.500-  18 2.75  24 2.75  48 2.75  35 2.75  38 2.75  41 2.75   5 2.75  44 2.75
                            27 2.75  16 2.75  14 2.75  37 2.75
  21  0.417  0.667  0.500-  43 2.75  29 2.75  31 2.75  23 2.75   6 2.75   9 2.75  11 2.75  27 2.75
                            44 2.75   7 2.75  25 2.75  39 2.75
  22  0.083  0.833  0.408-   6 2.75   1 2.75  26 2.75  37 2.75  43 2.75  16 2.75   7 2.75  44 2.75
                            38 2.75
  23  0.667  0.417  0.500-  46 2.75  30 2.75  29 2.75  27 2.75  10 2.75  15 2.75  21 2.75  35 2.75
                            11 2.75  39 2.75  17 2.75  13 2.75
  24  0.000  0.500  0.592-  20 2.75  41 2.75  36 2.75  14 2.75  42 2.75  48 2.75  17 2.75   8 2.75
                            35 2.75
  25  0.500  0.750  0.592-   9 2.75  27 2.75  17 2.75   2 2.75  29 2.75  40 2.75  31 2.75  48 2.75
                            21 2.75
  26  0.833  0.083  0.408-  15 2.75  13 2.75  16 2.75  22 2.75  46 2.75   4 2.75   1 2.75  38 2.75
                            10 2.75
  27  0.667  0.667  0.500-  39 2.75  17 2.75  25 2.75  23 2.75   9 2.75  35 2.75   5 2.75  20 2.75
                            21 2.75   3 2.75  18 2.75  48 2.75
  28  0.750  0.000  0.592-  10 2.75  38 2.75  30 2.75  32 2.75  14 2.75  48 2.75   2 2.75  33 2.75
                             5 2.75
  29  0.500  0.500  0.592-  21 2.75  23 2.75  25 2.75  30 2.75  31 2.75  32 2.75   8 2.75  17 2.75
                            11 2.75
  30  0.750  0.250  0.592-  23 2.75  15 2.75  17 2.75  28 2.75  29 2.75  33 2.75  32 2.75  36 2.75
                            10 2.75
  31  0.250  0.750  0.592-   6 2.75  21 2.75   8 2.75  29 2.75  33 2.75  40 2.75  25 2.75  14 2.75
                            44 2.75
  32  0.500  0.250  0.592-  11 2.75  10 2.75   2 2.75   8 2.75  28 2.75  29 2.75  30 2.75  42 2.75
                            45 2.75
  33  0.000  0.000  0.592-  15 2.75   6 2.75  14 2.75  30 2.75  31 2.75  36 2.75  28 2.75  40 2.75
                            38 2.75
  34  0.083  0.333  0.408-  41 2.75  18 2.75  19 2.75  37 2.75   1 2.75  13 2.75  47 2.75  12 2.75
                            35 2.75
  35  0.917  0.417  0.500-  13 2.75  36 2.75  17 2.75  12 2.75  20 2.75  27 2.75  15 2.75  23 2.75
                            41 2.75  18 2.75  24 2.75  34 2.75
  36  0.000  0.250  0.592-  35 2.75  12 2.75  24 2.75  33 2.75  17 2.75  40 2.75  30 2.75  42 2.75
                            15 2.75
  37  0.083  0.583  0.408-  44 2.75  22 2.75  34 2.75  16 2.75  47 2.75  18 2.75  43 2.75  41 2.75
                            20 2.75
  38  0.917  0.917  0.500-  16 2.75  14 2.75  28 2.75  10 2.75  20 2.75  15 2.75  44 2.75   6 2.75
                             5 2.75  26 2.75  33 2.75  22 2.75
  39  0.583  0.583  0.408-  27 2.75   7 2.75  13 2.75   3 2.75  46 2.75  43 2.75  18 2.75  23 2.75
                            21 2.75
  40  0.250  0.000  0.592-  12 2.75   9 2.75  25 2.75  31 2.75  36 2.75  42 2.75   2 2.75  33 2.75
                             6 2.75
  41  0.167  0.417  0.500-  34 2.75  42 2.75  24 2.75  20 2.75  12 2.75  44 2.75  45 2.75  35 2.75
                            11 2.75  37 2.75   8 2.75  47 2.75
  42  0.250  0.250  0.592-  41 2.75  45 2.75  24 2.75  40 2.75   2 2.75   8 2.75  36 2.75  32 2.75
                            12 2.75
  43  0.333  0.583  0.408-  21 2.75   7 2.75  22 2.75  46 2.75  47 2.75  37 2.75  39 2.75  11 2.75
                            44 2.75
  44  0.167  0.667  0.500-  37 2.75   8 2.75  14 2.75   6 2.75  11 2.75  38 2.75  41 2.75  21 2.75
                            20 2.75  22 2.75  31 2.75  43 2.75
  45  0.417  0.167  0.500-  19 2.75   2 2.75  42 2.75  11 2.75   5 2.75  41 2.75   9 2.75  12 2.75
                            10 2.75  47 2.75  32 2.75   4 2.75
  46  0.583  0.333  0.408-  23 2.75   4 2.75  26 2.75  39 2.75  43 2.75  13 2.75  47 2.75  10 2.75
                            11 2.75
  47  0.333  0.333  0.408-  11 2.75   4 2.75  19 2.75  37 2.75  43 2.75  34 2.75  46 2.75  45 2.75
                            41 2.75
  48  0.750  0.750  0.592-   5 2.75  20 2.75  17 2.75   2 2.75  24 2.75  28 2.75  25 2.75  14 2.75
                            27 2.75
 
  LATTYP: Found a hexagonal cell.
 ALAT       =    11.0025815153
 C/A-ratio  =     2.2260035120
  
  Lattice vectors:
  
 A1 = (   5.5012907576,  -9.5285150994,   0.0000000000)
 A2 = ( -11.0025815153,   0.0000000000,   0.0000000000)
 A3 = (   0.0000000000,   0.0000000000, -24.4917850943)


Analysis of symmetry for initial positions (statically):
=====================================================================
 Subroutine PRICEL returns:
 Original cell was already a primitive cell.
 

 Routine SETGRP: Setting up the symmetry group for a 
 hexagonal supercell.


 Subroutine GETGRP returns: Found  1 space group operations
 (whereof  1 operations were pure point group operations)
 out of a pool of 24 trial point group operations.


The static configuration has the point symmetry C_1 .


Analysis of symmetry for dynamics (positions and initial velocities):
=====================================================================
 Subroutine PRICEL returns:
 Original cell was already a primitive cell.
 

 Routine SETGRP: Setting up the symmetry group for a 
 hexagonal supercell.


 Subroutine GETGRP returns: Found  1 space group operations
 (whereof  1 operations were pure point group operations)
 out of a pool of 24 trial point group operations.


The dynamic configuration has the point symmetry C_1 .
 
 
 KPOINTS: Automatic mesh                          

Automatic generation of k-mesh.
Space group operators:
 irot       det(A)        alpha          n_x          n_y          n_z        tau_x        tau_y        tau_z
    1     1.000000     0.000000     1.000000     0.000000     0.000000     0.000000     0.000000     0.000000
 
 Subroutine IBZKPT returns following result:
 ===========================================
 
 Found      6 irreducible k-points:
 
 Following reciprocal coordinates:
            Coordinates               Weight
  0.250000  0.250000  0.000000     16.000000
  0.000000  0.250000  0.000000     16.000000
 -0.250000  0.000000  0.000000     16.000000
 -0.250000  0.250000  0.000000     16.000000
  0.500000 -0.250000  0.000000     16.000000
 -0.250000  0.500000  0.000000     16.000000
 
 Following cartesian coordinates:
            Coordinates               Weight
  0.022722  0.013119  0.000000     16.000000
  0.000000  0.026237  0.000000     16.000000
 -0.022722  0.013119  0.000000     16.000000
 -0.022722  0.039356  0.000000     16.000000
  0.045444 -0.052474  0.000000     16.000000
 -0.022722  0.065593  0.000000     16.000000
 


--------------------------------------------------------------------------------------------------------




 Dimension of arrays:
   k-points           NKPTS =      6   k-points in BZ     NKDIM =      6   number of bands    NBANDS=    306
   number of dos      NEDOS =    301   number of ions     NIONS =     48
   non local maximal  LDIM  =      6   non local SUM 2l+1 LMDIM =     18
   total plane-waves  NPLWV = 349920
   max r-space proj   IRMAX =   2009   max aug-charges    IRDMAX=   8532
   dimension x,y,z NGX =    54 NGY =   54 NGZ =  120
   dimension x,y,z NGXF=   108 NGYF=  108 NGZF=  240
   support grid    NGXF=   108 NGYF=  108 NGZF=  240
   ions per type =              24  24
 NGX,Y,Z   is equivalent  to a cutoff of   8.16,  8.16,  8.15 a.u.
 NGXF,Y,Z  is equivalent  to a cutoff of  16.32, 16.32, 16.29 a.u.


 I would recommend the setting:
   dimension x,y,z NGX =    54 NGY =   54 NGZ =  120
 SYSTEM =  unknown system                          
 POSCAR =  Au Pd                                   

 Startparameter for this run:
   NWRITE =      1    write-flag & timer
   PREC   = normal    normal or accurate (medium, high low for compatibility)
   ISTART =      0    job   : 0-new  1-cont  2-samecut
   ICHARG =      2    charge: 1-file 2-atom 10-const
   ISPIN  =      1    spin polarized calculation?
   LNONCOLLINEAR =      F non collinear calculations
   LSORBIT =      F    spin-orbit coupling
   INIWAV =      1    electr: 0-lowe 1-rand  2-diag
   LASPH  =      F    aspherical Exc in radial PAW
   METAGGA=      F    non-selfconsistent MetaGGA calc.

 Electronic Relaxation 1
   ENCUT  =  400.0 eV  29.40 Ry    5.42 a.u.  17.94 17.94 39.94*2*pi/ulx,y,z
   ENINI  =  400.0     initial cutoff
   ENAUG  =  416.2 eV  augmentation charge cutoff
   NELM   =    500;   NELMIN=  2; NELMDL= -5     # of ELM steps 
   EDIFF  = 0.1E-05   stopping-criterion for ELM
   LREAL  =      T    real-space projection
   NLSPLINE    = F    spline interpolate recip. space projectors
   LCOMPAT=      F    compatible to vasp.4.4
   GGA_COMPAT  = T    GGA compatible to vasp.4.4-vasp.4.6
   LMAXPAW     = -100 max onsite density
   LMAXMIX     =    2 max onsite mixed and CHGCAR
   VOSKOWN=      1    Vosko Wilk Nusair interpolation
   ROPT   =   -0.00050  -0.00050
 Ionic relaxation
   EDIFFG = -.2E-01   stopping-criterion for IOM
   NSW    =    500    number of steps for IOM
   NBLOCK =      1;   KBLOCK =    500    inner block; outer block 
   IBRION =      2    ionic relax: 0-MD 1-quasi-New 2-CG
   NFREE  =      2    steps in history (QN), initial steepest desc. (CG)
   ISIF   =      0    stress and relaxation
   IWAVPR =     11    prediction:  0-non 1-charg 2-wave 3-comb
   ISYM   =      2    0-nonsym 1-usesym 2-fastsym
   LCORR  =      T    Harris-Foulkes like correction to forces

   POTIM  = 0.3500    time-step for ionic-motion
   TEIN   =    0.0    initial temperature
   TEBEG  =    0.0;   TEEND  =   0.0 temperature during run
   SMASS  =  -3.00    Nose mass-parameter (am)
   estimated Nose-frequenzy (Omega)   =  0.10E-29 period in steps =****** mass=  -0.277E-26a.u.
   SCALEE = 1.0000    scale energy and forces
   NPACO  =    256;   APACO  = 16.0  distance and # of slots for P.C.
   PSTRESS=    0.0 pullay stress

  Mass of Ions in am
   POMASS = 196.97106.42
  Ionic Valenz
   ZVAL   =  11.00 10.00
  Atomic Wigner-Seitz radii
   RWIGS  =  -1.00 -1.00
  virtual crystal weights 
   VCA    =   1.00  1.00
   NELECT =     504.0000    total number of electrons
   NUPDOWN=      -1.0000    fix difference up-down

 DOS related values:
   EMIN   =  10.00;   EMAX   =-10.00  energy-range for DOS
   EFERMI =   0.00
   ISMEAR =     0;   SIGMA  =   0.10  broadening in eV -4-tet -1-fermi 0-gaus

 Electronic relaxation 2 (details)
   IALGO  =     68    algorithm
   LDIAG  =      T    sub-space diagonalisation (order eigenvalues)
   LSUBROT=      F    optimize rotation matrix (better conditioning)
   TURBO    =      0    0=normal 1=particle mesh
   IRESTART =      0    0=no restart 2=restart with 2 vectors
   NREBOOT  =      0    no. of reboots
   NMIN     =      0    reboot dimension
   EREF     =   0.00    reference energy to select bands
   IMIX   =      4    mixing-type and parameters
     AMIX     =   0.40;   BMIX     =  1.00
     AMIX_MAG =   1.60;   BMIX_MAG =  1.00
     AMIN     =   0.10
     WC   =   100.;   INIMIX=   1;  MIXPRE=   1;  MAXMIX= -45

 Intra band minimization:
   WEIMIN = 0.0010     energy-eigenvalue tresh-hold
   EBREAK =  0.82E-09  absolut break condition
   DEPER  =   0.30     relativ break condition  

   TIME   =   0.40     timestep for ELM

  volume/ion in A,a.u.               =      53.49       360.99
  Fermi-wavevector in a.u.,A,eV,Ry     =   0.951418  1.797920 12.315955  0.905197
  Thomas-Fermi vector in A             =   2.079887
 
 Write flags
   LWAVE  =      F    write WAVECAR
   LCHARG =      F    write CHGCAR
   LVTOT  =      F    write LOCPOT, total local potential
   LVHAR  =      F    write LOCPOT, Hartree potential only
   LELF   =      F    write electronic localiz. function (ELF)
   LORBIT =      0    0 simple, 1 ext, 2 COOP (PROOUT)


 Dipole corrections
   LMONO  =      F    monopole corrections only (constant potential shift)
   LDIPOL =      T    correct potential (dipole corrections)
   IDIPOL =      3    1-x, 2-y, 3-z, 4-all directions 
   EPSILON=  1.0000000 bulk dielectric constant

 Exchange correlation treatment:
   GGA     =    PE    GGA type
   LEXCH   =     8    internal setting for exchange type
   VOSKOWN=      1    Vosko Wilk Nusair interpolation
   LHFCALC =     F    Hartree Fock is set to
   LHFONE  =     F    Hartree Fock one center treatment
   AEXX    =    0.0000 exact exchange contribution

 Linear response parameters
   LEPSILON=     F    determine dielectric tensor
   LRPA    =     F    only Hartree local field effects (RPA)
   LNABLA  =     F    use nabla operator in PAW spheres
   LVEL    =     F    velocity operator in full k-point grid
   LINTERFAST=   F  fast interpolation
   KINTER  =     0    interpolate to denser k-point grid
   CSHIFT  =0.1000    complex shift for real part using Kramers Kronig
   OMEGAMAX=  -1.0    maximum frequency
   DEG_THRESHOLD= 0.2000000E-02 threshold for treating states as degnerate
   RTIME   =    0.100 relaxation time in fs

 Orbital magnetization related:
   ORBITALMAG=     F  switch on orbital magnetization
   LCHIMAG   =     F  perturbation theory with respect to B field
   DQ        =  0.001000  dq finite difference perturbation B field



--------------------------------------------------------------------------------------------------------


 conjugate gradient relaxation of ions
 charge density and potential will be updated during run
 non-spin polarized calculation
 RMM-DIIS sequential band-by-band and
  variant of blocked Davidson during initial phase
 perform sub-space diagonalisation
    before iterative eigenvector-optimisation
 modified Broyden-mixing scheme, WC =      100.0
 initial mixing is a Kerker type mixing with AMIX =  0.4000 and BMIX =      1.0000
 Hartree-type preconditioning will be used
 using additional bands           54
 real space projection scheme for non local part
 use partial core corrections
 calculate Harris-corrections to forces 
   (improved forces if not selfconsistent)
 use gradient corrections 
 use of overlap-Matrix (Vanderbilt PP)
 Gauss-broadening in eV      SIGMA  =   0.10


--------------------------------------------------------------------------------------------------------


  energy-cutoff  :      400.00
  volume of cell :     2567.68
      direct lattice vectors                 reciprocal lattice vectors
    11.002581515  0.000000000  0.000000000     0.090887761 -0.052474073  0.000000000
     5.501290758  9.528515099  0.000000000     0.000000000  0.104948147  0.000000000
     0.000000000  0.000000000 24.491785094     0.000000000  0.000000000  0.040830017

  length of vectors
    11.002581515 11.002581515 24.491785094     0.104948147  0.104948147  0.040830017


 
 k-points in units of 2pi/SCALE and weight: Automatic mesh                          
   0.02272194  0.01311852  0.00000000       0.167
   0.00000000  0.02623704  0.00000000       0.167
  -0.02272194  0.01311852  0.00000000       0.167
  -0.02272194  0.03935555  0.00000000       0.167
   0.04544388 -0.05247407  0.00000000       0.167
  -0.02272194  0.06559259  0.00000000       0.167
 
 k-points in reciprocal lattice and weights: Automatic mesh                          
   0.25000000  0.25000000  0.00000000       0.167
   0.00000000  0.25000000  0.00000000       0.167
  -0.25000000  0.00000000  0.00000000       0.167
  -0.25000000  0.25000000  0.00000000       0.167
   0.50000000 -0.25000000  0.00000000       0.167
  -0.25000000  0.50000000  0.00000000       0.167
 
 position of ions in fractional coordinates (direct lattice) 
   0.08333333  0.08333333  0.40830017
   0.50000000  0.00000000  0.59169983
   0.58333333  0.83333333  0.40830017
   0.58333333  0.08333333  0.40830017
   0.66666667  0.91666667  0.50000000
   0.16666667  0.91666667  0.50000000
   0.33333333  0.83333333  0.40830017
   0.25000000  0.50000000  0.59169983
   0.41666667  0.91666667  0.50000000
   0.66666667  0.16666667  0.50000000
   0.41666667  0.41666667  0.50000000
   0.16666667  0.16666667  0.50000000
   0.83333333  0.33333333  0.40830017
   0.00000000  0.75000000  0.59169983
   0.91666667  0.16666667  0.50000000
   0.83333333  0.83333333  0.40830017
   0.75000000  0.50000000  0.59169983
   0.83333333  0.58333333  0.40830017
   0.33333333  0.08333333  0.40830017
   0.91666667  0.66666667  0.50000000
   0.41666667  0.66666667  0.50000000
   0.08333333  0.83333333  0.40830017
   0.66666667  0.41666667  0.50000000
   0.00000000  0.50000000  0.59169983
   0.50000000  0.75000000  0.59169983
   0.83333333  0.08333333  0.40830017
   0.66666667  0.66666667  0.50000000
   0.75000000  0.00000000  0.59169983
   0.50000000  0.50000000  0.59169983
   0.75000000  0.25000000  0.59169983
   0.25000000  0.75000000  0.59169983
   0.50000000  0.25000000  0.59169983
   0.00000000  0.00000000  0.59169983
   0.08333333  0.33333333  0.40830017
   0.91666667  0.41666667  0.50000000
   0.00000000  0.25000000  0.59169983
   0.08333333  0.58333333  0.40830017
   0.91666667  0.91666667  0.50000000
   0.58333333  0.58333333  0.40830017
   0.25000000  0.00000000  0.59169983
   0.16666667  0.41666667  0.50000000
   0.25000000  0.25000000  0.59169983
   0.33333333  0.58333333  0.40830017
   0.16666667  0.66666667  0.50000000
   0.41666667  0.16666667  0.50000000
   0.58333333  0.33333333  0.40830017
   0.33333333  0.33333333  0.40830017
   0.75000000  0.75000000  0.59169983
 
 position of ions in cartesian coordinates  (Angst):
   1.37532269  0.79404292 10.00000000
   5.50129076  0.00000000 14.49178509
  11.00258152  7.94042925 10.00000000
   6.87661345  0.79404292 10.00000000
  12.37790420  8.73447217 12.24589255
   6.87661345  8.73447217 12.24589255
   8.25193614  7.94042925 10.00000000
   5.50129076  4.76425755 14.49178509
   9.62725883  8.73447217 12.24589255
   8.25193614  1.58808585 12.24589255
   6.87661345  3.97021462 12.24589255
   2.75064538  1.58808585 12.24589255
  11.00258152  3.17617170 10.00000000
   4.12596807  7.14638632 14.49178509
  11.00258152  1.58808585 12.24589255
  13.75322689  7.94042925 10.00000000
  11.00258152  4.76425755 14.49178509
  12.37790420  5.55830047 10.00000000
   4.12596807  0.79404292 10.00000000
  13.75322689  6.35234340 12.24589255
   8.25193614  6.35234340 12.24589255
   5.50129076  7.94042925 10.00000000
   9.62725883  3.97021462 12.24589255
   2.75064538  4.76425755 14.49178509
   9.62725883  7.14638632 14.49178509
   9.62725883  0.79404292 10.00000000
  11.00258152  6.35234340 12.24589255
   8.25193614  0.00000000 14.49178509
   8.25193614  4.76425755 14.49178509
   9.62725883  2.38212877 14.49178509
   6.87661345  7.14638632 14.49178509
   6.87661345  2.38212877 14.49178509
   0.00000000  0.00000000 14.49178509
   2.75064538  3.17617170 10.00000000
  12.37790420  3.97021462 12.24589255
   1.37532269  2.38212877 14.49178509
   4.12596807  5.55830047 10.00000000
  15.12854958  8.73447217 12.24589255
   9.62725883  5.55830047 10.00000000
   2.75064538  0.00000000 14.49178509
   4.12596807  3.97021462 12.24589255
   4.12596807  2.38212877 14.49178509
   6.87661345  5.55830047 10.00000000
   5.50129076  6.35234340 12.24589255
   5.50129076  1.58808585 12.24589255
   8.25193614  3.17617170 10.00000000
   5.50129076  3.17617170 10.00000000
  12.37790420  7.14638632 14.49178509
 


--------------------------------------------------------------------------------------------------------


 k-point  1 :   0.2500 0.2500 0.0000  plane waves:   46635
 k-point  2 :   0.0000 0.2500 0.0000  plane waves:   46635
 k-point  3 :  -0.2500 0.0000 0.0000  plane waves:   46635
 k-point  4 :  -0.2500 0.2500 0.0000  plane waves:   46644
 k-point  5 :   0.5000-0.2500 0.0000  plane waves:   46644
 k-point  6 :  -0.2500 0.5000 0.0000  plane waves:   46644

 maximum and minimum number of plane-waves per node :      7818     7732

 maximum number of plane-waves:     46644
 maximum index in each direction: 
   IXMAX=   18   IYMAX=   18   IZMAX=   39
   IXMIN=  -18   IYMIN=  -18   IZMIN=  -39

 WARNING: aliasing errors must be expected set NGX to  74 to avoid them
 WARNING: aliasing errors must be expected set NGY to  74 to avoid them
 WARNING: aliasing errors must be expected set NGZ to 158 to avoid them
 aliasing errors are usually negligible using standard VASP settings
 and one can safely disregard these warnings

 real space projection operators:
  total allocation   :      12803.06 KBytes
  max/ min on nodes  :       2145.66       2127.94


 parallel 3D FFT for wavefunctions:
    minimum data exchange during FFTs selected (reduces bandwidth)
 parallel 3D FFT for charge:
    minimum data exchange during FFTs selected (reduces bandwidth)


 total amount of memory used by VASP on root node    84353. kBytes
========================================================================

   base      :      30000. kBytes
   nonlr-proj:       4285. kBytes
   fftplans  :       4447. kBytes
   grid      :       6721. kBytes
   one-center:        124. kBytes
   wavefun   :      38776. kBytes
 
     INWAV:  cpu time    0.0000: real time    0.0000
 Broyden mixing: mesh for mixing (old mesh)
   NGX = 35   NGY = 35   NGZ = 79
  (NGX  =108   NGY  =108   NGZ  =240)
  gives a total of  96775 points

 initial charge density was supplied:
 charge density of overlapping atoms calculated
 number of electron     504.0000000 magnetization 
 keeping initial charge density in first step


--------------------------------------------------------------------------------------------------------


 Maximum index for non-local projection operator          355
 Maximum index for augmentation-charges          437 (set IRDMAX)


--------------------------------------------------------------------------------------------------------


 First call to EWALD:  gamma=   0.129
 Maximum number of real-space cells 4x 4x 2
 Maximum number of reciprocal cells 2x 2x 5

 FEWALD executed in parallel
    FEWALD:  cpu time    0.0027: real time    0.0027


----------------------------------------- Iteration    1(   1)  ---------------------------------------


    POTLOK:  cpu time    0.0547: real time    0.0548
    SETDIJ:  cpu time    0.0064: real time    0.0064
     EDDAV:  cpu time    9.3819: real time    9.3866
       DOS:  cpu time    0.0014: real time    0.0014
    --------------------------------------------
      LOOP:  cpu time    9.4483: real time    9.4559

 eigenvalue-minimisations  :  3672
 total energy-change (2. order) : 0.3201058E+04  (-0.1897832E+05)
 number of electron     504.0000000 magnetization 
 augmentation part      504.0000000 magnetization 

 DIPCOR: dipole corrections for dipol
 direction  3 min pos     1,
 dipolmoment           0.000000      0.000000      0.000003 electrons x Angstroem
 Tr[quadrupol]    -10248.739252

 energy correction for charged system         0.000000 eV
 dipol+quadrupol energy correction           -0.000000 eV
 added-field ion interaction          0.000002 eV  (added to PSCEN)


 Free energy of the ion-electron system (eV)
  ---------------------------------------------------
  alpha Z        PSCENC =       805.86936616
  Ewald energy   TEWEN  =    200640.91690399
  -Hartree energ DENC   =   -243057.19731721
  -exchange      EXHF   =         0.00000000
  -V(xc)+E(xc)   XCENC  =      -327.49586877
  PAW double counting   =     40340.05962942   -38292.62782345
  entropy T*S    EENTRO =        -0.14114585
  eigenvalues    EBANDS =      1431.88845273
  atomic energy  EATOM  =     41659.78587232
  Solvation  Ediel_sol  =         0.00000000
  ---------------------------------------------------
  free energy    TOTEN  =      3201.05806935 eV

  energy without entropy =     3201.19921520  energy(sigma->0) =     3201.12864227


--------------------------------------------------------------------------------------------------------




----------------------------------------- Iteration    1(   2)  ---------------------------------------


     EDDAV:  cpu time   11.0991: real time   11.1571
       DOS:  cpu time    0.0016: real time    0.0016
    --------------------------------------------
      LOOP:  cpu time   11.1015: real time   11.1607

 eigenvalue-minimisations  :  4368
 total energy-change (2. order) :-0.3184553E+04  (-0.2926729E+04)
 number of electron     504.0000000 magnetization 
 augmentation part      504.0000000 magnetization 

 DIPCOR: dipole corrections for dipol
 direction  3 min pos     1,
 dipolmoment           0.000000      0.000000      0.000003 electrons x Angstroem
 Tr[quadrupol]    -10248.739252

 energy correction for charged system         0.000000 eV
 dipol+quadrupol energy correction           -0.000000 eV
 added-field ion interaction          0.000002 eV  (added to PSCEN)


 Free energy of the ion-electron system (eV)
  ---------------------------------------------------
  alpha Z        PSCENC =       805.86936616
  Ewald energy   TEWEN  =    200640.91690399
  -Hartree energ DENC   =   -243057.19731721
  -exchange      EXHF   =         0.00000000
  -V(xc)+E(xc)   XCENC  =      -327.49586877
  PAW double counting   =     40340.05962942   -38292.62782345
  entropy T*S    EENTRO =        -0.12981314
  eigenvalues    EBANDS =     -1752.67587674
  atomic energy  EATOM  =     41659.78587232
  Solvation  Ediel_sol  =         0.00000000
  ---------------------------------------------------
  free energy    TOTEN  =        16.50507258 eV

  energy without entropy =       16.63488572  energy(sigma->0) =       16.56997915


--------------------------------------------------------------------------------------------------------




----------------------------------------- Iteration    1(   3)  ---------------------------------------


     EDDAV:  cpu time   10.8382: real time   10.9052
       DOS:  cpu time    0.0016: real time    0.0016
    --------------------------------------------
      LOOP:  cpu time   10.8421: real time   10.9147

 eigenvalue-minimisations  :  4140
 total energy-change (2. order) :-0.2160391E+03  (-0.2008471E+03)
 number of electron     504.0000000 magnetization 
 augmentation part      504.0000000 magnetization 

 DIPCOR: dipole corrections for dipol
 direction  3 min pos     1,
 dipolmoment           0.000000      0.000000      0.000003 electrons x Angstroem
 Tr[quadrupol]    -10248.739252

 energy correction for charged system         0.000000 eV
 dipol+quadrupol energy correction           -0.000000 eV
 added-field ion interaction          0.000002 eV  (added to PSCEN)


 Free energy of the ion-electron system (eV)
  ---------------------------------------------------
  alpha Z        PSCENC =       805.86936616
  Ewald energy   TEWEN  =    200640.91690399
  -Hartree energ DENC   =   -243057.19731721
  -exchange      EXHF   =         0.00000000
  -V(xc)+E(xc)   XCENC  =      -327.49586877
  PAW double counting   =     40340.05962942   -38292.62782345
  entropy T*S    EENTRO =        -0.20919851
  eigenvalues    EBANDS =     -1968.63555539
  atomic energy  EATOM  =     41659.78587232
  Solvation  Ediel_sol  =         0.00000000
  ---------------------------------------------------
  free energy    TOTEN  =      -199.53399143 eV

  energy without entropy =     -199.32479292  energy(sigma->0) =     -199.42939217


--------------------------------------------------------------------------------------------------------




----------------------------------------- Iteration    1(   4)  ---------------------------------------


     EDDAV:  cpu time   10.9640: real time   10.9679
       DOS:  cpu time    0.0017: real time    0.0017
    --------------------------------------------
      LOOP:  cpu time   10.9676: real time   10.9742

 eigenvalue-minimisations  :  4200
 total energy-change (2. order) :-0.5906352E+01  (-0.5834056E+01)
 number of electron     504.0000000 magnetization 
 augmentation part      504.0000000 magnetization 

 DIPCOR: dipole corrections for dipol
 direction  3 min pos     1,
 dipolmoment           0.000000      0.000000      0.000003 electrons x Angstroem
 Tr[quadrupol]    -10248.739252

 energy correction for charged system         0.000000 eV
 dipol+quadrupol energy correction           -0.000000 eV
 added-field ion interaction          0.000002 eV  (added to PSCEN)


 Free energy of the ion-electron system (eV)
  ---------------------------------------------------
  alpha Z        PSCENC =       805.86936616
  Ewald energy   TEWEN  =    200640.91690399
  -Hartree energ DENC   =   -243057.19731721
  -exchange      EXHF   =         0.00000000
  -V(xc)+E(xc)   XCENC  =      -327.49586877
  PAW double counting   =     40340.05962942   -38292.62782345
  entropy T*S    EENTRO =        -0.22193028
  eigenvalues    EBANDS =     -1974.52917583
  atomic energy  EATOM  =     41659.78587232
  Solvation  Ediel_sol  =         0.00000000
  ---------------------------------------------------
  free energy    TOTEN  =      -205.44034364 eV

  energy without entropy =     -205.21841336  energy(sigma->0) =     -205.32937850


--------------------------------------------------------------------------------------------------------




----------------------------------------- Iteration    1(   5)  ---------------------------------------


     EDDAV:  cpu time   11.8051: real time   11.8310
       DOS:  cpu time    0.0016: real time    0.0016
    CHARGE:  cpu time    0.4317: real time    0.4337
    MIXING:  cpu time    0.0040: real time    0.0041
    --------------------------------------------
      LOOP:  cpu time   12.2442: real time   12.2745

 eigenvalue-minimisations  :  4416
 total energy-change (2. order) :-0.1857913E+00  (-0.1852263E+00)
 number of electron     503.9998406 magnetization 
 augmentation part      191.3896190 magnetization 

 DIPCOR: dipole corrections for dipol
 direction  3 min pos     1,
 dipolmoment           0.000000      0.000000      0.000003 electrons x Angstroem
 Tr[quadrupol]    -10248.739252

 energy correction for charged system         0.000000 eV
 dipol+quadrupol energy correction           -0.000000 eV
 added-field ion interaction          0.000002 eV  (added to PSCEN)


 Broyden mixing:
  rms(total) = 0.62760E+01    rms(broyden)= 0.62759E+01
  rms(prec ) = 0.64063E+01
  weight for this iteration     100.00

 Free energy of the ion-electron system (eV)
  ---------------------------------------------------
  alpha Z        PSCENC =       805.86936616
  Ewald energy   TEWEN  =    200640.91690399
  -Hartree energ DENC   =   -243057.19731721
  -exchange      EXHF   =         0.00000000
  -V(xc)+E(xc)   XCENC  =      -327.49586877
  PAW double counting   =     40340.05962942   -38292.62782345
  entropy T*S    EENTRO =        -0.22230494
  eigenvalues    EBANDS =     -1974.71459246
  atomic energy  EATOM  =     41659.78587232
  Solvation  Ediel_sol  =         0.00000000
  ---------------------------------------------------
  free energy    TOTEN  =      -205.62613493 eV

  energy without entropy =     -205.40382999  energy(sigma->0) =     -205.51498246


--------------------------------------------------------------------------------------------------------




----------------------------------------- Iteration    1(   6)  ---------------------------------------


    POTLOK:  cpu time    0.0484: real time    0.0654
    SETDIJ:  cpu time    0.0063: real time    0.0073
    EDDIAG:  cpu time    1.5690: real time    1.7919
  RMM-DIIS:  cpu time    4.5026: real time    4.5042
    ORTHCH:  cpu time    0.4112: real time    0.4120
       DOS:  cpu time    0.0016: real time    0.0016
    CHARGE:  cpu time    0.3067: real time    0.3069
    MIXING:  cpu time    0.0020: real time    0.0021
    --------------------------------------------
      LOOP:  cpu time    6.8485: real time    7.0963

 eigenvalue-minimisations  :  3678
 total energy-change (2. order) : 0.5490485E+00  (-0.9776053E+01)
 number of electron     503.9998430 magnetization 
 augmentation part      191.3738915 magnetization 

 DIPCOR: dipole corrections for dipol
 direction  3 min pos     1,
 dipolmoment           0.000000      0.000000      1.343618 electrons x Angstroem
 Tr[quadrupol]    -10248.765447

 energy correction for charged system         0.000000 eV
 dipol+quadrupol energy correction           -0.063614 eV
 added-field ion interaction          0.850664 eV  (added to PSCEN)


 Broyden mixing:
  rms(total) = 0.57976E+01    rms(broyden)= 0.57975E+01
  rms(prec ) = 0.62389E+01
  weight for this iteration     100.00

 eigenvalues of (default mixing * dielectric matrix)
  average eigenvalue GAMMA=   0.6633
  0.6633

 Free energy of the ion-electron system (eV)
  ---------------------------------------------------
  alpha Z        PSCENC =       806.65641362
  Ewald energy   TEWEN  =    200640.91690399
  -Hartree energ DENC   =   -242760.51239183
  -exchange      EXHF   =         0.00000000
  -V(xc)+E(xc)   XCENC  =      -339.76390913
  PAW double counting   =     43943.27368381   -41954.82091692
  entropy T*S    EENTRO =        -0.29338008
  eigenvalues    EBANDS =     -2200.31936221
  atomic energy  EATOM  =     41659.78587232
  Solvation  Ediel_sol  =         0.00000000
  ---------------------------------------------------
  free energy    TOTEN  =      -205.07708644 eV

  energy without entropy =     -204.78370636  energy(sigma->0) =     -204.93039640


--------------------------------------------------------------------------------------------------------




----------------------------------------- Iteration    1(   7)  ---------------------------------------


    POTLOK:  cpu time    0.0503: real time    0.0504
    SETDIJ:  cpu time    0.0061: real time    0.0061
    EDDIAG:  cpu time    1.6707: real time    1.6715
  RMM-DIIS:  cpu time    4.4357: real time    4.4805
    ORTHCH:  cpu time    0.4036: real time    0.4256
       DOS:  cpu time    0.0015: real time    0.0015
    CHARGE:  cpu time    0.3052: real time    0.3052
    MIXING:  cpu time    0.0020: real time    0.0020
    --------------------------------------------
      LOOP:  cpu time    6.8760: real time    6.9451

 eigenvalue-minimisations  :  3681
 total energy-change (2. order) :-0.1900838E+02  (-0.6278698E+01)
 number of electron     503.9998386 magnetization 
 augmentation part      193.1267468 magnetization 

 DIPCOR: dipole corrections for dipol
 direction  3 min pos     1,
 dipolmoment           0.000000      0.000000     -1.726177 electrons x Angstroem
 Tr[quadrupol]    -10249.324954

 energy correction for charged system         0.000000 eV
 dipol+quadrupol energy correction           -0.104996 eV
 added-field ion interaction         -1.092867 eV  (added to PSCEN)


 Broyden mixing:
  rms(total) = 0.55296E+01    rms(broyden)= 0.55293E+01
  rms(prec ) = 0.67514E+01
  weight for this iteration     100.00

 eigenvalues of (default mixing * dielectric matrix)
  average eigenvalue GAMMA=   0.7230
  1.1604  0.2855

 Free energy of the ion-electron system (eV)
  ---------------------------------------------------
  alpha Z        PSCENC =       804.67150143
  Ewald energy   TEWEN  =    200640.91690399
  -Hartree energ DENC   =   -242690.81918870
  -exchange      EXHF   =         0.00000000
  -V(xc)+E(xc)   XCENC  =      -342.11166578
  PAW double counting   =     45149.08135356   -43182.83333808
  entropy T*S    EENTRO =        -0.25345772
  eigenvalues    EBANDS =     -2262.52344853
  atomic energy  EATOM  =     41659.78587232
  Solvation  Ediel_sol  =         0.00000000
  ---------------------------------------------------
  free energy    TOTEN  =      -224.08546751 eV

  energy without entropy =     -223.83200979  energy(sigma->0) =     -223.95873865


--------------------------------------------------------------------------------------------------------




----------------------------------------- Iteration    1(   8)  ---------------------------------------


    POTLOK:  cpu time    0.0496: real time    0.0505
    SETDIJ:  cpu time    0.0060: real time    0.0060
    EDDIAG:  cpu time    1.6668: real time    1.6672
  RMM-DIIS:  cpu time    4.5185: real time    4.5212
    ORTHCH:  cpu time    0.4123: real time    0.4126
       DOS:  cpu time    0.0019: real time    0.0019
    CHARGE:  cpu time    0.3053: real time    0.3053
    MIXING:  cpu time    0.0021: real time    0.0022
    --------------------------------------------
      LOOP:  cpu time    6.9633: real time    6.9691

 eigenvalue-minimisations  :  3681
 total energy-change (2. order) : 0.1291922E+02  (-0.8665109E+01)
 number of electron     503.9998349 magnetization 
 augmentation part      198.0701868 magnetization 

 DIPCOR: dipole corrections for dipol
 direction  3 min pos     1,
 dipolmoment           0.000000      0.000000      1.216429 electrons x Angstroem
 Tr[quadrupol]    -10249.822543

 energy correction for charged system         0.000000 eV
 dipol+quadrupol energy correction           -0.052141 eV
 added-field ion interaction          0.770138 eV  (added to PSCEN)


 Broyden mixing:
  rms(total) = 0.36848E+01    rms(broyden)= 0.36844E+01
  rms(prec ) = 0.41547E+01
  weight for this iteration     100.00

 eigenvalues of (default mixing * dielectric matrix)
  average eigenvalue GAMMA=   0.8779
  1.9727  0.4481  0.2130

 Free energy of the ion-electron system (eV)
  ---------------------------------------------------
  alpha Z        PSCENC =       806.58736181
  Ewald energy   TEWEN  =    200640.91690399
  -Hartree energ DENC   =   -242621.36005575
  -exchange      EXHF   =         0.00000000
  -V(xc)+E(xc)   XCENC  =      -344.49822272
  PAW double counting   =     46465.99547080   -44524.39995783
  entropy T*S    EENTRO =        -0.19101931
  eigenvalues    EBANDS =     -2294.00259855
  atomic energy  EATOM  =     41659.78587232
  Solvation  Ediel_sol  =         0.00000000
  ---------------------------------------------------
  free energy    TOTEN  =      -211.16624524 eV

  energy without entropy =     -210.97522592  energy(sigma->0) =     -211.07073558


--------------------------------------------------------------------------------------------------------




----------------------------------------- Iteration    1(   9)  ---------------------------------------


    POTLOK:  cpu time    0.0506: real time    0.0507
    SETDIJ:  cpu time    0.0061: real time    0.0061
    EDDIAG:  cpu time    1.6564: real time    1.6570
  RMM-DIIS:  cpu time    4.4498: real time    4.4519
    ORTHCH:  cpu time    0.4170: real time    0.4172
       DOS:  cpu time    0.0017: real time    0.0017
    CHARGE:  cpu time    0.3012: real time    0.3012
    MIXING:  cpu time    0.0023: real time    0.0023
    --------------------------------------------
      LOOP:  cpu time    6.8858: real time    6.8901

 eigenvalue-minimisations  :  3681
 total energy-change (2. order) : 0.3655007E+01  (-0.4112617E+01)
 number of electron     503.9998339 magnetization 
 augmentation part      198.6619731 magnetization 

 DIPCOR: dipole corrections for dipol
 direction  3 min pos     1,
 dipolmoment           0.000000      0.000000      0.287074 electrons x Angstroem
 Tr[quadrupol]    -10249.118866

 energy correction for charged system         0.000000 eV
 dipol+quadrupol energy correction           -0.002904 eV
 added-field ion interaction          0.181751 eV  (added to PSCEN)


 Broyden mixing:
  rms(total) = 0.33446E+01    rms(broyden)= 0.33444E+01
  rms(prec ) = 0.37603E+01
  weight for this iteration     100.00

 eigenvalues of (default mixing * dielectric matrix)
  average eigenvalue GAMMA=   0.8222
  2.2667  0.2522  0.3850  0.3850

 Free energy of the ion-electron system (eV)
  ---------------------------------------------------
  alpha Z        PSCENC =       806.04821089
  Ewald energy   TEWEN  =    200640.91690399
  -Hartree energ DENC   =   -242559.08457814
  -exchange      EXHF   =         0.00000000
  -V(xc)+E(xc)   XCENC  =      -345.93352556
  PAW double counting   =     48455.70916036   -46541.30677582
  entropy T*S    EENTRO =        -0.21978704
  eigenvalues    EBANDS =     -2323.42671971
  atomic energy  EATOM  =     41659.78587232
  Solvation  Ediel_sol  =         0.00000000
  ---------------------------------------------------
  free energy    TOTEN  =      -207.51123871 eV

  energy without entropy =     -207.29145167  energy(sigma->0) =     -207.40134519


--------------------------------------------------------------------------------------------------------




----------------------------------------- Iteration    1(  10)  ---------------------------------------


    POTLOK:  cpu time    0.0499: real time    0.0502
    SETDIJ:  cpu time    0.0061: real time    0.0061
    EDDIAG:  cpu time    1.6472: real time    1.6496
  RMM-DIIS:  cpu time    4.5348: real time    4.5367
    ORTHCH:  cpu time    0.4095: real time    0.4096
       DOS:  cpu time    0.0016: real time    0.0016
    CHARGE:  cpu time    0.3038: real time    0.3040
    MIXING:  cpu time    0.0026: real time    0.0026
    --------------------------------------------
      LOOP:  cpu time    6.9564: real time    6.9663

 eigenvalue-minimisations  :  3681
 total energy-change (2. order) : 0.1084318E+02  (-0.1515465E+01)
 number of electron     503.9998339 magnetization 
 augmentation part      199.3228003 magnetization 

 DIPCOR: dipole corrections for dipol
 direction  3 min pos     1,
 dipolmoment           0.000000      0.000000      0.417872 electrons x Angstroem
 Tr[quadrupol]    -10250.136227

 energy correction for charged system         0.000000 eV
 dipol+quadrupol energy correction           -0.006153 eV
 added-field ion interaction          0.264561 eV  (added to PSCEN)


 Broyden mixing:
  rms(total) = 0.18368E+01    rms(broyden)= 0.18366E+01
  rms(prec ) = 0.21313E+01
  weight for this iteration     100.00

 eigenvalues of (default mixing * dielectric matrix)
  average eigenvalue GAMMA=   0.7807
  2.2667  0.5432  0.5432  0.2322  0.3183

 Free energy of the ion-electron system (eV)
  ---------------------------------------------------
  alpha Z        PSCENC =       806.12777191
  Ewald energy   TEWEN  =    200640.91690399
  -Hartree energ DENC   =   -242597.40307974
  -exchange      EXHF   =         0.00000000
  -V(xc)+E(xc)   XCENC  =      -346.18030888
  PAW double counting   =     49184.17304076   -47277.72656722
  entropy T*S    EENTRO =        -0.19278717
  eigenvalues    EBANDS =     -2266.16890583
  atomic energy  EATOM  =     41659.78587232
  Solvation  Ediel_sol  =         0.00000000
  ---------------------------------------------------
  free energy    TOTEN  =      -196.66805985 eV

  energy without entropy =     -196.47527269  energy(sigma->0) =     -196.57166627


--------------------------------------------------------------------------------------------------------




----------------------------------------- Iteration    1(  11)  ---------------------------------------


    POTLOK:  cpu time    0.0505: real time    0.0506
    SETDIJ:  cpu time    0.0064: real time    0.0064
    EDDIAG:  cpu time    1.6544: real time    1.6565
  RMM-DIIS:  cpu time    4.5264: real time    4.5280
    ORTHCH:  cpu time    0.3995: real time    0.3996
       DOS:  cpu time    0.0015: real time    0.0015
    CHARGE:  cpu time    0.2985: real time    0.2985
    MIXING:  cpu time    0.0026: real time    0.0026
    --------------------------------------------
      LOOP:  cpu time    6.9407: real time    6.9473

 eigenvalue-minimisations  :  3680
 total energy-change (2. order) : 0.5378064E+01  (-0.1114820E+01)
 number of electron     503.9998346 magnetization 
 augmentation part      198.8036025 magnetization 

 DIPCOR: dipole corrections for dipol
 direction  3 min pos     1,
 dipolmoment           0.000000      0.000000      0.326575 electrons x Angstroem
 Tr[quadrupol]    -10250.337929

 energy correction for charged system         0.000000 eV
 dipol+quadrupol energy correction           -0.003758 eV
 added-field ion interaction          0.206759 eV  (added to PSCEN)


 Broyden mixing:
  rms(total) = 0.13288E+01    rms(broyden)= 0.13285E+01
  rms(prec ) = 0.15413E+01
  weight for this iteration     100.00

 eigenvalues of (default mixing * dielectric matrix)
  average eigenvalue GAMMA=   0.7348
  2.2615  0.6386  0.6386  0.2438  0.3133  0.3133

 Free energy of the ion-electron system (eV)
  ---------------------------------------------------
  alpha Z        PSCENC =       806.07236537
  Ewald energy   TEWEN  =    200640.91690399
  -Hartree energ DENC   =   -242632.40465407
  -exchange      EXHF   =         0.00000000
  -V(xc)+E(xc)   XCENC  =      -345.45388549
  PAW double counting   =     49286.30156721   -47377.31864332
  entropy T*S    EENTRO =        -0.18545093
  eigenvalues    EBANDS =     -2229.00407106
  atomic energy  EATOM  =     41659.78587232
  Solvation  Ediel_sol  =         0.00000000
  ---------------------------------------------------
  free energy    TOTEN  =      -191.28999598 eV

  energy without entropy =     -191.10454505  energy(sigma->0) =     -191.19727052


--------------------------------------------------------------------------------------------------------




----------------------------------------- Iteration    1(  12)  ---------------------------------------


    POTLOK:  cpu time    0.0501: real time    0.0502
    SETDIJ:  cpu time    0.0060: real time    0.0060
    EDDIAG:  cpu time    1.6474: real time    1.6489
  RMM-DIIS:  cpu time    4.4287: real time    4.4303
    ORTHCH:  cpu time    0.4002: real time    0.4005
       DOS:  cpu time    0.0017: real time    0.0017
    CHARGE:  cpu time    0.3010: real time    0.3011
    MIXING:  cpu time    0.0026: real time    0.0026
    --------------------------------------------
      LOOP:  cpu time    6.8385: real time    6.8447

 eigenvalue-minimisations  :  3680
 total energy-change (2. order) : 0.2891282E+01  (-0.3898552E+00)
 number of electron     503.9998358 magnetization 
 augmentation part      197.9648955 magnetization 

 DIPCOR: dipole corrections for dipol
 direction  3 min pos     1,
 dipolmoment           0.000000      0.000000      0.226115 electrons x Angstroem
 Tr[quadrupol]    -10250.773767

 energy correction for charged system         0.000000 eV
 dipol+quadrupol energy correction           -0.001802 eV
 added-field ion interaction          0.143156 eV  (added to PSCEN)


 Broyden mixing:
  rms(total) = 0.70205E+00    rms(broyden)= 0.70191E+00
  rms(prec ) = 0.75734E+00
  weight for this iteration     100.00

 eigenvalues of (default mixing * dielectric matrix)
  average eigenvalue GAMMA=   0.7013
  2.2480  0.6222  0.6222  0.5879  0.2329  0.2979  0.2979

 Free energy of the ion-electron system (eV)
  ---------------------------------------------------
  alpha Z        PSCENC =       806.01071895
  Ewald energy   TEWEN  =    200640.91690399
  -Hartree energ DENC   =   -242677.55273339
  -exchange      EXHF   =         0.00000000
  -V(xc)+E(xc)   XCENC  =      -344.61432036
  PAW double counting   =     49371.68658187   -47459.09019455
  entropy T*S    EENTRO =        -0.20877540
  eigenvalues    EBANDS =     -2185.33276696
  atomic energy  EATOM  =     41659.78587232
  Solvation  Ediel_sol  =         0.00000000
  ---------------------------------------------------
  free energy    TOTEN  =      -188.39871353 eV

  energy without entropy =     -188.18993813  energy(sigma->0) =     -188.29432583


--------------------------------------------------------------------------------------------------------




----------------------------------------- Iteration    1(  13)  ---------------------------------------


    POTLOK:  cpu time    0.0498: real time    0.0506
    SETDIJ:  cpu time    0.0060: real time    0.0060
    EDDIAG:  cpu time    1.6301: real time    1.6307
  RMM-DIIS:  cpu time    4.3745: real time    4.4470
    ORTHCH:  cpu time    0.3999: real time    0.4000
       DOS:  cpu time    0.0015: real time    0.0015
    CHARGE:  cpu time    0.3061: real time    0.3063
    MIXING:  cpu time    0.0028: real time    0.0028
    --------------------------------------------
      LOOP:  cpu time    6.7715: real time    6.8476

 eigenvalue-minimisations  :  3683
 total energy-change (2. order) : 0.7934007E-01  (-0.8278838E-01)
 number of electron     503.9998361 magnetization 
 augmentation part      197.7053057 magnetization 

 DIPCOR: dipole corrections for dipol
 direction  3 min pos     1,
 dipolmoment           0.000000      0.000000      0.203916 electrons x Angstroem
 Tr[quadrupol]    -10250.934815

 energy correction for charged system         0.000000 eV
 dipol+quadrupol energy correction           -0.001465 eV
 added-field ion interaction          0.129102 eV  (added to PSCEN)


 Broyden mixing:
  rms(total) = 0.63617E+00    rms(broyden)= 0.63608E+00
  rms(prec ) = 0.69964E+00
  weight for this iteration     100.00

 eigenvalues of (default mixing * dielectric matrix)
  average eigenvalue GAMMA=   0.7384
  2.2307  0.9474  0.9474  0.6661  0.3140  0.3140  0.2439  0.2439

 Free energy of the ion-electron system (eV)
  ---------------------------------------------------
  alpha Z        PSCENC =       805.99700115
  Ewald energy   TEWEN  =    200640.91690399
  -Hartree energ DENC   =   -242690.88260636
  -exchange      EXHF   =         0.00000000
  -V(xc)+E(xc)   XCENC  =      -344.34754966
  PAW double counting   =     49377.22372461   -47462.96062115
  entropy T*S    EENTRO =        -0.20046402
  eigenvalues    EBANDS =     -2173.85163435
  atomic energy  EATOM  =     41659.78587232
  Solvation  Ediel_sol  =         0.00000000
  ---------------------------------------------------
  free energy    TOTEN  =      -188.31937346 eV

  energy without entropy =     -188.11890944  energy(sigma->0) =     -188.21914145


--------------------------------------------------------------------------------------------------------




----------------------------------------- Iteration    1(  14)  ---------------------------------------


    POTLOK:  cpu time    0.0493: real time    0.0493
    SETDIJ:  cpu time    0.0061: real time    0.0061
    EDDIAG:  cpu time    1.6288: real time    1.6292
  RMM-DIIS:  cpu time    4.0472: real time    4.9312
    ORTHCH:  cpu time    0.4000: real time    0.4001
       DOS:  cpu time    0.0015: real time    0.0015
    CHARGE:  cpu time    0.3034: real time    0.3036
    MIXING:  cpu time    0.0029: real time    0.0029
    --------------------------------------------
      LOOP:  cpu time    6.4402: real time    7.3260

 eigenvalue-minimisations  :  3681
 total energy-change (2. order) :-0.1138097E+00  (-0.4887515E-01)
 number of electron     503.9998363 magnetization 
 augmentation part      197.5167567 magnetization 

 DIPCOR: dipole corrections for dipol
 direction  3 min pos     1,
 dipolmoment           0.000000      0.000000      0.178100 electrons x Angstroem
 Tr[quadrupol]    -10251.333934

 energy correction for charged system         0.000000 eV
 dipol+quadrupol energy correction           -0.001118 eV
 added-field ion interaction          0.112758 eV  (added to PSCEN)


 Broyden mixing:
  rms(total) = 0.62905E+00    rms(broyden)= 0.62897E+00
  rms(prec ) = 0.73375E+00
  weight for this iteration     100.00

 eigenvalues of (default mixing * dielectric matrix)
  average eigenvalue GAMMA=   0.7480
  2.2287  1.1895  1.1895  0.6536  0.3625  0.3625  0.2627  0.2627  0.2203

 Free energy of the ion-electron system (eV)
  ---------------------------------------------------
  alpha Z        PSCENC =       805.98100440
  Ewald energy   TEWEN  =    200640.91690399
  -Hartree energ DENC   =   -242713.94746995
  -exchange      EXHF   =         0.00000000
  -V(xc)+E(xc)   XCENC  =      -343.97566857
  PAW double counting   =     49388.07624326   -47471.17400990
  entropy T*S    EENTRO =        -0.18024920
  eigenvalues    EBANDS =     -2153.91580955
  atomic energy  EATOM  =     41659.78587232
  Solvation  Ediel_sol  =         0.00000000
  ---------------------------------------------------
  free energy    TOTEN  =      -188.43318318 eV

  energy without entropy =     -188.25293398  energy(sigma->0) =     -188.34305858


--------------------------------------------------------------------------------------------------------




----------------------------------------- Iteration    1(  15)  ---------------------------------------


    POTLOK:  cpu time    0.0493: real time    0.0493
    SETDIJ:  cpu time    0.0061: real time    0.0061
    EDDIAG:  cpu time    1.6518: real time    1.6543
  RMM-DIIS:  cpu time    4.5241: real time    4.5272
    ORTHCH:  cpu time    0.3978: real time    0.3979
       DOS:  cpu time    0.0016: real time    0.0016
    CHARGE:  cpu time    0.2984: real time    0.2984
    MIXING:  cpu time    0.0032: real time    0.0032
    --------------------------------------------
      LOOP:  cpu time    6.9331: real time    6.9422

 eigenvalue-minimisations  :  3682
 total energy-change (2. order) : 0.1529197E+00  (-0.3421850E-01)
 number of electron     503.9998363 magnetization 
 augmentation part      197.4555512 magnetization 

 DIPCOR: dipole corrections for dipol
 direction  3 min pos     1,
 dipolmoment           0.000000      0.000000      0.162584 electrons x Angstroem
 Tr[quadrupol]    -10251.768721

 energy correction for charged system         0.000000 eV
 dipol+quadrupol energy correction           -0.000931 eV
 added-field ion interaction          0.102934 eV  (added to PSCEN)


 Broyden mixing:
  rms(total) = 0.47445E+00    rms(broyden)= 0.47439E+00
  rms(prec ) = 0.56508E+00
  weight for this iteration     100.00

 eigenvalues of (default mixing * dielectric matrix)
  average eigenvalue GAMMA=   0.7829
  2.1531  1.4975  1.4975  0.6340  0.6340  0.3653  0.2984  0.2984  0.2324  0.2189

 Free energy of the ion-electron system (eV)
  ---------------------------------------------------
  alpha Z        PSCENC =       805.97136699
  Ewald energy   TEWEN  =    200640.91690399
  -Hartree energ DENC   =   -242734.56101974
  -exchange      EXHF   =         0.00000000
  -V(xc)+E(xc)   XCENC  =      -343.73721065
  PAW double counting   =     49407.32863962   -47488.60938177
  entropy T*S    EENTRO =        -0.21135316
  eigenvalues    EBANDS =     -2135.16408110
  atomic energy  EATOM  =     41659.78587232
  Solvation  Ediel_sol  =         0.00000000
  ---------------------------------------------------
  free energy    TOTEN  =      -188.28026352 eV

  energy without entropy =     -188.06891035  energy(sigma->0) =     -188.17458694


--------------------------------------------------------------------------------------------------------




----------------------------------------- Iteration    1(  16)  ---------------------------------------


    POTLOK:  cpu time    0.0496: real time    0.0503
    SETDIJ:  cpu time    0.0061: real time    0.0061
    EDDIAG:  cpu time    1.6398: real time    1.6403
  RMM-DIIS:  cpu time    4.4640: real time    4.4658
    ORTHCH:  cpu time    0.4030: real time    0.4032
       DOS:  cpu time    0.0016: real time    0.0016
    CHARGE:  cpu time    0.3009: real time    0.3009
    MIXING:  cpu time    0.0034: real time    0.0034
    --------------------------------------------
      LOOP:  cpu time    6.8692: real time    6.8739

 eigenvalue-minimisations  :  3682
 total energy-change (2. order) : 0.2628191E+00  (-0.2760722E-01)
 number of electron     503.9998364 magnetization 
 augmentation part      197.3482521 magnetization 

 DIPCOR: dipole corrections for dipol
 direction  3 min pos     1,
 dipolmoment           0.000000      0.000000      0.162313 electrons x Angstroem
 Tr[quadrupol]    -10252.185139

 energy correction for charged system         0.000000 eV
 dipol+quadrupol energy correction           -0.000928 eV
 added-field ion interaction          0.102763 eV  (added to PSCEN)


 Broyden mixing:
  rms(total) = 0.25969E+00    rms(broyden)= 0.25964E+00
  rms(prec ) = 0.32407E+00
  weight for this iteration     100.00

 eigenvalues of (default mixing * dielectric matrix)
  average eigenvalue GAMMA=   0.7733
  2.1905  1.5926  1.5926  0.6653  0.6653  0.4265  0.3269  0.3269  0.2640  0.2452
  0.2103

 Free energy of the ion-electron system (eV)
  ---------------------------------------------------
  alpha Z        PSCENC =       805.97119875
  Ewald energy   TEWEN  =    200640.91690399
  -Hartree energ DENC   =   -242757.39227093
  -exchange      EXHF   =         0.00000000
  -V(xc)+E(xc)   XCENC  =      -343.39911820
  PAW double counting   =     49424.10876046   -47502.97374824
  entropy T*S    EENTRO =        -0.21122802
  eigenvalues    EBANDS =     -2114.82381459
  atomic energy  EATOM  =     41659.78587232
  Solvation  Ediel_sol  =         0.00000000
  ---------------------------------------------------
  free energy    TOTEN  =      -188.01744446 eV

  energy without entropy =     -187.80621644  energy(sigma->0) =     -187.91183045


--------------------------------------------------------------------------------------------------------




----------------------------------------- Iteration    1(  17)  ---------------------------------------


    POTLOK:  cpu time    0.0499: real time    0.0501
    SETDIJ:  cpu time    0.0061: real time    0.0061
    EDDIAG:  cpu time    1.6365: real time    1.6372
  RMM-DIIS:  cpu time    4.4705: real time    4.4722
    ORTHCH:  cpu time    0.4035: real time    0.4036
       DOS:  cpu time    0.0016: real time    0.0016
    CHARGE:  cpu time    0.2985: real time    0.2987
    MIXING:  cpu time    0.0036: real time    0.0036
    --------------------------------------------
      LOOP:  cpu time    6.8709: real time    6.8768

 eigenvalue-minimisations  :  3681
 total energy-change (2. order) : 0.8303987E-01  (-0.1200368E-01)
 number of electron     503.9998364 magnetization 
 augmentation part      197.2793318 magnetization 

 DIPCOR: dipole corrections for dipol
 direction  3 min pos     1,
 dipolmoment           0.000000      0.000000      0.117344 electrons x Angstroem
 Tr[quadrupol]    -10252.476760

 energy correction for charged system         0.000000 eV
 dipol+quadrupol energy correction           -0.000485 eV
 added-field ion interaction          0.074292 eV  (added to PSCEN)


 Broyden mixing:
  rms(total) = 0.13493E+00    rms(broyden)= 0.13487E+00
  rms(prec ) = 0.15335E+00
  weight for this iteration     100.00

 eigenvalues of (default mixing * dielectric matrix)
  average eigenvalue GAMMA=   0.7505
  2.1890  1.6226  1.6226  0.6827  0.6827  0.5199  0.3284  0.3284  0.3076  0.2724
  0.2397  0.2103

 Free energy of the ion-electron system (eV)
  ---------------------------------------------------
  alpha Z        PSCENC =       805.94317133
  Ewald energy   TEWEN  =    200640.91690399
  -Hartree energ DENC   =   -242770.54936358
  -exchange      EXHF   =         0.00000000
  -V(xc)+E(xc)   XCENC  =      -343.29502534
  PAW double counting   =     49444.05319114   -47522.23776834
  entropy T*S    EENTRO =        -0.23170007
  eigenvalues    EBANDS =     -2102.31968604
  atomic energy  EATOM  =     41659.78587232
  Solvation  Ediel_sol  =         0.00000000
  ---------------------------------------------------
  free energy    TOTEN  =      -187.93440459 eV

  energy without entropy =     -187.70270452  energy(sigma->0) =     -187.81855455


--------------------------------------------------------------------------------------------------------




----------------------------------------- Iteration    1(  18)  ---------------------------------------


    POTLOK:  cpu time    0.0499: real time    0.0500
    SETDIJ:  cpu time    0.0065: real time    0.0065
    EDDIAG:  cpu time    1.6391: real time    1.6404
  RMM-DIIS:  cpu time    4.5261: real time    4.5278
    ORTHCH:  cpu time    0.4022: real time    0.4022
       DOS:  cpu time    0.0015: real time    0.0015
    CHARGE:  cpu time    0.3024: real time    0.3024
    MIXING:  cpu time    0.0038: real time    0.0038
    --------------------------------------------
      LOOP:  cpu time    6.9322: real time    6.9384

 eigenvalue-minimisations  :  3682
 total energy-change (2. order) : 0.2378915E-01  (-0.3172019E-02)
 number of electron     503.9998365 magnetization 
 augmentation part      197.2131280 magnetization 

 DIPCOR: dipole corrections for dipol
 direction  3 min pos     1,
 dipolmoment           0.000000      0.000000      0.085098 electrons x Angstroem
 Tr[quadrupol]    -10252.623544

 energy correction for charged system         0.000000 eV
 dipol+quadrupol energy correction           -0.000255 eV
 added-field ion interaction          0.053877 eV  (added to PSCEN)


 Broyden mixing:
  rms(total) = 0.74114E-01    rms(broyden)= 0.74092E-01
  rms(prec ) = 0.81185E-01
  weight for this iteration     100.00

 eigenvalues of (default mixing * dielectric matrix)
  average eigenvalue GAMMA=   0.7148
  2.2195  1.6234  1.6234  0.6862  0.6862  0.4158  0.3794  0.3794  0.2964  0.2964
  0.2382  0.2382  0.2096

 Free energy of the ion-electron system (eV)
  ---------------------------------------------------
  alpha Z        PSCENC =       805.92298571
  Ewald energy   TEWEN  =    200640.91690399
  -Hartree energ DENC   =   -242778.29704773
  -exchange      EXHF   =         0.00000000
  -V(xc)+E(xc)   XCENC  =      -343.20681777
  PAW double counting   =     49454.59480246   -47532.29494242
  entropy T*S    EENTRO =        -0.23161096
  eigenvalues    EBANDS =     -2095.10076104
  atomic energy  EATOM  =     41659.78587232
  Solvation  Ediel_sol  =         0.00000000
  ---------------------------------------------------
  free energy    TOTEN  =      -187.91061543 eV

  energy without entropy =     -187.67900448  energy(sigma->0) =     -187.79480996


--------------------------------------------------------------------------------------------------------




----------------------------------------- Iteration    1(  19)  ---------------------------------------


    POTLOK:  cpu time    0.0497: real time    0.0498
    SETDIJ:  cpu time    0.0061: real time    0.0061
    EDDIAG:  cpu time    1.6461: real time    1.6486
  RMM-DIIS:  cpu time    4.3459: real time    4.4323
    ORTHCH:  cpu time    0.3985: real time    0.3988
       DOS:  cpu time    0.0015: real time    0.0015
    CHARGE:  cpu time    0.2979: real time    0.2980
    MIXING:  cpu time    0.0038: real time    0.0038
    --------------------------------------------
      LOOP:  cpu time    6.7505: real time    6.8442

 eigenvalue-minimisations  :  3686
 total energy-change (2. order) : 0.4264860E-02  (-0.3491701E-03)
 number of electron     503.9998365 magnetization 
 augmentation part      197.1892089 magnetization 

 DIPCOR: dipole corrections for dipol
 direction  3 min pos     1,
 dipolmoment           0.000000      0.000000      0.078176 electrons x Angstroem
 Tr[quadrupol]    -10252.698831

 energy correction for charged system         0.000000 eV
 dipol+quadrupol energy correction           -0.000215 eV
 added-field ion interaction          0.049494 eV  (added to PSCEN)


 Broyden mixing:
  rms(total) = 0.56727E-01    rms(broyden)= 0.56722E-01
  rms(prec ) = 0.59665E-01
  weight for this iteration     100.00

 eigenvalues of (default mixing * dielectric matrix)
  average eigenvalue GAMMA=   0.7399
  2.2290  1.6249  1.6249  0.8107  0.8107  0.6249  0.6249  0.4110  0.3161  0.3161
  0.2095  0.2384  0.2588  0.2588

 Free energy of the ion-electron system (eV)
  ---------------------------------------------------
  alpha Z        PSCENC =       805.91864312
  Ewald energy   TEWEN  =    200640.91690399
  -Hartree energ DENC   =   -242781.33002720
  -exchange      EXHF   =         0.00000000
  -V(xc)+E(xc)   XCENC  =      -343.18971035
  PAW double counting   =     49459.66947290   -47537.29575170
  entropy T*S    EENTRO =        -0.23350540
  eigenvalues    EBANDS =     -2092.14824826
  atomic energy  EATOM  =     41659.78587232
  Solvation  Ediel_sol  =         0.00000000
  ---------------------------------------------------
  free energy    TOTEN  =      -187.90635057 eV

  energy without entropy =     -187.67284517  energy(sigma->0) =     -187.78959787


--------------------------------------------------------------------------------------------------------




----------------------------------------- Iteration    1(  20)  ---------------------------------------


    POTLOK:  cpu time    0.0499: real time    0.0499
    SETDIJ:  cpu time    0.0060: real time    0.0060
    EDDIAG:  cpu time    1.6433: real time    1.6439
  RMM-DIIS:  cpu time    4.4897: real time    4.4917
    ORTHCH:  cpu time    0.3985: real time    0.3985
       DOS:  cpu time    0.0015: real time    0.0015
    CHARGE:  cpu time    0.3021: real time    0.3024
    MIXING:  cpu time    0.0040: real time    0.0040
    --------------------------------------------
      LOOP:  cpu time    6.8960: real time    6.9010

 eigenvalue-minimisations  :  3682
 total energy-change (2. order) :-0.2183360E-03  (-0.4179061E-03)
 number of electron     503.9998365 magnetization 
 augmentation part      197.1659365 magnetization 

 DIPCOR: dipole corrections for dipol
 direction  3 min pos     1,
 dipolmoment           0.000000      0.000000      0.076579 electrons x Angstroem
 Tr[quadrupol]    -10252.841846

 energy correction for charged system         0.000000 eV
 dipol+quadrupol energy correction           -0.000207 eV
 added-field ion interaction          0.048483 eV  (added to PSCEN)


 Broyden mixing:
  rms(total) = 0.62271E-01    rms(broyden)= 0.62266E-01
  rms(prec ) = 0.72409E-01
  weight for this iteration     100.00

 eigenvalues of (default mixing * dielectric matrix)
  average eigenvalue GAMMA=   0.7786
  2.3030  1.8405  1.8405  0.9501  0.9501  0.7025  0.7025  0.5147  0.3282  0.3282
  0.2773  0.2773  0.2338  0.2076  0.2229

 Free energy of the ion-electron system (eV)
  ---------------------------------------------------
  alpha Z        PSCENC =       805.91764082
  Ewald energy   TEWEN  =    200640.91690399
  -Hartree energ DENC   =   -242786.91670999
  -exchange      EXHF   =         0.00000000
  -V(xc)+E(xc)   XCENC  =      -343.16016333
  PAW double counting   =     49466.01507830   -47543.53102194
  entropy T*S    EENTRO =        -0.22703361
  eigenvalues    EBANDS =     -2086.70713547
  atomic energy  EATOM  =     41659.78587232
  Solvation  Ediel_sol  =         0.00000000
  ---------------------------------------------------
  free energy    TOTEN  =      -187.90656891 eV

  energy without entropy =     -187.67953530  energy(sigma->0) =     -187.79305210


--------------------------------------------------------------------------------------------------------




----------------------------------------- Iteration    1(  21)  ---------------------------------------


    POTLOK:  cpu time    0.0506: real time    0.0507
    SETDIJ:  cpu time    0.0060: real time    0.0060
    EDDIAG:  cpu time    1.6339: real time    1.6344
  RMM-DIIS:  cpu time    4.5329: real time    4.5347
    ORTHCH:  cpu time    0.3992: real time    0.3994
       DOS:  cpu time    0.0016: real time    0.0016
    CHARGE:  cpu time    0.2977: real time    0.2977
    MIXING:  cpu time    0.0042: real time    0.0042
    --------------------------------------------
      LOOP:  cpu time    6.9270: real time    6.9310

 eigenvalue-minimisations  :  3681
 total energy-change (2. order) : 0.1632404E-02  (-0.4589375E-03)
 number of electron     503.9998365 magnetization 
 augmentation part      197.1490566 magnetization 

 DIPCOR: dipole corrections for dipol
 direction  3 min pos     1,
 dipolmoment           0.000000      0.000000      0.066495 electrons x Angstroem
 Tr[quadrupol]    -10253.108267

 energy correction for charged system         0.000000 eV
 dipol+quadrupol energy correction           -0.000156 eV
 added-field ion interaction          0.042099 eV  (added to PSCEN)


 Broyden mixing:
  rms(total) = 0.50627E-01    rms(broyden)= 0.50623E-01
  rms(prec ) = 0.61476E-01
  weight for this iteration     100.00

 eigenvalues of (default mixing * dielectric matrix)
  average eigenvalue GAMMA=   0.7725
  2.2041  1.8766  1.8766  1.0855  0.9052  0.9052  0.6447  0.6447  0.3338  0.3338
  0.3129  0.3129  0.2478  0.2444  0.2083  0.2235

 Free energy of the ion-electron system (eV)
  ---------------------------------------------------
  alpha Z        PSCENC =       805.91130763
  Ewald energy   TEWEN  =    200640.91690399
  -Hartree energ DENC   =   -242796.51051512
  -exchange      EXHF   =         0.00000000
  -V(xc)+E(xc)   XCENC  =      -343.13471830
  PAW double counting   =     49475.10874074   -47552.58180558
  entropy T*S    EENTRO =        -0.22832595
  eigenvalues    EBANDS =     -2077.17239622
  atomic energy  EATOM  =     41659.78587232
  Solvation  Ediel_sol  =         0.00000000
  ---------------------------------------------------
  free energy    TOTEN  =      -187.90493651 eV

  energy without entropy =     -187.67661055  energy(sigma->0) =     -187.79077353


--------------------------------------------------------------------------------------------------------




----------------------------------------- Iteration    1(  22)  ---------------------------------------


    POTLOK:  cpu time    0.0501: real time    0.0503
    SETDIJ:  cpu time    0.0060: real time    0.0060
    EDDIAG:  cpu time    1.6266: real time    1.6271
  RMM-DIIS:  cpu time    4.5426: real time    4.5447
    ORTHCH:  cpu time    0.3612: real time    0.5010
       DOS:  cpu time    0.0015: real time    0.0015
    CHARGE:  cpu time    0.3053: real time    0.4727
    MIXING:  cpu time    0.0042: real time    0.0063
    --------------------------------------------
      LOOP:  cpu time    6.8983: real time    7.2116

 eigenvalue-minimisations  :  3680
 total energy-change (2. order) : 0.2485036E-02  (-0.2348102E-03)
 number of electron     503.9998366 magnetization 
 augmentation part      197.1492959 magnetization 

 DIPCOR: dipole corrections for dipol
 direction  3 min pos     1,
 dipolmoment           0.000000      0.000000      0.060297 electrons x Angstroem
 Tr[quadrupol]    -10253.199786

 energy correction for charged system         0.000000 eV
 dipol+quadrupol energy correction           -0.000128 eV
 added-field ion interaction          0.038175 eV  (added to PSCEN)


 Broyden mixing:
  rms(total) = 0.24359E-01    rms(broyden)= 0.24354E-01
  rms(prec ) = 0.30598E-01
  weight for this iteration     100.00

 eigenvalues of (default mixing * dielectric matrix)
  average eigenvalue GAMMA=   0.7763
  2.2330  1.9838  1.9838  1.2859  0.8528  0.8528  0.6468  0.6468  0.4909  0.3788
  0.3197  0.3197  0.2695  0.2695  0.2370  0.2073  0.2186

 Free energy of the ion-electron system (eV)
  ---------------------------------------------------
  alpha Z        PSCENC =       805.90741109
  Ewald energy   TEWEN  =    200640.91690399
  -Hartree energ DENC   =   -242799.95013892
  -exchange      EXHF   =         0.00000000
  -V(xc)+E(xc)   XCENC  =      -343.11724018
  PAW double counting   =     49473.91120744   -47551.35029905
  entropy T*S    EENTRO =        -0.22961215
  eigenvalues    EBANDS =     -2073.77655602
  atomic energy  EATOM  =     41659.78587232
  Solvation  Ediel_sol  =         0.00000000
  ---------------------------------------------------
  free energy    TOTEN  =      -187.90245147 eV

  energy without entropy =     -187.67283932  energy(sigma->0) =     -187.78764540


--------------------------------------------------------------------------------------------------------




----------------------------------------- Iteration    1(  23)  ---------------------------------------


    POTLOK:  cpu time    0.0470: real time    0.0718
    SETDIJ:  cpu time    0.0053: real time    0.0088
    EDDIAG:  cpu time    1.5168: real time    1.9181
  RMM-DIIS:  cpu time    4.5056: real time    4.5072
    ORTHCH:  cpu time    0.3980: real time    0.3983
       DOS:  cpu time    0.0016: real time    0.0016
    CHARGE:  cpu time    0.2979: real time    0.2980
    MIXING:  cpu time    0.0045: real time    0.0045
    --------------------------------------------
      LOOP:  cpu time    6.7774: real time    7.2119

 eigenvalue-minimisations  :  3680
 total energy-change (2. order) : 0.6528958E-03  (-0.8933447E-04)
 number of electron     503.9998365 magnetization 
 augmentation part      197.1466948 magnetization 

 DIPCOR: dipole corrections for dipol
 direction  3 min pos     1,
 dipolmoment           0.000000      0.000000      0.053027 electrons x Angstroem
 Tr[quadrupol]    -10253.314018

 energy correction for charged system         0.000000 eV
 dipol+quadrupol energy correction           -0.000099 eV
[...]
    262      -0.2747      0.00000
    263      -0.2507      0.00000
    264       0.1790      0.00000
    265       0.2218      0.00000
    266       0.3435      0.00000
    267       0.4764      0.00000
    268       0.6344      0.00000
    269       0.6571      0.00000
    270       0.7836      0.00000
    271       1.2276      0.00000
    272       1.3258      0.00000
    273       1.5152      0.00000
    274       1.6587      0.00000
    275       1.7150      0.00000
    276       1.7992      0.00000
    277       2.1480      0.00000
    278       2.1786      0.00000
    279       2.2440      0.00000
    280       2.3689      0.00000
    281       2.4103      0.00000
    282       2.5035      0.00000
    283       2.6317      0.00000
    284       2.9979      0.00000
    285       3.2161      0.00000
    286       3.2441      0.00000
    287       3.5557      0.00000
    288       3.5890      0.00000
    289       3.7317      0.00000
    290       3.9546      0.00000
    291       4.0441      0.00000
    292       4.1980      0.00000
    293       4.4745      0.00000
    294       4.5207      0.00000
    295       4.6211      0.00000
    296       4.6408      0.00000
    297       4.7060      0.00000
    298       4.7709      0.00000
    299       4.8227      0.00000
    300       4.8996      0.00000
    301       4.9506      0.00000
    302       5.0405      0.00000
    303       5.0721      0.00000
    304       5.0937      0.00000
    305       5.1929      0.00000
    306       5.2503      0.00000


--------------------------------------------------------------------------------------------------------


 soft charge-density along one line, spin component           1
         0         1         2         3         4         5         6         7         8         9
 total charge-density along one line
 
 pseudopotential strength for first ion, spin component:           1
 -8.031   0.001  -0.004  -0.004  -0.001  -8.178   0.001  -0.004
  0.001  -7.950   0.000   0.003   0.002   0.001  -8.099   0.000
 -0.004   0.000  -7.943   0.001  -0.000  -0.004   0.000  -8.093
 -0.004   0.003   0.001  -7.949   0.004  -0.004   0.003   0.001
 -0.001   0.002  -0.000   0.004  -8.031  -0.001   0.002  -0.000
 -8.178   0.001  -0.004  -0.004  -0.001  -8.309   0.001  -0.004
  0.001  -8.099   0.000   0.003   0.002   0.001  -8.231   0.000
 -0.004   0.000  -8.093   0.001  -0.000  -0.004   0.000  -8.225
 -0.004   0.003   0.001  -8.098   0.004  -0.004   0.003   0.001
 -0.001   0.002  -0.000   0.004  -8.178  -0.001   0.002  -0.000
 -0.002   0.002  -0.027  -0.001  -0.000  -0.002   0.002  -0.027
 -0.003   0.002  -0.040  -0.002  -0.000  -0.003   0.002  -0.040
  0.001  -0.002   0.002  -0.000   0.003   0.001  -0.002   0.002
 -0.000  -0.002  -0.004   0.001  -0.000  -0.000  -0.002  -0.004
 -0.003  -0.000  -0.001  -0.002   0.002  -0.002  -0.000  -0.001
  0.001  -0.002   0.002  -0.000   0.003   0.001  -0.001   0.002
 -0.000  -0.003  -0.004   0.001  -0.000  -0.000  -0.003  -0.004
 -0.003  -0.000  -0.001  -0.002   0.002  -0.003  -0.000  -0.001
 total augmentation occupancy for first ion, spin component:           1
  4.344  -0.053   0.102   0.064   0.081  -2.520   0.047  -0.112  -0.093  -0.091   0.113  -0.050   0.064  -0.005  -0.020  -0.001
 -0.053   3.952   0.048   0.021   0.081   0.047  -1.670  -0.028  -0.011  -0.073  -0.063   0.010  -0.148  -0.011  -0.016   0.006
  0.102   0.048   4.246  -0.021   0.052  -0.112  -0.028  -2.127   0.014  -0.046   1.127  -0.135  -0.019  -0.180   0.015   0.002
  0.064   0.021  -0.021   3.995   0.060  -0.093  -0.011   0.014  -1.709  -0.027   0.058  -0.012  -0.015   0.007  -0.154   0.000
  0.081   0.081   0.052   0.060   4.248  -0.091  -0.073  -0.046  -0.027  -2.438   0.027  -0.026  -0.041  -0.003  -0.077   0.004
 -2.520   0.047  -0.112  -0.093  -0.091   2.578  -0.042   0.119   0.114   0.097  -0.105   0.048  -0.055   0.008   0.021   0.002
  0.047  -1.670  -0.028  -0.011  -0.073  -0.042   1.367   0.012   0.003   0.066   0.057  -0.011   0.139   0.011   0.016  -0.006
 -0.112  -0.028  -2.127   0.014  -0.046   0.119   0.012   1.954  -0.010   0.039  -1.052   0.161   0.013   0.180  -0.012  -0.001
 -0.093  -0.011   0.014  -1.709  -0.027   0.114   0.003  -0.010   1.401   0.002  -0.052   0.012   0.015  -0.007   0.145  -0.000
 -0.091  -0.073  -0.046  -0.027  -2.438   0.097   0.066   0.039   0.002   2.509  -0.022   0.023   0.034   0.003   0.066  -0.002
  0.113  -0.063   1.127   0.058   0.027  -0.105   0.057  -1.052  -0.052  -0.022   2.367  -0.498  -0.002   0.103   0.003   0.000
 -0.050   0.010  -0.135  -0.012  -0.026   0.048  -0.011   0.161   0.012   0.023  -0.498   0.153   0.009  -0.051  -0.005  -0.000
  0.064  -0.148  -0.019  -0.015  -0.041  -0.055   0.139   0.013   0.015   0.034  -0.002   0.009   0.183   0.004  -0.004  -0.006
 -0.005  -0.011  -0.180   0.007  -0.003   0.008   0.011   0.180  -0.007   0.003   0.103  -0.051   0.004   0.075  -0.004  -0.000
 -0.020  -0.016   0.015  -0.154  -0.077   0.021   0.016  -0.012   0.145   0.066   0.003  -0.005  -0.004  -0.004   0.183   0.000
 -0.001   0.006   0.002   0.000   0.004   0.002  -0.006  -0.001  -0.000  -0.002   0.000  -0.000  -0.006  -0.000   0.000   0.000
 -0.000  -0.003   0.002   0.001  -0.000  -0.000   0.000  -0.005  -0.000  -0.000  -0.007   0.002  -0.000  -0.003   0.000   0.000
 -0.002   0.000  -0.001   0.006   0.005  -0.000  -0.000   0.001  -0.006  -0.003  -0.000   0.000   0.000   0.000  -0.006  -0.000


------------------------ aborting loop because EDIFF is reached ----------------------------------------


    CHARGE:  cpu time    0.3013: real time    0.3016
    FORLOC:  cpu time    0.0187: real time    0.0187
    FORNL :  cpu time    1.6484: real time    1.6493
    FORCOR:  cpu time    0.0687: real time    0.0699
    FORHAR:  cpu time    0.0292: real time    0.0292
    MIXING:  cpu time    0.0031: real time    0.0031
    OFIELD:  cpu time    0.0000: real time    0.0000

 VOLUME and BASIS-vectors are now :
 -----------------------------------------------------------------------------
  energy-cutoff  :      400.00
  volume of cell :     2567.68
      direct lattice vectors                 reciprocal lattice vectors
    11.002581515  0.000000000  0.000000000     0.090887761 -0.052474073  0.000000000
     5.501290758  9.528515099  0.000000000     0.000000000  0.104948147  0.000000000
     0.000000000  0.000000000 24.491785094     0.000000000  0.000000000  0.040830017

  length of vectors
    11.002581515 11.002581515 24.491785094     0.104948147  0.104948147  0.040830017


 FORCES acting on ions
    electron-ion (+dipol)            ewald-force                    non-local-force                 convergence-correction
 -----------------------------------------------------------------------------------------------
   0.306E+01 -.951E+01 0.231E+04   -.324E+01 0.999E+01 -.231E+04   0.197E+00 -.477E+00 0.157E+00   0.703E-03 -.303E-02 0.301E-02
   0.478E+01 0.336E+01 -.231E+04   -.481E+01 -.292E+01 0.231E+04   0.299E-01 -.423E+00 0.157E-02   0.263E-02 -.347E-02 0.154E-01
   -.652E+01 0.661E+01 0.225E+04   0.614E+01 -.737E+01 -.225E+04   0.381E+00 0.763E+00 0.153E+00   0.202E-02 -.939E-03 0.560E-02
   -.434E+01 -.189E+02 0.226E+04   0.465E+01 0.198E+02 -.226E+04   -.311E+00 -.925E+00 -.905E-01   0.134E-02 0.170E-02 -.320E-02
   0.740E+01 -.132E+01 -.112E+02   -.726E+01 0.110E+01 0.122E+02   -.134E+00 0.225E+00 -.105E+01   0.184E-02 0.204E-03 0.490E-02
   -.552E+01 -.295E+01 0.131E+02   0.470E+01 0.251E+01 -.115E+02   0.818E+00 0.447E+00 -.165E+01   -.304E-04 -.119E-01 0.485E-03
   0.544E+01 0.180E+02 0.231E+04   -.544E+01 -.189E+02 -.231E+04   -.205E-02 0.931E+00 0.255E+00   -.352E-03 -.406E-02 0.175E-02
   -.113E+02 0.985E+00 -.232E+04   0.119E+02 -.144E+01 0.232E+04   -.677E+00 0.459E+00 0.363E+00   0.417E-02 -.681E-03 -.670E-02
   -.350E+01 -.554E+01 0.967E+01   0.387E+01 0.536E+01 -.869E+01   -.371E+00 0.191E+00 -.100E+01   -.481E-03 -.909E-02 0.163E-01
   0.611E+01 0.652E+01 -.117E+02   -.620E+01 -.703E+01 0.123E+02   0.873E-01 0.508E+00 -.540E+00   -.938E-03 0.153E-02 -.571E-04
   0.530E+01 -.119E+01 -.673E+02   -.629E+01 0.106E+01 0.668E+02   0.987E+00 0.130E+00 0.482E+00   -.999E-03 -.196E-03 -.313E-02
   0.233E+00 0.104E+02 -.104E+01   0.283E+00 -.931E+01 0.198E+01   -.511E+00 -.110E+01 -.944E+00   0.559E-02 0.125E-02 0.389E-02
   0.349E+01 -.103E+02 0.226E+04   -.391E+01 0.102E+02 -.226E+04   0.425E+00 0.104E+00 -.306E-01   -.704E-02 0.302E-03 -.794E-03
   -.188E+01 -.179E+02 -.228E+04   0.222E+01 0.191E+02 0.228E+04   -.331E+00 -.124E+01 0.394E+00   -.203E-04 0.270E-02 -.471E-02
   -.855E+01 -.877E+00 0.114E+02   0.842E+01 0.644E+00 -.104E+02   0.137E+00 0.237E+00 -.104E+01   -.105E-01 0.895E-04 0.666E-03
   -.901E+01 0.123E+02 0.225E+04   0.990E+01 -.119E+02 -.225E+04   -.900E+00 -.374E+00 0.147E+00   -.256E-02 -.103E-02 -.605E-02
   0.978E+01 0.223E+01 -.227E+04   -.101E+02 -.215E+01 0.227E+04   0.302E+00 -.961E-01 0.382E+00   -.749E-02 0.479E-02 0.434E-02
   -.167E+02 0.100E+02 0.221E+04   0.166E+02 -.106E+02 -.221E+04   0.665E-01 0.587E+00 -.255E+00   -.195E-02 0.551E-02 -.478E-02
   -.648E+01 -.230E+02 0.225E+04   0.656E+01 0.240E+02 -.225E+04   -.908E-01 -.102E+01 -.855E-02   0.250E-02 -.239E-02 -.218E-02
   0.151E+01 -.193E+01 -.556E+02   -.128E+01 0.149E+01 0.556E+02   -.232E+00 0.424E+00 0.315E-01   0.775E-03 0.750E-02 -.339E-02
   -.113E+01 -.107E+02 -.125E+01   0.117E+01 0.106E+02 0.166E+01   -.387E-01 0.533E-01 -.412E+00   0.815E-03 0.701E-03 0.300E-02
   0.106E+02 0.230E+02 0.221E+04   -.110E+02 -.234E+02 -.221E+04   0.448E+00 0.317E+00 -.204E+00   0.377E-02 -.288E-02 0.113E-01
   -.118E+02 -.115E+01 -.256E+02   0.123E+02 0.168E+01 0.255E+02   -.501E+00 -.521E+00 0.740E-01   -.587E-02 0.629E-03 0.226E-02
   0.106E+02 0.550E+01 -.231E+04   -.107E+02 -.638E+01 0.230E+04   0.176E+00 0.877E+00 0.288E+00   0.288E-02 0.296E-03 -.117E-01
   0.426E+01 -.356E+01 -.200E+04   -.436E+01 0.340E+01 0.200E+04   0.898E-01 0.163E+00 0.149E+01   -.295E-02 -.398E-02 0.991E-02
   0.772E+01 -.255E+01 0.197E+04   -.784E+01 0.270E+01 -.197E+04   0.120E+00 -.143E+00 -.132E+01   -.221E-02 0.152E-02 0.108E-01
   -.632E+01 0.382E-01 -.361E+01   0.627E+01 -.570E-01 0.402E+01   0.533E-01 0.946E-02 -.413E+00   -.670E-02 0.310E-02 0.162E-02
   -.531E+01 -.482E+01 -.201E+04   0.566E+01 0.506E+01 0.201E+04   -.349E+00 -.240E+00 0.154E+01   0.870E-03 0.223E-02 0.103E-01
   -.883E+01 -.100E+01 -.204E+04   0.871E+01 0.992E+00 0.203E+04   0.119E+00 0.121E-02 0.124E+01   0.241E-02 -.129E-02 0.258E-02
   -.232E+01 0.471E+01 -.203E+04   0.222E+01 -.494E+01 0.203E+04   0.981E-01 0.234E+00 0.143E+01   -.112E-01 0.291E-02 0.583E-02
   -.116E+02 -.132E+02 -.202E+04   0.117E+02 0.132E+02 0.202E+04   -.143E+00 -.335E-01 0.168E+01   0.640E-02 -.102E-01 -.642E-02
   -.791E+01 0.775E+01 -.203E+04   0.803E+01 -.781E+01 0.203E+04   -.118E+00 0.592E-01 0.160E+01   0.322E-02 -.155E-02 -.875E-02
   -.563E+01 -.686E+01 -.201E+04   0.550E+01 0.694E+01 0.201E+04   0.132E+00 -.724E-01 0.152E+01   -.969E-02 0.218E-03 0.125E-01
   -.162E+02 -.211E+02 0.194E+04   0.166E+02 0.213E+02 -.193E+04   -.407E+00 -.265E+00 -.155E+01   -.907E-03 -.142E-02 -.500E-02
   0.419E+01 -.686E+01 -.336E+02   -.371E+01 0.676E+01 0.336E+02   -.466E+00 0.898E-01 0.287E-01   -.459E-02 0.151E-02 -.252E-02
   0.523E+01 0.138E+02 -.201E+04   -.531E+01 -.141E+02 0.201E+04   0.773E-01 0.280E+00 0.163E+01   -.606E-02 0.284E-02 0.512E-02
   -.104E+02 0.164E+02 0.192E+04   0.108E+02 -.170E+02 -.192E+04   -.411E+00 0.587E+00 -.195E+01   0.530E-02 0.811E-02 -.506E-02
   0.849E+00 0.867E+01 -.815E+01   -.640E+00 -.854E+01 0.859E+01   -.201E+00 -.137E+00 -.455E+00   -.191E-02 -.101E-02 0.389E-02
   0.106E+02 0.130E+02 0.198E+04   -.108E+02 -.130E+02 -.198E+04   0.194E+00 0.160E-01 -.153E+01   -.375E-02 0.857E-03 0.865E-03
   0.632E+01 0.247E+01 -.202E+04   -.655E+01 -.237E+01 0.201E+04   0.226E+00 -.851E-01 0.149E+01   0.633E-02 -.911E-02 0.246E-02
   0.410E+00 -.542E+01 -.861E+02   -.466E+00 0.513E+01 0.852E+02   0.539E-01 0.271E+00 0.857E+00   0.570E-02 0.761E-05 -.103E-01
   0.442E+01 0.166E+02 -.201E+04   -.438E+01 -.165E+02 0.201E+04   -.467E-01 -.204E-02 0.167E+01   0.138E-01 -.283E-02 -.197E-02
   0.148E+02 0.182E+02 0.197E+04   -.149E+02 -.186E+02 -.197E+04   0.890E-01 0.346E+00 -.159E+01   0.719E-02 0.197E-02 -.371E-02
   0.663E+01 -.231E+01 -.612E+02   -.678E+01 0.227E+01 0.607E+02   0.151E+00 0.439E-01 0.473E+00   0.181E-02 0.233E-02 -.242E-02
   0.197E+01 0.125E+02 -.184E+02   -.222E+01 -.118E+02 0.187E+02   0.250E+00 -.704E+00 -.344E+00   0.174E-02 0.458E-02 -.323E-02
   0.121E+02 -.118E+02 0.198E+04   -.122E+02 0.119E+02 -.198E+04   0.113E+00 -.693E-01 -.122E+01   0.101E-02 0.337E-02 0.793E-03
   0.363E+01 -.207E+02 0.194E+04   -.373E+01 0.211E+02 -.194E+04   0.935E-01 -.356E+00 -.167E+01   0.658E-02 0.311E-02 -.730E-02
   0.986E+01 -.776E+01 -.201E+04   -.102E+02 0.782E+01 0.201E+04   0.322E+00 -.543E-01 0.165E+01   -.387E-02 0.496E-02 -.362E-02
 -----------------------------------------------------------------------------------------------
   0.299E-02 -.343E-01 -.177E+01   0.746E-13 -.102E-12 -.728E-11   -.387E-02 0.158E-01 0.176E+01   -.792E-03 -.241E-03 0.325E-01
 
 
 POSITION                                       TOTAL-FORCE (eV/Angst)
 -----------------------------------------------------------------------------------
      1.37028      0.80460      9.59132         0.009745     -0.002808     -0.000348
      5.50228      0.01172     14.79400         0.001558      0.009618     -0.001800
     10.99886      7.92270      9.67419         0.004788      0.000281     -0.012251
      6.88669      0.83251      9.69106         0.001335     -0.007912      0.007798
     12.38114      8.72557     12.26225         0.006448      0.003232     -0.007831
      6.85440      8.72339     12.24341         0.001412     -0.010685     -0.002593
      8.24442      7.90403      9.59409        -0.001812      0.003319     -0.000924
      5.52561      4.76188     14.84417        -0.008303      0.002303      0.001694
      9.63720      8.73118     12.24072        -0.006072      0.007434     -0.011972
      8.24122      1.57710     12.24935        -0.001523     -0.000040     -0.004760
      6.83229      3.97189     12.30564        -0.007013     -0.005627     -0.006339
      2.76420      1.61079     12.25025         0.010310      0.005276      0.004051
     10.98368      3.17479      9.70651        -0.002956     -0.005584     -0.010585
      4.14084      7.19029     14.78500         0.005375      0.006309      0.004912
     11.00452      1.58467     12.23108        -0.002020      0.005142     -0.002185
     13.77538      7.93749      9.70468        -0.015887     -0.001548      0.009743
     10.99107      4.77266     14.75055        -0.002611     -0.008875      0.004555
     12.38451      5.53265      9.77293         0.006127      0.012095     -0.012372
      4.13260      0.82394      9.68314        -0.005842     -0.013851     -0.000927
     13.76125      6.33245     12.29928        -0.003763     -0.001383     -0.006693
      8.24852      6.35279     12.24122        -0.004736      0.007707     -0.000553
      5.49865      7.91106      9.75877        -0.001386     -0.003230     -0.011712
      9.64268      3.98276     12.25864         0.003895      0.000696     -0.001245
      2.74647      4.74405     14.82508        -0.001257     -0.002739      0.015724
      9.62215      7.15604     14.62974        -0.007215     -0.000290     -0.003810
      9.62598      0.80024      9.83166        -0.000977      0.002621      0.011844
     11.01228      6.34997     12.24098         0.003537     -0.005866      0.003062
      8.26133      0.01932     14.64463         0.005769      0.002716     -0.001600
      8.25563      4.77286     14.67808         0.006729     -0.008735     -0.009918
      9.62345      2.37064     14.66144        -0.008421      0.010492     -0.001054
      6.89979      7.16451     14.65253         0.004902     -0.008161      0.001378
      6.89136      2.38036     14.67166         0.002803      0.001141      0.000117
      0.00339      0.01895     14.62761        -0.004298      0.008875      0.007908
      2.76281      3.18022      9.90981        -0.007263     -0.003833      0.010351
     12.38681      3.98023     12.27539         0.006821     -0.004880      0.006546
      1.37031      2.36578     14.63540        -0.004424      0.005811     -0.002543
      4.13766      5.52899      9.95203         0.000973      0.000303      0.004297
     15.12549      8.71547     12.24913         0.005772     -0.005320     -0.007608
      9.61710      5.54654      9.84146        -0.012819      0.003451      0.007102
      2.74171      0.00775     14.63032         0.002105      0.004015     -0.000375
      4.11579      3.96922     12.33592         0.003196     -0.012195      0.011320
      4.13071      2.37329     14.65636         0.006927      0.007434      0.001132
      6.86994      5.52905      9.89198         0.000667     -0.005346      0.000160
      5.48730      6.35090     12.30657         0.002276      0.005311     -0.000189
      5.49392      1.58651     12.26075         0.002377     -0.000622      0.000785
      8.23700      3.19096      9.87058         0.005166      0.002263      0.002552
      5.49269      3.19490      9.93327        -0.001731     -0.001874      0.004104
     12.37184      7.15766     14.65819         0.001314      0.003560      0.001057
 -----------------------------------------------------------------------------------
    total drift:                               -0.001674     -0.018826      0.019459


--------------------------------------------------------------------------------------------------------



  FREE ENERGIE OF THE ION-ELECTRON SYSTEM (eV)
  ---------------------------------------------------
  free  energy   TOTEN  =      -191.77795393 eV

  energy  without entropy=     -191.57076594  energy(sigma->0) =     -191.67435993
 
 d Force = 0.6529212E-04[ 0.433E-04, 0.872E-04]  d Energy = 0.6543423E-04-0.142E-06
 d Force =-0.8899509E+00[-0.885E+00,-0.895E+00]  d Ewald  =-0.8899507E+00-0.136E-06


--------------------------------------------------------------------------------------------------------


    POTLOK:  cpu time    0.0578: real time    0.0578


--------------------------------------------------------------------------------------------------------


 stress matrix after NEB project (eV)
      0.00000      0.00000      0.00000
      0.00000      0.00000      0.00000
      0.00000      0.00000      0.00000
  FORCES: max atom, RMS     0.018701    0.010681
  FORCE total and by dimension    0.073997    0.015887
  Stress total and by dimension    0.000000    0.000000


--------------------------------------------------------------------------------------------------------


  
 reached required accuracy - stopping structural energy minimisation
     LOOP+:  cpu time   57.1069: real time   57.2878
    4ORBIT:  cpu time    0.0000: real time    0.0000

 total amount of memory used by VASP on root node    84353. kBytes
========================================================================

   base      :      30000. kBytes
   nonlr-proj:       4285. kBytes
   fftplans  :       4447. kBytes
   grid      :       6721. kBytes
   one-center:        124. kBytes
   wavefun   :      38776. kBytes
 
  
  
 General timing and accounting informations for this job:
 ========================================================
  
                  Total CPU time used (sec):     2745.993
                            User time (sec):     2633.971
                          System time (sec):      112.022
                         Elapsed time (sec):     2769.530
  
                   Maximum memory used (kb):     1073976.
                   Average memory used (kb):           0.
  
                          Minor page faults:      1203949
                          Major page faults:            2
                 Voluntary context switches:        13226
