unknown system                          
           1
    11.002582    0.000000    0.000000
     5.501291    9.528515    0.000000
     0.000000    0.000000   24.491785
   Au   Pd
  24  24
Direct configuration=     1
   0.08333333  0.08333333  0.40830017
   0.50000000  0.00000000  0.59169983
   0.58333333  0.83333333  0.40830017
   0.58333333  0.08333333  0.40830017
   0.66666667  0.91666667  0.50000000
   0.16666667  0.91666667  0.50000000
   0.33333333  0.83333333  0.40830017
   0.25000000  0.50000000  0.59169983
   0.41666667  0.91666667  0.50000000
   0.66666667  0.16666667  0.50000000
   0.41666667  0.41666667  0.50000000
   0.16666667  0.16666667  0.50000000
   0.83333333  0.33333333  0.40830017
   0.00000000  0.75000000  0.59169983
   0.91666667  0.16666667  0.50000000
   0.83333333  0.83333333  0.40830017
   0.75000000  0.50000000  0.59169983
   0.83333333  0.58333333  0.40830017
   0.33333333  0.08333333  0.40830017
   0.91666667  0.66666667  0.50000000
   0.41666667  0.66666667  0.50000000
   0.08333333  0.83333333  0.40830017
   0.66666667  0.41666667  0.50000000
   0.00000000  0.50000000  0.59169983
   0.50000000  0.75000000  0.59169983
   0.83333333  0.08333333  0.40830017
   0.66666667  0.66666667  0.50000000
   0.75000000  0.00000000  0.59169983
   0.50000000  0.50000000  0.59169983
   0.75000000  0.25000000  0.59169983
   0.25000000  0.75000000  0.59169983
   0.50000000  0.25000000  0.59169983
   0.00000000  0.00000000  0.59169983
   0.08333333  0.33333333  0.40830017
   0.91666667  0.41666667  0.50000000
   0.00000000  0.25000000  0.59169983
   0.08333333  0.58333333  0.40830017
   0.91666667  0.91666667  0.50000000
   0.58333333  0.58333333  0.40830017
   0.25000000  0.00000000  0.59169983
   0.16666667  0.41666667  0.50000000
   0.25000000  0.25000000  0.59169983
   0.33333333  0.58333333  0.40830017
   0.16666667  0.66666667  0.50000000
   0.41666667  0.16666667  0.50000000
   0.58333333  0.33333333  0.40830017
   0.33333333  0.33333333  0.40830017
   0.75000000  0.75000000  0.59169983
Direct configuration=     2
   0.08249444  0.08418367  0.40566869
   0.49975544  0.00049941  0.59380096
   0.58362194  0.83198347  0.40598908
   0.58276478  0.08519197  0.40605861
   0.66744094  0.91641871  0.50087421
   0.16568139  0.91575457  0.50123551
   0.33408781  0.83163292  0.40569143
   0.25100994  0.49940662  0.59359991
   0.41723430  0.91617434  0.50092880
   0.66698647  0.16623254  0.50039107
   0.41539234  0.41640441  0.49965597
   0.16625486  0.16931546  0.50080230
   0.83277695  0.33372584  0.40609100
  -0.00041802  0.75180767  0.59356342
   0.91627258  0.16631303  0.50078784
   0.83452751  0.83350691  0.40606469
   0.74956145  0.50030024  0.59355857
   0.83383084  0.58221861  0.40643711
   0.33284396  0.08531262  0.40602639
   0.91761526  0.66571622  0.50000214
   0.41702255  0.66588149  0.50036752
   0.08307852  0.83228070  0.40638655
   0.66639958  0.41751429  0.50003088
   0.00019718  0.49878091  0.59357903
   0.49977475  0.74983305  0.59290055
   0.83294251  0.08361456  0.40696193
   0.66667169  0.66632626  0.50029166
   0.75022078  0.00042927  0.59288540
   0.49990422  0.50016075  0.59310153
   0.75010882  0.24929686  0.59309793
   0.25028609  0.75039850  0.59286300
   0.50030735  0.24984687  0.59293569
  -0.00020066  0.00022708  0.59280964
   0.08372845  0.33403250  0.40730811
   0.91759341  0.41653218  0.50004464
   0.00046603  0.24927753  0.59284629
   0.08461833  0.58223918  0.40743781
   0.91687671  0.91695653  0.50036318
   0.58320698  0.58305448  0.40700427
   0.24954136  0.00007254  0.59303824
   0.16694942  0.41602908  0.49949940
   0.25003692  0.24974402  0.59266376
   0.33352133  0.58238988  0.40715818
   0.16661561  0.66646127  0.49973567
   0.41555349  0.16838672  0.50022684
   0.58276777  0.33373506  0.40690555
   0.33274179  0.33410495  0.40738194
   0.74933382  0.75029428  0.59294712
Direct configuration=     3
   0.07997776  0.08673468  0.39777425
   0.49902175  0.00199765  0.60010435
   0.58448777  0.82793386  0.39905581
   0.58105914  0.09076788  0.39933395
   0.66976374  0.91567482  0.50349683
   0.16272557  0.91301828  0.50494204
   0.33635125  0.82653169  0.39786521
   0.25403977  0.49762647  0.59930016
   0.41893720  0.91469734  0.50371518
   0.66794590  0.16493015  0.50156429
   0.41156936  0.41561764  0.49862390
   0.16501946  0.17726184  0.50320918
   0.83110780  0.33490335  0.39946347
  -0.00167206  0.75723066  0.59915418
   0.91509031  0.16525214  0.50315138
   0.83811005  0.83402763  0.39935824
   0.74824580  0.50120097  0.59913480
   0.83532335  0.57887444  0.40084795
   0.33137586  0.09125047  0.39920504
   0.92046104  0.66286489  0.50000858
   0.41809021  0.66352597  0.50147010
   0.08231406  0.82912281  0.40064569
   0.66559830  0.42005717  0.50012352
   0.00078871  0.49512364  0.59921662
   0.49909901  0.74933218  0.59650269
   0.83177004  0.08445823  0.40294721
   0.66668677  0.66530503  0.50116665
   0.75088312  0.00171708  0.59644210
   0.49961686  0.50064299  0.59730664
   0.75043530  0.24718744  0.59729224
   0.25114436  0.75159399  0.59635250
   0.50122940  0.24938747  0.59664329
  -0.00080264  0.00090832  0.59613909
   0.08491380  0.33612999  0.40433194
   0.92037363  0.41612873  0.50017854
   0.00186413  0.24711011  0.59628567
   0.08847332  0.57895670  0.40485072
   0.91750683  0.91782611  0.50145271
   0.58282792  0.58221791  0.40311655
   0.24816543  0.00029018  0.59705348
   0.16779769  0.41411633  0.49799760
   0.25014766  0.24897609  0.59555553
   0.33408533  0.57955952  0.40373222
   0.16646246  0.66584508  0.49894266
   0.41221396  0.17354689  0.50090734
   0.58107109  0.33494025  0.40272170
   0.33096714  0.33641981  0.40462724
   0.74733529  0.75117712  0.59668897
Direct configuration=     4
   0.08142516  0.08551847  0.39659358
   0.49876963  0.00237139  0.60213494
   0.58453734  0.83009972  0.39792955
   0.58167035  0.08891514  0.39808173
   0.66889738  0.91562623  0.50259383
   0.16481039  0.91445804  0.50354128
   0.33424993  0.82866040  0.39655542
   0.25283484  0.49853749  0.60061297
   0.41713296  0.91681777  0.50281731
   0.66607999  0.16620683  0.50094434
   0.41288231  0.41627303  0.49908226
   0.16602043  0.17156532  0.50221116
   0.83117299  0.33375837  0.39812627
  -0.00088748  0.75508615  0.60055371
   0.91617600  0.16697793  0.50214735
   0.83546444  0.83385061  0.39806694
   0.74848663  0.50015510  0.60061293
   0.83553716  0.58005249  0.39955320
   0.33182745  0.08878869  0.39808174
   0.92002232  0.66363998  0.50015921
   0.41649204  0.66482902  0.50096415
   0.08431691  0.83020462  0.39941437
   0.66716446  0.41802894  0.50003615
   0.00117404  0.49637840  0.60063341
   0.49888524  0.74948843  0.59798943
   0.83190238  0.08526307  0.40234192
   0.66810741  0.66559761  0.50082808
   0.75031881  0.00215293  0.59802454
   0.50002500  0.49977837  0.59839460
   0.74980114  0.24831446  0.59873213
   0.25185233  0.75023101  0.59801010
   0.50157168  0.24963912  0.59770380
  -0.00138732  0.00202449  0.59830234
   0.08422530  0.33540513  0.40333926
   0.91781771  0.41713108  0.50008325
   0.00074443  0.24716560  0.59779608
   0.08750487  0.57930753  0.40379244
   0.91713039  0.91576144  0.50082837
   0.58281578  0.58128300  0.40227404
   0.24831295  0.00054442  0.59843640
   0.16637012  0.41755270  0.49872659
   0.25099491  0.24919919  0.59719964
   0.33464954  0.57964254  0.40273194
   0.16593336  0.66551412  0.49931134
   0.41507935  0.16946728  0.50065329
   0.58137522  0.33543128  0.40196134
   0.33139673  0.33669338  0.40322716
   0.74831502  0.75061168  0.59786411
Direct configuration=     5
   0.08204746  0.08499556  0.39608596
   0.49866122  0.00253207  0.60300799
   0.58455866  0.83103092  0.39744531
   0.58193315  0.08811855  0.39754334
   0.66852489  0.91560534  0.50220559
   0.16570676  0.91507707  0.50293902
   0.33334648  0.82957564  0.39599228
   0.25231678  0.49892918  0.60117742
   0.41635724  0.91772945  0.50243127
   0.66527774  0.16675574  0.50067779
   0.41344681  0.41655482  0.49927934
   0.16645080  0.16911611  0.50178207
   0.83120102  0.33326609  0.39755133
  -0.00055015  0.75416412  0.60115544
   0.91664279  0.16771993  0.50171567
   0.83432696  0.83377451  0.39751175
   0.74859017  0.49970543  0.60124845
   0.83562909  0.58055899  0.39899652
   0.33202161  0.08773024  0.39759878
   0.91983369  0.66397322  0.50022398
   0.41580491  0.66538927  0.50074662
   0.08517803  0.83066974  0.39888496
   0.66783782  0.41715690  0.49999859
   0.00133971  0.49691788  0.60124255
   0.49879333  0.74955561  0.59862865
   0.83195927  0.08560911  0.40208167
   0.66871822  0.66572340  0.50068252
   0.75007618  0.00234033  0.59870490
   0.50020048  0.49940663  0.59886237
   0.74952849  0.24879902  0.59935121
   0.25215673  0.74964500  0.59872278
   0.50171885  0.24974731  0.59815977
  -0.00163870  0.00250438  0.59923244
   0.08392928  0.33509348  0.40291245
   0.91671879  0.41756204  0.50004228
   0.00026301  0.24718946  0.59844548
   0.08708848  0.57945837  0.40333743
   0.91696854  0.91487373  0.50055993
   0.58281056  0.58088103  0.40191181
   0.24837637  0.00065372  0.59903098
   0.16575634  0.41903017  0.49904002
   0.25135918  0.24929512  0.59790652
   0.33489212  0.57967823  0.40230187
   0.16570588  0.66537182  0.49946986
   0.41631133  0.16771326  0.50054405
   0.58150598  0.33564240  0.40163442
   0.33158143  0.33681100  0.40262520
   0.74873626  0.75036857  0.59836937
Direct configuration=     6
   0.08238091  0.08480576  0.39574006
   0.49912942  0.00183804  0.60360014
   0.58362918  0.83155475  0.39728699
   0.58207854  0.08766375  0.39723901
   0.66785040  0.91564569  0.50189183
   0.16501524  0.91525388  0.50253535
   0.33412401  0.83008566  0.39565149
   0.25217137  0.49906630  0.60159462
   0.41739476  0.91683281  0.50201633
   0.66617817  0.16612226  0.50049717
   0.41372675  0.41641571  0.49963637
   0.16644870  0.16974086  0.50135628
   0.83176610  0.33318188  0.39716263
  -0.00048642  0.75388543  0.60151121
   0.91691617  0.16658667  0.50135419
   0.83464500  0.83387651  0.39724164
   0.74878889  0.49963051  0.60160108
   0.83514283  0.58089717  0.39865603
   0.33230574  0.08675191  0.39741654
   0.91874453  0.66468488  0.50032550
   0.41628934  0.66613277  0.50055519
   0.08426021  0.83110262  0.39871628
   0.66747063  0.41760173  0.50008923
   0.00115290  0.49717559  0.60160528
   0.49890127  0.74986910  0.59875854
   0.83238247  0.08494902  0.40218398
   0.66784048  0.66632259  0.50053835
   0.74999964  0.00213433  0.59891126
   0.50031357  0.49927314  0.59896042
   0.74940746  0.24900675  0.59959098
   0.25186293  0.74989508  0.59901160
   0.50155500  0.25002004  0.59837830
  -0.00142368  0.00216156  0.59946256
   0.08394399  0.33425352  0.40296794
   0.91707370  0.41751648  0.50009167
   0.00019822  0.24773625  0.59874407
   0.08613268  0.58062640  0.40298204
   0.91730118  0.91529315  0.50041091
   0.58273237  0.58179749  0.40189346
   0.24849723  0.00054958  0.59943467
   0.16616913  0.41719609  0.49963168
   0.25115254  0.24944194  0.59803713
   0.33484509  0.58006330  0.40207938
   0.16552720  0.66651094  0.49978286
   0.41602594  0.16721616  0.50034568
   0.58159182  0.33517527  0.40152760
   0.33194286  0.33601794  0.40240942
   0.74890353  0.75044076  0.59858505
Direct configuration=     7
   0.08248181  0.08474833  0.39563540
   0.49927109  0.00162803  0.60377932
   0.58334792  0.83171326  0.39723909
   0.58212254  0.08752613  0.39714692
   0.66764630  0.91565790  0.50179688
   0.16480599  0.91530738  0.50241320
   0.33435929  0.83023999  0.39554837
   0.25212737  0.49910778  0.60172086
   0.41770871  0.91656149  0.50189077
   0.66645064  0.16593057  0.50044252
   0.41381145  0.41637362  0.49974441
   0.16644807  0.16992991  0.50122743
   0.83193709  0.33315640  0.39704500
  -0.00046714  0.75380110  0.60161887
   0.91699889  0.16624375  0.50124481
   0.83474124  0.83390737  0.39715990
   0.74884902  0.49960783  0.60170778
   0.83499569  0.58099950  0.39855300
   0.33239172  0.08645587  0.39736139
   0.91841495  0.66490023  0.50035622
   0.41643593  0.66635775  0.50049727
   0.08398248  0.83123361  0.39866524
   0.66735952  0.41773633  0.50011665
   0.00109637  0.49725357  0.60171503
   0.49893394  0.74996395  0.59879784
   0.83251053  0.08474927  0.40221494
   0.66757489  0.66650390  0.50049472
   0.74997649  0.00207200  0.59897370
   0.50034779  0.49923274  0.59899010
   0.74937083  0.24906960  0.59966353
   0.25177403  0.74997076  0.59909899
   0.50150541  0.25010256  0.59844443
  -0.00135861  0.00205782  0.59953220
   0.08394844  0.33399936  0.40298473
   0.91718110  0.41750269  0.50010662
   0.00017861  0.24790171  0.59883442
   0.08584346  0.58097984  0.40287450
   0.91740183  0.91542007  0.50036582
   0.58270871  0.58207480  0.40188791
   0.24853381  0.00051807  0.59955682
   0.16629404  0.41664110  0.49981072
   0.25109001  0.24948637  0.59807666
   0.33483086  0.58017982  0.40201205
   0.16547313  0.66685563  0.49987757
   0.41593959  0.16706574  0.50028566
   0.58161779  0.33503391  0.40149528
   0.33205223  0.33577796  0.40234413
   0.74895415  0.75046260  0.59865031
Direct configuration=     8
   0.08250827  0.08451050  0.39534873
   0.49940945  0.00144503  0.60405696
   0.58353397  0.83170276  0.39707201
   0.58225628  0.08737679  0.39697904
   0.66763360  0.91596781  0.50171060
   0.16492312  0.91548592  0.50235326
   0.33434221  0.83013668  0.39526361
   0.25215420  0.49915609  0.60197198
   0.41745596  0.91649549  0.50183948
   0.66666352  0.16553200  0.50047585
   0.41337792  0.41644539  0.49988803
   0.16644043  0.16980564  0.50120240
   0.83188533  0.33329782  0.39690067
  -0.00064442  0.75398074  0.60179075
   0.91696206  0.16624419  0.50122656
   0.83469792  0.83392785  0.39701696
   0.74882024  0.49985920  0.60183695
   0.83480558  0.58111094  0.39842073
   0.33244433  0.08649015  0.39720146
   0.91846596  0.66483778  0.50037665
   0.41641230  0.66657232  0.50045334
   0.08400531  0.83124822  0.39858146
   0.66750804  0.41784388  0.50016995
   0.00089020  0.49740933  0.60191694
   0.49902295  0.75004071  0.59873616
   0.83264384  0.08460657  0.40225498
   0.66751576  0.66629384  0.50048175
   0.74998305  0.00191037  0.59887777
   0.50026341  0.49953302  0.59894125
   0.74954822  0.24889572  0.59962934
   0.25162900  0.75039464  0.59907433
   0.50138744  0.24997535  0.59843466
  -0.00119907  0.00191281  0.59942579
   0.08409740  0.33396753  0.40312748
   0.91720639  0.41744743  0.50019033
   0.00034556  0.24794288  0.59875809
   0.08577528  0.58095455  0.40298918
   0.91719442  0.91548815  0.50044339
   0.58287768  0.58223879  0.40194346
   0.24853481  0.00056230  0.59948995
   0.16648467  0.41638621  0.50008687
   0.25109779  0.24920929  0.59801360
   0.33459557  0.58045794  0.40207805
   0.16555567  0.66671425  0.50006045
   0.41591718  0.16716175  0.50021435
   0.58173660  0.33483373  0.40157253
   0.33184558  0.33564344  0.40245786
   0.74898900  0.75054621  0.59866402
Direct configuration=     9
   0.08254175  0.08420961  0.39498604
   0.49958448  0.00121350  0.60440823
   0.58376935  0.83168948  0.39686063
   0.58242547  0.08718784  0.39676665
   0.66761752  0.91635990  0.50160144
   0.16507130  0.91571180  0.50227742
   0.33432060  0.83000598  0.39490335
   0.25218814  0.49921720  0.60228968
   0.41713619  0.91641199  0.50177460
   0.66693284  0.16502774  0.50051801
   0.41282943  0.41653619  0.50006974
   0.16643077  0.16964842  0.50117072
   0.83181984  0.33347673  0.39671807
  -0.00086870  0.75420801  0.60200821
   0.91691545  0.16624474  0.50120348
   0.83464311  0.83395376  0.39683612
   0.74878383  0.50017722  0.60200036
   0.83456506  0.58125194  0.39825340
   0.33251090  0.08653351  0.39699912
   0.91853049  0.66475877  0.50040250
   0.41638241  0.66684378  0.50039777
   0.08403418  0.83126670  0.39847546
   0.66769595  0.41797995  0.50023739
   0.00062936  0.49760639  0.60217237
   0.49913557  0.75013783  0.59865813
   0.83281250  0.08442603  0.40230565
   0.66744095  0.66602808  0.50046534
   0.74999136  0.00170589  0.59875639
   0.50015665  0.49991291  0.59887945
   0.74977265  0.24867574  0.59958608
   0.25144551  0.75093091  0.59904311
   0.50123818  0.24981441  0.59842231
  -0.00099722  0.00172935  0.59929117
   0.08428587  0.33392726  0.40330809
   0.91723840  0.41737752  0.50029624
   0.00055678  0.24799498  0.59866151
   0.08568903  0.58092255  0.40313426
   0.91693202  0.91557429  0.50054152
   0.58309147  0.58244626  0.40201373
   0.24853607  0.00061825  0.59940536
   0.16672585  0.41606372  0.50043624
   0.25110764  0.24885873  0.59793382
   0.33429789  0.58080982  0.40216154
   0.16566010  0.66653537  0.50029182
   0.41588884  0.16728322  0.50012412
   0.58188691  0.33458046  0.40167027
   0.33158414  0.33547326  0.40260173
   0.74903309  0.75065199  0.59868136
Direct configuration=    10
   0.08251528  0.08420345  0.39471421
   0.49963825  0.00109671  0.60463929
   0.58381777  0.83174358  0.39669528
   0.58247721  0.08718385  0.39660323
   0.66742734  0.91626389  0.50153865
   0.16499220  0.91574306  0.50217686
   0.33435144  0.82995438  0.39460010
   0.25214236  0.49931811  0.60255548
   0.41719726  0.91655221  0.50172122
   0.66675347  0.16531451  0.50054000
   0.41287908  0.41655708  0.50016576
   0.16642354  0.16951626  0.50111370
   0.83183029  0.33345564  0.39660953
  -0.00090627  0.75427272  0.60216400
   0.91685720  0.16635779  0.50116557
   0.83474519  0.83387819  0.39671180
   0.74872071  0.50028732  0.60210995
   0.83465725  0.58123647  0.39816566
   0.33253509  0.08645246  0.39684399
   0.91858029  0.66466105  0.50041866
   0.41627493  0.66672985  0.50035161
   0.08405763  0.83114936  0.39843772
   0.66765304  0.41783627  0.50028029
   0.00061327  0.49769727  0.60235676
   0.49918387  0.75023624  0.59859209
   0.83287548  0.08441869  0.40233250
   0.66754504  0.66609284  0.50046559
   0.74996251  0.00166204  0.59868890
   0.50011283  0.50008230  0.59881010
   0.74987054  0.24861461  0.59952063
   0.25137500  0.75117107  0.59900051
   0.50118781  0.24972216  0.59839025
  -0.00091274  0.00171602  0.59916641
   0.08426079  0.33394065  0.40347403
   0.91727907  0.41735969  0.50036333
   0.00060471  0.24801652  0.59856900
   0.08566883  0.58084467  0.40333257
   0.91712263  0.91536091  0.50059967
   0.58310828  0.58245367  0.40206275
   0.24858972  0.00066121  0.59932738
   0.16660258  0.41612693  0.50069998
   0.25116159  0.24868887  0.59788609
   0.33422665  0.58082423  0.40228789
   0.16561162  0.66653025  0.50046589
   0.41594823  0.16716153  0.50007427
   0.58185898  0.33458005  0.40181882
   0.33150148  0.33551725  0.40275004
   0.74902067  0.75075615  0.59864198
Direct configuration=    11
   0.08245464  0.08418934  0.39409134
   0.49976147  0.00082909  0.60516874
   0.58392873  0.83186756  0.39631638
   0.58259576  0.08717470  0.39622878
   0.66699155  0.91604390  0.50139477
   0.16481094  0.91581471  0.50194644
   0.33442210  0.82983613  0.39390522
   0.25203746  0.49954934  0.60316454
   0.41733719  0.91687350  0.50159890
   0.66634246  0.16597161  0.50059039
   0.41299283  0.41660492  0.50038579
   0.16640699  0.16921342  0.50098305
   0.83185422  0.33340731  0.39636083
  -0.00099234  0.75442098  0.60252098
   0.91672371  0.16661682  0.50107871
   0.83497911  0.83370505  0.39642695
   0.74857607  0.50053962  0.60236106
   0.83486849  0.58120101  0.39796461
   0.33259051  0.08626673  0.39648852
   0.91869443  0.66443713  0.50045569
   0.41602863  0.66646879  0.50024584
   0.08411137  0.83088049  0.39835125
   0.66755471  0.41750704  0.50037860
   0.00057639  0.49790551  0.60277926
   0.49929454  0.75046173  0.59844075
   0.83301978  0.08440187  0.40239404
   0.66778357  0.66624123  0.50046615
   0.74989639  0.00156156  0.59853424
   0.50001242  0.50047044  0.59865119
   0.75009485  0.24847451  0.59937065
   0.25121342  0.75172138  0.59890290
   0.50107241  0.24951077  0.59831680
  -0.00071916  0.00168549  0.59888051
   0.08420333  0.33397134  0.40385426
   0.91737226  0.41731882  0.50051706
   0.00071452  0.24806587  0.59835701
   0.08562252  0.58066621  0.40378700
   0.91755942  0.91487198  0.50073291
   0.58314681  0.58247063  0.40217508
   0.24871266  0.00075963  0.59914870
   0.16632010  0.41627178  0.50130433
   0.25128522  0.24829964  0.59777672
   0.33406341  0.58085726  0.40257741
   0.16550053  0.66651849  0.50086476
   0.41608433  0.16688269  0.49996002
   0.58179498  0.33457911  0.40215922
   0.33131206  0.33561805  0.40308988
   0.74899223  0.75099481  0.59855174
Direct configuration=    12
   0.08243091  0.08418382  0.39384759
   0.49980969  0.00072436  0.60537594
   0.58397215  0.83191607  0.39616811
   0.58264215  0.08717112  0.39608225
   0.66682101  0.91595782  0.50133847
   0.16474000  0.91584275  0.50185627
   0.33444975  0.82978985  0.39363330
   0.25199641  0.49963982  0.60340288
   0.41739194  0.91699923  0.50155103
   0.66618162  0.16622875  0.50061011
   0.41303735  0.41662365  0.50047189
   0.16640052  0.16909491  0.50093193
   0.83186359  0.33338840  0.39626351
  -0.00102603  0.75447901  0.60266068
   0.91667147  0.16671819  0.50104472
   0.83507065  0.83363730  0.39631547
   0.74851947  0.50063835  0.60245933
   0.83495116  0.58118714  0.39788594
   0.33261220  0.08619405  0.39634942
   0.91873909  0.66434951  0.50047018
   0.41593225  0.66636663  0.50020445
   0.08413239  0.83077528  0.39831742
   0.66751623  0.41737820  0.50041707
   0.00056196  0.49798700  0.60294459
   0.49933785  0.75054998  0.59838152
   0.83307625  0.08439529  0.40241812
   0.66787692  0.66629930  0.50046638
   0.74987052  0.00152223  0.59847372
   0.49997312  0.50062233  0.59858901
   0.75018263  0.24841969  0.59931195
   0.25115019  0.75193673  0.59886470
   0.50102725  0.24942804  0.59828805
  -0.00064341  0.00167355  0.59876863
   0.08418084  0.33398335  0.40400306
   0.91740872  0.41730283  0.50057722
   0.00075750  0.24808519  0.59827406
   0.08560441  0.58059637  0.40396483
   0.91773034  0.91468065  0.50078505
   0.58316189  0.58247727  0.40221904
   0.24876076  0.00079815  0.59907877
   0.16620956  0.41632846  0.50154083
   0.25133360  0.24814732  0.59773393
   0.33399953  0.58087018  0.40269071
   0.16545705  0.66651390  0.50102085
   0.41613758  0.16677357  0.49991531
   0.58176994  0.33457874  0.40229243
   0.33123794  0.33565749  0.40322287
   0.74898110  0.75108821  0.59851642
Direct configuration=    13
   0.08242846  0.08429465  0.39344510
   0.49980816  0.00071528  0.60566588
   0.58392887  0.83191254  0.39592273
   0.58261986  0.08732392  0.39588544
   0.66699441  0.91588938  0.50123333
   0.16485140  0.91568837  0.50156555
   0.33452815  0.82975987  0.39320459
   0.25203900  0.49969037  0.60381913
   0.41743888  0.91684673  0.50143584
   0.66612600  0.16599489  0.50058514
   0.41285648  0.41662232  0.50064253
   0.16651917  0.16894548  0.50076395
   0.83186237  0.33334174  0.39615830
  -0.00093808  0.75443484  0.60287754
   0.91668079  0.16668971  0.50086722
   0.83523965  0.83359649  0.39617362
   0.74853495  0.50058556  0.60256894
   0.83510613  0.58104718  0.39783354
   0.33255412  0.08611512  0.39612703
   0.91858880  0.66444475  0.50054758
   0.41587886  0.66658805  0.50011381
   0.08422358  0.83061037  0.39832415
   0.66752497  0.41761754  0.50045678
   0.00065939  0.49798307  0.60322152
   0.49928179  0.75069378  0.59824890
   0.83308239  0.08437816  0.40247736
   0.66789119  0.66623276  0.50042790
   0.74980186  0.00165791  0.59836570
   0.49990972  0.50061533  0.59855974
   0.75013924  0.24854129  0.59925177
   0.25120963  0.75198275  0.59880091
   0.50096340  0.24943886  0.59826567
  -0.00069937  0.00181387  0.59862217
   0.08409626  0.33389372  0.40424230
   0.91719550  0.41741477  0.50067452
   0.00065237  0.24822576  0.59817079
   0.08569976  0.58047251  0.40432190
   0.91761326  0.91456907  0.50078482
   0.58311310  0.58240760  0.40229838
   0.24888833  0.00081091  0.59894384
   0.16619512  0.41635160  0.50192240
   0.25141151  0.24826570  0.59771144
   0.33404383  0.58067951  0.40289806
   0.16538158  0.66651906  0.50129136
   0.41612538  0.16671889  0.49984849
   0.58164842  0.33473639  0.40249209
   0.33126450  0.33573575  0.40349552
   0.74903684  0.75110582  0.59844470
Direct configuration=    14
   0.08242348  0.08451976  0.39262759
   0.49980506  0.00069685  0.60625481
   0.58384098  0.83190536  0.39542435
   0.58257459  0.08763427  0.39548569
   0.66734660  0.91575038  0.50101979
   0.16507767  0.91537481  0.50097505
   0.33468739  0.82969897  0.39233383
   0.25212551  0.49979304  0.60466461
   0.41753421  0.91653697  0.50120185
   0.66601303  0.16551989  0.50053443
   0.41248912  0.41661963  0.50098911
   0.16676018  0.16864197  0.50042276
   0.83185991  0.33324695  0.39594462
  -0.00075945  0.75434513  0.60331801
   0.91669973  0.16663185  0.50050668
   0.83558290  0.83351359  0.39588551
   0.74856639  0.50047833  0.60279157
   0.83542091  0.58076290  0.39772712
   0.33243616  0.08595480  0.39567532
   0.91828353  0.66463819  0.50070479
   0.41577043  0.66703780  0.49992973
   0.08440880  0.83027543  0.39833784
   0.66754274  0.41810368  0.50053744
   0.00085729  0.49797510  0.60378401
   0.49916791  0.75098586  0.59797954
   0.83309486  0.08434337  0.40259769
   0.66792019  0.66609762  0.50034975
   0.74966241  0.00193349  0.59814628
   0.49978094  0.50060113  0.59850028
   0.75005112  0.24878828  0.59912951
   0.25133038  0.75207621  0.59867135
   0.50083371  0.24946083  0.59822021
  -0.00081302  0.00209888  0.59832471
   0.08392445  0.33371168  0.40472825
   0.91676241  0.41764213  0.50087215
   0.00043884  0.24851130  0.59796104
   0.08589344  0.58022095  0.40504717
   0.91737545  0.91434243  0.50078435
   0.58301400  0.58226610  0.40245953
   0.24914745  0.00083683  0.59866977
   0.16616580  0.41639859  0.50269741
   0.25156974  0.24850616  0.59766576
   0.33413383  0.58029223  0.40331923
   0.16522827  0.66652956  0.50184079
   0.41610058  0.16660782  0.49971277
   0.58140161  0.33505660  0.40289763
   0.33131844  0.33589470  0.40404930
   0.74915006  0.75114161  0.59829902
Direct configuration=    15
   0.08242442  0.08447728  0.39278186
   0.49980564  0.00070033  0.60614368
   0.58385757  0.83190672  0.39551839
   0.58258313  0.08757571  0.39556113
   0.66728014  0.91577661  0.50106008
   0.16503497  0.91543398  0.50108648
   0.33465734  0.82971046  0.39249814
   0.25210918  0.49977367  0.60450507
   0.41751622  0.91659542  0.50124601
   0.66603435  0.16560952  0.50054400
   0.41255844  0.41662013  0.50092371
   0.16671470  0.16869924  0.50048715
   0.83186038  0.33326484  0.39598494
  -0.00079316  0.75436206  0.60323489
   0.91669615  0.16664277  0.50057471
   0.83551813  0.83352924  0.39593987
   0.74856046  0.50049856  0.60274956
   0.83536151  0.58081654  0.39774720
   0.33245842  0.08598505  0.39576056
   0.91834113  0.66460169  0.50067513
   0.41579090  0.66695294  0.49996446
   0.08437385  0.83033864  0.39833526
   0.66753939  0.41801195  0.50052222
   0.00081995  0.49797660  0.60367787
   0.49918940  0.75093074  0.59803037
   0.83309251  0.08434994  0.40257499
   0.66791472  0.66612312  0.50036450
   0.74968872  0.00188149  0.59818768
   0.49980524  0.50060381  0.59851150
   0.75006775  0.24874168  0.59915258
   0.25130760  0.75205858  0.59869579
   0.50085819  0.24945669  0.59822878
  -0.00079157  0.00204510  0.59838084
   0.08395687  0.33374603  0.40463655
   0.91684413  0.41759923  0.50083486
   0.00047913  0.24845742  0.59800062
   0.08585689  0.58026842  0.40491031
   0.91742033  0.91438520  0.50078444
   0.58303270  0.58229280  0.40242912
   0.24909856  0.00083194  0.59872149
   0.16617133  0.41638973  0.50255117
   0.25153988  0.24846078  0.59767438
   0.33411685  0.58036531  0.40323976
   0.16525720  0.66652758  0.50173711
   0.41610526  0.16662878  0.49973838
   0.58144819  0.33499618  0.40282111
   0.33130826  0.33586470  0.40394480
   0.74912869  0.75113485  0.59832651
Direct configuration=    16
   0.08245988  0.08432333  0.39260971
   0.49980721  0.00084081  0.60607989
   0.58400340  0.83174182  0.39546142
   0.58244975  0.08760801  0.39552558
   0.66719551  0.91584687  0.50098047
   0.16493543  0.91548608  0.50087443
   0.33457205  0.82964750  0.39234709
   0.25226405  0.49973455  0.60471287
   0.41770140  0.91647540  0.50112807
   0.66622543  0.16541500  0.50044676
   0.41247546  0.41672991  0.50112763
   0.16672175  0.16875970  0.50043827
   0.83172519  0.33329020  0.39599017
  -0.00075133  0.75440623  0.60331820
   0.91680265  0.16637950  0.50040716
   0.83534186  0.83353732  0.39590533
   0.74857850  0.50054874  0.60274072
   0.83521990  0.58086850  0.39783381
   0.33252715  0.08615011  0.39568291
   0.91824074  0.66458762  0.50081295
   0.41589554  0.66705255  0.49992693
   0.08459003  0.83044363  0.39840607
   0.66748663  0.41807095  0.50054117
   0.00083015  0.49785071  0.60381550
   0.49922282  0.75079436  0.59796851
   0.83307247  0.08429902  0.40256458
   0.66773745  0.66620822  0.50027836
   0.74970347  0.00199393  0.59819810
   0.49984133  0.50042742  0.59859337
   0.74985964  0.24892370  0.59911729
   0.25139614  0.75184289  0.59864849
   0.50093954  0.24955905  0.59827914
  -0.00083618  0.00214925  0.59830052
   0.08406128  0.33369020  0.40469066
   0.91687741  0.41764753  0.50089051
   0.00048520  0.24841499  0.59794747
   0.08593658  0.58024206  0.40510258
   0.91736216  0.91458047  0.50069983
   0.58302707  0.58235715  0.40239871
   0.24894134  0.00091855  0.59856900
   0.16602936  0.41637895  0.50268531
   0.25152735  0.24864404  0.59773091
   0.33415671  0.58045947  0.40331834
   0.16525480  0.66656694  0.50185327
   0.41607504  0.16642216  0.49974894
   0.58152969  0.33501004  0.40288461
   0.33133499  0.33564142  0.40410403
   0.74916602  0.75103317  0.59831434
Direct configuration=    17
   0.08248481  0.08421511  0.39248869
   0.49980831  0.00093957  0.60603505
   0.58410591  0.83162591  0.39542137
   0.58235598  0.08763071  0.39550058