  48  48   0   0
  0.5349325E+02  0.1100258E-08  0.1100258E-08  0.2449179E-08  0.3500000E-15
  1.000000000000000E-004
  CAR 
 unknown system                          
      6.37212048     -9.81792978  301     -1.10748691      1.00000000
     -9.818  0.0000E+00  0.0000E+00
     -9.764  0.0000E+00  0.0000E+00
     -9.710  0.0000E+00  0.0000E+00
     -9.656  0.0000E+00  0.0000E+00
     -9.602  0.0000E+00  0.0000E+00
     -9.548  0.0000E+00  0.0000E+00
     -9.494  0.0000E+00  0.0000E+00
     -9.440  0.0000E+00  0.0000E+00
     -9.386  0.9600E-17  0.5181E-18
     -9.332  0.3942E-14  0.2133E-15
     -9.278  0.8777E-12  0.4758E-13
     -9.224  0.1105E-09  0.6011E-11
     -9.170  0.7882E-08  0.4314E-09
     -9.116  0.3191E-06  0.1765E-07
     -9.062  0.7350E-05  0.4143E-06
     -9.008  0.9655E-04  0.5625E-05
     -8.954  0.7251E-03  0.4475E-04
     -8.900  0.3120E-02  0.2131E-03
     -8.847  0.7716E-02  0.6295E-03
     -8.793  0.1105E-01  0.1226E-02
     -8.739  0.9708E-02  0.1750E-02
     -8.685  0.7411E-02  0.2150E-02
     -8.631  0.8894E-02  0.2630E-02
     -8.577  0.1104E-01  0.3226E-02
     -8.523  0.8845E-02  0.3703E-02
     -8.469  0.4168E-02  0.3928E-02
     -8.415  0.1173E-02  0.3991E-02
     -8.361  0.4955E-03  0.4018E-02
     -8.307  0.1750E-02  0.4112E-02
     -8.253  0.5493E-02  0.4409E-02
     -8.199  0.1006E-01  0.4952E-02
     -8.145  0.1096E-01  0.5543E-02
     -8.091  0.8475E-02  0.6000E-02
     -8.037  0.8717E-02  0.6471E-02
     -7.983  0.1426E-01  0.7240E-02
     -7.929  0.1996E-01  0.8318E-02
     -7.875  0.1907E-01  0.9347E-02
     -7.821  0.1366E-01  0.1008E-01
     -7.767  0.1043E-01  0.1065E-01
     -7.713  0.9740E-02  0.1117E-01
     -7.659  0.1055E-01  0.1174E-01
     -7.605  0.1354E-01  0.1247E-01
     -7.551  0.1642E-01  0.1336E-01
     -7.497  0.1741E-01  0.1430E-01
     -7.443  0.1839E-01  0.1529E-01
     -7.389  0.1919E-01  0.1633E-01
     -7.335  0.1764E-01  0.1728E-01
     -7.281  0.1621E-01  0.1815E-01
     -7.228  0.2042E-01  0.1926E-01
     -7.174  0.2959E-01  0.2085E-01
     -7.120  0.3905E-01  0.2296E-01
     -7.066  0.4818E-01  0.2556E-01
     -7.012  0.5691E-01  0.2863E-01
     -6.958  0.6499E-01  0.3214E-01
     -6.904  0.7336E-01  0.3610E-01
     -6.850  0.8212E-01  0.4053E-01
     -6.796  0.8979E-01  0.4537E-01
     -6.742  0.9351E-01  0.5042E-01
     -6.688  0.9233E-01  0.5540E-01
     -6.634  0.8875E-01  0.6019E-01
     -6.580  0.8624E-01  0.6485E-01
     -6.526  0.8579E-01  0.6948E-01
     -6.472  0.8572E-01  0.7410E-01
     -6.418  0.8839E-01  0.7887E-01
     -6.364  0.9996E-01  0.8427E-01
     -6.310  0.1223E+00  0.9086E-01
     -6.256  0.1501E+00  0.9897E-01
     -6.202  0.1720E+00  0.1082E+00
     -6.148  0.1780E+00  0.1179E+00
     -6.094  0.1718E+00  0.1271E+00
     -6.040  0.1640E+00  0.1360E+00
     -5.986  0.1585E+00  0.1445E+00
     -5.932  0.1532E+00  0.1528E+00
     -5.878  0.1471E+00  0.1607E+00
     -5.824  0.1419E+00  0.1684E+00
     -5.770  0.1392E+00  0.1759E+00
     -5.716  0.1383E+00  0.1834E+00
     -5.662  0.1389E+00  0.1909E+00
     -5.609  0.1398E+00  0.1984E+00
     -5.555  0.1389E+00  0.2059E+00
     -5.501  0.1379E+00  0.2133E+00
     -5.447  0.1392E+00  0.2208E+00
     -5.393  0.1430E+00  0.2286E+00
     -5.339  0.1485E+00  0.2366E+00
     -5.285  0.1527E+00  0.2448E+00
     -5.231  0.1543E+00  0.2531E+00
     -5.177  0.1583E+00  0.2617E+00
     -5.123  0.1678E+00  0.2707E+00
     -5.069  0.1760E+00  0.2802E+00
     -5.015  0.1771E+00  0.2898E+00
     -4.961  0.1748E+00  0.2992E+00
     -4.907  0.1729E+00  0.3086E+00
     -4.853  0.1712E+00  0.3178E+00
     -4.799  0.1705E+00  0.3270E+00
     -4.745  0.1708E+00  0.3362E+00
     -4.691  0.1703E+00  0.3454E+00
     -4.637  0.1670E+00  0.3544E+00
     -4.583  0.1626E+00  0.3632E+00
     -4.529  0.1611E+00  0.3719E+00
     -4.475  0.1624E+00  0.3807E+00
     -4.421  0.1626E+00  0.3894E+00
     -4.367  0.1632E+00  0.3982E+00
     -4.313  0.1660E+00  0.4072E+00
     -4.259  0.1678E+00  0.4163E+00
     -4.205  0.1693E+00  0.4254E+00
     -4.151  0.1748E+00  0.4348E+00
     -4.097  0.1807E+00  0.4446E+00
     -4.043  0.1824E+00  0.4544E+00
     -3.990  0.1815E+00  0.4642E+00
     -3.936  0.1811E+00  0.4740E+00
     -3.882  0.1834E+00  0.4839E+00
     -3.828  0.1903E+00  0.4942E+00
     -3.774  0.2009E+00  0.5050E+00
     -3.720  0.2103E+00  0.5163E+00
     -3.666  0.2143E+00  0.5279E+00
     -3.612  0.2109E+00  0.5393E+00
     -3.558  0.2026E+00  0.5502E+00
     -3.504  0.1971E+00  0.5609E+00
     -3.450  0.1986E+00  0.5716E+00
     -3.396  0.2016E+00  0.5825E+00
     -3.342  0.2004E+00  0.5933E+00
     -3.288  0.1967E+00  0.6039E+00
     -3.234  0.1961E+00  0.6145E+00
     -3.180  0.2002E+00  0.6253E+00
     -3.126  0.2003E+00  0.6361E+00
     -3.072  0.1910E+00  0.6464E+00
     -3.018  0.1803E+00  0.6561E+00
     -2.964  0.1747E+00  0.6656E+00
     -2.910  0.1731E+00  0.6749E+00
     -2.856  0.1744E+00  0.6843E+00
     -2.802  0.1768E+00  0.6938E+00
     -2.748  0.1802E+00  0.7036E+00
     -2.694  0.1882E+00  0.7137E+00
     -2.640  0.1983E+00  0.7244E+00
     -2.586  0.2020E+00  0.7353E+00
     -2.532  0.1975E+00  0.7460E+00
     -2.478  0.1904E+00  0.7563E+00
     -2.424  0.1853E+00  0.7663E+00
     -2.371  0.1840E+00  0.7762E+00
     -2.317  0.1854E+00  0.7862E+00
     -2.263  0.1849E+00  0.7962E+00
     -2.209  0.1803E+00  0.8059E+00
     -2.155  0.1755E+00  0.8154E+00
     -2.101  0.1742E+00  0.8248E+00
     -2.047  0.1768E+00  0.8343E+00
     -1.993  0.1806E+00  0.8441E+00
     -1.939  0.1861E+00  0.8541E+00
     -1.885  0.1950E+00  0.8646E+00
     -1.831  0.2040E+00  0.8756E+00
     -1.777  0.2081E+00  0.8869E+00
     -1.723  0.2060E+00  0.8980E+00
     -1.669  0.2027E+00  0.9089E+00
     -1.615  0.2023E+00  0.9198E+00
     -1.561  0.2016E+00  0.9307E+00
     -1.507  0.1977E+00  0.9414E+00
     -1.453  0.1946E+00  0.9519E+00
     -1.399  0.1956E+00  0.9624E+00
     -1.345  0.1975E+00  0.9731E+00
     -1.291  0.1905E+00  0.9834E+00
     -1.237  0.1692E+00  0.9925E+00
     -1.183  0.1398E+00  0.1000E+01
     -1.129  0.1102E+00  0.1006E+01
     -1.075  0.8462E-01  0.1011E+01
     -1.021  0.6325E-01  0.1014E+01
     -0.967  0.4556E-01  0.1016E+01
     -0.913  0.3169E-01  0.1018E+01
     -0.859  0.2159E-01  0.1019E+01
     -0.805  0.1632E-01  0.1020E+01
     -0.752  0.1763E-01  0.1021E+01
     -0.698  0.2287E-01  0.1022E+01
     -0.644  0.2793E-01  0.1024E+01
     -0.590  0.3339E-01  0.1026E+01
     -0.536  0.4055E-01  0.1028E+01
     -0.482  0.4677E-01  0.1030E+01
     -0.428  0.4700E-01  0.1033E+01
     -0.374  0.4071E-01  0.1035E+01
     -0.320  0.3734E-01  0.1037E+01
     -0.266  0.4180E-01  0.1039E+01
     -0.212  0.4300E-01  0.1042E+01
     -0.158  0.3409E-01  0.1044E+01
     -0.104  0.2438E-01  0.1045E+01
     -0.050  0.2089E-01  0.1046E+01
      0.004  0.1986E-01  0.1047E+01
      0.058  0.1901E-01  0.1048E+01
      0.112  0.2153E-01  0.1049E+01
      0.166  0.2654E-01  0.1051E+01
      0.220  0.3054E-01  0.1052E+01
      0.274  0.3422E-01  0.1054E+01
      0.328  0.3747E-01  0.1056E+01
      0.382  0.3934E-01  0.1058E+01
      0.436  0.4190E-01  0.1061E+01
      0.490  0.4586E-01  0.1063E+01
      0.544  0.4870E-01  0.1066E+01
      0.598  0.4842E-01  0.1068E+01
      0.652  0.4570E-01  0.1071E+01
      0.706  0.4266E-01  0.1073E+01
      0.760  0.4029E-01  0.1075E+01
      0.814  0.3651E-01  0.1077E+01
      0.868  0.2995E-01  0.1079E+01
      0.921  0.2338E-01  0.1080E+01
      0.975  0.1923E-01  0.1081E+01
      1.029  0.1737E-01  0.1082E+01
      1.083  0.1767E-01  0.1083E+01
      1.137  0.1863E-01  0.1084E+01
      1.191  0.1812E-01  0.1085E+01
      1.245  0.1632E-01  0.1086E+01
      1.299  0.1438E-01  0.1087E+01
      1.353  0.1279E-01  0.1087E+01
      1.407  0.1300E-01  0.1088E+01
      1.461  0.1880E-01  0.1089E+01
      1.515  0.2945E-01  0.1091E+01
      1.569  0.3634E-01  0.1093E+01
      1.623  0.3475E-01  0.1095E+01
      1.677  0.2965E-01  0.1096E+01
      1.731  0.2838E-01  0.1098E+01
      1.785  0.3263E-01  0.1099E+01
      1.839  0.3568E-01  0.1101E+01
      1.893  0.3090E-01  0.1103E+01
      1.947  0.2302E-01  0.1104E+01
      2.001  0.2052E-01  0.1105E+01
      2.055  0.2371E-01  0.1107E+01
      2.109  0.2888E-01  0.1108E+01
      2.163  0.3350E-01  0.1110E+01
      2.217  0.3731E-01  0.1112E+01
      2.271  0.4187E-01  0.1114E+01
      2.325  0.4593E-01  0.1117E+01
      2.379  0.4442E-01  0.1119E+01
      2.433  0.3857E-01  0.1121E+01
      2.487  0.3656E-01  0.1123E+01
      2.540  0.4096E-01  0.1125E+01
      2.594  0.4756E-01  0.1128E+01
      2.648  0.5149E-01  0.1131E+01
      2.702  0.4806E-01  0.1133E+01
      2.756  0.3697E-01  0.1135E+01
      2.810  0.2499E-01  0.1137E+01
      2.864  0.1671E-01  0.1138E+01
      2.918  0.1292E-01  0.1138E+01
      2.972  0.1281E-01  0.1139E+01
      3.026  0.1257E-01  0.1140E+01
      3.080  0.1185E-01  0.1140E+01
      3.134  0.1419E-01  0.1141E+01
      3.188  0.1952E-01  0.1142E+01
      3.242  0.2453E-01  0.1143E+01
      3.296  0.2390E-01  0.1145E+01
      3.350  0.1650E-01  0.1146E+01
      3.404  0.1126E-01  0.1146E+01
      3.458  0.1625E-01  0.1147E+01
      3.512  0.2809E-01  0.1149E+01
      3.566  0.3795E-01  0.1151E+01
      3.620  0.4301E-01  0.1153E+01
      3.674  0.4421E-01  0.1155E+01
      3.728  0.4037E-01  0.1158E+01
      3.782  0.3182E-01  0.1159E+01
      3.836  0.2385E-01  0.1161E+01
      3.890  0.2106E-01  0.1162E+01
      3.944  0.2313E-01  0.1163E+01
      3.998  0.2724E-01  0.1164E+01
      4.052  0.2903E-01  0.1166E+01
      4.106  0.2656E-01  0.1167E+01
      4.159  0.2402E-01  0.1169E+01
      4.213  0.2348E-01  0.1170E+01
      4.267  0.2047E-01  0.1171E+01
      4.321  0.1529E-01  0.1172E+01
      4.375  0.1601E-01  0.1173E+01
      4.429  0.2491E-01  0.1174E+01
      4.483  0.3461E-01  0.1176E+01
      4.537  0.4233E-01  0.1178E+01
      4.591  0.5148E-01  0.1181E+01
      4.645  0.5815E-01  0.1184E+01
      4.699  0.5544E-01  0.1187E+01
      4.753  0.4811E-01  0.1190E+01
      4.807  0.4551E-01  0.1192E+01
      4.861  0.4764E-01  0.1195E+01
      4.915  0.5031E-01  0.1198E+01
      4.969  0.5344E-01  0.1200E+01
      5.023  0.6011E-01  0.1204E+01
      5.077  0.6781E-01  0.1207E+01
      5.131  0.6810E-01  0.1211E+01
      5.185  0.6208E-01  0.1214E+01
      5.239  0.5662E-01  0.1217E+01
      5.293  0.4957E-01  0.1220E+01
      5.347  0.3706E-01  0.1222E+01
      5.401  0.2210E-01  0.1223E+01
      5.455  0.9939E-02  0.1224E+01
      5.509  0.3126E-02  0.1224E+01
      5.563  0.6385E-03  0.1224E+01
      5.617  0.8017E-04  0.1224E+01
      5.671  0.5978E-05  0.1224E+01
      5.725  0.2594E-06  0.1224E+01
      5.778  0.6470E-08  0.1224E+01
      5.832  0.9208E-10  0.1224E+01
      5.886  0.7440E-12  0.1224E+01
      5.940  0.3401E-14  0.1224E+01
      5.994  0.8229E-17  0.1224E+01
      6.048  0.0000E+00  0.1224E+01
      6.102  0.0000E+00  0.1224E+01
      6.156  0.0000E+00  0.1224E+01
      6.210  0.0000E+00  0.1224E+01
      6.264  0.0000E+00  0.1224E+01
      6.318  0.0000E+00  0.1224E+01
      6.372  0.0000E+00  0.1224E+01
