unknown system                          
           1
    11.002582    0.000000    0.000000
     5.501291    9.528515    0.000000
     0.000000    0.000000   24.491785
   Au   Pd
  24  24
Direct configuration=     1
   0.08333333  0.08333333  0.40830017
   0.58333333  0.08333333  0.40830017
   0.41666667  0.16666667  0.50000000
   0.58333333  0.33333333  0.40830017
   0.50000000  0.25000000  0.59169983
   0.58333333  0.58333333  0.40830017
   0.41666667  0.66666667  0.50000000
   0.33333333  0.83333333  0.40830017
   0.50000000  0.50000000  0.59169983
   0.66666667  0.16666667  0.50000000
   0.66666667  0.41666667  0.50000000
   0.83333333  0.58333333  0.40830017
   0.66666667  0.66666667  0.50000000
   0.75000000  0.50000000  0.59169983
   0.83333333  0.83333333  0.40830017
   0.83333333  0.08333333  0.40830017
   0.16666667  0.66666667  0.50000000
   0.25000000  0.75000000  0.59169983
   0.75000000  0.75000000  0.59169983
   0.16666667  0.41666667  0.50000000
   0.91666667  0.16666667  0.50000000
   0.08333333  0.33333333  0.40830017
   0.91666667  0.66666667  0.50000000
   0.08333333  0.83333333  0.40830017
   0.00000000  0.00000000  0.59169983
   0.91666667  0.41666667  0.50000000
   0.75000000  0.25000000  0.59169983
   0.00000000  0.25000000  0.59169983
   0.83333333  0.33333333  0.40830017
   0.75000000  0.00000000  0.59169983
   0.08333333  0.58333333  0.40830017
   0.50000000  0.75000000  0.59169983
   0.41666667  0.91666667  0.50000000
   0.33333333  0.58333333  0.40830017
   0.25000000  0.25000000  0.59169983
   0.91666667  0.91666667  0.50000000
   0.00000000  0.75000000  0.59169983
   0.41666667  0.41666667  0.50000000
   0.33333333  0.08333333  0.40830017
   0.50000000  0.00000000  0.59169983
   0.16666667  0.16666667  0.50000000
   0.25000000  0.00000000  0.59169983
   0.66666667  0.91666667  0.50000000
   0.16666667  0.91666667  0.50000000
   0.33333333  0.33333333  0.40830017
   0.25000000  0.50000000  0.59169983
   0.58333333  0.83333333  0.40830017
   0.00000000  0.50000000  0.59169983
Direct configuration=     2
   0.08397945  0.08385005  0.40645452
   0.58201398  0.08283805  0.40615657
   0.41549708  0.16580561  0.50005243
   0.58185234  0.33441306  0.40606807
   0.49968045  0.24975857  0.59387860
   0.58324051  0.58335840  0.40575953
   0.41561624  0.66767191  0.50002913
   0.33375991  0.83400400  0.40644192
   0.49969485  0.49965745  0.59399285
   0.66750459  0.16526101  0.50082377
   0.66790857  0.41546154  0.50005741
   0.83364362  0.58282079  0.40609378
   0.66553355  0.66880536  0.50003994
   0.75136780  0.49894036  0.59393638
   0.83303144  0.83311915  0.40639424
   0.83362799  0.08342287  0.40606019
   0.16661212  0.66642262  0.50002394
   0.24892115  0.75135331  0.59384393
   0.74967445  0.75141219  0.59381290
   0.16714523  0.41594204  0.50038283
   0.91816000  0.16638825  0.50085183
   0.08376297  0.33310846  0.40641822
   0.91732060  0.66688194  0.50039707
   0.08386726  0.83233640  0.40640837
  -0.00032749  0.00019075  0.59258660
   0.91770600  0.41546128  0.50030079
   0.75095109  0.24915090  0.59308724
   0.00088564  0.24949637  0.59257870
   0.83355709  0.33354733  0.40696386
   0.75069319 -0.00043088  0.59265356
   0.08413120  0.58291287  0.40685888
   0.49924420  0.75144199  0.59290263
   0.41605562  0.91778066  0.50031282
   0.33312045  0.58258686  0.40701985
   0.24927652  0.24989051  0.59281483
   0.91666956  0.91664020  0.50078093
  -0.00023147  0.75054596  0.59286024
   0.41563480  0.41705602  0.49981519
   0.33365319  0.08308843  0.40741179
   0.49952576 -0.00021678  0.59264359
   0.16706128  0.16588129  0.50058056
   0.25018940  0.00040861  0.59241003
   0.66612619  0.91693914  0.50029435
   0.16646336  0.91791736  0.50057376
   0.33304458  0.33386860  0.40707850
   0.24933773  0.49977522  0.59293271
   0.58275697  0.83402824  0.40725006
   0.00105901  0.49900567  0.59291011
Direct configuration=     3
   0.08591781  0.08540019  0.40091758
   0.57805593  0.08135221  0.39972579
   0.41198830  0.16322243  0.50020973
   0.57740934  0.33765224  0.39937177
   0.49872180  0.24903428  0.60041492
   0.58296205  0.58343359  0.39813760
   0.41246495  0.67068764  0.50011652
   0.33503963  0.83601599  0.40086719
   0.49877941  0.49862981  0.60087191
   0.67001837  0.16104403  0.50329508
   0.67163427  0.41184615  0.50022964
   0.83457446  0.58128318  0.39947462
   0.66213421  0.67522145  0.50015975
   0.75547120  0.49576144  0.60064602
   0.83212576  0.83247658  0.40067646
   0.83451197  0.08369149  0.39934026
   0.16644847  0.66569049  0.50009575
   0.24568461  0.75541325  0.60027621
   0.74869778  0.75564876  0.60015209
   0.16858091  0.41376818  0.50153132
   0.92264000  0.16555299  0.50340734
   0.08505188  0.33243382  0.40077237
   0.91928241  0.66752775  0.50158827
   0.08546902  0.82934561  0.40073297
  -0.00130996  0.00076300  0.59524692
   0.92082399  0.41184513  0.50120314
   0.75380434  0.24660360  0.59724948
   0.00354258  0.24798548  0.59521531
   0.83422837  0.33418933  0.40295493
   0.75277275 -0.00172353  0.59551476
   0.08652482  0.58165148  0.40253499
   0.49697680  0.75576797  0.59651104
   0.41422249  0.92112265  0.50125128
   0.33248178  0.58034745  0.40317889
   0.24710610  0.24956204  0.59615981
   0.91667825  0.91656082  0.50312374
  -0.00092589  0.75218385  0.59634148
   0.41253920  0.41822407  0.49926075
   0.33461276  0.08235370  0.40474665
   0.49810303 -0.00086710  0.59547488
   0.16824512  0.16352516  0.50232223
   0.25075761  0.00163444  0.59454062
   0.66450477  0.91775655  0.50117741
   0.16585342  0.92166946  0.50229503
   0.33217830  0.33547439  0.40341349
   0.24735091  0.49910089  0.59663135
   0.58102790  0.83611297  0.40409973
   0.00423603  0.49602269  0.59654094
Direct configuration=     4
   0.08515950  0.08479680  0.40005209
   0.57905407  0.08305469  0.39872877
   0.41462122  0.16492802  0.50016406
   0.57938628  0.33514509  0.39847998
   0.49842824  0.24850138  0.60161907
   0.58271782  0.58387553  0.39697295
   0.41396715  0.66942292  0.50016186
   0.33465207  0.83499075  0.39986451
   0.49888362  0.49950604  0.60182921
   0.66783570  0.16296386  0.50236031
   0.66922688  0.41431372  0.50014918
   0.83446555  0.58182920  0.39866959
   0.66392152  0.67177846  0.50022316
   0.75438154  0.49733950  0.60173083
   0.83240191  0.83249671  0.39992600
   0.83347858  0.08440668  0.39858712
   0.16656548  0.66761079  0.50012795
   0.24632480  0.75440777  0.60165844
   0.74922762  0.75388081  0.60157084
   0.16744266  0.41366703  0.50093834
   0.92127127  0.16475732  0.50210164
   0.08561942  0.33294747  0.39985792
   0.91723160  0.66696480  0.50120366
   0.08545556  0.83040923  0.39998966
  -0.00115301  0.00089183  0.59674642
   0.91956172  0.41478451  0.50075713
   0.75306981  0.24731483  0.59852532
   0.00388900  0.24772206  0.59682481
   0.83377365  0.33361733  0.40247335
   0.75195714 -0.00099401  0.59699695
   0.08561948  0.58136459  0.40194387
   0.49772356  0.75380059  0.59729470
   0.41375573  0.91925200  0.50082131
   0.33231084  0.58206526  0.40247948
   0.24793571  0.24940927  0.59746928
   0.91760232  0.91631968  0.50194512
  -0.00005664  0.75108781  0.59758602
   0.41601523  0.41613854  0.49967802
   0.33360981  0.08336918  0.40399562
   0.49789993  0.00045653  0.59652641
   0.16725949  0.16460016  0.50144139
   0.25064549  0.00154479  0.59592717
   0.66545082  0.91786372  0.50073765
   0.16651601  0.91957229  0.50152721
   0.33192641  0.33458384  0.40277947
   0.24754343  0.49972193  0.59754526
   0.58209990  0.83442171  0.40346929
   0.00332406  0.49709699  0.59754160
Direct configuration=     5
   0.08472623  0.08445205  0.39955757
   0.57962437  0.08402743  0.39815910
   0.41612559  0.16590254  0.50013796
   0.58051585  0.33371257  0.39797043
   0.49826052  0.24819690  0.60230709
   0.58257828  0.58412804  0.39630750
   0.41482547  0.66870030  0.50018776
   0.33443064  0.83440496  0.39929161
   0.49894316  0.50000669  0.60237619
   0.66658859  0.16406079  0.50182621
   0.66785136  0.41572361  0.50010322
   0.83440333  0.58214118  0.39820962
   0.66494274  0.66981125  0.50025939
   0.75375895  0.49824116  0.60235066
   0.83255970  0.83250822  0.39949721
   0.83288813  0.08481531  0.39815680
   0.16663234  0.66870799  0.50014635
   0.24669059  0.75383327  0.60244820
   0.74953035  0.75287066  0.60238147
   0.16679231  0.41360924  0.50059954
   0.92048922  0.16430270  0.50135561
   0.08594370  0.33324095  0.39933543
   0.91605983  0.66664315  0.50098391
   0.08544787  0.83101696  0.39956495
  -0.00106333  0.00096544  0.59760320
   0.91884050  0.41646399  0.50050229
   0.75265012  0.24772121  0.59925429
   0.00408693  0.24757155  0.59774444
   0.83351384  0.33329051  0.40219819
   0.75149112 -0.00057718  0.59784383
   0.08510220  0.58120067  0.40160612
   0.49815024  0.75267648  0.59774247
   0.41348904  0.91818316  0.50057563
   0.33221318  0.58304677  0.40207986
   0.24840973  0.24932198  0.59821747
   0.91813030  0.91618191  0.50127170
   0.00044002  0.75046156  0.59829712
   0.41800133  0.41494693  0.49991643
   0.33303675  0.08394939  0.40356650
   0.49778389  0.00121281  0.59712723
   0.16669634  0.16521438  0.50093811
   0.25058143  0.00149357  0.59671941
   0.66599136  0.91792496  0.50048637
   0.16689459  0.91837403  0.50108850
   0.33178248  0.33407501  0.40241721
   0.24765344  0.50007677  0.59806745
   0.58271242  0.83345538  0.40310908
   0.00280298  0.49771082  0.59811336
Direct configuration=     6
   0.08424226  0.08457576  0.39914002
   0.57995462  0.08344968  0.39769075
   0.41619822  0.16530048  0.50021632
   0.58043959  0.33438255  0.39760406
   0.49837821  0.24871453  0.60294684
   0.58279872  0.58339636  0.39569410
   0.41560459  0.66767089  0.50023344
   0.33450987  0.83435127  0.39878037
   0.49917289  0.49982246  0.60277741
   0.66765900  0.16431387  0.50165994
   0.66799584  0.41592604  0.50019641
   0.83418783  0.58195729  0.39782251
   0.66516234  0.66917070  0.50035742
   0.75349766  0.49820852  0.60278121
   0.83278394  0.83282882  0.39922779
   0.83300906  0.08431010  0.39775704
   0.16683902  0.66751925  0.50029129
   0.24707154  0.75349810  0.60305686
   0.74946309  0.75288225  0.60291952
   0.16729036  0.41454173  0.50059099
   0.91922264  0.16526491  0.50117431
   0.08514586  0.33317633  0.39883515
   0.91598220  0.66746755  0.50095934
   0.08460512  0.83152664  0.39920098
  -0.00113561  0.00120291  0.59798635
   0.91761916  0.41628107  0.50042035
   0.75227698  0.24822784  0.59940582
   0.00353264  0.24766545  0.59799492
   0.83331100  0.33362152  0.40217949
   0.75146287 -0.00050364  0.59812250
   0.08492071  0.58188367  0.40161496
   0.49852880  0.75221552  0.59795746
   0.41382655  0.91837720  0.50043783
   0.33273210  0.58255916  0.40208649
   0.24840231  0.24963726  0.59853756
   0.91759576  0.91624586  0.50084977
   0.00022474  0.75034789  0.59854214
   0.41771659  0.41567131  0.50019287
   0.33359676  0.08351030  0.40342993
   0.49813659  0.00073153  0.59732863
   0.16657050  0.16532830  0.50068718
   0.25055107  0.00122429  0.59706528
   0.66628532  0.91716117  0.50040119
   0.16715140  0.91806782  0.50090442
   0.33212991  0.33438745  0.40230438
   0.24793528  0.50010741  0.59815113
   0.58279984  0.83367738  0.40304264
   0.00261427  0.49811523  0.59844264
Direct configuration=     7
   0.08405023  0.08462484  0.39897435
   0.58008565  0.08322044  0.39750491
   0.41622704  0.16506160  0.50024741
   0.58040933  0.33464838  0.39745870
   0.49842490  0.24891991  0.60320067
   0.58288618  0.58310605  0.39545072
   0.41591372  0.66726245  0.50025157
   0.33454131  0.83432997  0.39857752
   0.49926404  0.49974936  0.60293661
   0.66808371  0.16441429  0.50159396
   0.66805317  0.41600636  0.50023339
   0.83410232  0.58188433  0.39766892
   0.66524948  0.66891654  0.50039632
   0.75339398  0.49819558  0.60295203
   0.83287292  0.83295603  0.39912089
   0.83305704  0.08410965  0.39759842
   0.16692102  0.66704759  0.50034880
   0.24722270  0.75336511  0.60329836
   0.74943640  0.75288685  0.60313300
   0.16748797  0.41491172  0.50058761
   0.91872009  0.16564669  0.50110238
   0.08482930  0.33315070  0.39863665
   0.91595140  0.66779465  0.50094960
   0.08427074  0.83172887  0.39905656
  -0.00116429  0.00129713  0.59813837
   0.91713457  0.41620850  0.50038783
   0.75212893  0.24842886  0.59946594
   0.00331271  0.24770271  0.59809431
   0.83323052  0.33375287  0.40217207
   0.75145166 -0.00047446  0.59823308
   0.08484871  0.58215466  0.40161847
   0.49867900  0.75203262  0.59804277
   0.41396047  0.91845420  0.50038315
   0.33293799  0.58236569  0.40208912
   0.24839937  0.24976235  0.59866456
   0.91738367  0.91627123  0.50068235
   0.00013932  0.75030279  0.59863936
   0.41760361  0.41595873  0.50030256
   0.33381896  0.08333607  0.40337574
   0.49827653  0.00054057  0.59740854
   0.16652057  0.16537350  0.50058762
   0.25053902  0.00111745  0.59720251
   0.66640195  0.91685812  0.50036739
   0.16725330  0.91794632  0.50083138
   0.33226776  0.33451142  0.40225962
   0.24804712  0.50011957  0.59818433
   0.58283452  0.83376547  0.40301627
   0.00253940  0.49827570  0.59857329
Direct configuration=     8
   0.08404648  0.08466344  0.39870208
   0.57997673  0.08308125  0.39722642
   0.41632963  0.16479228  0.50039111
   0.58033391  0.33479732  0.39723478
   0.49869370  0.24896755  0.60358767
   0.58289566  0.58311375  0.39495479
   0.41569418  0.66748880  0.50027447
   0.33463071  0.83425000  0.39828272
   0.49933424  0.49961111  0.60327274
   0.66807550  0.16421121  0.50162697
   0.66795528  0.41594235  0.50033787
   0.83388371  0.58211734  0.39742906
   0.66516298  0.66932201  0.50045755
   0.75353277  0.49800460  0.60330503
   0.83278097  0.83273376  0.39887596
   0.83277455  0.08439156  0.39719421
   0.16699366  0.66710720  0.50050938
   0.24719734  0.75340061  0.60364585
   0.74935424  0.75310215  0.60346080
   0.16733164  0.41478521  0.50065721
   0.91929111  0.16543472  0.50125451
   0.08471170  0.33311648  0.39838871
   0.91602262  0.66781171  0.50103700
   0.08451997  0.83150730  0.39884084
  -0.00124081  0.00133469  0.59804070
   0.91749140  0.41598800  0.50048703
   0.75205641  0.24851268  0.59944583
   0.00304620  0.24784063  0.59795879
   0.83308507  0.33375419  0.40212628
   0.75151837 -0.00042851  0.59812236
   0.08482804  0.58240514  0.40169771
   0.49879022  0.75204881  0.59808378
   0.41422160  0.91830575  0.50039917
   0.33291300  0.58229048  0.40224322
   0.24818704  0.24996350  0.59864076
   0.91735310  0.91637107  0.50063080
  -0.00012274  0.75066935  0.59863028
   0.41764860  0.41582785  0.50053904
   0.33404514  0.08318190  0.40334187
   0.49848409  0.00021778  0.59740195
   0.16618233  0.16563040  0.50058437
   0.25050741  0.00101894  0.59715983
   0.66627183  0.91675947  0.50045270
   0.16716005  0.91794687  0.50084512
   0.33240653  0.33460481  0.40233500
   0.24820240  0.50008107  0.59825350
   0.58296309  0.83365127  0.40305683
   0.00247834  0.49827015  0.59857533
Direct configuration=     9
   0.08404182  0.08471133  0.39836427
   0.57984158  0.08290855  0.39688090
   0.41645692  0.16445814  0.50056940
   0.58024033  0.33498210  0.39695696
   0.49902719  0.24902664  0.60406780
   0.58290742  0.58312330  0.39433951
   0.41542179  0.66776964  0.50030288
   0.33474163  0.83415078  0.39791696
   0.49942134  0.49943958  0.60368976
   0.66806531  0.16395925  0.50166792
   0.66783384  0.41586293  0.50046750
   0.83361248  0.58240643  0.39713148
   0.66505567  0.66982506  0.50053352
   0.75370495  0.49776766  0.60374298
   0.83266690  0.83245800  0.39857209
   0.83242407  0.08474132  0.39669271
   0.16708377  0.66718116  0.50070862
   0.24716588  0.75344466  0.60407698
   0.74925232  0.75336928  0.60386750
   0.16713769  0.41462826  0.50074358
   0.91999957  0.16517172  0.50144327
   0.08456579  0.33307403  0.39808110
   0.91611097  0.66783287  0.50114543
   0.08482919  0.83123239  0.39857319
  -0.00133575  0.00138129  0.59791953
   0.91793413  0.41571443  0.50061011
   0.75196644  0.24861667  0.59942087
   0.00271555  0.24801176  0.59779065
   0.83290460  0.33375583  0.40206947
   0.75160114 -0.00037149  0.59798499
   0.08480241  0.58271589  0.40179603
   0.49892822  0.75206889  0.59813467
   0.41454558  0.91812157  0.50041904
   0.33288200  0.58219717  0.40243441
   0.24792360  0.25021306  0.59861122
   0.91731516  0.91649495  0.50056683
  -0.00044786  0.75112414  0.59861901
   0.41770441  0.41566548  0.50083244
   0.33432577  0.08299061  0.40329984
   0.49874161 -0.00018271  0.59739377
   0.16576267  0.16594914  0.50058035
   0.25046819  0.00089674  0.59710687
   0.66611040  0.91663707  0.50055855
   0.16704437  0.91794756  0.50086217
   0.33257870  0.33472069  0.40242852
   0.24839507  0.50003330  0.59833931
   0.58312259  0.83350959  0.40310715
   0.00240260  0.49826327  0.59857787
Direct configuration=    10
   0.08415658  0.08457492  0.39810074
   0.57979105  0.08308566  0.39664805
   0.41632291  0.16466211  0.50071220
   0.58017789  0.33485440  0.39679253
   0.49910967  0.24856274  0.60448494
   0.58278831  0.58332063  0.39379620
   0.41545478  0.66800279  0.50033251
   0.33487738  0.83411584  0.39767291
   0.49938592  0.49974733  0.60414366
   0.66791683  0.16382583  0.50159389
   0.66786156  0.41602926  0.50053135
   0.83374070  0.58219855  0.39693440
   0.66535774  0.66927417  0.50061075
   0.75361607  0.49802606  0.60413364
   0.83268771  0.83262133  0.39838367
   0.83235881  0.08468329  0.39621735
   0.16699271  0.66750383  0.50093776
   0.24714730  0.75347535  0.60444574
   0.74938218  0.75320089  0.60423738
   0.16724221  0.41427604  0.50071563
   0.91993656  0.16497377  0.50139011
   0.08475984  0.33335940  0.39789881
   0.91606169  0.66771728  0.50121524
   0.08485952  0.83133765  0.39839464
  -0.00127005  0.00125586  0.59774315
   0.91772629  0.41619585  0.50062277
   0.75201211  0.24853589  0.59936724
   0.00281513  0.24801796  0.59768147
   0.83280444  0.33383052  0.40213719
   0.75153387 -0.00021875  0.59778667
   0.08480832  0.58240025  0.40198532
   0.49895313  0.75185536  0.59816322
   0.41403715  0.91818010  0.50039437
   0.33295450  0.58227846  0.40274355
   0.24801943  0.25009365  0.59851950
   0.91738044  0.91653703  0.50035907
  -0.00045850  0.75135445  0.59856170
   0.41780060  0.41521534  0.50113064
   0.33410722  0.08309594  0.40337188
   0.49857633  0.00011271  0.59741749
   0.16627760  0.16562204  0.50049043
   0.25041761  0.00102358  0.59689897
   0.66629075  0.91679323  0.50059995
   0.16722945  0.91790387  0.50081803
   0.33243429  0.33462093  0.40271384
   0.24825139  0.50011457  0.59846043
   0.58305360  0.83329033  0.40315700
   0.00225901  0.49846169  0.59855199
Direct configuration=    11
   0.08422225  0.08449685  0.39794993
   0.57976213  0.08318701  0.39651479
   0.41624622  0.16477883  0.50079393
   0.58014216  0.33478131  0.39669843
   0.49915687  0.24829726  0.60472366
   0.58272014  0.58343356  0.39348528
   0.41547366  0.66813622  0.50034947
   0.33495507  0.83409585  0.39753324
   0.49936564  0.49992345  0.60440342
   0.66783185  0.16374947  0.50155153
   0.66787743  0.41612444  0.50056789
   0.83381408  0.58207959  0.39682162
   0.66553061  0.66895891  0.50065495
   0.75356520  0.49817394  0.60435721
   0.83269961  0.83271480  0.39827584
   0.83232147  0.08465008  0.39594530
   0.16694060  0.66768849  0.50106889
   0.24713667  0.75349291  0.60465678
   0.74945649  0.75310452  0.60444906
   0.16730202  0.41407447  0.50069963
   0.91990049  0.16486049  0.50135969
   0.08487089  0.33352271  0.39779450
   0.91603348  0.66765112  0.50125518
   0.08487687  0.83139789  0.39829246
  -0.00123245  0.00118407  0.59764221
   0.91760736  0.41647136  0.50063001
   0.75203825  0.24848966  0.59933655
   0.00287212  0.24802152  0.59761899
   0.83274713  0.33387327  0.40217594
   0.75149538 -0.00013133  0.59767317
   0.08481170  0.58221961  0.40209364
   0.49896738  0.75173317  0.59817957
   0.41374618  0.91821359  0.50038026
   0.33299599  0.58232499  0.40292047
   0.24807426  0.25002532  0.59846701
   0.91741780  0.91656111  0.50024017
  -0.00046459  0.75148626  0.59852890
   0.41785564  0.41495773  0.50130129
   0.33398215  0.08315622  0.40341311
   0.49848174  0.00028178  0.59743106
   0.16657228  0.16543485  0.50043898
   0.25038866  0.00109617  0.59677999
   0.66639396  0.91688260  0.50062365
   0.16733537  0.91787886  0.50079277
   0.33235165  0.33456384  0.40287712
   0.24816917  0.50016108  0.59852975
   0.58301411  0.83316485  0.40318552
   0.00217683  0.49857524  0.59853719
Direct configuration=    12
   0.08408232  0.08472835  0.39778441
   0.57965387  0.08319818  0.39642121
   0.41657300  0.16454520  0.50085262
   0.58008157  0.33483372  0.39669576
   0.49900897  0.24833849  0.60507291
   0.58269112  0.58332482  0.39303185
   0.41583544  0.66770430  0.50040249
   0.33492740  0.83411980  0.39737738
   0.49928027  0.49992301  0.60487394
   0.66776031  0.16411872  0.50134443
   0.66774660  0.41607055  0.50058760
   0.83387266  0.58197323  0.39671459
   0.66556201  0.66883869  0.50070428
   0.75348700  0.49830496  0.60468835
   0.83272304  0.83277326  0.39823667
   0.83254002  0.08454889  0.39553488
   0.16701427  0.66759926  0.50121040
   0.24716727  0.75359052  0.60494479
   0.74941504  0.75317051  0.60472199
   0.16719269  0.41434385  0.50071289
   0.91949204  0.16516824  0.50103095
   0.08489348  0.33340125  0.39769874
   0.91590380  0.66781423  0.50124899
   0.08485244  0.83135692  0.39823689
  -0.00109829  0.00108968  0.59746786
   0.91738908  0.41647130  0.50055595
   0.75195400  0.24861970  0.59924784
   0.00304900  0.24806861  0.59750367
   0.83285366  0.33381932  0.40232430
   0.75152170 -0.00024852  0.59749636
   0.08477551  0.58224368  0.40236286
   0.49889528  0.75182144  0.59818842
   0.41388845  0.91809525  0.50030449
   0.33306916  0.58238075  0.40335047
   0.24810637  0.25001050  0.59842834
   0.91754261  0.91639635  0.49987405
  -0.00042975  0.75151489  0.59848541
   0.41801367  0.41507066  0.50165494
   0.33383284  0.08327200  0.40352327
   0.49840197  0.00029278  0.59744720
   0.16654761  0.16520908  0.50021308
   0.25041070  0.00110038  0.59656835
   0.66643533  0.91663829  0.50056525
   0.16736829  0.91788541  0.50063138
   0.33237381  0.33445291  0.40317818
   0.24807985  0.50014320  0.59866355
   0.58306631  0.83317077  0.40330894
   0.00219620  0.49869258  0.59852682
Direct configuration=    13
   0.08398541  0.08488869  0.39766978
   0.57957890  0.08320591  0.39635641
   0.41679933  0.16438340  0.50089327
   0.58003960  0.33487001  0.39669390
   0.49890654  0.24836705  0.60531480
   0.58267102  0.58324951  0.39271780
   0.41608601  0.66740515  0.50043920
   0.33490823  0.83413639  0.39726944
   0.49922115  0.49992270  0.60519982
   0.66771077  0.16437446  0.50120099
   0.66765599  0.41603322  0.50060125
   0.83391323  0.58189957  0.39664047
   0.66558376  0.66875543  0.50073845
   0.75343284  0.49839570  0.60491770
   0.83273926  0.83281375  0.39820954
   0.83269138  0.08447881  0.39525062
   0.16706529  0.66753745  0.50130842
   0.24718846  0.75365812  0.60514427
   0.74938633  0.75321622  0.60491103
   0.16711697  0.41453043  0.50072208
   0.91920915  0.16538139  0.50080327
   0.08490912  0.33331713  0.39763242
   0.91581398  0.66792719  0.50124470
   0.08483551  0.83132854  0.39819839
  -0.00100538  0.00102431  0.59734710
   0.91723791  0.41647126  0.50050466
   0.75189565  0.24870976  0.59918639
   0.00317150  0.24810123  0.59742380
   0.83292744  0.33378195  0.40242705
   0.75153993 -0.00032968  0.59737391
   0.08475044  0.58226036  0.40254932
   0.49884535  0.75188257  0.59819454
   0.41398699  0.91801329  0.50025201
   0.33311984  0.58241938  0.40364828
   0.24812861  0.25000024  0.59840156
   0.91762905  0.91628223  0.49962048
  -0.00040561  0.75153472  0.59845528
   0.41812311  0.41514888  0.50189987
   0.33372944  0.08335219  0.40359957
   0.49834672  0.00030041  0.59745838
   0.16653053  0.16505272  0.50005663
   0.25042596  0.00110330  0.59642177
   0.66646399  0.91646909  0.50052480
   0.16739108  0.91788995  0.50051960
   0.33238915  0.33437609  0.40338670
   0.24801799  0.50013081  0.59875623
   0.58310246  0.83317487  0.40339441
   0.00220962  0.49877386  0.59851964
Direct configuration=    14
   0.08400823  0.08478518  0.39755778
   0.57965567  0.08307116  0.39637729
   0.41697459  0.16432028  0.50095990
   0.58011818  0.33485039  0.39681198
   0.49894054  0.24851069  0.60543342
   0.58286301  0.58313458  0.39252635
   0.41611318  0.66736899  0.50060078
   0.33481802  0.83416902  0.39725606
   0.49919252  0.49980309  0.60560401
   0.66785349  0.16409282  0.50102269
   0.66747521  0.41631129  0.50066236
   0.83369679  0.58210008  0.39666280
   0.66553722  0.66877200  0.50077618
   0.75350830  0.49823665  0.60502541
   0.83260236  0.83269477  0.39822920
   0.83262722  0.08462602  0.39497041
   0.16724674  0.66756430  0.50145637
   0.24722402  0.75368218  0.60523477
   0.74927931  0.75343878  0.60496873
   0.16710725  0.41435988  0.50086106
   0.91940507  0.16517296  0.50059458
   0.08481623  0.33333335  0.39763572
   0.91556252  0.66803229  0.50125662
   0.08505894  0.83115033  0.39821390
  -0.00115069  0.00129660  0.59707320
   0.91737555  0.41628285  0.50047782
   0.75186558  0.24878733  0.59905433
   0.00300076  0.24819032  0.59721726
   0.83273627  0.33391499  0.40239379
   0.75154063 -0.00030653  0.59714036
   0.08477791  0.58243699  0.40271117
   0.49879788  0.75198837  0.59818857
   0.41447767  0.91757200  0.50019211
   0.33315461  0.58231820  0.40394520
   0.24804172  0.25008852  0.59836250
   0.91744083  0.91656987  0.49932959
  -0.00042244  0.75150557  0.59842278
   0.41801011  0.41529971  0.50227991
   0.33388616  0.08320607  0.40362912
   0.49851928  0.00005918  0.59745215
   0.16605346  0.16549379  0.49986593
   0.25047629  0.00100035  0.59626831
   0.66645873  0.91645298  0.50047564
   0.16739202  0.91769700  0.50032127
   0.33248455  0.33452000  0.40362107
   0.24805847  0.50012807  0.59892565
   0.58319362  0.83312764  0.40345428
   0.00214645  0.49878905  0.59849962
Direct configuration=    15
   0.08401517  0.08475369  0.39752370
   0.57967904  0.08303016  0.39638365
   0.41702791  0.16430108  0.50098018
   0.58014208  0.33484442  0.39684791
   0.49895089  0.24855439  0.60546951
   0.58292142  0.58309962  0.39246810
   0.41612144  0.66735799  0.50064994
   0.33479058  0.83417895  0.39725199
   0.49918381  0.49976669  0.60572699
   0.66789692  0.16400713  0.50096844
   0.66742020  0.41639590  0.50068096
   0.83363093  0.58216108  0.39666960
   0.66552306  0.66877704  0.50078766
   0.75353126  0.49818825  0.60505818
   0.83256070  0.83265857  0.39823518
   0.83260770  0.08467081  0.39488515
   0.16730194  0.66757247  0.50150139
   0.24723484  0.75368950  0.60526230
   0.74924674  0.75350650  0.60498628
   0.16710430  0.41430799  0.50090335
   0.91946468  0.16510954  0.50053108
   0.08478797  0.33333829  0.39763672
   0.91548600  0.66806427  0.50126025
   0.08512692  0.83109610  0.39821861
  -0.00119490  0.00137945  0.59698986
   0.91741744  0.41622552  0.50046965
   0.75185643  0.24881093  0.59901415
   0.00294881  0.24821743  0.59715442
   0.83267810  0.33395547  0.40238367
   0.75154084 -0.00029949  0.59706930
   0.08478626  0.58249073  0.40276042
   0.49878344  0.75202056  0.59818675
   0.41462697  0.91743773  0.50017388
   0.33316519  0.58228742  0.40403554
   0.24801528  0.25011538  0.59835061
   0.91738357  0.91665739  0.49924109
  -0.00042757  0.75149670  0.59841289
   0.41797572  0.41534560  0.50239554
   0.33393384  0.08316161  0.40363811
   0.49857178 -0.00001422  0.59745025
   0.16590831  0.16562799  0.49980791
   0.25049160  0.00096902  0.59622161
   0.66645714  0.91644808  0.50046069
   0.16739230  0.91763830  0.50026093
   0.33251357  0.33456379  0.40369238
   0.24807079  0.50012724  0.59897719
   0.58322136  0.83311327  0.40347249
   0.00212723  0.49879368  0.59849353
Direct configuration=    16
   0.08402733  0.08464509  0.39736321
   0.57975893  0.08300652  0.39644005
   0.41685323  0.16430002  0.50107555
   0.58013251  0.33486683  0.39706047
   0.49913729  0.24841564  0.60548489
   0.58280043  0.58323110  0.39242056
   0.41601204  0.66757087  0.50087448
   0.33504207  0.83394542  0.39731766
   0.49931459  0.49980979  0.60612878
   0.66794016  0.16398932  0.50080637
   0.66748853  0.41640667  0.50077197
   0.83364433  0.58218401  0.39676009
   0.66567636  0.66858150  0.50085050
   0.75349962  0.49814794  0.60506049
   0.83261334  0.83261790  0.39824465
   0.83255385  0.08465567  0.39461713
   0.16702095  0.66764709  0.50169765
   0.24710706  0.75379213  0.60527801
   0.74930720  0.75348990  0.60494077
   0.16711867  0.41430802  0.50108134
   0.91947404  0.16501337  0.50033387
   0.08474731  0.33354492  0.39768538
   0.91557959  0.66799286  0.50131364
   0.08510486  0.83103028  0.39823156
  -0.00136033  0.00160809  0.59665180
   0.91733762  0.41629771  0.50044234
   0.75180086  0.24879729  0.59880474
   0.00275215  0.24823485  0.59690354
   0.83250818  0.33411040  0.40224506
   0.75154473 -0.00012713  0.59678880
   0.08472073  0.58256865  0.40292698
   0.49886346  0.75184067  0.59823627
   0.41462132  0.91748729  0.50011396
   0.33344903  0.58211059  0.40426260
   0.24801215  0.25004940  0.59833458
   0.91733552  0.91662536  0.49898610
  -0.00046553  0.75157253  0.59834347
   0.41806203  0.41514372  0.50280821
   0.33410897  0.08307542  0.40364441
   0.49861482 -0.00000163  0.59741956
   0.16602758  0.16565610  0.49963266
   0.25044691  0.00100208  0.59600191
   0.66643503  0.91651717  0.50043698
   0.16756180  0.91750213  0.50004740
   0.33260329  0.33467471  0.40396445
   0.24800620  0.50020187  0.59922871
   0.58310553  0.83300068  0.40344510
   0.00195366  0.49885920  0.59849128
Direct configuration=    17
   0.08403668  0.08456155  0.39723975
   0.57982038  0.08298833  0.39648344
   0.41671886  0.16429920  0.50114892
   0.58012515  0.33488407  0.39722399