 vasp.5.4.1 24Jun15 (build Mar 14 2019 10:18:33) complex                        
  
 executed on INTEL-19.0.2+OPENMPI date 2023.01.30  16:50:20
 running on   36 total cores
 distrk:  each k-point on   36 cores,    1 groups
 distr:  one band on NCORES_PER_BAND=   6 cores,    6 groups


--------------------------------------------------------------------------------------------------------


 INCAR:
 POTCAR:    PAW_PBE Au 04Oct2007                  
 POTCAR:    PAW_PBE Pd 04Jan2005                  
 POTCAR:    PAW_PBE Au 04Oct2007                  
  local pseudopotential read in
  partial core-charges read in
  partial kinetic energy density read in
  atomic valenz-charges read in
  non local Contribution for L=           2  read in
    real space projection operators read in
  non local Contribution for L=           2  read in
    real space projection operators read in
  non local Contribution for L=           0  read in
    real space projection operators read in
  non local Contribution for L=           0  read in
    real space projection operators read in
  non local Contribution for L=           1  read in
    real space projection operators read in
  non local Contribution for L=           1  read in
    real space projection operators read in
    PAW grid and wavefunctions read in
 
   number of l-projection  operators is LMAX  =           6
   number of lm-projection operators is LMMAX =          18
 
 POTCAR:    PAW_PBE Pd 04Jan2005                  
  local pseudopotential read in
  partial core-charges read in
  partial kinetic energy density read in
  atomic valenz-charges read in
  non local Contribution for L=           2  read in
    real space projection operators read in
  non local Contribution for L=           2  read in
    real space projection operators read in
  non local Contribution for L=           0  read in
    real space projection operators read in
  non local Contribution for L=           0  read in
    real space projection operators read in
  non local Contribution for L=           1  read in
    real space projection operators read in
  non local Contribution for L=           1  read in
    real space projection operators read in
    PAW grid and wavefunctions read in
 
   number of l-projection  operators is LMAX  =           6
   number of lm-projection operators is LMMAX =          18
 
 Optimization of the real space projectors (new method)

 maximal supplied QI-value         = 15.12
 optimisation between [QCUT,QGAM] = [ 10.13, 20.41] = [ 28.73,116.64] Ry 
 Optimized for a Real-space Cutoff    1.51 Angstroem

   l    n(q)    QCUT    max X(q) W(low)/X(q) W(high)/X(q)  e(spline) 
   2      8    10.129    60.898    0.46E-03    0.46E-03    0.14E-06
   2      8    10.129    58.894    0.47E-03    0.47E-03    0.14E-06
   0      9    10.129   109.617    0.16E-03    0.11E-03    0.54E-07
   0      9    10.129    75.026    0.15E-03    0.11E-03    0.52E-07
   1      9    10.129    16.344    0.96E-04    0.15E-03    0.14E-06
   1      9    10.129    10.160    0.81E-04    0.12E-03    0.11E-06
 Optimization of the real space projectors (new method)

 maximal supplied QI-value         = 14.36
 optimisation between [QCUT,QGAM] = [ 10.20, 20.39] = [ 29.12,116.47] Ry 
 Optimized for a Real-space Cutoff    1.51 Angstroem

   l    n(q)    QCUT    max X(q) W(low)/X(q) W(high)/X(q)  e(spline) 
   2      8    10.197    59.108    0.26E-03    0.14E-03    0.96E-07
   2      8    10.197    58.101    0.27E-03    0.14E-03    0.98E-07
   0      9    10.197   102.235    0.54E-04    0.60E-05    0.72E-07
   0      9    10.197    58.388    0.52E-04    0.60E-05    0.68E-07
   1      9    10.197    22.191    0.18E-03    0.25E-03    0.79E-07
   1      9    10.197    15.590    0.15E-03    0.21E-03    0.69E-07
  PAW_PBE Au 04Oct2007                  :
 energy of atom  1       EATOM= -926.0867
 kinetic energy error for atom=    0.0062 (will be added to EATOM!!)
  PAW_PBE Pd 04Jan2005                  :
 energy of atom  2       EATOM= -809.7530
 kinetic energy error for atom=    0.0091 (will be added to EATOM!!)
 
 
 POSCAR: Au Pd                                   
  positions in cartesian coordinates
  No initial velocities read in
 exchange correlation table for  LEXCH =        8
   RHO(1)=    0.500       N(1)  =     2000
   RHO(2)=  100.500       N(2)  =     4000

 VTST: version 3.2, (02/03/18)

 CHAIN: initializing optimizer
 
 OPT: Using VASP Conjugate-Gradient optimizer
 CHAIN: Read ICHAIN            0
 
 POSCAR: Au Pd                                   
  positions in cartesian coordinates
  No initial velocities read in
 


--------------------------------------------------------------------------------------------------------


 ion  position               nearest neighbor table
   1  0.833  0.583  0.408-  31 2.75   4 2.75  40 2.75  43 2.75  45 2.75   7 2.75  15 2.75   5 2.75
                             8 2.75
   2  0.500  0.250  0.592-  37 2.75  42 2.75  23 2.75  16 2.75  39 2.75  20 2.75  41 2.75  25 2.75
                            12 2.75
   3  0.750  0.500  0.592-   8 2.75   5 2.75   6 2.75  36 2.75  41 2.75  48 2.75   9 2.75  39 2.75
                            14 2.75
   4  0.083  0.333  0.408-  26 2.75   7 2.75   1 2.75  30 2.75  44 2.75  43 2.75  27 2.75  34 2.75
                             5 2.75
   5  0.917  0.417  0.500-  43 2.75   6 2.75   3 2.75  29 2.75  31 2.75  34 2.75   8 2.75  14 2.75
                            26 2.75   1 2.75   4 2.75   9 2.75
   6  0.000  0.250  0.592-   5 2.75  34 2.75   9 2.75  28 2.75  32 2.75   3 2.75  25 2.75  41 2.75
                            29 2.75
   7  0.083  0.583  0.408-  19 2.75  10 2.75   4 2.75  27 2.75  40 2.75  18 2.75   1 2.75  26 2.75
                            31 2.75
   8  0.667  0.667  0.500-  15 2.75   3 2.75  36 2.75   5 2.75  24 2.75  35 2.75  14 2.75  31 2.75
                            46 2.75  45 2.75   1 2.75  48 2.75
   9  0.000  0.500  0.592-  31 2.75  26 2.75  25 2.75   6 2.75  13 2.75  48 2.75   3 2.75  20 2.75
                             5 2.75
  10  0.083  0.833  0.408-  33 2.75  18 2.75  22 2.75   7 2.75  44 2.75  40 2.75  21 2.75  19 2.75
                            11 2.75
  11  0.917  0.917  0.500-  40 2.75  13 2.75  16 2.75  29 2.75  31 2.75  19 2.75  42 2.75  33 2.75
                            35 2.75  22 2.75  10 2.75  32 2.75
  12  0.417  0.167  0.500-  30 2.75  23 2.75  25 2.75  26 2.75  24 2.75  35 2.75  37 2.75  34 2.75
                            42 2.75  27 2.75   2 2.75  47 2.75
  13  0.000  0.750  0.592-  11 2.75  19 2.75  16 2.75   9 2.75  20 2.75  32 2.75  38 2.75  48 2.75
                            31 2.75
  14  0.667  0.417  0.500-  17 2.75  41 2.75  39 2.75   8 2.75  29 2.75  42 2.75  46 2.75   5 2.75
                            37 2.75  15 2.75  43 2.75   3 2.75
  15  0.583  0.583  0.408-   8 2.75  17 2.75  21 2.75  43 2.75  45 2.75  18 2.75   1 2.75  14 2.75
                            46 2.75
  16  0.750  0.000  0.592-  42 2.75  11 2.75  13 2.75  41 2.75   2 2.75  48 2.75  32 2.75  23 2.75
                            35 2.75
  17  0.583  0.333  0.408-  14 2.75  15 2.75  18 2.75  22 2.75  47 2.75  43 2.75  27 2.75  42 2.75
                            37 2.75
  18  0.333  0.583  0.408-  46 2.75  17 2.75  21 2.75  27 2.75  10 2.75   7 2.75  15 2.75  37 2.75
                            19 2.75
  19  0.167  0.667  0.500-   7 2.75  20 2.75  13 2.75  11 2.75  26 2.75  33 2.75  37 2.75  31 2.75
                            46 2.75  10 2.75  38 2.75  18 2.75
  20  0.250  0.500  0.592-  19 2.75  37 2.75   2 2.75  25 2.75  13 2.75  38 2.75   9 2.75  39 2.75
                            26 2.75
  21  0.333  0.833  0.408-  24 2.75  18 2.75  15 2.75  30 2.75  44 2.75  10 2.75  45 2.75  46 2.75
                            33 2.75
  22  0.833  0.083  0.408-  29 2.75  17 2.75  10 2.75  40 2.75  43 2.75  44 2.75  47 2.75  11 2.75
                            42 2.75
  23  0.500  0.000  0.592-  12 2.75  35 2.75  25 2.75   2 2.75  36 2.75  48 2.75  28 2.75  16 2.75
                            24 2.75
  24  0.417  0.917  0.500-  21 2.75  36 2.75  28 2.75  12 2.75  34 2.75   8 2.75  46 2.75  33 2.75
                            35 2.75  30 2.75  45 2.75  23 2.75
  25  0.250  0.250  0.592-  26 2.75  12 2.75  20 2.75  23 2.75   9 2.75  28 2.75   2 2.75   6 2.75
                            34 2.75
  26  0.167  0.417  0.500-   4 2.75  25 2.75   9 2.75  19 2.75  12 2.75  31 2.75  34 2.75   5 2.75
                            37 2.75   7 2.75  27 2.75  20 2.75
  27  0.333  0.333  0.408-  37 2.75  18 2.75  30 2.75   7 2.75  47 2.75   4 2.75  17 2.75  12 2.75
                            26 2.75
  28  0.250  0.000  0.592-  34 2.75  24 2.75  25 2.75   6 2.75  36 2.75  38 2.75  32 2.75  23 2.75
                            33 2.75
  29  0.917  0.167  0.500-  22 2.75  32 2.75  41 2.75   5 2.75  11 2.75  33 2.75  14 2.75  34 2.75
                            42 2.75  43 2.75   6 2.75  44 2.75
  30  0.333  0.083  0.408-  12 2.75   4 2.75  21 2.75  27 2.75  45 2.75  44 2.75  47 2.75  24 2.75
                            34 2.75
  31  0.917  0.667  0.500-   1 2.75   9 2.75  48 2.75  11 2.75  26 2.75  35 2.75   5 2.75  19 2.75
                             8 2.75  40 2.75  13 2.75   7 2.75
  32  0.000  0.000  0.592-  29 2.75  33 2.75   6 2.75  13 2.75  38 2.75  41 2.75  16 2.75  28 2.75
                            11 2.75
  33  0.167  0.917  0.500-  10 2.75  38 2.75  32 2.75  19 2.75  34 2.75  29 2.75  46 2.75  24 2.75
                            11 2.75  44 2.75  21 2.75  28 2.75
  34  0.167  0.167  0.500-  44 2.75  28 2.75   6 2.75  26 2.75   5 2.75  33 2.75  24 2.75  12 2.75
                            29 2.75   4 2.75  25 2.75  30 2.75
  35  0.667  0.917  0.500-  45 2.75  48 2.75  23 2.75  31 2.75  42 2.75  12 2.75   8 2.75  11 2.75
                            24 2.75  47 2.75  16 2.75  40 2.75
  36  0.500  0.750  0.592-  24 2.75   8 2.75  23 2.75   3 2.75  28 2.75  39 2.75  38 2.75  48 2.75
                            46 2.75
  37  0.417  0.417  0.500-  27 2.75   2 2.75  20 2.75  12 2.75  19 2.75  42 2.75  46 2.75  26 2.75
                            14 2.75  18 2.75  17 2.75  39 2.75
  38  0.250  0.750  0.592-  33 2.75  46 2.75  32 2.75  20 2.75  39 2.75  28 2.75  13 2.75  36 2.75
                            19 2.75
  39  0.500  0.500  0.592-  46 2.75  14 2.75  36 2.75  38 2.75  41 2.75   2 2.75   3 2.75  20 2.75
                            37 2.75
  40  0.833  0.833  0.408-  11 2.75   7 2.75   1 2.75  22 2.75  47 2.75  45 2.75  10 2.75  31 2.75
                            35 2.75
  41  0.750  0.250  0.592-  14 2.75  29 2.75  16 2.75   3 2.75  32 2.75  39 2.75   6 2.75   2 2.75
                            42 2.75
  42  0.667  0.167  0.500-  47 2.75  16 2.75   2 2.75  11 2.75  35 2.75  37 2.75  14 2.75  29 2.75
                            12 2.75  17 2.75  41 2.75  22 2.75
  43  0.833  0.333  0.408-   5 2.75   1 2.75  15 2.75  22 2.75  44 2.75   4 2.75  17 2.75  29 2.75
                            14 2.75
  44  0.083  0.083  0.408-  34 2.75  10 2.75  21 2.75   4 2.75  43 2.75  22 2.75  30 2.75  33 2.75
                            29 2.75
  45  0.583  0.833  0.408-  35 2.75  15 2.75  30 2.75   1 2.75  47 2.75  40 2.75  21 2.75   8 2.75
                            24 2.75
  46  0.417  0.667  0.500-  18 2.75  39 2.75  38 2.75  33 2.75  37 2.75  14 2.75  24 2.75  19 2.75
                             8 2.75  21 2.75  36 2.75  15 2.75
  47  0.583  0.083  0.408-  42 2.75  27 2.75  40 2.75  17 2.75  45 2.75  30 2.75  22 2.75  35 2.75
                            12 2.75
  48  0.750  0.750  0.592-  35 2.75  31 2.75  16 2.75  23 2.75   3 2.75   9 2.75  13 2.75  36 2.75
                             8 2.75
 
  LATTYP: Found a hexagonal cell.
 ALAT       =    11.0025815153
 C/A-ratio  =     2.2260035120
  
  Lattice vectors:
  
 A1 = (   5.5012907576,  -9.5285150994,   0.0000000000)
 A2 = ( -11.0025815153,   0.0000000000,   0.0000000000)
 A3 = (   0.0000000000,   0.0000000000, -24.4917850943)


Analysis of symmetry for initial positions (statically):
=====================================================================
 Subroutine PRICEL returns:
 Original cell was already a primitive cell.
 

 Routine SETGRP: Setting up the symmetry group for a 
 hexagonal supercell.


 Subroutine GETGRP returns: Found  1 space group operations
 (whereof  1 operations were pure point group operations)
 out of a pool of 24 trial point group operations.


The static configuration has the point symmetry C_1 .


Analysis of symmetry for dynamics (positions and initial velocities):
=====================================================================
 Subroutine PRICEL returns:
 Original cell was already a primitive cell.
 

 Routine SETGRP: Setting up the symmetry group for a 
 hexagonal supercell.


 Subroutine GETGRP returns: Found  1 space group operations
 (whereof  1 operations were pure point group operations)
 out of a pool of 24 trial point group operations.


The dynamic configuration has the point symmetry C_1 .


Analysis of constrained symmetry for selective dynamics:
=====================================================================
 Subroutine PRICEL returns:
 Original cell was already a primitive cell.
 

 Routine SETGRP: Setting up the symmetry group for a 
 hexagonal supercell.


 Subroutine GETGRP returns: Found  1 space group operations
 (whereof  1 operations were pure point group operations)
 out of a pool of 24 trial point group operations.


The constrained configuration has the point symmetry C_1 .
 
 
 KPOINTS: Automatic mesh                          

Automatic generation of k-mesh.
Space group operators:
 irot       det(A)        alpha          n_x          n_y          n_z        tau_x        tau_y        tau_z
    1     1.000000     0.000000     1.000000     0.000000     0.000000     0.000000     0.000000     0.000000
 
 Subroutine IBZKPT returns following result:
 ===========================================
 
 Found      6 irreducible k-points:
 
 Following reciprocal coordinates:
            Coordinates               Weight
  0.250000  0.250000  0.000000     16.000000
  0.000000  0.250000  0.000000     16.000000
 -0.250000  0.000000  0.000000     16.000000
 -0.250000  0.250000  0.000000     16.000000
  0.500000 -0.250000  0.000000     16.000000
 -0.250000  0.500000  0.000000     16.000000
 
 Following cartesian coordinates:
            Coordinates               Weight
  0.022722  0.013119  0.000000     16.000000
  0.000000  0.026237  0.000000     16.000000
 -0.022722  0.013119  0.000000     16.000000
 -0.022722  0.039356  0.000000     16.000000
  0.045444 -0.052474  0.000000     16.000000
 -0.022722  0.065593  0.000000     16.000000
 


--------------------------------------------------------------------------------------------------------




 Dimension of arrays:
   k-points           NKPTS =      6   k-points in BZ     NKDIM =      6   number of bands    NBANDS=    306
   number of dos      NEDOS =    301   number of ions     NIONS =     48
   non local maximal  LDIM  =      6   non local SUM 2l+1 LMDIM =     18
   total plane-waves  NPLWV = 349920
   max r-space proj   IRMAX =   2009   max aug-charges    IRDMAX=   8532
   dimension x,y,z NGX =    54 NGY =   54 NGZ =  120
   dimension x,y,z NGXF=   108 NGYF=  108 NGZF=  240
   support grid    NGXF=   108 NGYF=  108 NGZF=  240
   ions per type =              24  24
 NGX,Y,Z   is equivalent  to a cutoff of   8.16,  8.16,  8.15 a.u.
 NGXF,Y,Z  is equivalent  to a cutoff of  16.32, 16.32, 16.29 a.u.


 I would recommend the setting:
   dimension x,y,z NGX =    54 NGY =   54 NGZ =  120
 SYSTEM =  unknown system                          
 POSCAR =  Au Pd                                   

 Startparameter for this run:
   NWRITE =      1    write-flag & timer
   PREC   = normal    normal or accurate (medium, high low for compatibility)
   ISTART =      0    job   : 0-new  1-cont  2-samecut
   ICHARG =      2    charge: 1-file 2-atom 10-const
   ISPIN  =      1    spin polarized calculation?
   LNONCOLLINEAR =      F non collinear calculations
   LSORBIT =      F    spin-orbit coupling
   INIWAV =      1    electr: 0-lowe 1-rand  2-diag
   LASPH  =      F    aspherical Exc in radial PAW
   METAGGA=      F    non-selfconsistent MetaGGA calc.

 Electronic Relaxation 1
   ENCUT  =  400.0 eV  29.40 Ry    5.42 a.u.  17.94 17.94 39.94*2*pi/ulx,y,z
   ENINI  =  400.0     initial cutoff
   ENAUG  =  416.2 eV  augmentation charge cutoff
   NELM   =    500;   NELMIN=  2; NELMDL= -5     # of ELM steps 
   EDIFF  = 0.1E-05   stopping-criterion for ELM
   LREAL  =      T    real-space projection
   NLSPLINE    = F    spline interpolate recip. space projectors
   LCOMPAT=      F    compatible to vasp.4.4
   GGA_COMPAT  = T    GGA compatible to vasp.4.4-vasp.4.6
   LMAXPAW     = -100 max onsite density
   LMAXMIX     =    2 max onsite mixed and CHGCAR
   VOSKOWN=      1    Vosko Wilk Nusair interpolation
   ROPT   =   -0.00050  -0.00050
 Ionic relaxation
   EDIFFG = -.2E-01   stopping-criterion for IOM
   NSW    =    500    number of steps for IOM
   NBLOCK =      1;   KBLOCK =    500    inner block; outer block 
   IBRION =      2    ionic relax: 0-MD 1-quasi-New 2-CG
   NFREE  =      2    steps in history (QN), initial steepest desc. (CG)
   ISIF   =      0    stress and relaxation
   IWAVPR =     11    prediction:  0-non 1-charg 2-wave 3-comb
   ISYM   =      2    0-nonsym 1-usesym 2-fastsym
   LCORR  =      T    Harris-Foulkes like correction to forces

   POTIM  = 0.3500    time-step for ionic-motion
   TEIN   =    0.0    initial temperature
   TEBEG  =    0.0;   TEEND  =   0.0 temperature during run
   SMASS  =  -3.00    Nose mass-parameter (am)
   estimated Nose-frequenzy (Omega)   =  0.10E-29 period in steps =****** mass=  -0.277E-26a.u.
   SCALEE = 1.0000    scale energy and forces
   NPACO  =    256;   APACO  = 16.0  distance and # of slots for P.C.
   PSTRESS=    0.0 pullay stress

  Mass of Ions in am
   POMASS = 196.97106.42
  Ionic Valenz
   ZVAL   =  11.00 10.00
  Atomic Wigner-Seitz radii
   RWIGS  =  -1.00 -1.00
  virtual crystal weights 
   VCA    =   1.00  1.00
   NELECT =     504.0000    total number of electrons
   NUPDOWN=      -1.0000    fix difference up-down

 DOS related values:
   EMIN   =  10.00;   EMAX   =-10.00  energy-range for DOS
   EFERMI =   0.00
   ISMEAR =     0;   SIGMA  =   0.10  broadening in eV -4-tet -1-fermi 0-gaus

 Electronic relaxation 2 (details)
   IALGO  =     68    algorithm
   LDIAG  =      T    sub-space diagonalisation (order eigenvalues)
   LSUBROT=      F    optimize rotation matrix (better conditioning)
   TURBO    =      0    0=normal 1=particle mesh
   IRESTART =      0    0=no restart 2=restart with 2 vectors
   NREBOOT  =      0    no. of reboots
   NMIN     =      0    reboot dimension
   EREF     =   0.00    reference energy to select bands
   IMIX   =      4    mixing-type and parameters
     AMIX     =   0.40;   BMIX     =  1.00
     AMIX_MAG =   1.60;   BMIX_MAG =  1.00
     AMIN     =   0.10
     WC   =   100.;   INIMIX=   1;  MIXPRE=   1;  MAXMIX= -45

 Intra band minimization:
   WEIMIN = 0.0010     energy-eigenvalue tresh-hold
   EBREAK =  0.82E-09  absolut break condition
   DEPER  =   0.30     relativ break condition  

   TIME   =   0.40     timestep for ELM

  volume/ion in A,a.u.               =      53.49       360.99
  Fermi-wavevector in a.u.,A,eV,Ry     =   0.951418  1.797920 12.315955  0.905197
  Thomas-Fermi vector in A             =   2.079887
 
 Write flags
   LWAVE  =      F    write WAVECAR
   LCHARG =      F    write CHGCAR
   LVTOT  =      F    write LOCPOT, total local potential
   LVHAR  =      F    write LOCPOT, Hartree potential only
   LELF   =      F    write electronic localiz. function (ELF)
   LORBIT =      0    0 simple, 1 ext, 2 COOP (PROOUT)


 Dipole corrections
   LMONO  =      F    monopole corrections only (constant potential shift)
   LDIPOL =      T    correct potential (dipole corrections)
   IDIPOL =      3    1-x, 2-y, 3-z, 4-all directions 
   EPSILON=  1.0000000 bulk dielectric constant

 Exchange correlation treatment:
   GGA     =    PE    GGA type
   LEXCH   =     8    internal setting for exchange type
   VOSKOWN=      1    Vosko Wilk Nusair interpolation
   LHFCALC =     F    Hartree Fock is set to
   LHFONE  =     F    Hartree Fock one center treatment
   AEXX    =    0.0000 exact exchange contribution

 Linear response parameters
   LEPSILON=     F    determine dielectric tensor
   LRPA    =     F    only Hartree local field effects (RPA)
   LNABLA  =     F    use nabla operator in PAW spheres
   LVEL    =     F    velocity operator in full k-point grid
   LINTERFAST=   F  fast interpolation
   KINTER  =     0    interpolate to denser k-point grid
   CSHIFT  =0.1000    complex shift for real part using Kramers Kronig
   OMEGAMAX=  -1.0    maximum frequency
   DEG_THRESHOLD= 0.2000000E-02 threshold for treating states as degnerate
   RTIME   =    0.100 relaxation time in fs

 Orbital magnetization related:
   ORBITALMAG=     F  switch on orbital magnetization
   LCHIMAG   =     F  perturbation theory with respect to B field
   DQ        =  0.001000  dq finite difference perturbation B field



--------------------------------------------------------------------------------------------------------


 conjugate gradient relaxation of ions
   using selective dynamics as specified on POSCAR
   WARNING: If single coordinates had been selected the selection of coordinates
            is made according to the corresponding   d i r e c t   coordinates!
            Don't support selection of single cartesian coordinates -- sorry ...
  !
 charge density and potential will be updated during run
 non-spin polarized calculation
 RMM-DIIS sequential band-by-band and
  variant of blocked Davidson during initial phase
 perform sub-space diagonalisation
    before iterative eigenvector-optimisation
 modified Broyden-mixing scheme, WC =      100.0
 initial mixing is a Kerker type mixing with AMIX =  0.4000 and BMIX =      1.0000
 Hartree-type preconditioning will be used
 using additional bands           54
 real space projection scheme for non local part
 use partial core corrections
 calculate Harris-corrections to forces 
   (improved forces if not selfconsistent)
 use gradient corrections 
 use of overlap-Matrix (Vanderbilt PP)
 Gauss-broadening in eV      SIGMA  =   0.10


--------------------------------------------------------------------------------------------------------


  energy-cutoff  :      400.00
  volume of cell :     2567.68
      direct lattice vectors                 reciprocal lattice vectors
    11.002581515  0.000000000  0.000000000     0.090887761 -0.052474073  0.000000000
     5.501290758  9.528515099  0.000000000     0.000000000  0.104948147  0.000000000
     0.000000000  0.000000000 24.491785094     0.000000000  0.000000000  0.040830017

  length of vectors
    11.002581515 11.002581515 24.491785094     0.104948147  0.104948147  0.040830017


 
 k-points in units of 2pi/SCALE and weight: Automatic mesh                          
   0.02272194  0.01311852  0.00000000       0.167
   0.00000000  0.02623704  0.00000000       0.167
  -0.02272194  0.01311852  0.00000000       0.167
  -0.02272194  0.03935555  0.00000000       0.167
   0.04544388 -0.05247407  0.00000000       0.167
  -0.02272194  0.06559259  0.00000000       0.167
 
 k-points in reciprocal lattice and weights: Automatic mesh                          
   0.25000000  0.25000000  0.00000000       0.167
   0.00000000  0.25000000  0.00000000       0.167
  -0.25000000  0.00000000  0.00000000       0.167
  -0.25000000  0.25000000  0.00000000       0.167
   0.50000000 -0.25000000  0.00000000       0.167
  -0.25000000  0.50000000  0.00000000       0.167
 
 position of ions in fractional coordinates (direct lattice) 
   0.83333333  0.58333333  0.40830017
   0.50000000  0.25000000  0.59169983
   0.75000000  0.50000000  0.59169983
   0.08333333  0.33333333  0.40830017
   0.91666667  0.41666667  0.50000000
   0.00000000  0.25000000  0.59169983
   0.08333333  0.58333333  0.40830017
   0.66666667  0.66666667  0.50000000
   0.00000000  0.50000000  0.59169983
   0.08333333  0.83333333  0.40830017
   0.91666667  0.91666667  0.50000000
   0.41666667  0.16666667  0.50000000
   0.00000000  0.75000000  0.59169983
   0.66666667  0.41666667  0.50000000
   0.58333333  0.58333333  0.40830017
   0.75000000  0.00000000  0.59169983
   0.58333333  0.33333333  0.40830017
   0.33333333  0.58333333  0.40830017
   0.16666667  0.66666667  0.50000000
   0.25000000  0.50000000  0.59169983
   0.33333333  0.83333333  0.40830017
   0.83333333  0.08333333  0.40830017
   0.50000000  0.00000000  0.59169983
   0.41666667  0.91666667  0.50000000
   0.25000000  0.25000000  0.59169983
   0.16666667  0.41666667  0.50000000
   0.33333333  0.33333333  0.40830017
   0.25000000  0.00000000  0.59169983
   0.91666667  0.16666667  0.50000000
   0.33333333  0.08333333  0.40830017
   0.91666667  0.66666667  0.50000000
   0.00000000  0.00000000  0.59169983
   0.16666667  0.91666667  0.50000000
   0.16666667  0.16666667  0.50000000
   0.66666667  0.91666667  0.50000000
   0.50000000  0.75000000  0.59169983
   0.41666667  0.41666667  0.50000000
   0.25000000  0.75000000  0.59169983
   0.50000000  0.50000000  0.59169983
   0.83333333  0.83333333  0.40830017
   0.75000000  0.25000000  0.59169983
   0.66666667  0.16666667  0.50000000
   0.83333333  0.33333333  0.40830017
   0.08333333  0.08333333  0.40830017
   0.58333333  0.83333333  0.40830017
   0.41666667  0.66666667  0.50000000
   0.58333333  0.08333333  0.40830017
   0.75000000  0.75000000  0.59169983
 
 position of ions in cartesian coordinates  (Angst):
  12.37790420  5.55830047 10.00000000
   6.87661345  2.38212877 14.49178509
  11.00258152  4.76425755 14.49178509
   2.75064538  3.17617170 10.00000000
  12.37790420  3.97021462 12.24589255
   1.37532269  2.38212877 14.49178509
   4.12596807  5.55830047 10.00000000
  11.00258152  6.35234340 12.24589255
   2.75064538  4.76425755 14.49178509
   5.50129076  7.94042925 10.00000000
  15.12854958  8.73447217 12.24589255
   5.50129076  1.58808585 12.24589255
   4.12596807  7.14638632 14.49178509
   9.62725883  3.97021462 12.24589255
   9.62725883  5.55830047 10.00000000
   8.25193614  0.00000000 14.49178509
   8.25193614  3.17617170 10.00000000
   6.87661345  5.55830047 10.00000000
   5.50129076  6.35234340 12.24589255
   5.50129076  4.76425755 14.49178509
   8.25193614  7.94042925 10.00000000
   9.62725883  0.79404292 10.00000000
   5.50129076  0.00000000 14.49178509
   9.62725883  8.73447217 12.24589255
   4.12596807  2.38212877 14.49178509
   4.12596807  3.97021462 12.24589255
   5.50129076  3.17617170 10.00000000
   2.75064538  0.00000000 14.49178509
  11.00258152  1.58808585 12.24589255
   4.12596807  0.79404292 10.00000000
  13.75322689  6.35234340 12.24589255
   0.00000000  0.00000000 14.49178509
   6.87661345  8.73447217 12.24589255
   2.75064538  1.58808585 12.24589255
  12.37790420  8.73447217 12.24589255
   9.62725883  7.14638632 14.49178509
   6.87661345  3.97021462 12.24589255
   6.87661345  7.14638632 14.49178509
   8.25193614  4.76425755 14.49178509
  13.75322689  7.94042925 10.00000000
   9.62725883  2.38212877 14.49178509
   8.25193614  1.58808585 12.24589255
  11.00258152  3.17617170 10.00000000
   1.37532269  0.79404292 10.00000000
  11.00258152  7.94042925 10.00000000
   8.25193614  6.35234340 12.24589255
   6.87661345  0.79404292 10.00000000
  12.37790420  7.14638632 14.49178509
 


--------------------------------------------------------------------------------------------------------


 k-point  1 :   0.2500 0.2500 0.0000  plane waves:   46635
 k-point  2 :   0.0000 0.2500 0.0000  plane waves:   46635
 k-point  3 :  -0.2500 0.0000 0.0000  plane waves:   46635
 k-point  4 :  -0.2500 0.2500 0.0000  plane waves:   46644
 k-point  5 :   0.5000-0.2500 0.0000  plane waves:   46644
 k-point  6 :  -0.2500 0.5000 0.0000  plane waves:   46644

 maximum and minimum number of plane-waves per node :      7818     7732

 maximum number of plane-waves:     46644
 maximum index in each direction: 
   IXMAX=   18   IYMAX=   18   IZMAX=   39
   IXMIN=  -18   IYMIN=  -18   IZMIN=  -39

 WARNING: aliasing errors must be expected set NGX to  74 to avoid them
 WARNING: aliasing errors must be expected set NGY to  74 to avoid them
 WARNING: aliasing errors must be expected set NGZ to 158 to avoid them
 aliasing errors are usually negligible using standard VASP settings
 and one can safely disregard these warnings

 real space projection operators:
  total allocation   :      12803.06 KBytes
  max/ min on nodes  :       2145.66       2127.94


 parallel 3D FFT for wavefunctions:
    minimum data exchange during FFTs selected (reduces bandwidth)
 parallel 3D FFT for charge:
    minimum data exchange during FFTs selected (reduces bandwidth)


 total amount of memory used by VASP on root node    84353. kBytes
========================================================================

   base      :      30000. kBytes
   nonlr-proj:       4285. kBytes
   fftplans  :       4447. kBytes
   grid      :       6721. kBytes
   one-center:        124. kBytes
   wavefun   :      38776. kBytes
 
     INWAV:  cpu time    0.0000: real time    0.0000
 Broyden mixing: mesh for mixing (old mesh)
   NGX = 35   NGY = 35   NGZ = 79
  (NGX  =108   NGY  =108   NGZ  =240)
  gives a total of  96775 points

 initial charge density was supplied:
 charge density of overlapping atoms calculated
 number of electron     504.0000000 magnetization 
 keeping initial charge density in first step


--------------------------------------------------------------------------------------------------------


 Maximum index for non-local projection operator          355
 Maximum index for augmentation-charges          437 (set IRDMAX)


--------------------------------------------------------------------------------------------------------


 First call to EWALD:  gamma=   0.129
 Maximum number of real-space cells 4x 4x 2
 Maximum number of reciprocal cells 2x 2x 5

 FEWALD executed in parallel
    FEWALD:  cpu time    0.0020: real time    0.0020


----------------------------------------- Iteration    1(   1)  ---------------------------------------


    POTLOK:  cpu time    0.0454: real time    0.0456
    SETDIJ:  cpu time    0.0057: real time    0.0057
     EDDAV:  cpu time    7.1904: real time    7.2111
       DOS:  cpu time    0.0013: real time    0.0013
    --------------------------------------------
      LOOP:  cpu time    7.2454: real time    7.2693

 eigenvalue-minimisations  :  3672
 total energy-change (2. order) : 0.3200499E+04  (-0.1897937E+05)
 number of electron     504.0000000 magnetization 
 augmentation part      504.0000000 magnetization 

 DIPCOR: dipole corrections for dipol
 direction  3 min pos     1,
 dipolmoment           0.000000      0.000000      0.000001 electrons x Angstroem
 Tr[quadrupol]    -10321.877749

 energy correction for charged system         0.000000 eV
 dipol+quadrupol energy correction           -0.000000 eV
 added-field ion interaction          0.000000 eV  (added to PSCEN)


 Free energy of the ion-electron system (eV)
  ---------------------------------------------------
  alpha Z        PSCENC =       805.86936440
  Ewald energy   TEWEN  =    199926.03427042
  -Hartree energ DENC   =   -242339.30056229
  -exchange      EXHF   =         0.00000000
  -V(xc)+E(xc)   XCENC  =      -327.68942603
  PAW double counting   =     40340.05962942   -38292.62782345
  entropy T*S    EENTRO =        -0.12255970
  eigenvalues    EBANDS =      1428.49023832
  atomic energy  EATOM  =     41659.78587232
  Solvation  Ediel_sol  =         0.00000000
  ---------------------------------------------------
  free energy    TOTEN  =      3200.49900340 eV

  energy without entropy =     3200.62156311  energy(sigma->0) =     3200.56028326


--------------------------------------------------------------------------------------------------------




----------------------------------------- Iteration    1(   2)  ---------------------------------------


     EDDAV:  cpu time    8.5081: real time    8.5307
       DOS:  cpu time    0.0014: real time    0.0014
    --------------------------------------------
      LOOP:  cpu time    8.5102: real time    8.5343

 eigenvalue-minimisations  :  4368
 total energy-change (2. order) :-0.3185764E+04  (-0.2925285E+04)
 number of electron     504.0000000 magnetization 
 augmentation part      504.0000000 magnetization 

 DIPCOR: dipole corrections for dipol
 direction  3 min pos     1,
 dipolmoment           0.000000      0.000000      0.000001 electrons x Angstroem
 Tr[quadrupol]    -10321.877749

 energy correction for charged system         0.000000 eV
 dipol+quadrupol energy correction           -0.000000 eV
 added-field ion interaction          0.000000 eV  (added to PSCEN)


 Free energy of the ion-electron system (eV)
  ---------------------------------------------------
  alpha Z        PSCENC =       805.86936440
  Ewald energy   TEWEN  =    199926.03427042
  -Hartree energ DENC   =   -242339.30056229
  -exchange      EXHF   =         0.00000000
  -V(xc)+E(xc)   XCENC  =      -327.68942603
  PAW double counting   =     40340.05962942   -38292.62782345
  entropy T*S    EENTRO =        -0.13305139
  eigenvalues    EBANDS =     -1757.26281391
  atomic energy  EATOM  =     41659.78587232
  Solvation  Ediel_sol  =         0.00000000
  ---------------------------------------------------
  free energy    TOTEN  =        14.73545950 eV

  energy without entropy =       14.86851088  energy(sigma->0) =       14.80198519


--------------------------------------------------------------------------------------------------------




----------------------------------------- Iteration    1(   3)  ---------------------------------------


     EDDAV:  cpu time    8.1873: real time    8.2078
       DOS:  cpu time    0.0015: real time    0.0015
    --------------------------------------------
      LOOP:  cpu time    8.1895: real time    8.2116

 eigenvalue-minimisations  :  4128
 total energy-change (2. order) :-0.2157713E+03  (-0.2006680E+03)
 number of electron     504.0000000 magnetization 
 augmentation part      504.0000000 magnetization 

 DIPCOR: dipole corrections for dipol
 direction  3 min pos     1,
 dipolmoment           0.000000      0.000000      0.000001 electrons x Angstroem
 Tr[quadrupol]    -10321.877749

 energy correction for charged system         0.000000 eV
 dipol+quadrupol energy correction           -0.000000 eV
 added-field ion interaction          0.000000 eV  (added to PSCEN)


 Free energy of the ion-electron system (eV)
  ---------------------------------------------------
  alpha Z        PSCENC =       805.86936440
  Ewald energy   TEWEN  =    199926.03427042
  -Hartree energ DENC   =   -242339.30056229
  -exchange      EXHF   =         0.00000000
  -V(xc)+E(xc)   XCENC  =      -327.68942603
  PAW double counting   =     40340.05962942   -38292.62782345
  entropy T*S    EENTRO =        -0.19045987
  eigenvalues    EBANDS =     -1972.97666167
  atomic energy  EATOM  =     41659.78587232
  Solvation  Ediel_sol  =         0.00000000
  ---------------------------------------------------
  free energy    TOTEN  =      -201.03579676 eV

  energy without entropy =     -200.84533688  energy(sigma->0) =     -200.94056682


--------------------------------------------------------------------------------------------------------




----------------------------------------- Iteration    1(   4)  ---------------------------------------


     EDDAV:  cpu time    8.3912: real time    8.4181
       DOS:  cpu time    0.0015: real time    0.0015
    --------------------------------------------
      LOOP:  cpu time    8.3934: real time    8.4225

 eigenvalue-minimisations  :  4248
 total energy-change (2. order) :-0.5859460E+01  (-0.5790543E+01)
 number of electron     504.0000000 magnetization 
 augmentation part      504.0000000 magnetization 

 DIPCOR: dipole corrections for dipol
 direction  3 min pos     1,
 dipolmoment           0.000000      0.000000      0.000001 electrons x Angstroem
 Tr[quadrupol]    -10321.877749

 energy correction for charged system         0.000000 eV
 dipol+quadrupol energy correction           -0.000000 eV
 added-field ion interaction          0.000000 eV  (added to PSCEN)


 Free energy of the ion-electron system (eV)
  ---------------------------------------------------
  alpha Z        PSCENC =       805.86936440
  Ewald energy   TEWEN  =    199926.03427042
  -Hartree energ DENC   =   -242339.30056229
  -exchange      EXHF   =         0.00000000
  -V(xc)+E(xc)   XCENC  =      -327.68942603
  PAW double counting   =     40340.05962942   -38292.62782345
  entropy T*S    EENTRO =        -0.19602892
  eigenvalues    EBANDS =     -1978.83055227
  atomic energy  EATOM  =     41659.78587232
  Solvation  Ediel_sol  =         0.00000000
  ---------------------------------------------------
  free energy    TOTEN  =      -206.89525639 eV

  energy without entropy =     -206.69922748  energy(sigma->0) =     -206.79724194


--------------------------------------------------------------------------------------------------------




----------------------------------------- Iteration    1(   5)  ---------------------------------------


     EDDAV:  cpu time    8.6393: real time    8.7310
       DOS:  cpu time    0.0014: real time    0.0014
    CHARGE:  cpu time    0.2199: real time    0.2204
    MIXING:  cpu time    0.0020: real time    0.0022
    --------------------------------------------
      LOOP:  cpu time    8.8634: real time    8.9591

 eigenvalue-minimisations  :  4440
 total energy-change (2. order) :-0.1971611E+00  (-0.1965097E+00)
 number of electron     503.9998403 magnetization 
 augmentation part      191.2539389 magnetization 

 DIPCOR: dipole corrections for dipol
 direction  3 min pos     1,
 dipolmoment           0.000000      0.000000      0.000001 electrons x Angstroem
 Tr[quadrupol]    -10321.877749

 energy correction for charged system         0.000000 eV
 dipol+quadrupol energy correction           -0.000000 eV
 added-field ion interaction          0.000000 eV  (added to PSCEN)


 Broyden mixing:
  rms(total) = 0.62215E+01    rms(broyden)= 0.62214E+01
  rms(prec ) = 0.63434E+01
  weight for this iteration     100.00

 Free energy of the ion-electron system (eV)
  ---------------------------------------------------
  alpha Z        PSCENC =       805.86936440
  Ewald energy   TEWEN  =    199926.03427042
  -Hartree energ DENC   =   -242339.30056229
  -exchange      EXHF   =         0.00000000
  -V(xc)+E(xc)   XCENC  =      -327.68942603
  PAW double counting   =     40340.05962942   -38292.62782345
  entropy T*S    EENTRO =        -0.19496707
  eigenvalues    EBANDS =     -1979.02877523
  atomic energy  EATOM  =     41659.78587232
  Solvation  Ediel_sol  =         0.00000000
  ---------------------------------------------------
  free energy    TOTEN  =      -207.09241752 eV

  energy without entropy =     -206.89745044  energy(sigma->0) =     -206.99493398


--------------------------------------------------------------------------------------------------------




----------------------------------------- Iteration    1(   6)  ---------------------------------------


    POTLOK:  cpu time    0.0412: real time    0.0413
    SETDIJ:  cpu time    0.0057: real time    0.0057
    EDDIAG:  cpu time    1.2831: real time    1.2862
  RMM-DIIS:  cpu time    3.4243: real time    3.4337
    ORTHCH:  cpu time    0.3548: real time    0.3558
       DOS:  cpu time    0.0015: real time    0.0015
    CHARGE:  cpu time    0.2210: real time    0.2215
    MIXING:  cpu time    0.0020: real time    0.0020
    --------------------------------------------
      LOOP:  cpu time    5.3340: real time    5.3499

 eigenvalue-minimisations  :  3678
 total energy-change (2. order) : 0.7250725E+01  (-0.9569045E+01)
 number of electron     503.9998421 magnetization 
 augmentation part      191.8203200 magnetization 

 DIPCOR: dipole corrections for dipol
 direction  3 min pos     1,
 dipolmoment           0.000000      0.000000      0.340571 electrons x Angstroem
 Tr[quadrupol]    -10323.976252

 energy correction for charged system         0.000000 eV
 dipol+quadrupol energy correction           -0.004087 eV
 added-field ion interaction          0.053905 eV  (added to PSCEN)


 Broyden mixing:
  rms(total) = 0.52859E+01    rms(broyden)= 0.52857E+01
  rms(prec ) = 0.54543E+01
  weight for this iteration     100.00

 eigenvalues of (default mixing * dielectric matrix)
  average eigenvalue GAMMA=   0.7889
  0.7889

 Free energy of the ion-electron system (eV)
  ---------------------------------------------------
  alpha Z        PSCENC =       805.91918219
  Ewald energy   TEWEN  =    199926.03427042
  -Hartree energ DENC   =   -242113.08470218
  -exchange      EXHF   =         0.00000000
  -V(xc)+E(xc)   XCENC  =      -340.43093603
  PAW double counting   =     43906.92563986   -41918.94224950
  entropy T*S    EENTRO =        -0.25234563
  eigenvalues    EBANDS =     -2125.79642441
  atomic energy  EATOM  =     41659.78587232
  Solvation  Ediel_sol  =         0.00000000
  ---------------------------------------------------
  free energy    TOTEN  =      -199.84169296 eV

  energy without entropy =     -199.58934733  energy(sigma->0) =     -199.71552015


--------------------------------------------------------------------------------------------------------




----------------------------------------- Iteration    1(   7)  ---------------------------------------


    POTLOK:  cpu time    0.0414: real time    0.0416
    SETDIJ:  cpu time    0.0051: real time    0.0053
    EDDIAG:  cpu time    1.2839: real time    1.2886
  RMM-DIIS:  cpu time    3.3979: real time    3.4084
    ORTHCH:  cpu time    0.3518: real time    0.3527
       DOS:  cpu time    0.0013: real time    0.0013
    CHARGE:  cpu time    0.2230: real time    0.2236
    MIXING:  cpu time    0.0020: real time    0.0020
    --------------------------------------------
      LOOP:  cpu time    5.3070: real time    5.3275

 eigenvalue-minimisations  :  3682
 total energy-change (2. order) :-0.2951054E+01  (-0.5268502E+01)
 number of electron     503.9998364 magnetization 
 augmentation part      196.7368985 magnetization 

 DIPCOR: dipole corrections for dipol
 direction  3 min pos     1,
 dipolmoment           0.000000      0.000000     -0.706414 electrons x Angstroem
 Tr[quadrupol]    -10321.852076

 energy correction for charged system         0.000000 eV
 dipol+quadrupol energy correction           -0.017584 eV
 added-field ion interaction         -0.111810 eV  (added to PSCEN)


 Broyden mixing:
  rms(total) = 0.38484E+01    rms(broyden)= 0.38481E+01
  rms(prec ) = 0.42740E+01
  weight for this iteration     100.00

 eigenvalues of (default mixing * dielectric matrix)
  average eigenvalue GAMMA=   1.0438
  1.6686  0.4189

 Free energy of the ion-electron system (eV)
  ---------------------------------------------------
  alpha Z        PSCENC =       805.73996996
  Ewald energy   TEWEN  =    199926.03427042
  -Hartree energ DENC   =   -241929.68639200
  -exchange      EXHF   =         0.00000000
  -V(xc)+E(xc)   XCENC  =      -342.75991503
  PAW double counting   =     45460.93168011   -43500.57281271
  entropy T*S    EENTRO =        -0.19749479
  eigenvalues    EBANDS =     -2282.06792543
  atomic energy  EATOM  =     41659.78587232
  Solvation  Ediel_sol  =         0.00000000
  ---------------------------------------------------
  free energy    TOTEN  =      -202.79274716 eV

  energy without entropy =     -202.59525237  energy(sigma->0) =     -202.69399976


--------------------------------------------------------------------------------------------------------




----------------------------------------- Iteration    1(   8)  ---------------------------------------


    POTLOK:  cpu time    0.0404: real time    0.0406
    SETDIJ:  cpu time    0.0053: real time    0.0060
    EDDIAG:  cpu time    1.2813: real time    1.2853
  RMM-DIIS:  cpu time    3.5345: real time    3.5435
    ORTHCH:  cpu time    0.3517: real time    0.3535
       DOS:  cpu time    0.0014: real time    0.0014
    CHARGE:  cpu time    0.2225: real time    0.2230
    MIXING:  cpu time    0.0019: real time    0.0019
    --------------------------------------------
      LOOP:  cpu time    5.4395: real time    5.4582

 eigenvalue-minimisations  :  3672
 total energy-change (2. order) :-0.2229338E+02  (-0.7969402E+01)
 number of electron     503.9998367 magnetization 
 augmentation part      195.4522145 magnetization 

 DIPCOR: dipole corrections for dipol
 direction  3 min pos     1,
 dipolmoment           0.000000      0.000000      1.962371 electrons x Angstroem
 Tr[quadrupol]    -10323.955400

 energy correction for charged system         0.000000 eV
 dipol+quadrupol energy correction           -0.135695 eV
 added-field ion interaction          0.310601 eV  (added to PSCEN)


 Broyden mixing:
  rms(total) = 0.43901E+01    rms(broyden)= 0.43898E+01
  rms(prec ) = 0.54436E+01
  weight for this iteration     100.00

 eigenvalues of (default mixing * dielectric matrix)
  average eigenvalue GAMMA=   0.9662
  2.1537  0.4670  0.2778

 Free energy of the ion-electron system (eV)
  ---------------------------------------------------
  alpha Z        PSCENC =       806.04426999
  Ewald energy   TEWEN  =    199926.03427042
  -Hartree energ DENC   =   -241940.54045811
  -exchange      EXHF   =         0.00000000
  -V(xc)+E(xc)   XCENC  =      -344.77841635
  PAW double counting   =     47512.45967197   -45580.25626397
  entropy T*S    EENTRO =        -0.29560084
  eigenvalues    EBANDS =     -2263.53947637
  atomic energy  EATOM  =     41659.78587232
  Solvation  Ediel_sol  =         0.00000000
  ---------------------------------------------------
  free energy    TOTEN  =      -225.08613095 eV

  energy without entropy =     -224.79053010  energy(sigma->0) =     -224.93833053


--------------------------------------------------------------------------------------------------------




----------------------------------------- Iteration    1(   9)  ---------------------------------------


    POTLOK:  cpu time    0.0397: real time    0.0398
    SETDIJ:  cpu time    0.0051: real time    0.0053
    EDDIAG:  cpu time    1.2795: real time    1.2826
  RMM-DIIS:  cpu time    3.4580: real time    3.4665
    ORTHCH:  cpu time    0.3515: real time    0.3523
       DOS:  cpu time    0.0013: real time    0.0013
    CHARGE:  cpu time    0.2186: real time    0.2191
    MIXING:  cpu time    0.0021: real time    0.0021
    --------------------------------------------
      LOOP:  cpu time    5.3563: real time    5.3721

 eigenvalue-minimisations  :  3676
 total energy-change (2. order) : 0.1647273E+02  (-0.4088930E+01)
 number of electron     503.9998341 magnetization 
 augmentation part      198.1745686 magnetization 

 DIPCOR: dipole corrections for dipol
 direction  3 min pos     1,
 dipolmoment           0.000000      0.000000     -0.677030 electrons x Angstroem
 Tr[quadrupol]    -10325.266673

 energy correction for charged system         0.000000 eV
 dipol+quadrupol energy correction           -0.016152 eV
 added-field ion interaction         -0.107159 eV  (added to PSCEN)


 Broyden mixing:
  rms(total) = 0.33108E+01    rms(broyden)= 0.33105E+01
  rms(prec ) = 0.37152E+01
  weight for this iteration     100.00

 eigenvalues of (default mixing * dielectric matrix)
  average eigenvalue GAMMA=   0.8375
  2.2768  0.4824  0.2954  0.2954

 Free energy of the ion-electron system (eV)
  ---------------------------------------------------
  alpha Z        PSCENC =       805.74605317
  Ewald energy   TEWEN  =    199926.03427042
  -Hartree energ DENC   =   -241951.24950944
  -exchange      EXHF   =         0.00000000
  -V(xc)+E(xc)   XCENC  =      -346.27745640
  PAW double counting   =     48694.72118281   -46780.72824621
  entropy T*S    EENTRO =        -0.19973694
  eigenvalues    EBANDS =     -2216.44582747
  atomic energy  EATOM  =     41659.78587232
  Solvation  Ediel_sol  =         0.00000000
  ---------------------------------------------------
  free energy    TOTEN  =      -208.61339774 eV

  energy without entropy =     -208.41366080  energy(sigma->0) =     -208.51352927


--------------------------------------------------------------------------------------------------------




----------------------------------------- Iteration    1(  10)  ---------------------------------------


    POTLOK:  cpu time    0.0400: real time    0.0401
    SETDIJ:  cpu time    0.0052: real time    0.0052
    EDDIAG:  cpu time    1.2795: real time    1.2826
  RMM-DIIS:  cpu time    3.4504: real time    3.4613
    ORTHCH:  cpu time    0.3514: real time    0.3522
       DOS:  cpu time    0.0014: real time    0.0014
    CHARGE:  cpu time    0.2169: real time    0.2175
    MIXING:  cpu time    0.0021: real time    0.0021
    --------------------------------------------
      LOOP:  cpu time    5.3475: real time    5.3664

 eigenvalue-minimisations  :  3683
 total energy-change (2. order) : 0.1437155E+02  (-0.1707339E+01)
 number of electron     503.9998337 magnetization 
 augmentation part      199.2187145 magnetization 

 DIPCOR: dipole corrections for dipol
 direction  3 min pos     1,
 dipolmoment           0.000000      0.000000      0.211336 electrons x Angstroem
 Tr[quadrupol]    -10323.897046

 energy correction for charged system         0.000000 eV
 dipol+quadrupol energy correction           -0.001574 eV
 added-field ion interaction          0.033450 eV  (added to PSCEN)


 Broyden mixing:
  rms(total) = 0.15835E+01    rms(broyden)= 0.15832E+01
  rms(prec ) = 0.18163E+01
  weight for this iteration     100.00

 eigenvalues of (default mixing * dielectric matrix)
  average eigenvalue GAMMA=   0.7780
  2.2654  0.5226  0.5226  0.3370  0.2424

 Free energy of the ion-electron system (eV)
  ---------------------------------------------------
  alpha Z        PSCENC =       805.90124046
  Ewald energy   TEWEN  =    199926.03427042
  -Hartree energ DENC   =   -241918.76941101
  -exchange      EXHF   =         0.00000000
  -V(xc)+E(xc)   XCENC  =      -345.96918379
  PAW double counting   =     49110.36757041   -47200.32927552
  entropy T*S    EENTRO =        -0.19488859
  eigenvalues    EBANDS =     -2231.06803874
  atomic energy  EATOM  =     41659.78587232
  Solvation  Ediel_sol  =         0.00000000
  ---------------------------------------------------
  free energy    TOTEN  =      -194.24184405 eV

  energy without entropy =     -194.04695546  energy(sigma->0) =     -194.14439976


--------------------------------------------------------------------------------------------------------




----------------------------------------- Iteration    1(  11)  ---------------------------------------


    POTLOK:  cpu time    0.0396: real time    0.0397
    SETDIJ:  cpu time    0.0052: real time    0.0052
    EDDIAG:  cpu time    1.2735: real time    1.2785
  RMM-DIIS:  cpu time    3.4517: real time    3.4607
    ORTHCH:  cpu time    0.3511: real time    0.3519
       DOS:  cpu time    0.0014: real time    0.0014
    CHARGE:  cpu time    0.2209: real time    0.2214
    MIXING:  cpu time    0.0023: real time    0.0023
    --------------------------------------------
      LOOP:  cpu time    5.3464: real time    5.3637

 eigenvalue-minimisations  :  3678
 total energy-change (2. order) : 0.3543700E+01  (-0.9570970E+00)
 number of electron     503.9998345 magnetization 
 augmentation part      198.2775601 magnetization 

 DIPCOR: dipole corrections for dipol
 direction  3 min pos     1,
 dipolmoment           0.000000      0.000000      0.035789 electrons x Angstroem
 Tr[quadrupol]    -10324.535546

 energy correction for charged system         0.000000 eV
 dipol+quadrupol energy correction           -0.000045 eV
 added-field ion interaction          0.005665 eV  (added to PSCEN)


 Broyden mixing:
  rms(total) = 0.10157E+01    rms(broyden)= 0.10154E+01
  rms(prec ) = 0.11424E+01
  weight for this iteration     100.00

 eigenvalues of (default mixing * dielectric matrix)
  average eigenvalue GAMMA=   0.7309
  2.2338  0.6211  0.6211  0.3367  0.3168  0.2558

 Free energy of the ion-electron system (eV)
  ---------------------------------------------------
  alpha Z        PSCENC =       805.87498371
  Ewald energy   TEWEN  =    199926.03427042
  -Hartree energ DENC   =   -241970.11165418
  -exchange      EXHF   =         0.00000000
  -V(xc)+E(xc)   XCENC  =      -345.21970262
  PAW double counting   =     49186.61770178   -47273.26914794
  entropy T*S    EENTRO =        -0.20204773
  eigenvalues    EBANDS =     -2180.20841987
  atomic energy  EATOM  =     41659.78587232
  Solvation  Ediel_sol  =         0.00000000
  ---------------------------------------------------
  free energy    TOTEN  =      -190.69814411 eV

  energy without entropy =     -190.49609638  energy(sigma->0) =     -190.59712025


--------------------------------------------------------------------------------------------------------




----------------------------------------- Iteration    1(  12)  ---------------------------------------


    POTLOK:  cpu time    0.0395: real time    0.0396
    SETDIJ:  cpu time    0.0050: real time    0.0050
    EDDIAG:  cpu time    1.2765: real time    1.2836
  RMM-DIIS:  cpu time    3.4249: real time    3.4332
    ORTHCH:  cpu time    0.3498: real time    0.3510
       DOS:  cpu time    0.0014: real time    0.0014
    CHARGE:  cpu time    0.2186: real time    0.2350
    MIXING:  cpu time    0.0025: real time    0.0026
    --------------------------------------------
      LOOP:  cpu time    5.3188: real time    5.3545

 eigenvalue-minimisations  :  3680
 total energy-change (2. order) : 0.1293397E+01  (-0.3469714E+00)
 number of electron     503.9998360 magnetization 
 augmentation part      197.2288547 magnetization 

 DIPCOR: dipole corrections for dipol
 direction  3 min pos     1,
 dipolmoment           0.000000      0.000000      0.024802 electrons x Angstroem
 Tr[quadrupol]    -10325.029337

 energy correction for charged system         0.000000 eV
 dipol+quadrupol energy correction           -0.000022 eV
 added-field ion interaction          0.003926 eV  (added to PSCEN)


 Broyden mixing:
  rms(total) = 0.73946E+00    rms(broyden)= 0.73931E+00
  rms(prec ) = 0.79020E+00
  weight for this iteration     100.00

 eigenvalues of (default mixing * dielectric matrix)
  average eigenvalue GAMMA=   0.7054
  2.2709  0.7263  0.5480  0.5480  0.2834  0.2834  0.2780

 Free energy of the ion-electron system (eV)
  ---------------------------------------------------
  alpha Z        PSCENC =       805.87326821
  Ewald energy   TEWEN  =    199926.03427042
  -Hartree energ DENC   =   -242016.03457017
  -exchange      EXHF   =         0.00000000
  -V(xc)+E(xc)   XCENC  =      -344.42889937
  PAW double counting   =     49231.84965486   -47314.86478550
  entropy T*S    EENTRO =        -0.27808003
  eigenvalues    EBANDS =     -2137.34147790
  atomic energy  EATOM  =     41659.78587232
  Solvation  Ediel_sol  =         0.00000000
  ---------------------------------------------------
  free energy    TOTEN  =      -189.40474716 eV

  energy without entropy =     -189.12666713  energy(sigma->0) =     -189.26570715


--------------------------------------------------------------------------------------------------------




----------------------------------------- Iteration    1(  13)  ---------------------------------------


    POTLOK:  cpu time    0.0394: real time    0.0446
    SETDIJ:  cpu time    0.0059: real time    0.0061
    EDDIAG:  cpu time    1.2638: real time    1.3178
  RMM-DIIS:  cpu time    3.4175: real time    3.4282
    ORTHCH:  cpu time    0.3465: real time    0.3473
       DOS:  cpu time    0.0014: real time    0.0014
    CHARGE:  cpu time    0.2194: real time    0.2199
    MIXING:  cpu time    0.0026: real time    0.0027
    --------------------------------------------
      LOOP:  cpu time    5.2972: real time    5.3711

 eigenvalue-minimisations  :  3678
 total energy-change (2. order) : 0.9824360E-02  (-0.1300842E+00)
 number of electron     503.9998358 magnetization 
 augmentation part      197.2537585 magnetization 

 DIPCOR: dipole corrections for dipol
 direction  3 min pos     1,
 dipolmoment           0.000000      0.000000     -0.012916 electrons x Angstroem
 Tr[quadrupol]    -10325.239820

 energy correction for charged system         0.000000 eV
 dipol+quadrupol energy correction           -0.000006 eV
 added-field ion interaction         -0.002044 eV  (added to PSCEN)


 Broyden mixing:
  rms(total) = 0.60913E+00    rms(broyden)= 0.60900E+00
  rms(prec ) = 0.67541E+00
  weight for this iteration     100.00

 eigenvalues of (default mixing * dielectric matrix)
  average eigenvalue GAMMA=   0.7220
  2.2966  0.8447  0.7571  0.7571  0.3152  0.3152  0.2452  0.2452

 Free energy of the ion-electron system (eV)
  ---------------------------------------------------
  alpha Z        PSCENC =       805.86731414
  Ewald energy   TEWEN  =    199926.03427042
  -Hartree energ DENC   =   -242023.71763157
  -exchange      EXHF   =         0.00000000
  -V(xc)+E(xc)   XCENC  =      -344.39678678
  PAW double counting   =     49276.20646870   -47359.28005929
  entropy T*S    EENTRO =        -0.21949691
  eigenvalues    EBANDS =     -2129.67487382
  atomic energy  EATOM  =     41659.78587232
  Solvation  Ediel_sol  =         0.00000000
  ---------------------------------------------------
  free energy    TOTEN  =      -189.39492280 eV

  energy without entropy =     -189.17542589  energy(sigma->0) =     -189.28517434


--------------------------------------------------------------------------------------------------------




----------------------------------------- Iteration    1(  14)  ---------------------------------------


    POTLOK:  cpu time    0.0400: real time    0.0407
    SETDIJ:  cpu time    0.0059: real time    0.0059
    EDDIAG:  cpu time    1.2868: real time    1.2907
  RMM-DIIS:  cpu time    3.4165: real time    3.4321
    ORTHCH:  cpu time    0.3466: real time    0.3474
       DOS:  cpu time    0.0014: real time    0.0014
    CHARGE:  cpu time    0.2184: real time    0.2208
    MIXING:  cpu time    0.0027: real time    0.0028
    --------------------------------------------
      LOOP:  cpu time    5.3191: real time    5.3455

 eigenvalue-minimisations  :  3683
 total energy-change (2. order) :-0.9068304E-02  (-0.5700512E-01)
 number of electron     503.9998356 magnetization 
 augmentation part      197.4309258 magnetization 

 DIPCOR: dipole corrections for dipol
 direction  3 min pos     1,
 dipolmoment           0.000000      0.000000      0.011389 electrons x Angstroem
 Tr[quadrupol]    -10325.368885

 energy correction for charged system         0.000000 eV
 dipol+quadrupol energy correction           -0.000005 eV
 added-field ion interaction          0.001803 eV  (added to PSCEN)


 Broyden mixing:
  rms(total) = 0.54315E+00    rms(broyden)= 0.54304E+00
  rms(prec ) = 0.60893E+00
  weight for this iteration     100.00

 eigenvalues of (default mixing * dielectric matrix)
  average eigenvalue GAMMA=   0.7014
  2.2918  0.9023  0.9023  0.7808  0.3569  0.3569  0.2568  0.2568  0.2082

 Free energy of the ion-electron system (eV)
  ---------------------------------------------------
  alpha Z        PSCENC =       805.87116232
  Ewald energy   TEWEN  =    199926.03427042
  -Hartree energ DENC   =   -242027.74451941
  -exchange      EXHF   =         0.00000000
  -V(xc)+E(xc)   XCENC  =      -344.33619005
  PAW double counting   =     49303.08194395   -47385.93352771
  entropy T*S    EENTRO =        -0.26515133
  eigenvalues    EBANDS =     -2125.89785161
  atomic energy  EATOM  =     41659.78587232
  Solvation  Ediel_sol  =         0.00000000
  ---------------------------------------------------
  free energy    TOTEN  =      -189.40399110 eV

  energy without entropy =     -189.13883977  energy(sigma->0) =     -189.27141544


--------------------------------------------------------------------------------------------------------




----------------------------------------- Iteration    1(  15)  ---------------------------------------


    POTLOK:  cpu time    0.0408: real time    0.0409
    SETDIJ:  cpu time    0.0053: real time    0.0054
    EDDIAG:  cpu time    1.2758: real time    1.2800
  RMM-DIIS:  cpu time    3.4727: real time    3.4820
    ORTHCH:  cpu time    0.3456: real time    0.3464
       DOS:  cpu time    0.0014: real time    0.0014
    CHARGE:  cpu time    0.2200: real time    0.2205
    MIXING:  cpu time    0.0028: real time    0.0028
    --------------------------------------------
      LOOP:  cpu time    5.3649: real time    5.3834

 eigenvalue-minimisations  :  3678
 total energy-change (2. order) : 0.1632115E+00  (-0.1656968E-01)
 number of electron     503.9998356 magnetization 
 augmentation part      197.4401627 magnetization 

 DIPCOR: dipole corrections for dipol
 direction  3 min pos     1,
 dipolmoment           0.000000      0.000000      0.023334 electrons x Angstroem
 Tr[quadrupol]    -10325.547053

 energy correction for charged system         0.000000 eV
 dipol+quadrupol energy correction           -0.000019 eV
 added-field ion interaction          0.003693 eV  (added to PSCEN)


 Broyden mixing:
  rms(total) = 0.38026E+00    rms(broyden)= 0.38022E+00
  rms(prec ) = 0.42826E+00
  weight for this iteration     100.00

 eigenvalues of (default mixing * dielectric matrix)
  average eigenvalue GAMMA=   0.7359
  2.2089  1.3060  1.3060  0.5455  0.4766  0.4766  0.2874  0.2874  0.2460  0.2182

 Free energy of the ion-electron system (eV)
  ---------------------------------------------------
  alpha Z        PSCENC =       805.87303836
  Ewald energy   TEWEN  =    199926.03427042
  -Hartree energ DENC   =   -242036.20245392
  -exchange      EXHF   =         0.00000000
  -V(xc)+E(xc)   XCENC  =      -344.24376518
  PAW double counting   =     49305.17080220   -47387.30765285
  entropy T*S    EENTRO =        -0.25940581
  eigenvalues    EBANDS =     -2118.09148514
  atomic energy  EATOM  =     41659.78587232
  Solvation  Ediel_sol  =         0.00000000
  ---------------------------------------------------
  free energy    TOTEN  =      -189.24077961 eV

  energy without entropy =     -188.98137380  energy(sigma->0) =     -189.11107670


--------------------------------------------------------------------------------------------------------




----------------------------------------- Iteration    1(  16)  ---------------------------------------


    POTLOK:  cpu time    0.0396: real time    0.0397
    SETDIJ:  cpu time    0.0052: real time    0.0052
    EDDIAG:  cpu time    1.2761: real time    1.2793
  RMM-DIIS:  cpu time    3.4421: real time    3.4510
    ORTHCH:  cpu time    0.3458: real time    0.3466
       DOS:  cpu time    0.0013: real time    0.0013
    CHARGE:  cpu time    0.2198: real time    0.2204
    MIXING:  cpu time    0.0029: real time    0.0029
    --------------------------------------------
      LOOP:  cpu time    5.3335: real time    5.3493

 eigenvalue-minimisations  :  3680
 total energy-change (2. order) : 0.9718331E-01  (-0.1529545E-01)
 number of electron     503.9998357 magnetization 
 augmentation part      197.3252116 magnetization 

 DIPCOR: dipole corrections for dipol
 direction  3 min pos     1,
 dipolmoment           0.000000      0.000000      0.029841 electrons x Angstroem
 Tr[quadrupol]    -10325.790593

 energy correction for charged system         0.000000 eV
 dipol+quadrupol energy correction           -0.000031 eV
 added-field ion interaction          0.004723 eV  (added to PSCEN)


 Broyden mixing:
  rms(total) = 0.31795E+00    rms(broyden)= 0.31791E+00
  rms(prec ) = 0.36886E+00
  weight for this iteration     100.00

 eigenvalues of (default mixing * dielectric matrix)
  average eigenvalue GAMMA=   0.7547
  1.9882  1.9882  1.4476  0.5535  0.5535  0.4274  0.3261  0.3261  0.2456  0.2456
  0.1996

 Free energy of the ion-electron system (eV)
  ---------------------------------------------------
  alpha Z        PSCENC =       805.87405606
  Ewald energy   TEWEN  =    199926.03427042
  -Hartree energ DENC   =   -242051.49574869
  -exchange      EXHF   =         0.00000000
  -V(xc)+E(xc)   XCENC  =      -343.98860262
  PAW double counting   =     49297.34719461   -47377.70106055
  entropy T*S    EENTRO =        -0.26352353
  eigenvalues    EBANDS =     -2104.73605432
  atomic energy  EATOM  =     41659.78587232
  Solvation  Ediel_sol  =         0.00000000
  ---------------------------------------------------
  free energy    TOTEN  =      -189.14359630 eV

  energy without entropy =     -188.88007277  energy(sigma->0) =     -189.01183453


--------------------------------------------------------------------------------------------------------




----------------------------------------- Iteration    1(  17)  ---------------------------------------


    POTLOK:  cpu time    0.0405: real time    0.0407
    SETDIJ:  cpu time    0.0051: real time    0.0051
    EDDIAG:  cpu time    1.2757: real time    1.2794
  RMM-DIIS:  cpu time    3.4348: real time    3.4432
    ORTHCH:  cpu time    0.3457: real time    0.3466
       DOS:  cpu time    0.0013: real time    0.0013
    CHARGE:  cpu time    0.2188: real time    0.2193
    MIXING:  cpu time    0.0030: real time    0.0030
    --------------------------------------------
      LOOP:  cpu time    5.3256: real time    5.3424

 eigenvalue-minimisations  :  3682
 total energy-change (2. order) : 0.1001955E+00  (-0.1135625E-01)
 number of electron     503.9998359 magnetization 
 augmentation part      197.2128460 magnetization 

 DIPCOR: dipole corrections for dipol
 direction  3 min pos     1,
 dipolmoment           0.000000      0.000000      0.028550 electrons x Angstroem
 Tr[quadrupol]    -10326.131436

 energy correction for charged system         0.000000 eV
 dipol+quadrupol energy correction           -0.000029 eV
 added-field ion interaction          0.004519 eV  (added to PSCEN)


 Broyden mixing:
  rms(total) = 0.13339E+00    rms(broyden)= 0.13331E+00
  rms(prec ) = 0.15316E+00
  weight for this iteration     100.00

 eigenvalues of (default mixing * dielectric matrix)
  average eigenvalue GAMMA=   0.7532
  2.1463  2.1463  1.3686  0.5857  0.5857  0.5263  0.3918  0.2910  0.2855  0.2855
  0.2296  0.1961

 Free energy of the ion-electron system (eV)
  ---------------------------------------------------
  alpha Z        PSCENC =       805.87385445
  Ewald energy   TEWEN  =    199926.03427042
  -Hartree energ DENC   =   -242068.69320949
  -exchange      EXHF   =         0.00000000
  -V(xc)+E(xc)   XCENC  =      -343.80146281
  PAW double counting   =     49303.04536411   -47382.06436023
  entropy T*S    EENTRO =        -0.26605508
  eigenvalues    EBANDS =     -2088.95767452
  atomic energy  EATOM  =     41659.78587232
  Solvation  Ediel_sol  =         0.00000000
  ---------------------------------------------------
  free energy    TOTEN  =      -189.04340084 eV

  energy without entropy =     -188.77734576  energy(sigma->0) =     -188.91037330


--------------------------------------------------------------------------------------------------------




----------------------------------------- Iteration    1(  18)  ---------------------------------------


    POTLOK:  cpu time    0.0399: real time    0.0400
    SETDIJ:  cpu time    0.0051: real time    0.0051
    EDDIAG:  cpu time    1.2790: real time    1.2827
  RMM-DIIS:  cpu time    3.4531: real time    3.4615
    ORTHCH:  cpu time    0.3459: real time    0.3467
       DOS:  cpu time    0.0014: real time    0.0014
    CHARGE:  cpu time    0.2208: real time    0.2214
    MIXING:  cpu time    0.0032: real time    0.0032
    --------------------------------------------
      LOOP:  cpu time    5.3492: real time    5.3645

 eigenvalue-minimisations  :  3678
 total energy-change (2. order) : 0.2131962E-01  (-0.2914563E-02)
 number of electron     503.9998360 magnetization 
 augmentation part      197.1313866 magnetization 

 DIPCOR: dipole corrections for dipol
 direction  3 min pos     1,
 dipolmoment           0.000000      0.000000      0.015646 electrons x Angstroem
 Tr[quadrupol]    -10326.304035

 energy correction for charged system         0.000000 eV
 dipol+quadrupol energy correction           -0.000009 eV
 added-field ion interaction          0.002476 eV  (added to PSCEN)


 Broyden mixing:
  rms(total) = 0.73011E-01    rms(broyden)= 0.72986E-01
  rms(prec ) = 0.81389E-01
  weight for this iteration     100.00

 eigenvalues of (default mixing * dielectric matrix)
  average eigenvalue GAMMA=   0.7319
  2.1536  2.1536  1.3809  0.6115  0.6115  0.5606  0.3768  0.3768  0.3075  0.2777
  0.2777  0.2307  0.1952

 Free energy of the ion-electron system (eV)
  ---------------------------------------------------
  alpha Z        PSCENC =       805.87183203
  Ewald energy   TEWEN  =    199926.03427042
  -Hartree energ DENC   =   -242077.28974083
  -exchange      EXHF   =         0.00000000
  -V(xc)+E(xc)   XCENC  =      -343.72634813
  PAW double counting   =     49314.89566174   -47393.50916400
  entropy T*S    EENTRO =        -0.27113288
  eigenvalues    EBANDS =     -2080.81333188
  atomic energy  EATOM  =     41659.78587232
  Solvation  Ediel_sol  =         0.00000000
  ---------------------------------------------------
  free energy    TOTEN  =      -189.02208122 eV

  energy without entropy =     -188.75094834  energy(sigma->0) =     -188.88651478


--------------------------------------------------------------------------------------------------------




----------------------------------------- Iteration    1(  19)  ---------------------------------------


    POTLOK:  cpu time    0.0396: real time    0.0397
    SETDIJ:  cpu time    0.0052: real time    0.0052
    EDDIAG:  cpu time    1.2739: real time    1.2770
  RMM-DIIS:  cpu time    3.4336: real time    3.4428
    ORTHCH:  cpu time    0.3475: real time    0.3483
       DOS:  cpu time    0.0014: real time    0.0014
    CHARGE:  cpu time    0.2204: real time    0.2209
    MIXING:  cpu time    0.0033: real time    0.0033
    --------------------------------------------
      LOOP:  cpu time    5.3255: real time    5.3410

 eigenvalue-minimisations  :  3679
 total energy-change (2. order) : 0.3924131E-02  (-0.8125528E-03)
 number of electron     503.9998360 magnetization 
 augmentation part      197.1039142 magnetization 

 DIPCOR: dipole corrections for dipol
 direction  3 min pos     1,
 dipolmoment           0.000000      0.000000      0.008929 electrons x Angstroem
 Tr[quadrupol]    -10326.375717

 energy correction for charged system         0.000000 eV
 dipol+quadrupol energy correction           -0.000003 eV
 added-field ion interaction          0.001413 eV  (added to PSCEN)


 Broyden mixing:
  rms(total) = 0.50222E-01    rms(broyden)= 0.50211E-01
  rms(prec ) = 0.56717E-01
  weight for this iteration     100.00

 eigenvalues of (default mixing * dielectric matrix)
  average eigenvalue GAMMA=   0.7274
  2.1182  2.1182  1.4415  0.7105  0.7105  0.5584  0.5584  0.4317  0.3028  0.3028
  0.2552  0.2552  0.2245  0.1953

 Free energy of the ion-electron system (eV)
  ---------------------------------------------------
  alpha Z        PSCENC =       805.87077478
  Ewald energy   TEWEN  =    199926.03427042
  -Hartree energ DENC   =   -242080.63584904
  -exchange      EXHF   =         0.00000000
  -V(xc)+E(xc)   XCENC  =      -343.70178684
  PAW double counting   =     49320.07003790   -47398.59295646
  entropy T*S    EENTRO =        -0.26976181
  eigenvalues    EBANDS =     -2077.57875836
  atomic energy  EATOM  =     41659.78587232
  Solvation  Ediel_sol  =         0.00000000
  ---------------------------------------------------
  free energy    TOTEN  =      -189.01815709 eV

  energy without entropy =     -188.74839528  energy(sigma->0) =     -188.88327619


--------------------------------------------------------------------------------------------------------




----------------------------------------- Iteration    1(  20)  ---------------------------------------


    POTLOK:  cpu time    0.0398: real time    0.0399
    SETDIJ:  cpu time    0.0051: real time    0.0051
    EDDIAG:  cpu time    1.2757: real time    1.2787
  RMM-DIIS:  cpu time    3.3887: real time    3.4757
    ORTHCH:  cpu time    0.3462: real time    0.3470
       DOS:  cpu time    0.0014: real time    0.0014
    CHARGE:  cpu time    0.2197: real time    0.2202
    MIXING:  cpu time    0.0034: real time    0.0034
    --------------------------------------------
      LOOP:  cpu time    5.2805: real time    5.3751

 eigenvalue-minimisations  :  3680
 total energy-change (2. order) : 0.1684107E-02  (-0.2089428E-03)
 number of electron     503.9998360 magnetization 
 augmentation part      197.0905780 magnetization 

 DIPCOR: dipole corrections for dipol
 direction  3 min pos     1,
 dipolmoment           0.000000      0.000000      0.012761 electrons x Angstroem
 Tr[quadrupol]    -10326.461501

 energy correction for charged system         0.000000 eV
 dipol+quadrupol energy correction           -0.000006 eV
 added-field ion interaction          0.002020 eV  (added to PSCEN)


 Broyden mixing:
  rms(total) = 0.37059E-01    rms(broyden)= 0.37054E-01
  rms(prec ) = 0.41373E-01
  weight for this iteration     100.00

 eigenvalues of (default mixing * dielectric matrix)
  average eigenvalue GAMMA=   0.7266
  2.2128  1.8530  1.5878  0.8851  0.8851  0.5761  0.5761  0.4685  0.3301  0.3301
  0.2688  0.2688  0.1954  0.2250  0.2362

 Free energy of the ion-electron system (eV)
  ---------------------------------------------------
  alpha Z        PSCENC =       805.87137827
  Ewald energy   TEWEN  =    199926.03427042
  -Hartree energ DENC   =   -242084.16138402
  -exchange      EXHF   =         0.00000000
  -V(xc)+E(xc)   XCENC  =      -343.68776547
  PAW double counting   =     49323.58109606   -47402.07010553
  entropy T*S    EENTRO =        -0.27006240
  eigenvalues    EBANDS =     -2074.09977263
  atomic energy  EATOM  =     41659.78587232
  Solvation  Ediel_sol  =         0.00000000
  ---------------------------------------------------
  free energy    TOTEN  =      -189.01647298 eV

  energy without entropy =     -188.74641059  energy(sigma->0) =     -188.88144179


--------------------------------------------------------------------------------------------------------




----------------------------------------- Iteration    1(  21)  ---------------------------------------


    POTLOK:  cpu time    0.0399: real time    0.0400
    SETDIJ:  cpu time    0.0051: real time    0.0051
    EDDIAG:  cpu time    1.2766: real time    1.2797
  RMM-DIIS:  cpu time    3.4531: real time    3.4615
    ORTHCH:  cpu time    0.3493: real time    0.3502
       DOS:  cpu time    0.0014: real time    0.0014
    CHARGE:  cpu time    0.2191: real time    0.2197
    MIXING:  cpu time    0.0039: real time    0.0039
    --------------------------------------------
      LOOP:  cpu time    5.3491: real time    5.3657

 eigenvalue-minimisations  :  3679
 total energy-change (2. order) : 0.1093082E-02  (-0.1523013E-03)
 number of electron     503.9998360 magnetization 
 augmentation part      197.0781521 magnetization 

 DIPCOR: dipole corrections for dipol
 direction  3 min pos     1,
 dipolmoment           0.000000      0.000000      0.012417 electrons x Angstroem
 Tr[quadrupol]    -10326.556955

 energy correction for charged system         0.000000 eV
 dipol+quadrupol energy correction           -0.000005 eV
 added-field ion interaction          0.001965 eV  (added to PSCEN)


 Broyden mixing:
  rms(total) = 0.27426E-01    rms(broyden)= 0.27423E-01
  rms(prec ) = 0.31573E-01
  weight for this iteration     100.00

 eigenvalues of (default mixing * dielectric matrix)
  average eigenvalue GAMMA=   0.7696
  2.2241  1.9488  1.9488  1.0964  1.0964  0.5889  0.5889  0.6143  0.3651  0.3651
  0.2871  0.2871  0.1952  0.2437  0.2437  0.2198

 Free energy of the ion-electron system (eV)
  ---------------------------------------------------
  alpha Z        PSCENC =       805.87132412
  Ewald energy   TEWEN  =    199926.03427042
  -Hartree energ DENC   =   -242088.22377490
  -exchange      EXHF   =         0.00000000
  -V(xc)+E(xc)   XCENC  =      -343.66758196
  PAW double counting   =     49326.17184061   -47404.60609067
  entropy T*S    EENTRO =        -0.27031400
  eigenvalues    EBANDS =     -2070.11092584
  atomic energy  EATOM  =     41659.78587232
  Solvation  Ediel_sol  =         0.00000000
  ---------------------------------------------------
  free energy    TOTEN  =      -189.01537990 eV

  energy without entropy =     -188.74506590  energy(sigma->0) =     -188.88022290


--------------------------------------------------------------------------------------------------------




----------------------------------------- Iteration    1(  22)  ---------------------------------------


    POTLOK:  cpu time    0.0411: real time    0.0413
    SETDIJ:  cpu time    0.0058: real time    0.0058
    EDDIAG:  cpu time    1.2811: real time    1.2851
  RMM-DIIS:  cpu time    3.4241: real time    3.4324
    ORTHCH:  cpu time    0.3447: real time    0.3474
       DOS:  cpu time    0.0014: real time    0.0014
    CHARGE:  cpu time    0.2178: real time    0.2184
    MIXING:  cpu time    0.0039: real time    0.0039
    --------------------------------------------
      LOOP:  cpu time    5.3208: real time    5.3402

 eigenvalue-minimisations  :  3680
 total energy-change (2. order) : 0.3358391E-03  (-0.1356720E-03)
 number of electron     503.9998360 magnetization 
 augmentation part      197.0629355 magnetization 

 DIPCOR: dipole corrections for dipol
 direction  3 min pos     1,
 dipolmoment           0.000000      0.000000      0.012154 electrons x Angstroem
 Tr[quadrupol]    -10326.700936

 energy correction for charged system         0.000000 eV
 dipol+quadrupol energy correction           -0.000005 eV
 added-field ion interaction          0.001924 eV  (added to PSCEN)


 Broyden mixing:
  rms(total) = 0.23549E-01    rms(broyden)= 0.23544E-01
  rms(prec ) = 0.27088E-01
  weight for this iteration     100.00

 eigenvalues of (default mixing * dielectric matrix)
  average eigenvalue GAMMA=   0.7715
  2.2285  2.1758  2.1758  1.2242  0.9688  0.6753  0.5964  0.5964  0.3707  0.3707
  0.2975  0.2975  0.2548  0.2548  0.2255  0.1961  0.2075

 Free energy of the ion-electron system (eV)
  ---------------------------------------------------
  alpha Z        PSCENC =       805.87128278
  Ewald energy   TEWEN  =    199926.03427042
  -Hartree energ DENC   =   -242094.31268429
  -exchange      EXHF   =         0.00000000
  -V(xc)+E(xc)   XCENC  =      -343.63634145
  PAW double counting   =     49328.00836523   -47406.35231167
  entropy T*S    EENTRO =        -0.26948694
  eigenvalues    EBANDS =     -2064.14401045
  atomic energy  EATOM  =     41659.78587232
  Solvation  Ediel_sol  =         0.00000000
  ---------------------------------------------------
  free energy    TOTEN  =      -189.01504406 eV

  energy without entropy =     -188.74555712  energy(sigma->0) =     -188.88030059


--------------------------------------------------------------------------------------------------------




----------------------------------------- Iteration    1(  23)  ---------------------------------------


    POTLOK:  cpu time    0.0405: real time    0.0413
    SETDIJ:  cpu time    0.0053: real time    0.0054
    EDDIAG:  cpu time    1.2755: real time    1.2792
  RMM-DIIS:  cpu time    3.4410: real time    3.4493
[...]
    275       1.7496      0.00000
    276       1.8526      0.00000
    277       2.1841      0.00000
    278       2.2589      0.00000
    279       2.2932      0.00000
    280       2.3937      0.00000
    281       2.4592      0.00000
    282       2.6106      0.00000
    283       2.7138      0.00000
    284       2.9531      0.00000
    285       3.1288      0.00000
    286       3.2130      0.00000
    287       3.5472      0.00000
    288       3.6271      0.00000
    289       3.8337      0.00000
    290       4.0229      0.00000
    291       4.0790      0.00000
    292       4.2245      0.00000
    293       4.5030      0.00000
    294       4.5354      0.00000
    295       4.6219      0.00000
    296       4.6315      0.00000
    297       4.7204      0.00000
    298       4.8277      0.00000
    299       4.8841      0.00000
    300       4.9476      0.00000
    301       5.0017      0.00000
    302       5.0116      0.00000
    303       5.0594      0.00000
    304       5.0874      0.00000
    305       5.1811      0.00000
    306       5.2402      0.00000


--------------------------------------------------------------------------------------------------------


 soft charge-density along one line, spin component           1
         0         1         2         3         4         5         6         7         8         9
 total charge-density along one line
 
 pseudopotential strength for first ion, spin component:           1
 -8.060   0.002  -0.004  -0.002  -0.000  -8.206   0.002  -0.004
  0.002  -7.982   0.001   0.003  -0.001   0.002  -8.130   0.001
 -0.004   0.001  -7.981   0.001   0.005  -0.004   0.001  -8.129
 -0.002   0.003   0.001  -7.990   0.001  -0.002   0.003   0.001
 -0.000  -0.001   0.005   0.001  -8.061  -0.000  -0.001   0.004
 -8.206   0.002  -0.004  -0.002  -0.000  -8.336   0.002  -0.004
  0.002  -8.130   0.001   0.003  -0.001   0.002  -8.262   0.001
 -0.004   0.001  -8.129   0.001   0.004  -0.004   0.001  -8.261
 -0.002   0.003   0.001  -8.137   0.001  -0.002   0.003   0.001
 -0.000  -0.001   0.004   0.001  -8.207  -0.000  -0.001   0.004
 -0.002   0.000  -0.024  -0.001   0.003  -0.002   0.000  -0.024
 -0.003   0.000  -0.035  -0.001   0.004  -0.003   0.000  -0.035
  0.001  -0.002   0.002  -0.000   0.004   0.001  -0.002   0.002
 -0.000  -0.004  -0.004   0.000   0.000  -0.000  -0.004  -0.003
 -0.004  -0.000  -0.001  -0.002   0.000  -0.004  -0.000  -0.001
  0.001  -0.002   0.003  -0.000   0.005   0.001  -0.001   0.003
 -0.000  -0.005  -0.004   0.000  -0.000  -0.000  -0.005  -0.003
 -0.005  -0.000  -0.001  -0.002   0.000  -0.005  -0.000  -0.001
 total augmentation occupancy for first ion, spin component:           1
  4.252   0.004   0.074   0.046   0.086  -2.437   0.004  -0.080  -0.077  -0.086   0.122  -0.068  -0.053   0.001   0.003   0.003
  0.004   4.267  -0.003  -0.038   0.102   0.004  -1.991   0.012   0.041  -0.119   0.010  -0.017  -0.162   0.009  -0.004   0.006
  0.074  -0.003   4.512  -0.050  -0.221  -0.080   0.012  -2.406   0.048   0.223   0.978  -0.112  -0.025  -0.244   0.023   0.003
  0.046  -0.038  -0.050   4.125  -0.023  -0.076   0.041   0.048  -1.884   0.018   0.046  -0.030  -0.004   0.012  -0.137  -0.000
  0.086   0.102  -0.221  -0.023   4.653  -0.086  -0.120   0.223   0.018  -2.830  -0.186   0.087  -0.059   0.014   0.018   0.007
 -2.437   0.004  -0.080  -0.076  -0.086   2.507  -0.010   0.085   0.099   0.086  -0.106   0.062   0.044  -0.001   0.002  -0.002
  0.004  -1.991   0.012   0.041  -0.120  -0.010   1.688  -0.017  -0.044   0.133  -0.010   0.015   0.144  -0.005   0.003  -0.006
 -0.080   0.012  -2.406   0.048   0.223   0.085  -0.017   2.242  -0.046  -0.223  -0.921   0.135   0.022   0.247  -0.018  -0.001
 -0.077   0.041   0.048  -1.884   0.018   0.099  -0.044  -0.046   1.611  -0.015  -0.038   0.026   0.003  -0.010   0.125   0.000
 -0.086  -0.119   0.223   0.018  -2.830   0.086   0.133  -0.223  -0.015   2.888   0.168  -0.083   0.051  -0.012  -0.015  -0.003
  0.122   0.010   0.978   0.046  -0.186  -0.106  -0.010  -0.921  -0.038   0.168   2.449  -0.524  -0.011   0.113   0.005   0.000
 -0.068  -0.017  -0.112  -0.030   0.087   0.062   0.015   0.135   0.026  -0.083  -0.524   0.156   0.016  -0.057  -0.005  -0.000
 -0.053  -0.162  -0.025  -0.004  -0.059   0.044   0.144   0.022   0.003   0.051  -0.011   0.016   0.189   0.001  -0.002  -0.006
  0.001   0.009  -0.244   0.012   0.014  -0.001  -0.005   0.247  -0.010  -0.012   0.113  -0.057   0.001   0.098  -0.000   0.000
  0.003  -0.004   0.023  -0.137   0.018   0.002   0.003  -0.018   0.125  -0.015   0.005  -0.005  -0.002  -0.000   0.203   0.000
  0.003   0.006   0.003  -0.000   0.007  -0.002  -0.006  -0.001   0.000  -0.003   0.000  -0.000  -0.006   0.000   0.000   0.000
 -0.000  -0.006   0.004  -0.000  -0.000   0.000   0.002  -0.007   0.001   0.000  -0.007   0.003   0.000  -0.003   0.000  -0.000
 -0.005  -0.000  -0.002   0.006  -0.000   0.001   0.000   0.001  -0.006   0.001  -0.000   0.000   0.000   0.000  -0.007  -0.000


------------------------ aborting loop because EDIFF is reached ----------------------------------------


    CHARGE:  cpu time    0.2131: real time    0.2136
    FORLOC:  cpu time    0.0159: real time    0.0159
    FORNL :  cpu time    1.3093: real time    1.3124
    FORCOR:  cpu time    0.0555: real time    0.0556
    FORHAR:  cpu time    0.0241: real time    0.0241
    MIXING:  cpu time    0.0029: real time    0.0029
    OFIELD:  cpu time    0.0000: real time    0.0000

 VOLUME and BASIS-vectors are now :
 -----------------------------------------------------------------------------
  energy-cutoff  :      400.00
  volume of cell :     2567.68
      direct lattice vectors                 reciprocal lattice vectors
    11.002581515  0.000000000  0.000000000     0.090887761 -0.052474073  0.000000000
     5.501290758  9.528515099  0.000000000     0.000000000  0.104948147  0.000000000
     0.000000000  0.000000000 24.491785094     0.000000000  0.000000000  0.040830017

  length of vectors
    11.002581515 11.002581515 24.491785094     0.104948147  0.104948147  0.040830017


 FORCES acting on ions
    electron-ion (+dipol)            ewald-force                    non-local-force                 convergence-correction
 -----------------------------------------------------------------------------------------------
   0.367E+00 -.137E+02 0.221E+04   -.578E+00 0.145E+02 -.221E+04   0.159E+00 -.526E+00 0.189E+00   -.136E-02 -.238E-02 -.294E-02
   0.205E+01 0.223E+01 -.223E+04   -.164E+01 -.161E+01 0.223E+04   -.407E+00 -.637E+00 0.229E+00   -.119E-02 -.239E-02 0.128E-02
   0.979E+01 -.728E+00 -.233E+04   -.106E+02 0.126E+01 0.233E+04   0.785E+00 -.535E+00 -.218E+00   -.351E-03 -.107E-02 0.239E-02
   -.379E+01 0.196E+02 0.222E+04   0.392E+01 -.208E+02 -.222E+04   -.953E-01 0.839E+00 -.204E+00   -.365E-02 -.543E-02 -.870E-03
   -.299E+00 -.105E+01 -.402E+02   0.899E+00 0.471E+00 0.396E+02   -.610E+00 0.585E+00 0.599E+00   0.208E-02 -.811E-02 -.386E-02
   -.320E+01 0.175E+02 -.226E+04   0.326E+01 -.187E+02 0.226E+04   -.740E-01 0.117E+01 0.249E+00   0.948E-04 -.509E-02 -.285E-02
   0.484E+01 0.135E+01 0.220E+04   -.497E+01 -.146E+01 -.220E+04   0.100E+00 0.809E-01 -.369E+00   -.121E-02 -.500E-03 -.305E-02
   -.704E+01 0.433E+01 -.322E+02   0.744E+01 -.330E+01 0.329E+02   -.394E+00 -.103E+01 -.710E+00   -.849E-03 -.554E-03 -.110E-01
   -.151E+01 0.797E+01 -.223E+04   0.171E+01 -.777E+01 0.223E+04   -.195E+00 -.201E+00 0.432E+00   0.145E-02 -.137E-03 0.115E-02
   0.945E+01 -.107E+02 0.221E+04   -.941E+01 0.114E+02 -.221E+04   -.118E+00 -.520E+00 0.127E+00   0.158E-02 0.527E-02 -.216E-02
   0.108E+02 0.234E+01 -.214E+02   -.112E+02 -.194E+01 0.214E+02   0.385E+00 -.394E+00 -.169E-01   0.446E-04 0.898E-02 -.725E-02
   -.635E+01 0.613E+01 0.502E+02   0.651E+01 -.557E+01 -.512E+02   -.162E+00 -.555E+00 0.102E+01   -.370E-02 0.320E-03 -.323E-02
   -.555E+01 -.813E+01 -.231E+04   0.545E+01 0.854E+01 0.231E+04   0.102E+00 -.426E+00 -.546E-01   -.608E-03 0.157E-02 -.316E-02
   -.744E+01 0.966E+00 -.288E+02   0.669E+01 -.167E+01 0.295E+02   0.751E+00 0.717E+00 -.616E+00   0.319E-02 -.553E-02 -.154E-01
   -.132E+02 -.163E+01 0.221E+04   0.136E+02 0.178E+01 -.221E+04   -.217E+00 -.843E-01 -.342E-01   0.198E-02 -.153E-02 -.255E-02
   -.725E-01 -.646E+01 -.225E+04   0.336E+00 0.650E+01 0.225E+04   -.274E+00 -.314E-01 0.253E+00   0.187E-02 0.235E-02 -.519E-02
   0.945E+01 0.191E+02 0.221E+04   -.995E+01 -.196E+02 -.221E+04   0.336E+00 0.285E+00 -.609E-01   0.425E-02 -.257E-02 -.288E-02
   0.769E+01 0.129E+02 0.220E+04   -.774E+01 -.137E+02 -.220E+04   -.267E-01 0.552E+00 -.213E+00   0.596E-03 0.138E-02 -.412E-02
   0.128E+02 0.431E+01 -.741E+02   -.122E+02 -.465E+01 0.746E+02   -.590E+00 0.344E+00 -.555E+00   -.146E-02 -.577E-04 -.103E-01
   -.604E+01 0.722E+01 -.227E+04   0.665E+01 -.760E+01 0.227E+04   -.613E+00 0.379E+00 0.216E+00   -.335E-02 -.295E-02 -.186E-02
   -.124E+02 -.215E+02 0.222E+04   0.126E+02 0.222E+02 -.222E+04   -.364E-01 -.348E+00 -.275E+00   -.633E-03 0.540E-02 -.203E-02
   0.684E+01 -.230E+01 0.221E+04   -.685E+01 0.261E+01 -.222E+04   -.206E-01 -.230E+00 -.688E-01   0.487E-02 0.242E-02 0.229E-03
   0.119E+02 -.237E+01 -.226E+04   -.125E+02 0.174E+01 0.226E+04   0.564E+00 0.620E+00 -.593E-01   -.165E-02 0.343E-02 0.695E-02
   -.114E+02 -.757E+01 0.137E+02   0.109E+02 0.760E+01 -.137E+02   0.486E+00 -.407E-01 0.341E-01   -.617E-02 0.472E-02 -.351E-02
   0.369E+01 0.116E+02 -.193E+04   -.399E+01 -.117E+02 0.193E+04   0.309E+00 0.120E+00 0.151E+01   -.318E-02 -.574E-03 -.375E-02
   0.471E-01 -.370E+01 -.812E+01   0.977E-01 0.335E+01 0.820E+01   -.138E+00 0.345E+00 -.717E-01   -.264E-02 -.487E-02 -.866E-02
   0.114E+01 0.173E+02 0.202E+04   -.993E+00 -.175E+02 -.202E+04   -.973E-01 -.218E-01 -.175E+01   -.217E-02 -.293E-02 -.301E-02
   0.104E+01 -.148E+01 -.197E+04   -.132E+01 0.128E+01 0.197E+04   0.288E+00 0.199E+00 0.168E+01   -.235E-02 0.579E-02 -.922E-02
   -.254E+00 -.340E+01 0.162E+02   0.504E+00 0.310E+01 -.162E+02   -.265E+00 0.293E+00 -.525E-01   0.263E-02 -.196E-02 -.774E-02
   -.108E+02 -.198E+01 0.203E+04   0.109E+02 0.201E+01 -.203E+04   0.332E-02 -.118E-01 -.160E+01   -.371E-02 0.232E-03 -.151E-02
   -.334E+01 -.288E+00 -.189E+02   0.308E+01 0.675E+00 0.189E+02   0.245E+00 -.378E+00 0.339E-01   -.188E-03 -.930E-04 -.996E-02
   -.126E+02 -.490E+01 -.197E+04   0.130E+02 0.506E+01 0.197E+04   -.393E+00 -.166E+00 0.174E+01   0.572E-02 0.707E-02 -.137E-01
   0.140E+01 -.350E+01 0.118E+02   -.120E+01 0.403E+01 -.110E+02   -.193E+00 -.556E+00 -.830E+00   0.269E-02 0.103E-01 -.799E-02
   -.766E+00 -.431E+01 0.295E+02   0.474E+00 0.404E+01 -.295E+02   0.296E+00 0.269E+00 0.228E-01   -.267E-02 -.409E-02 -.528E-02
   -.115E+01 -.693E+01 0.237E+02   0.155E+01 0.669E+01 -.246E+02   -.408E+00 0.223E+00 0.903E+00   0.440E-02 0.212E-02 -.211E-02
   0.856E+01 -.714E+01 -.200E+04   -.899E+01 0.706E+01 0.200E+04   0.432E+00 0.809E-01 0.157E+01   0.213E-02 0.130E-02 -.496E-02
   0.678E+01 0.673E+01 -.135E+02   -.678E+01 -.669E+01 0.135E+02   0.454E-02 -.356E-01 -.427E-01   -.137E-02 -.343E-02 -.506E-02
   -.125E+02 -.112E+02 -.200E+04   0.131E+02 0.116E+02 0.200E+04   -.575E+00 -.318E+00 0.191E+01   0.182E-02 0.348E-02 -.562E-02
   -.822E+00 -.503E+01 -.198E+04   0.802E+00 0.530E+01 0.198E+04   0.173E-01 -.277E+00 0.181E+01   0.435E-02 -.153E-03 -.125E-01
   0.217E+02 -.105E+02 0.202E+04   -.222E+02 0.106E+02 -.201E+04   0.286E+00 -.208E-01 -.166E+01   0.101E-03 0.171E-02 -.307E-02
   -.314E+01 0.449E+01 -.197E+04   0.306E+01 -.472E+01 0.197E+04   0.828E-01 0.230E+00 0.166E+01   0.443E-02 0.161E-02 -.962E-02
   0.670E+01 0.755E+01 -.853E+01   -.665E+01 -.756E+01 0.861E+01   -.425E-01 0.152E-01 -.732E-01   0.508E-02 -.415E-02 -.630E-02
   -.641E+01 0.127E+02 0.202E+04   0.651E+01 -.132E+02 -.202E+04   -.363E-01 0.348E+00 -.149E+01   0.165E-02 -.458E-02 -.146E-03
   -.563E+01 -.117E+02 0.202E+04   0.576E+01 0.119E+02 -.202E+04   -.496E-01 -.171E+00 -.198E+01   -.409E-03 0.252E-02 0.103E-02
   -.184E+02 -.225E+02 0.202E+04   0.188E+02 0.229E+02 -.202E+04   -.211E+00 -.311E+00 -.146E+01   -.940E-03 0.151E-02 -.341E-02
   0.117E+00 0.143E+01 -.209E+02   -.509E+00 -.143E+01 0.223E+02   0.381E+00 0.180E-04 -.132E+01   0.249E-02 0.496E-02 -.107E-01
   0.103E+02 0.132E+02 0.203E+04   -.105E+02 -.135E+02 -.202E+04   0.278E-01 0.185E+00 -.198E+01   -.323E-03 -.327E-03 -.306E-02
   0.683E+01 -.633E+01 -.196E+04   -.690E+01 0.643E+01 0.196E+04   0.649E-01 -.106E+00 0.148E+01   -.795E-03 0.915E-03 -.758E-02
 -----------------------------------------------------------------------------------------------
   0.115E+00 0.172E-01 0.262E+00   0.147E-12 -.616E-12 -.682E-12   -.136E+00 -.460E-01 -.962E-01   0.126E-01 0.139E-01 -.220E+00
 
 
 POSITION                                       TOTAL-FORCE (eV/Angst)
 -----------------------------------------------------------------------------------
     12.37790      5.55830     10.00000        -0.052992      0.280219     -0.195494
      6.88272      2.38671     14.93811         0.000200     -0.010126     -0.003360
     10.97096      4.77133     15.06644        -0.005321     -0.007675      0.000898
      2.75065      3.17617     10.00000         0.037563     -0.389764     -0.161469
     12.39003      3.95571     12.47819        -0.007575     -0.002956     -0.000995
      1.37240      2.33818     14.95389        -0.007222     -0.002618     -0.003465
      4.12597      5.55830     10.00000        -0.032844     -0.027067     -0.054276
     11.01290      6.37627     12.48155         0.003461      0.002854      0.002716
      2.74804      4.75861     14.95422         0.000060     -0.005489     -0.004129
      5.50129      7.94043     10.00000        -0.076641      0.213484     -0.242001
     15.10854      8.74423     12.46616        -0.000179      0.011772      0.014020
      5.50709      1.60631     12.37712        -0.003732      0.010298      0.006703
      4.13183      7.15651     15.04582        -0.004405     -0.010924      0.007424
      9.61592      3.95011     12.47646        -0.004114      0.002523      0.005129
      9.62726      5.55830     10.00000         0.176639      0.060072     -0.213798
      8.24983     -0.00067     14.96943        -0.007988      0.003899      0.002134
      8.25194      3.17617     10.00000        -0.158736     -0.231819     -0.141284
      6.87661      5.55830     10.00000        -0.069724     -0.233640     -0.125300
      5.51107      6.34435     12.52799         0.016554      0.003210      0.005225
      5.51791      4.75478     14.98690        -0.010355     -0.003295      0.006435
      8.25194      7.94043     10.00000         0.136397      0.334265     -0.227040
      9.62726      0.79404     10.00000        -0.024712      0.083558     -0.182227
      5.46900     -0.02517     14.97531         0.002110     -0.000306     -0.014724
      9.61942      8.75144     12.42568        -0.012822     -0.004660      0.008375
      4.11520      2.35784     14.77824         0.008011     -0.002846     -0.009714
      4.13137      3.96748     12.44977         0.004228     -0.003652      0.004716
      5.50129      3.17617     10.00000         0.043355     -0.160162      0.200281
      2.73218     -0.02029     14.79211         0.001315      0.001607     -0.006795
     11.01860      1.57589     12.42602        -0.012124     -0.003078      0.002188
      4.12597      0.79404     10.00000         0.097236      0.016037      0.121967
     13.76085      6.36554     12.46495        -0.009932      0.008508      0.007333
      0.00780     -0.00776     14.80529        -0.003417     -0.000056      0.009592
      6.87441      8.75377     12.42970         0.004164     -0.013900      0.007190
      2.72769      1.58252     12.40419         0.001777     -0.001944      0.003512
     12.38712      8.74673     12.41411         0.000367     -0.012954     -0.009109
      9.60263      7.13954     14.83950        -0.000864     -0.003663      0.008616
      6.86872      3.96903     12.46132         0.000058      0.000788      0.001221
      6.90371      7.16574     14.84055        -0.005801     -0.002387      0.000619
      8.24977      4.77374     14.82739         0.001941     -0.005667      0.017589
     13.75323      7.94043     10.00000        -0.221242      0.104810      0.296185
      9.62880      2.36842     14.81644         0.004711     -0.001531      0.002298
      8.24169      1.58606     12.45458         0.011106      0.000941      0.001013
     11.00258      3.17617     10.00000         0.069359     -0.141119      0.249782
      1.37532      0.79404     10.00000         0.085633      0.111901      0.194239
     11.00258      7.94043     10.00000         0.210337      0.172262      0.191711
      8.24190      6.35741     12.47197        -0.008400      0.002691     -0.000954
      6.87661      0.79404     10.00000        -0.171259     -0.135122      0.214744
     12.36755      7.14828     14.83574        -0.004179     -0.007278      0.002277
 -----------------------------------------------------------------------------------
    total drift:                               -0.008081     -0.014883     -0.054180


--------------------------------------------------------------------------------------------------------



  FREE ENERGIE OF THE ION-ELECTRON SYSTEM (eV)
  ---------------------------------------------------
  free  energy   TOTEN  =      -192.46002595 eV

  energy  without entropy=     -192.22128151  energy(sigma->0) =     -192.34065373
 
 d Force = 0.7963041E-03[ 0.321E-03, 0.127E-02]  d Energy = 0.7796432E-03 0.167E-04
 d Force = 0.3379606E+02[ 0.338E+02, 0.338E+02]  d Ewald  = 0.3379606E+02-0.292E-05


--------------------------------------------------------------------------------------------------------


    POTLOK:  cpu time    0.0467: real time    0.0468


--------------------------------------------------------------------------------------------------------


 stress matrix after NEB project (eV)
      0.00000      0.00000      0.00000
      0.00000      0.00000      0.00000
      0.00000      0.00000      0.00000
  FORCES: max atom, RMS     0.018581    0.009430
  FORCE total and by dimension    0.065332    0.017589
  Stress total and by dimension    0.000000    0.000000
 Conjugate gradient step on ions:
 trial-energy change:   -0.000780  1 .order   -0.000796   -0.001272   -0.000321
  (g-gl).g = 0.452E-03      g.g   = 0.476E-03  gl.gl    = 0.860E-03
 g(Force)  = 0.476E-03   g(Stress)= 0.000E+00 ortho     = 0.109E-04
 gamma     =   0.52630
 trial     =   2.63776
 opt step  =   3.68039  (harmonic =   3.52748) maximal distance =0.00716481
 next E    =  -192.460088   (d E  =  -0.00084)


--------------------------------------------------------------------------------------------------------


  
 reached required accuracy - stopping structural energy minimisation
     LOOP+:  cpu time   58.4816: real time   58.7438
    4ORBIT:  cpu time    0.0000: real time    0.0000

 total amount of memory used by VASP on root node    84353. kBytes
========================================================================

   base      :      30000. kBytes
   nonlr-proj:       4285. kBytes
   fftplans  :       4447. kBytes
   grid      :       6721. kBytes
   one-center:        124. kBytes
   wavefun   :      38776. kBytes
 
  
  
 General timing and accounting informations for this job:
 ========================================================
  
                  Total CPU time used (sec):     1473.044
                            User time (sec):     1407.783
                          System time (sec):       65.261
                         Elapsed time (sec):     1481.531
  
                   Maximum memory used (kb):      807760.
                   Average memory used (kb):           0.
  
                          Minor page faults:       683176
                          Major page faults:            0
                 Voluntary context switches:         8889
