<?xml version="1.0" encoding="ISO-8859-1"?>
<modeling>
 <generator>
  <i name="program" type="string">vasp </i>
  <i name="version" type="string">5.4.1  </i>
  <i name="subversion" type="string">24Jun15 (build Mar 14 2019 10:18:33) complex                          parallel </i>
  <i name="platform" type="string">INTEL-19.0.2+OPENMPI-3.1.3 </i>
  <i name="date" type="string">2023 01 30 </i>
  <i name="time" type="string">16:50:20 </i>
 </generator>
 <incar>
  <i type="int" name="ISTART">     0</i>
  <i type="string" name="PREC">normal</i>
  <i type="string" name="ALGO"> Fast</i>
  <i type="int" name="NELM">   500</i>
  <i type="int" name="IBRION">     2</i>
  <i type="int" name="NFREE">     2</i>
  <i name="EDIFF">      0.00000100</i>
  <i name="EDIFFG">     -0.02000000</i>
  <i type="int" name="NSW">   500</i>
  <i type="int" name="ISIF">     0</i>
  <i type="int" name="ISYM">     2</i>
  <i name="ENCUT">    400.00000000</i>
  <i name="POTIM">      0.35000000</i>
  <i type="string" name="LREAL"> Auto</i>
  <i type="logical" name="LPLANE"> T  </i>
  <i type="int" name="ISMEAR">     0</i>
  <i name="SIGMA">      0.10000000</i>
  <i type="int" name="NWRITE">     1</i>
  <i type="logical" name="LWAVE"> F  </i>
  <i type="logical" name="LCHARG"> F  </i>
  <i type="logical" name="LVTOT"> F  </i>
  <i type="logical" name="LORBIT"> F  </i>
  <i type="logical" name="LAECHG"> F  </i>
  <v type="int" name="KPOINT_BSE">    -1     0     0     0</v>
  <i type="int" name="NELM">   500</i>
  <i type="string" name="GGA"> PE          ! optPBE-vdW XC-functional</i>
  <i type="int" name="VOSKOWN">     1</i>
  <i type="logical" name="LDIPOL"> T  </i>
  <i type="logical" name="LMONO"> F  </i>
  <i type="int" name="IDIPOL">     3</i>
  <v name="DIPOL">      0.00000000      0.00000000      0.50000000</v>
 </incar>
 <kpoints>
  <generation param="Monkhorst-Pack">
   <v type="int" name="divisions">       2        2        1 </v>
   <v name="usershift">      0.00000000       0.00000000       0.00000000 </v>
   <v name="genvec1">      0.50000000      -0.00000000       0.00000000 </v>
   <v name="genvec2">      0.00000000       0.50000000       0.00000000 </v>
   <v name="genvec3">      0.00000000       0.00000000       1.00000000 </v>
   <v name="shift">      0.50000000       0.50000000       0.00000000 </v>
  </generation>
  <varray name="kpointlist" >
   <v>       0.25000000       0.25000000       0.00000000 </v>
   <v>       0.00000000       0.25000000       0.00000000 </v>
   <v>      -0.25000000       0.00000000       0.00000000 </v>
   <v>      -0.25000000       0.25000000       0.00000000 </v>
   <v>       0.50000000      -0.25000000       0.00000000 </v>
   <v>      -0.25000000       0.50000000       0.00000000 </v>
  </varray>
  <varray name="weights" >
   <v>       0.16666667 </v>
   <v>       0.16666667 </v>
   <v>       0.16666667 </v>
   <v>       0.16666667 </v>
   <v>       0.16666667 </v>
   <v>       0.16666667 </v>
  </varray>
 </kpoints>
 <parameters>
  <separator name="general" >
   <i type="string" name="SYSTEM">unknown system</i>
   <i type="logical" name="LCOMPAT"> F  </i>
  </separator>
  <separator name="electronic" >
   <i type="string" name="PREC">normal</i>
   <i name="ENMAX">    400.00000000</i>
   <i name="ENAUG">    416.23000000</i>
   <i name="EDIFF">      0.00000100</i>
   <i type="int" name="IALGO">    68</i>
   <i type="int" name="IWAVPR">    11</i>
   <i type="int" name="NBANDS">   306</i>
   <i name="NELECT">    504.00000000</i>
   <i type="int" name="TURBO">     0</i>
   <i type="int" name="IRESTART">     0</i>
   <i type="int" name="NREBOOT">     0</i>
   <i type="int" name="NMIN">     0</i>
   <i name="EREF">      0.00000000</i>
   <separator name="electronic smearing" >
    <i type="int" name="ISMEAR">     0</i>
    <i name="SIGMA">      0.10000000</i>
    <i name="KSPACING">      0.50000000</i>
    <i type="logical" name="KGAMMA"> T  </i>
   </separator>
   <separator name="electronic projectors" >
    <i type="logical" name="LREAL"> T  </i>
    <v name="ROPT">     -0.00050000     -0.00050000</v>
    <i type="int" name="LMAXPAW">  -100</i>
    <i type="int" name="LMAXMIX">     2</i>
    <i type="logical" name="NLSPLINE"> F  </i>
   </separator>
   <separator name="electronic startup" >
    <i type="int" name="ISTART">     0</i>
    <i type="int" name="ICHARG">     2</i>
    <i type="int" name="INIWAV">     1</i>
   </separator>
   <separator name="electronic spin" >
    <i type="int" name="ISPIN">     1</i>
    <i type="logical" name="LNONCOLLINEAR"> F  </i>
    <v name="MAGMOM">      1.00000000      1.00000000      1.00000000      1.00000000      1.00000000      1.00000000      1.00000000      1.00000000      1.00000000      1.00000000      1.00000000      1.00000000      1.00000000      1.00000000      1.00000000      1.00000000      1.00000000      1.00000000      1.00000000      1.00000000
      1.00000000      1.00000000      1.00000000      1.00000000      1.00000000      1.00000000      1.00000000      1.00000000      1.00000000      1.00000000      1.00000000      1.00000000      1.00000000      1.00000000      1.00000000      1.00000000      1.00000000      1.00000000      1.00000000      1.00000000
      1.00000000      1.00000000      1.00000000      1.00000000      1.00000000      1.00000000      1.00000000      1.00000000</v>
    <i name="NUPDOWN">     -1.00000000</i>
    <i type="logical" name="LSORBIT"> F  </i>
    <v name="SAXIS">      0.00000000      0.00000000      1.00000000</v>
    <i type="logical" name="LSPIRAL"> F  </i>
    <v name="QSPIRAL">      0.00000000      0.00000000      0.00000000</v>
    <i type="logical" name="LZEROZ"> F  </i>
   </separator>
   <separator name="electronic exchange-correlation" >
    <i type="logical" name="LASPH"> F  </i>
    <i type="logical" name="LMETAGGA"> F  </i>
   </separator>
   <separator name="electronic convergence" >
    <i type="int" name="NELM">   500</i>
    <i type="int" name="NELMDL">    -5</i>
    <i type="int" name="NELMIN">     2</i>
    <i name="ENINI">    400.00000000</i>
    <separator name="electronic convergence detail" >
     <i type="logical" name="LDIAG"> T  </i>
     <i type="logical" name="LSUBROT"> F  </i>
     <i name="WEIMIN">      0.00100000</i>
     <i name="EBREAK">      0.00000000</i>
     <i name="DEPER">      0.30000000</i>
     <i type="int" name="NRMM">     4</i>
     <i name="TIME">      0.40000000</i>
    </separator>
   </separator>
   <separator name="electronic mixer" >
    <i name="AMIX">      0.40000000</i>
    <i name="BMIX">      1.00000000</i>
    <i name="AMIN">      0.10000000</i>
    <i name="AMIX_MAG">      1.60000000</i>
    <i name="BMIX_MAG">      1.00000000</i>
    <separator name="electronic mixer details" >
     <i type="int" name="IMIX">     4</i>
     <i type="logical" name="MIXFIRST"> F  </i>
     <i type="int" name="MAXMIX">   -45</i>
     <i name="WC">    100.00000000</i>
     <i type="int" name="INIMIX">     1</i>
     <i type="int" name="MIXPRE">     1</i>
     <i type="int" name="MREMOVE">     5</i>
    </separator>
   </separator>
   <separator name="electronic dipolcorrection" >
    <i type="logical" name="LDIPOL"> T  </i>
    <i type="logical" name="LMONO"> F  </i>
    <i type="int" name="IDIPOL">     3</i>
    <i name="EPSILON">      1.00000000</i>
    <v name="DIPOL">      0.00000000      0.00000000      0.50000000</v>
    <i name="EFIELD">      0.00000000</i>
   </separator>
  </separator>
  <separator name="grids" >
   <i type="int" name="NGX">    54</i>
   <i type="int" name="NGY">    54</i>
   <i type="int" name="NGZ">   120</i>
   <i type="int" name="NGXF">   108</i>
   <i type="int" name="NGYF">   108</i>
   <i type="int" name="NGZF">   240</i>
   <i type="logical" name="ADDGRID"> F  </i>
  </separator>
  <separator name="ionic" >
   <i type="int" name="NSW">   500</i>
   <i type="int" name="IBRION">     2</i>
   <i type="int" name="ISIF">     0</i>
   <i name="PSTRESS">      0.00000000</i>
   <i name="EDIFFG">     -0.02000000</i>
   <i type="int" name="NFREE">     2</i>
   <i name="POTIM">      0.35000000</i>
   <i name="SMASS">     -3.00000000</i>
   <i name="SCALEE">      1.00000000</i>
  </separator>
  <separator name="ionic md" >
   <i name="TEBEG">      0.00010000</i>
   <i name="TEEND">      0.00010000</i>
   <i type="int" name="NBLOCK">     1</i>
   <i type="int" name="KBLOCK">   500</i>
   <i type="int" name="NPACO">   256</i>
   <i name="APACO">     16.00000000</i>
  </separator>
  <separator name="symmetry" >
   <i type="int" name="ISYM">     2</i>
   <i name="SYMPREC">      0.00001000</i>
  </separator>
  <separator name="dos" >
   <i type="logical" name="LORBIT"> F  </i>
   <v name="RWIGS">     -1.00000000     -1.00000000</v>
   <i type="int" name="NEDOS">   301</i>
   <i name="EMIN">     10.00000000</i>
   <i name="EMAX">    -10.00000000</i>
   <i name="EFERMI">      0.00000000</i>
  </separator>
  <separator name="writing" >
   <i type="int" name="NWRITE">     1</i>
   <i type="logical" name="LWAVE"> F  </i>
   <i type="logical" name="LCHARG"> F  </i>
   <i type="logical" name="LPARD"> F  </i>
   <i type="logical" name="LVTOT"> F  </i>
   <i type="logical" name="LVHAR"> F  </i>
   <i type="logical" name="LELF"> F  </i>
   <i type="logical" name="LOPTICS"> F  </i>
   <v name="STM">      0.00000000      0.00000000      0.00000000      0.00000000      0.00000000      0.00000000      0.00000000</v>
  </separator>
  <separator name="performance" >
   <i type="int" name="NPAR">     6</i>
   <i type="int" name="NSIM">     4</i>
   <i type="int" name="NBLK">    -1</i>
   <i type="logical" name="LPLANE"> T  </i>
   <i type="logical" name="LSCALAPACK"> T  </i>
   <i type="logical" name="LSCAAWARE"> F  </i>
   <i type="logical" name="LSCALU"> F  </i>
   <i type="logical" name="LASYNC"> F  </i>
   <i type="logical" name="LORBITALREAL"> F  </i>
  </separator>
  <separator name="miscellaneous" >
   <i type="int" name="IDIOT">     3</i>
   <i type="logical" name="LMUSIC"> F  </i>
   <v name="POMASS">    196.96600000    106.42000000</v>
   <v name="DARWINR">      0.00000000      0.00000000</v>
   <v name="DARWINV">      1.00000000      1.00000000</v>
   <i type="logical" name="LCORR"> T  </i>
  </separator>
  <i type="logical" name="GGA_COMPAT"> T  </i>
  <i type="logical" name="LBERRY"> F  </i>
  <i type="int" name="ICORELEVEL">     0</i>
  <i type="logical" name="LDAU"> F  </i>
  <i type="int" name="I_CONSTRAINED_M">     0</i>
  <separator name="electronic exchange-correlation" >
   <i type="string" name="GGA">PE</i>
   <i type="int" name="VOSKOWN">     1</i>
   <i type="logical" name="LHFCALC"> F  </i>
   <i type="string" name="PRECFOCK"></i>
   <i type="logical" name="LSYMGRAD"> F  </i>
   <i type="logical" name="LHFONE"> F  </i>
   <i type="logical" name="LRHFCALC"> F  </i>
   <i type="logical" name="LTHOMAS"> F  </i>
   <i type="logical" name="LMODELHF"> F  </i>
   <i name="ENCUT4O">     -1.00000000</i>
   <i type="int" name="EXXOEP">     0</i>
   <i type="int" name="FOURORBIT">     0</i>
   <i name="AEXX">      0.00000000</i>
   <i name="HFALPHA">      0.00000000</i>
   <i name="MCALPHA">      0.00000000</i>
   <i name="ALDAX">      1.00000000</i>
   <i name="AGGAX">      1.00000000</i>
   <i name="ALDAC">      1.00000000</i>
   <i name="AGGAC">      1.00000000</i>
   <i type="int" name="NKREDX">     1</i>
   <i type="int" name="NKREDY">     1</i>
   <i type="int" name="NKREDZ">     1</i>
   <i type="logical" name="SHIFTRED"> F  </i>
   <i type="logical" name="ODDONLY"> F  </i>
   <i type="logical" name="EVENONLY"> F  </i>
   <i type="int" name="LMAXFOCK">     0</i>
   <i type="int" name="NMAXFOCKAE">     0</i>
   <i type="logical" name="LFOCKAEDFT"> F  </i>
   <i name="HFSCREEN">      0.00000000</i>
   <i name="HFSCREENC">      0.00000000</i>
   <i type="int" name="NBANDSGWLOW">     0</i>
  </separator>
  <separator name="vdW DFT" >
   <i type="logical" name="LUSE_VDW"> F  </i>
   <i name="Zab_VDW">     -0.84910000</i>
   <i name="PARAM1">      0.12340000</i>
   <i name="PARAM2">      1.00000000</i>
   <i name="PARAM3">      0.00000000</i>
  </separator>
  <separator name="model GW" >
   <i type="int" name="MODEL_GW">     0</i>
   <i name="MODEL_EPS0">     32.09595293</i>
   <i name="MODEL_ALPHA">      1.00000000</i>
  </separator>
  <separator name="linear response parameters" >
   <i type="logical" name="LEPSILON"> F  </i>
   <i type="logical" name="LRPA"> F  </i>
   <i type="logical" name="LNABLA"> F  </i>
   <i type="logical" name="LVEL"> F  </i>
   <i type="int" name="KINTER">     0</i>
   <i name="CSHIFT">      0.10000000</i>
   <i name="OMEGAMAX">     -1.00000000</i>
   <i name="DEG_THRESHOLD">      0.00200000</i>
  </separator>
  <separator name="orbital magnetization" >
   <i type="logical" name="NUCIND"> F  </i>
   <v name="MAGPOS">      0.00000000      0.00000000      0.00000000</v>
   <i type="logical" name="LNICSALL"> T  </i>
   <i type="logical" name="ORBITALMAG"> F  </i>
   <i type="logical" name="LMAGBLOCH"> F  </i>
   <i type="logical" name="LCHIMAG"> F  </i>
   <i type="logical" name="LGAUGE"> T  </i>
   <i type="int" name="MAGATOM">     0</i>
   <v name="MAGDIPOL">      0.00000000      0.00000000      0.00000000</v>
   <v name="AVECCONST">      0.00000000      0.00000000      0.00000000</v>
  </separator>
  <separator name="response functions" >
   <i type="logical" name="LADDER"> F  </i>
   <i type="logical" name="LFXC"> F  </i>
   <i type="logical" name="LHARTREE"> T  </i>
   <i type="int" name="IBSE">     0</i>
   <v type="int" name="KPOINT">    -1     0     0     0</v>
   <i type="logical" name="LTCTE"> F  </i>
   <i type="logical" name="LTETE"> F  </i>
   <i type="logical" name="LTRIPLET"> F  </i>
   <i type="logical" name="LFXCEPS"> F  </i>
   <i type="logical" name="LFXHEG"> F  </i>
   <i type="int" name="NATURALO">     0</i>
   <i type="logical" name="L2ORDER"> F  </i>
   <i type="logical" name="LUSEW"> F  </i>
   <i name="ENCUTGW">     -2.00000000</i>
   <i name="ENCUTGWSOFT">     -2.00000000</i>
   <i name="ENCUTLF">     -1.00000000</i>
   <i type="int" name="LMAXMP2">    -1</i>
   <i name="SCISSOR">      0.00000000</i>
   <i type="int" name="NOMEGA">     0</i>
   <i type="int" name="NOMEGAR">     0</i>
   <i type="int" name="NBANDSGW">    -1</i>
   <i type="int" name="NBANDSO">    -1</i>
   <i type="int" name="NBANDSV">    -1</i>
   <i type="int" name="NELM">   500</i>
   <i type="int" name="NELMHF">     1</i>
   <i type="int" name="DIM">     3</i>
   <i type="int" name="ANTIRES">     0</i>
   <i name="OMEGAMAX">    -30.00000000</i>
   <i name="OMEGAMIN">    -30.00000000</i>
   <i name="OMEGATL">   -200.00000000</i>
   <i type="int" name="OMEGAGRID">     0</i>
   <i name="CSHIFT">     -0.10000000</i>
   <i type="logical" name="SELFENERGY"> F  </i>
   <i type="logical" name="LSPECTRAL"> F  </i>
   <i type="logical" name="LSPECTRALGW"> F  </i>
   <i type="logical" name="LSINGLES"> F  </i>
   <i type="logical" name="LFERMIGW"> F  </i>
   <i type="logical" name="ODDONLYGW"> F  </i>
   <i type="logical" name="EVENONLYGW"> F  </i>
   <i type="int" name="NKREDLFX">     1</i>
   <i type="int" name="NKREDLFY">     1</i>
   <i type="int" name="NKREDLFZ">     1</i>
   <i type="int" name="MAXMEM">  1800</i>
   <i type="int" name="TELESCOPE">     0</i>
   <i type="int" name="TAUPAR">     1</i>
   <i type="int" name="OMEGAPAR">    -1</i>
   <i name="LAMBDA">      1.00000000</i>
  </separator>
  <separator name="External order field" >
   <i name="OFIELD_KAPPA">      0.00000000</i>
   <v name="OFIELD_K">      0.00000000      0.00000000      0.00000000</v>
   <i name="OFIELD_Q6_NEAR">      0.00000000</i>
   <i name="OFIELD_Q6_FAR">      0.00000000</i>
   <i name="OFIELD_A">      0.00000000</i>
  </separator>
 </parameters>
 <atominfo>
  <atoms>      48 </atoms>
  <types>       2 </types>
  <array name="atoms" >
   <dimension dim="1">ion</dimension>
   <field type="string">element</field>
   <field type="int">atomtype</field>
   <set>
    <rc><c>Au</c><c>   1</c></rc>
    <rc><c>Au</c><c>   1</c></rc>
    <rc><c>Au</c><c>   1</c></rc>
    <rc><c>Au</c><c>   1</c></rc>
    <rc><c>Au</c><c>   1</c></rc>
    <rc><c>Au</c><c>   1</c></rc>
    <rc><c>Au</c><c>   1</c></rc>
    <rc><c>Au</c><c>   1</c></rc>
    <rc><c>Au</c><c>   1</c></rc>
    <rc><c>Au</c><c>   1</c></rc>
    <rc><c>Au</c><c>   1</c></rc>
    <rc><c>Au</c><c>   1</c></rc>
    <rc><c>Au</c><c>   1</c></rc>
    <rc><c>Au</c><c>   1</c></rc>
    <rc><c>Au</c><c>   1</c></rc>
    <rc><c>Au</c><c>   1</c></rc>
    <rc><c>Au</c><c>   1</c></rc>
    <rc><c>Au</c><c>   1</c></rc>
    <rc><c>Au</c><c>   1</c></rc>
    <rc><c>Au</c><c>   1</c></rc>
    <rc><c>Au</c><c>   1</c></rc>
    <rc><c>Au</c><c>   1</c></rc>
    <rc><c>Au</c><c>   1</c></rc>
    <rc><c>Au</c><c>   1</c></rc>
    <rc><c>Pd</c><c>   2</c></rc>
    <rc><c>Pd</c><c>   2</c></rc>
    <rc><c>Pd</c><c>   2</c></rc>
    <rc><c>Pd</c><c>   2</c></rc>
    <rc><c>Pd</c><c>   2</c></rc>
    <rc><c>Pd</c><c>   2</c></rc>
    <rc><c>Pd</c><c>   2</c></rc>
    <rc><c>Pd</c><c>   2</c></rc>
    <rc><c>Pd</c><c>   2</c></rc>
    <rc><c>Pd</c><c>   2</c></rc>
    <rc><c>Pd</c><c>   2</c></rc>
    <rc><c>Pd</c><c>   2</c></rc>
    <rc><c>Pd</c><c>   2</c></rc>
    <rc><c>Pd</c><c>   2</c></rc>
    <rc><c>Pd</c><c>   2</c></rc>
    <rc><c>Pd</c><c>   2</c></rc>
    <rc><c>Pd</c><c>   2</c></rc>
    <rc><c>Pd</c><c>   2</c></rc>
    <rc><c>Pd</c><c>   2</c></rc>
    <rc><c>Pd</c><c>   2</c></rc>
    <rc><c>Pd</c><c>   2</c></rc>
    <rc><c>Pd</c><c>   2</c></rc>
    <rc><c>Pd</c><c>   2</c></rc>
    <rc><c>Pd</c><c>   2</c></rc>
   </set>
  </array>
  <array name="atomtypes" >
   <dimension dim="1">type</dimension>
   <field type="int">atomspertype</field>
   <field type="string">element</field>
   <field>mass</field>
   <field>valence</field>
   <field type="string">pseudopotential</field>
   <set>
    <rc><c>  24</c><c>Au</c><c>    196.96600000</c><c>     11.00000000</c><c>  PAW_PBE Au 04Oct2007                  </c></rc>
    <rc><c>  24</c><c>Pd</c><c>    106.42000000</c><c>     10.00000000</c><c>  PAW_PBE Pd 04Jan2005                  </c></rc>
   </set>
  </array>
 </atominfo>
 <structure name="initialpos" >
  <crystal>
   <varray name="basis" >
    <v>      11.00258152       0.00000000       0.00000000 </v>
    <v>       5.50129076       9.52851510       0.00000000 </v>
    <v>       0.00000000       0.00000000      24.49178509 </v>
   </varray>
   <i name="volume">   2567.67623402 </i>
   <varray name="rec_basis" >
    <v>       0.09088776      -0.05247407       0.00000000 </v>
    <v>       0.00000000       0.10494815       0.00000000 </v>
    <v>       0.00000000       0.00000000       0.04083002 </v>
   </varray>
  </crystal>
  <varray name="positions" >
   <v>       0.83333333       0.58333333       0.40830017 </v>
   <v>       0.50000000       0.25000000       0.59169983 </v>
   <v>       0.75000000       0.50000000       0.59169983 </v>
   <v>       0.08333333       0.33333333       0.40830017 </v>
   <v>       0.91666667       0.41666667       0.50000000 </v>
   <v>       0.00000000       0.25000000       0.59169983 </v>
   <v>       0.08333333       0.58333333       0.40830017 </v>
   <v>       0.66666667       0.66666667       0.50000000 </v>
   <v>       0.00000000       0.50000000       0.59169983 </v>
   <v>       0.08333333       0.83333333       0.40830017 </v>
   <v>       0.91666667       0.91666667       0.50000000 </v>
   <v>       0.41666667       0.16666667       0.50000000 </v>
   <v>       0.00000000       0.75000000       0.59169983 </v>
   <v>       0.66666667       0.41666667       0.50000000 </v>
   <v>       0.58333333       0.58333333       0.40830017 </v>
   <v>       0.75000000       0.00000000       0.59169983 </v>
   <v>       0.58333333       0.33333333       0.40830017 </v>
   <v>       0.33333333       0.58333333       0.40830017 </v>
   <v>       0.16666667       0.66666667       0.50000000 </v>
   <v>       0.25000000       0.50000000       0.59169983 </v>
   <v>       0.33333333       0.83333333       0.40830017 </v>
   <v>       0.83333333       0.08333333       0.40830017 </v>
   <v>       0.50000000       0.00000000       0.59169983 </v>
   <v>       0.41666667       0.91666667       0.50000000 </v>
   <v>       0.25000000       0.25000000       0.59169983 </v>
   <v>       0.16666667       0.41666667       0.50000000 </v>
   <v>       0.33333333       0.33333333       0.40830017 </v>
   <v>       0.25000000       0.00000000       0.59169983 </v>
   <v>       0.91666667       0.16666667       0.50000000 </v>
   <v>       0.33333333       0.08333333       0.40830017 </v>
   <v>       0.91666667       0.66666667       0.50000000 </v>
   <v>       0.00000000       0.00000000       0.59169983 </v>
   <v>       0.16666667       0.91666667       0.50000000 </v>
   <v>       0.16666667       0.16666667       0.50000000 </v>
   <v>       0.66666667       0.91666667       0.50000000 </v>
   <v>       0.50000000       0.75000000       0.59169983 </v>
   <v>       0.41666667       0.41666667       0.50000000 </v>
   <v>       0.25000000       0.75000000       0.59169983 </v>
   <v>       0.50000000       0.50000000       0.59169983 </v>
   <v>       0.83333333       0.83333333       0.40830017 </v>
   <v>       0.75000000       0.25000000       0.59169983 </v>
   <v>       0.66666667       0.16666667       0.50000000 </v>
   <v>       0.83333333       0.33333333       0.40830017 </v>
   <v>       0.08333333       0.08333333       0.40830017 </v>
   <v>       0.58333333       0.83333333       0.40830017 </v>
   <v>       0.41666667       0.66666667       0.50000000 </v>
   <v>       0.58333333       0.08333333       0.40830017 </v>
   <v>       0.75000000       0.75000000       0.59169983 </v>
  </varray>
  <varray name="selective"  type="logical" >
   <v type="logical" >  F  F  F </v>
   <v type="logical" >  T  T  T </v>
   <v type="logical" >  T  T  T </v>
   <v type="logical" >  F  F  F </v>
   <v type="logical" >  T  T  T </v>
   <v type="logical" >  T  T  T </v>
   <v type="logical" >  F  F  F </v>
   <v type="logical" >  T  T  T </v>
   <v type="logical" >  T  T  T </v>
   <v type="logical" >  F  F  F </v>
   <v type="logical" >  T  T  T </v>
   <v type="logical" >  T  T  T </v>
   <v type="logical" >  T  T  T </v>
   <v type="logical" >  T  T  T </v>
   <v type="logical" >  F  F  F </v>
   <v type="logical" >  T  T  T </v>
   <v type="logical" >  F  F  F </v>
   <v type="logical" >  F  F  F </v>
   <v type="logical" >  T  T  T </v>
   <v type="logical" >  T  T  T </v>
   <v type="logical" >  F  F  F </v>
   <v type="logical" >  F  F  F </v>
   <v type="logical" >  T  T  T </v>
   <v type="logical" >  T  T  T </v>
   <v type="logical" >  T  T  T </v>
   <v type="logical" >  T  T  T </v>
   <v type="logical" >  F  F  F </v>
   <v type="logical" >  T  T  T </v>
   <v type="logical" >  T  T  T </v>
   <v type="logical" >  F  F  F </v>
   <v type="logical" >  T  T  T </v>
   <v type="logical" >  T  T  T </v>
   <v type="logical" >  T  T  T </v>
   <v type="logical" >  T  T  T </v>
   <v type="logical" >  T  T  T </v>
   <v type="logical" >  T  T  T </v>
   <v type="logical" >  T  T  T </v>
   <v type="logical" >  T  T  T </v>
   <v type="logical" >  T  T  T </v>
   <v type="logical" >  F  F  F </v>
   <v type="logical" >  T  T  T </v>
   <v type="logical" >  T  T  T </v>
   <v type="logical" >  F  F  F </v>
   <v type="logical" >  F  F  F </v>
   <v type="logical" >  F  F  F </v>
   <v type="logical" >  T  T  T </v>
   <v type="logical" >  F  F  F </v>
   <v type="logical" >  T  T  T </v>
  </varray>
  <nose>
   <v>      -3.00000000       0.00000000       0.00010000       0.00010000 </v>
  </nose>
 </structure>
 <calculation>
  <scstep>
   <time name="dav">    7.19    7.21</time>
   <time name="total">    7.25    7.27</time>
   <dipole>
    <v name="dipole">      0.00000000       0.00000000       0.00000074 </v>
    <i name="Tr[quadrupol]"> -10321.87774927 </i>
    <i name="Echarged">      0.00000000 </i>
    <i name="Edipol_quadrupol">      0.00000000 </i>
    <i name="Eion">      0.00000000 </i>
   </dipole>
   <energy>
    <i name="alphaZ">    805.86936440 </i>
    <i name="ewald"> 199926.03427042 </i>
    <i name="hartreedc">-242339.30056229 </i>
    <i name="XCdc">   -327.68942603 </i>
    <i name="pawpsdc">  40340.05962942 </i>
    <i name="pawaedc"> -38292.62782345 </i>
    <i name="eentropy">     -0.12255970 </i>
    <i name="bandstr">   1428.49023832 </i>
    <i name="atom">  41659.78587232 </i>
    <i name="e_fr_energy">   3200.49900340 </i>
    <i name="e_wo_entrp">   3200.62156311 </i>
    <i name="e_0_energy">   3200.56028326 </i>
   </energy>
  </scstep>
  <scstep>
   <time name="dav">    8.51    8.53</time>
   <time name="total">    8.51    8.53</time>
   <dipole>
    <v name="dipole">      0.00000000       0.00000000       0.00000074 </v>
    <i name="Tr[quadrupol]"> -10321.87774927 </i>
    <i name="Echarged">      0.00000000 </i>
    <i name="Edipol_quadrupol">      0.00000000 </i>
    <i name="Eion">      0.00000000 </i>
   </dipole>
   <energy>
    <i name="e_fr_energy">     14.73545950 </i>
    <i name="e_wo_entrp">     14.86851088 </i>
    <i name="e_0_energy">     14.80198519 </i>
   </energy>
  </scstep>
  <scstep>
   <time name="dav">    8.19    8.21</time>
   <time name="total">    8.19    8.21</time>
   <dipole>
    <v name="dipole">      0.00000000       0.00000000       0.00000074 </v>
    <i name="Tr[quadrupol]"> -10321.87774927 </i>
    <i name="Echarged">      0.00000000 </i>
    <i name="Edipol_quadrupol">      0.00000000 </i>
    <i name="Eion">      0.00000000 </i>
   </dipole>
   <energy>
    <i name="e_fr_energy">   -201.03579676 </i>
    <i name="e_wo_entrp">   -200.84533688 </i>
    <i name="e_0_energy">   -200.94056682 </i>
   </energy>
  </scstep>
  <scstep>
   <time name="dav">    8.39    8.42</time>
   <time name="total">    8.39    8.42</time>
   <dipole>
    <v name="dipole">      0.00000000       0.00000000       0.00000074 </v>
    <i name="Tr[quadrupol]"> -10321.87774927 </i>
    <i name="Echarged">      0.00000000 </i>
    <i name="Edipol_quadrupol">      0.00000000 </i>
    <i name="Eion">      0.00000000 </i>
   </dipole>
   <energy>
    <i name="e_fr_energy">   -206.89525639 </i>
    <i name="e_wo_entrp">   -206.69922748 </i>
    <i name="e_0_energy">   -206.79724194 </i>
   </energy>
  </scstep>
  <scstep>
   <time name="dav">    8.64    8.73</time>
   <time name="total">    8.86    8.96</time>
   <dipole>
    <v name="dipole">      0.00000000       0.00000000       0.00000074 </v>
    <i name="Tr[quadrupol]"> -10321.87774927 </i>
    <i name="Echarged">      0.00000000 </i>
    <i name="Edipol_quadrupol">      0.00000000 </i>
    <i name="Eion">      0.00000000 </i>
   </dipole>
   <energy>
    <i name="e_fr_energy">   -207.09241752 </i>
    <i name="e_wo_entrp">   -206.89745044 </i>
    <i name="e_0_energy">   -206.99493398 </i>
   </energy>
  </scstep>
  <scstep>
   <time name="diag">    1.28    1.29</time>
   <time name="diis">    3.42    3.43</time>
   <time name="orth">    0.35    0.36</time>
   <time name="total">    5.33    5.35</time>
   <dipole>
    <v name="dipole">      0.00000000       0.00000000       0.34057072 </v>
    <i name="Tr[quadrupol]"> -10323.97625205 </i>
    <i name="Echarged">      0.00000000 </i>
    <i name="Edipol_quadrupol">      0.00000000 </i>
    <i name="Eion">      0.00000000 </i>
   </dipole>
   <energy>
    <i name="e_fr_energy">   -199.84169296 </i>
    <i name="e_wo_entrp">   -199.58934733 </i>
    <i name="e_0_energy">   -199.71552015 </i>
   </energy>
  </scstep>
  <scstep>
   <time name="diag">    1.28    1.29</time>
   <time name="diis">    3.40    3.41</time>
   <time name="orth">    0.35    0.35</time>
   <time name="total">    5.31    5.33</time>
   <dipole>
    <v name="dipole">      0.00000000       0.00000000      -0.70641412 </v>
    <i name="Tr[quadrupol]"> -10321.85207565 </i>
    <i name="Echarged">      0.00000000 </i>
    <i name="Edipol_quadrupol">      0.00000000 </i>
    <i name="Eion">      0.00000000 </i>
   </dipole>
   <energy>
    <i name="e_fr_energy">   -202.79274716 </i>
    <i name="e_wo_entrp">   -202.59525237 </i>
    <i name="e_0_energy">   -202.69399976 </i>
   </energy>
  </scstep>
  <scstep>
   <time name="diag">    1.28    1.29</time>
   <time name="diis">    3.53    3.54</time>
   <time name="orth">    0.35    0.35</time>
   <time name="total">    5.44    5.46</time>
   <dipole>
    <v name="dipole">      0.00000000       0.00000000       1.96237060 </v>
    <i name="Tr[quadrupol]"> -10323.95540031 </i>
    <i name="Echarged">      0.00000000 </i>
    <i name="Edipol_quadrupol">      0.00000000 </i>
    <i name="Eion">      0.00000000 </i>
   </dipole>
   <energy>
    <i name="e_fr_energy">   -225.08613095 </i>
    <i name="e_wo_entrp">   -224.79053010 </i>
    <i name="e_0_energy">   -224.93833053 </i>
   </energy>
  </scstep>
  <scstep>
   <time name="diag">    1.28    1.28</time>
   <time name="diis">    3.46    3.47</time>
   <time name="orth">    0.35    0.35</time>
   <time name="total">    5.36    5.37</time>
   <dipole>
    <v name="dipole">      0.00000000       0.00000000      -0.67703050 </v>
    <i name="Tr[quadrupol]"> -10325.26667274 </i>
    <i name="Echarged">      0.00000000 </i>
    <i name="Edipol_quadrupol">      0.00000000 </i>
    <i name="Eion">      0.00000000 </i>
   </dipole>
   <energy>
    <i name="e_fr_energy">   -208.61339774 </i>
    <i name="e_wo_entrp">   -208.41366080 </i>
    <i name="e_0_energy">   -208.51352927 </i>
   </energy>
  </scstep>
  <scstep>
   <time name="diag">    1.28    1.28</time>
   <time name="diis">    3.45    3.46</time>
   <time name="orth">    0.35    0.35</time>
   <time name="total">    5.35    5.37</time>
   <dipole>
    <v name="dipole">      0.00000000       0.00000000       0.21133623 </v>
    <i name="Tr[quadrupol]"> -10323.89704645 </i>
    <i name="Echarged">      0.00000000 </i>
    <i name="Edipol_quadrupol">      0.00000000 </i>
    <i name="Eion">      0.00000000 </i>
   </dipole>
   <energy>
    <i name="e_fr_energy">   -194.24184405 </i>
    <i name="e_wo_entrp">   -194.04695546 </i>
    <i name="e_0_energy">   -194.14439976 </i>
   </energy>
  </scstep>
  <scstep>
   <time name="diag">    1.27    1.28</time>
   <time name="diis">    3.45    3.46</time>
   <time name="orth">    0.35    0.35</time>
   <time name="total">    5.35    5.36</time>
   <dipole>
    <v name="dipole">      0.00000000       0.00000000       0.03578852 </v>
    <i name="Tr[quadrupol]"> -10324.53554605 </i>
    <i name="Echarged">      0.00000000 </i>
    <i name="Edipol_quadrupol">      0.00000000 </i>
    <i name="Eion">      0.00000000 </i>
   </dipole>
   <energy>
    <i name="e_fr_energy">   -190.69814411 </i>
    <i name="e_wo_entrp">   -190.49609638 </i>
    <i name="e_0_energy">   -190.59712025 </i>
   </energy>
  </scstep>
  <scstep>
   <time name="diag">    1.28    1.28</time>
   <time name="diis">    3.42    3.43</time>
   <time name="orth">    0.35    0.35</time>
   <time name="total">    5.32    5.35</time>
   <dipole>
    <v name="dipole">      0.00000000       0.00000000       0.02480182 </v>
    <i name="Tr[quadrupol]"> -10325.02933749 </i>
    <i name="Echarged">      0.00000000 </i>
    <i name="Edipol_quadrupol">      0.00000000 </i>
    <i name="Eion">      0.00000000 </i>
   </dipole>
   <energy>
    <i name="e_fr_energy">   -189.40474716 </i>
    <i name="e_wo_entrp">   -189.12666713 </i>
    <i name="e_0_energy">   -189.26570715 </i>
   </energy>
  </scstep>
  <scstep>
   <time name="diag">    1.26    1.32</time>
   <time name="diis">    3.42    3.43</time>
   <time name="orth">    0.35    0.35</time>
   <time name="total">    5.30    5.37</time>
   <dipole>
    <v name="dipole">      0.00000000       0.00000000      -0.01291564 </v>
    <i name="Tr[quadrupol]"> -10325.23981957 </i>
    <i name="Echarged">      0.00000000 </i>
    <i name="Edipol_quadrupol">      0.00000000 </i>
    <i name="Eion">      0.00000000 </i>
   </dipole>
   <energy>
    <i name="e_fr_energy">   -189.39492280 </i>
    <i name="e_wo_entrp">   -189.17542589 </i>
    <i name="e_0_energy">   -189.28517434 </i>
   </energy>
  </scstep>
  <scstep>
   <time name="diag">    1.29    1.29</time>
   <time name="diis">    3.42    3.43</time>
   <time name="orth">    0.35    0.35</time>
   <time name="total">    5.32    5.35</time>
   <dipole>
    <v name="dipole">      0.00000000       0.00000000       0.01138883 </v>
    <i name="Tr[quadrupol]"> -10325.36888468 </i>
    <i name="Echarged">      0.00000000 </i>
    <i name="Edipol_quadrupol">      0.00000000 </i>
    <i name="Eion">      0.00000000 </i>
   </dipole>
   <energy>
    <i name="e_fr_energy">   -189.40399110 </i>
    <i name="e_wo_entrp">   -189.13883977 </i>
    <i name="e_0_energy">   -189.27141544 </i>
   </energy>
  </scstep>
  <scstep>
   <time name="diag">    1.28    1.28</time>
   <time name="diis">    3.47    3.48</time>
   <time name="orth">    0.35    0.35</time>
   <time name="total">    5.36    5.38</time>
   <dipole>
    <v name="dipole">      0.00000000       0.00000000       0.02333394 </v>
    <i name="Tr[quadrupol]"> -10325.54705322 </i>
    <i name="Echarged">      0.00000000 </i>
    <i name="Edipol_quadrupol">      0.00000000 </i>
    <i name="Eion">      0.00000000 </i>
   </dipole>
   <energy>
    <i name="e_fr_energy">   -189.24077961 </i>
    <i name="e_wo_entrp">   -188.98137380 </i>
    <i name="e_0_energy">   -189.11107670 </i>
   </energy>
  </scstep>
  <scstep>
   <time name="diag">    1.28    1.28</time>
   <time name="diis">    3.44    3.45</time>
   <time name="orth">    0.35    0.35</time>
   <time name="total">    5.33    5.35</time>
   <dipole>
    <v name="dipole">      0.00000000       0.00000000       0.02984079 </v>
    <i name="Tr[quadrupol]"> -10325.79059341 </i>
    <i name="Echarged">      0.00000000 </i>
    <i name="Edipol_quadrupol">      0.00000000 </i>
    <i name="Eion">      0.00000000 </i>
   </dipole>
   <energy>
    <i name="e_fr_energy">   -189.14359630 </i>
    <i name="e_wo_entrp">   -188.88007277 </i>
    <i name="e_0_energy">   -189.01183453 </i>
   </energy>
  </scstep>
  <scstep>
   <time name="diag">    1.28    1.28</time>
   <time name="diis">    3.43    3.44</time>
   <time name="orth">    0.35    0.35</time>
   <time name="total">    5.33    5.34</time>
   <dipole>
    <v name="dipole">      0.00000000       0.00000000       0.02855023 </v>
    <i name="Tr[quadrupol]"> -10326.13143582 </i>
    <i name="Echarged">      0.00000000 </i>
    <i name="Edipol_quadrupol">      0.00000000 </i>
    <i name="Eion">      0.00000000 </i>
   </dipole>
   <energy>
    <i name="e_fr_energy">   -189.04340084 </i>
    <i name="e_wo_entrp">   -188.77734576 </i>
    <i name="e_0_energy">   -188.91037330 </i>
   </energy>
  </scstep>
  <scstep>
   <time name="diag">    1.28    1.28</time>
   <time name="diis">    3.45    3.46</time>
   <time name="orth">    0.35    0.35</time>
   <time name="total">    5.35    5.36</time>
   <dipole>
    <v name="dipole">      0.00000000       0.00000000       0.01564566 </v>
    <i name="Tr[quadrupol]"> -10326.30403533 </i>
    <i name="Echarged">      0.00000000 </i>
    <i name="Edipol_quadrupol">      0.00000000 </i>
    <i name="Eion">      0.00000000 </i>
   </dipole>
   <energy>
    <i name="e_fr_energy">   -189.02208122 </i>
    <i name="e_wo_entrp">   -188.75094834 </i>
    <i name="e_0_energy">   -188.88651478 </i>
   </energy>
  </scstep>
  <scstep>
   <time name="diag">    1.27    1.28</time>
   <time name="diis">    3.43    3.44</time>
   <time name="orth">    0.35    0.35</time>
   <time name="total">    5.33    5.34</time>
   <dipole>
    <v name="dipole">      0.00000000       0.00000000       0.00892923 </v>
    <i name="Tr[quadrupol]"> -10326.37571730 </i>
    <i name="Echarged">      0.00000000 </i>
    <i name="Edipol_quadrupol">      0.00000000 </i>
    <i name="Eion">      0.00000000 </i>
   </dipole>
   <energy>
    <i name="e_fr_energy">   -189.01815709 </i>
    <i name="e_wo_entrp">   -188.74839528 </i>
    <i name="e_0_energy">   -188.88327619 </i>
   </energy>
  </scstep>
  <scstep>
   <time name="diag">    1.28    1.28</time>
   <time name="diis">    3.39    3.48</time>
   <time name="orth">    0.35    0.35</time>
   <time name="total">    5.28    5.38</time>
   <dipole>
    <v name="dipole">      0.00000000       0.00000000       0.01276058 </v>
    <i name="Tr[quadrupol]"> -10326.46150095 </i>
    <i name="Echarged">      0.00000000 </i>
    <i name="Edipol_quadrupol">      0.00000000 </i>
    <i name="Eion">      0.00000000 </i>
   </dipole>
   <energy>
    <i name="e_fr_energy">   -189.01647298 </i>
    <i name="e_wo_entrp">   -188.74641059 </i>
    <i name="e_0_energy">   -188.88144179 </i>
   </energy>
  </scstep>
  <scstep>
   <time name="diag">    1.28    1.28</time>
   <time name="diis">    3.45    3.46</time>
   <time name="orth">    0.35    0.35</time>
   <time name="total">    5.35    5.37</time>
   <dipole>
    <v name="dipole">      0.00000000       0.00000000       0.01241653 </v>
    <i name="Tr[quadrupol]"> -10326.55695455 </i>
    <i name="Echarged">      0.00000000 </i>
    <i name="Edipol_quadrupol">      0.00000000 </i>
    <i name="Eion">      0.00000000 </i>
   </dipole>
   <energy>
    <i name="e_fr_energy">   -189.01537990 </i>
    <i name="e_wo_entrp">   -188.74506590 </i>
    <i name="e_0_energy">   -188.88022290 </i>
   </energy>
  </scstep>
  <scstep>
   <time name="diag">    1.28    1.29</time>
   <time name="diis">    3.42    3.43</time>
   <time name="orth">    0.34    0.35</time>
   <time name="total">    5.32    5.34</time>
   <dipole>
    <v name="dipole">      0.00000000       0.00000000       0.01215386 </v>
    <i name="Tr[quadrupol]"> -10326.70093608 </i>
    <i name="Echarged">      0.00000000 </i>
    <i name="Edipol_quadrupol">      0.00000000 </i>
    <i name="Eion">      0.00000000 </i>
   </dipole>
   <energy>
    <i name="e_fr_energy">   -189.01504406 </i>
    <i name="e_wo_entrp">   -188.74555712 </i>
    <i name="e_0_energy">   -188.88030059 </i>
   </energy>
  </scstep>
  <scstep>
   <time name="diag">    1.28    1.28</time>
   <time name="diis">    3.44    3.45</time>
   <time name="orth">    0.35    0.35</time>
   <time name="total">    5.34    5.35</time>
   <dipole>
    <v name="dipole">      0.00000000       0.00000000       0.01229945 </v>
    <i name="Tr[quadrupol]"> -10326.78824265 </i>
    <i name="Echarged">      0.00000000 </i>
    <i name="Edipol_quadrupol">      0.00000000 </i>
    <i name="Eion">      0.00000000 </i>
   </dipole>
   <energy>
    <i name="e_fr_energy">   -189.01457430 </i>
    <i name="e_wo_entrp">   -188.74474979 </i>
    <i name="e_0_energy">   -188.87966204 </i>
   </energy>
  </scstep>
  <scstep>
   <time name="diag">    1.28    1.28</time>
   <time name="diis">    3.44    3.45</time>
   <time name="orth">    0.35    0.35</time>
   <time name="total">    5.33    5.35</time>
   <dipole>
    <v name="dipole">      0.00000000       0.00000000       0.01163078 </v>
    <i name="Tr[quadrupol]"> -10326.84917108 </i>
    <i name="Echarged">      0.00000000 </i>
    <i name="Edipol_quadrupol">      0.00000000 </i>
    <i name="Eion">      0.00000000 </i>
   </dipole>
   <energy>
    <i name="e_fr_energy">   -189.01461445 </i>
    <i name="e_wo_entrp">   -188.74438658 </i>
    <i name="e_0_energy">   -188.87950052 </i>
   </energy>
  </scstep>
  <scstep>
   <time name="diag">    1.27    1.28</time>
   <time name="diis">    3.45    3.47</time>
   <time name="orth">    0.35    0.35</time>
   <time name="total">    5.34    5.37</time>
   <dipole>
    <v name="dipole">      0.00000000       0.00000000       0.01061828 </v>
    <i name="Tr[quadrupol]"> -10326.94114001 </i>
    <i name="Echarged">      0.00000000 </i>
    <i name="Edipol_quadrupol">      0.00000000 </i>
    <i name="Eion">      0.00000000 </i>
   </dipole>
   <energy>
    <i name="e_fr_energy">   -189.01502370 </i>
    <i name="e_wo_entrp">   -188.74442164 </i>
    <i name="e_0_energy">   -188.87972267 </i>
   </energy>
  </scstep>
  <scstep>
   <time name="diag">    1.28    1.28</time>
   <time name="diis">    3.43    3.44</time>
   <time name="orth">    0.35    0.35</time>
   <time name="total">    5.33    5.34</time>
   <dipole>
    <v name="dipole">      0.00000000       0.00000000       0.01016162 </v>
    <i name="Tr[quadrupol]"> -10326.99679267 </i>
    <i name="Echarged">      0.00000000 </i>
    <i name="Edipol_quadrupol">      0.00000000 </i>
    <i name="Eion">      0.00000000 </i>
   </dipole>
   <energy>
    <i name="e_fr_energy">   -189.01539220 </i>
    <i name="e_wo_entrp">   -188.74480389 </i>
    <i name="e_0_energy">   -188.88009804 </i>
   </energy>
  </scstep>
  <scstep>
   <time name="diag">    1.27    1.27</time>
   <time name="diis">    3.45    3.46</time>
   <time name="orth">    0.34    0.36</time>
   <time name="total">    5.33    5.39</time>
   <dipole>
    <v name="dipole">      0.00000000       0.00000000       0.00942303 </v>
    <i name="Tr[quadrupol]"> -10327.05248066 </i>
    <i name="Echarged">      0.00000000 </i>
    <i name="Edipol_quadrupol">      0.00000000 </i>
    <i name="Eion">      0.00000000 </i>
   </dipole>
   <energy>
    <i name="e_fr_energy">   -189.01579248 </i>
    <i name="e_wo_entrp">   -188.74533079 </i>
    <i name="e_0_energy">   -188.88056164 </i>
   </energy>
  </scstep>
  <scstep>
   <time name="diag">    1.27    1.30</time>
   <time name="diis">    3.48    3.49</time>
   <time name="orth">    0.35    0.35</time>
   <time name="total">    5.36    5.41</time>
   <dipole>
    <v name="dipole">      0.00000000       0.00000000       0.00957396 </v>
    <i name="Tr[quadrupol]"> -10327.10784068 </i>
    <i name="Echarged">      0.00000000 </i>
    <i name="Edipol_quadrupol">      0.00000000 </i>
    <i name="Eion">      0.00000000 </i>
   </dipole>
   <energy>
    <i name="e_fr_energy">   -189.01634116 </i>
    <i name="e_wo_entrp">   -188.74595143 </i>
    <i name="e_0_energy">   -188.88114630 </i>
   </energy>
  </scstep>
  <scstep>
   <time name="diag">    1.27    1.28</time>
   <time name="diis">    3.42    3.43</time>
   <time name="orth">    0.34    0.35</time>
   <time name="total">    5.31    5.33</time>
   <dipole>
    <v name="dipole">      0.00000000       0.00000000       0.00904960 </v>
    <i name="Tr[quadrupol]"> -10327.14677070 </i>
    <i name="Echarged">      0.00000000 </i>
    <i name="Edipol_quadrupol">      0.00000000 </i>
    <i name="Eion">      0.00000000 </i>
   </dipole>
   <energy>
    <i name="e_fr_energy">   -189.01676746 </i>
    <i name="e_wo_entrp">   -188.74635946 </i>
    <i name="e_0_energy">   -188.88156346 </i>
   </energy>
  </scstep>
  <scstep>
   <time name="diag">    1.29    1.29</time>
   <time name="diis">    3.52    3.53</time>
   <time name="orth">    0.35    0.35</time>
   <time name="total">    5.43    5.45</time>
   <dipole>
    <v name="dipole">      0.00000000       0.00000000       0.00796118 </v>
    <i name="Tr[quadrupol]"> -10327.20806134 </i>
    <i name="Echarged">      0.00000000 </i>
    <i name="Edipol_quadrupol">      0.00000000 </i>
    <i name="Eion">      0.00000000 </i>
   </dipole>
   <energy>
    <i name="e_fr_energy">   -189.01745781 </i>
    <i name="e_wo_entrp">   -188.74700795 </i>
    <i name="e_0_energy">   -188.88223288 </i>
   </energy>
  </scstep>
  <scstep>
   <time name="diag">    1.27    1.27</time>
   <time name="diis">    3.07    3.08</time>
   <time name="orth">    0.34    0.34</time>
   <time name="total">    4.96    4.98</time>
   <dipole>
    <v name="dipole">      0.00000000       0.00000000       0.00750911 </v>
    <i name="Tr[quadrupol]"> -10327.23712118 </i>
    <i name="Echarged">      0.00000000 </i>
    <i name="Edipol_quadrupol">      0.00000000 </i>
    <i name="Eion">      0.00000000 </i>
   </dipole>
   <energy>
    <i name="e_fr_energy">   -189.01775591 </i>
    <i name="e_wo_entrp">   -188.74732176 </i>
    <i name="e_0_energy">   -188.88253884 </i>
   </energy>
  </scstep>
  <scstep>
   <time name="diag">    1.27    1.28</time>
   <time name="diis">    2.75    2.75</time>
   <time name="orth">    0.34    0.34</time>
   <time name="total">    4.64    4.65</time>
   <dipole>
    <v name="dipole">      0.00000000       0.00000000       0.00720575 </v>
    <i name="Tr[quadrupol]"> -10327.25873133 </i>
    <i name="Echarged">      0.00000000 </i>
    <i name="Edipol_quadrupol">      0.00000000 </i>
    <i name="Eion">      0.00000000 </i>
   </dipole>
   <energy>
    <i name="e_fr_energy">   -189.01793059 </i>
    <i name="e_wo_entrp">   -188.74750334 </i>
    <i name="e_0_energy">   -188.88271696 </i>
   </energy>
  </scstep>
  <scstep>
   <time name="diag">    1.27    1.28</time>
   <time name="diis">    2.31    2.32</time>
   <time name="orth">    0.34    0.34</time>
   <time name="total">    4.20    4.21</time>
   <dipole>
    <v name="dipole">      0.00000000       0.00000000       0.00706697 </v>
    <i name="Tr[quadrupol]"> -10327.26595537 </i>
    <i name="Echarged">      0.00000000 </i>
    <i name="Edipol_quadrupol">      0.00000000 </i>
    <i name="Eion">      0.00000000 </i>
   </dipole>
   <energy>
    <i name="e_fr_energy">   -189.01800896 </i>
    <i name="e_wo_entrp">   -188.74759027 </i>
    <i name="e_0_energy">   -188.88279962 </i>
   </energy>
  </scstep>
  <scstep>
   <time name="diag">    1.28    1.28</time>
   <time name="diis">    2.20    2.21</time>
   <time name="orth">    0.34    0.34</time>
   <time name="total">    4.09    4.11</time>
   <dipole>
    <v name="dipole">      0.00000000       0.00000000       0.00688585 </v>
    <i name="Tr[quadrupol]"> -10327.27426954 </i>
    <i name="Echarged">      0.00000000 </i>
    <i name="Edipol_quadrupol">      0.00000000 </i>
    <i name="Eion">      0.00000000 </i>
   </dipole>
   <energy>
    <i name="e_fr_energy">   -189.01809192 </i>
    <i name="e_wo_entrp">   -188.74769151 </i>
    <i name="e_0_energy">   -188.88289171 </i>
   </energy>
  </scstep>
  <scstep>
   <time name="diag">    1.27    1.27</time>
   <time name="diis">    2.13    2.14</time>
   <time name="orth">    0.34    0.34</time>
   <time name="total">    4.02    4.04</time>
   <dipole>
    <v name="dipole">      0.00000000       0.00000000       0.00666551 </v>
    <i name="Tr[quadrupol]"> -10327.28108069 </i>
    <i name="Echarged">      0.00000000 </i>
    <i name="Edipol_quadrupol">      0.00000000 </i>
    <i name="Eion">      0.00000000 </i>
   </dipole>
   <energy>
    <i name="e_fr_energy">   -189.01814805 </i>
    <i name="e_wo_entrp">   -188.74773296 </i>
    <i name="e_0_energy">   -188.88294051 </i>
   </energy>
  </scstep>
  <scstep>
   <time name="diag">    1.29    1.29</time>
   <time name="diis">    2.03    2.10</time>
   <time name="orth">    0.34    0.34</time>
   <time name="total">    3.93    4.01</time>
   <dipole>
    <v name="dipole">      0.00000000       0.00000000       0.00658092 </v>
    <i name="Tr[quadrupol]"> -10327.28410225 </i>
    <i name="Echarged">      0.00000000 </i>
    <i name="Edipol_quadrupol">      0.00000000 </i>
    <i name="Eion">      0.00000000 </i>
   </dipole>
   <energy>
    <i name="e_fr_energy">   -189.01816745 </i>
    <i name="e_wo_entrp">   -188.74774786 </i>
    <i name="e_0_energy">   -188.88295765 </i>
   </energy>
  </scstep>
  <scstep>
   <time name="diag">    1.27    1.27</time>
   <time name="diis">    2.10    2.10</time>
   <time name="orth">    0.34    0.34</time>
   <time name="total">    3.98    4.00</time>
   <dipole>
    <v name="dipole">      0.00000000       0.00000000       0.00648911 </v>
    <i name="Tr[quadrupol]"> -10327.28839697 </i>
    <i name="Echarged">      0.00000000 </i>
    <i name="Edipol_quadrupol">      0.00000000 </i>
    <i name="Eion">      0.00000000 </i>
   </dipole>
   <energy>
    <i name="e_fr_energy">   -189.01818585 </i>
    <i name="e_wo_entrp">   -188.74776686 </i>
    <i name="e_0_energy">   -188.88297635 </i>
   </energy>
  </scstep>
  <scstep>
   <time name="diag">    1.27    1.28</time>
   <time name="diis">    1.65    1.67</time>
   <time name="orth">    0.34    0.35</time>
   <time name="total">    3.54    3.57</time>
   <dipole>
    <v name="dipole">      0.00000000       0.00000000       0.00644862 </v>
    <i name="Tr[quadrupol]"> -10327.29035753 </i>
    <i name="Echarged">      0.00000000 </i>
    <i name="Edipol_quadrupol">      0.00000000 </i>
    <i name="Eion">      0.00000000 </i>
   </dipole>
   <energy>
    <i name="e_fr_energy">   -189.01819026 </i>
    <i name="e_wo_entrp">   -188.74777252 </i>
    <i name="e_0_energy">   -188.88298139 </i>
   </energy>
  </scstep>
  <scstep>
   <time name="diag">    1.27    1.27</time>
   <time name="diis">    1.69    1.69</time>
   <time name="orth">    0.34    0.34</time>
   <time name="total">    3.58    3.59</time>
   <dipole>
    <v name="dipole">      0.00000000       0.00000000       0.00641150 </v>
    <i name="Tr[quadrupol]"> -10327.29273040 </i>
    <i name="Echarged">      0.00000000 </i>
    <i name="Edipol_quadrupol">      0.00000000 </i>
    <i name="Eion">      0.00000000 </i>
   </dipole>
   <energy>
    <i name="e_fr_energy">   -189.01819276 </i>
    <i name="e_wo_entrp">   -188.74777662 </i>
    <i name="e_0_energy">   -188.88298469 </i>
   </energy>
  </scstep>
  <scstep>
   <time name="diag">    1.27    1.27</time>
   <time name="diis">    1.53    1.53</time>
   <time name="orth">    0.34    0.34</time>
   <time name="total">    3.19    3.20</time>
   <dipole>
    <v name="dipole">      0.00000000       0.00000000       0.00638901 </v>
    <i name="Tr[quadrupol]"> -10327.29405054 </i>
    <i name="Echarged">      0.00000000 </i>
    <i name="Edipol_quadrupol">      0.00000000 </i>
    <i name="Eion">      0.00000000 </i>
   </dipole>
   <energy>
    <i name="alphaZ">    805.87037409 </i>
    <i name="ewald"> 199926.03427042 </i>
    <i name="hartreedc">-242117.01029303 </i>
    <i name="XCdc">   -343.56789556 </i>
    <i name="pawpsdc">  49323.71680704 </i>
    <i name="pawaedc"> -47401.99916798 </i>
    <i name="eentropy">     -0.27041597 </i>
    <i name="bandstr">  -2041.57774474 </i>
    <i name="atom">  41659.78587232 </i>
    <i name="e_fr_energy">   -189.01819342 </i>
    <i name="e_wo_entrp">   -188.74777745 </i>
    <i name="e_0_energy">   -188.88298543 </i>
   </energy>
  </scstep>
  <structure>
   <crystal>
    <varray name="basis" >
     <v>      11.00258152       0.00000000       0.00000000 </v>
     <v>       5.50129076       9.52851510       0.00000000 </v>
     <v>       0.00000000       0.00000000      24.49178509 </v>
    </varray>
    <i name="volume">   2567.67623402 </i>
    <varray name="rec_basis" >
     <v>       0.09088776      -0.05247407       0.00000000 </v>
     <v>       0.00000000       0.10494815       0.00000000 </v>
     <v>       0.00000000       0.00000000       0.04083002 </v>
    </varray>
   </crystal>
   <varray name="positions" >
    <v>       0.83333333       0.58333333       0.40830017 </v>
    <v>       0.50000000       0.25000000       0.59169983 </v>
    <v>       0.75000000       0.50000000       0.59169983 </v>
    <v>       0.08333333       0.33333333       0.40830017 </v>
    <v>       0.91666667       0.41666667       0.50000000 </v>
    <v>       0.00000000       0.25000000       0.59169983 </v>
    <v>       0.08333333       0.58333333       0.40830017 </v>
    <v>       0.66666667       0.66666667       0.50000000 </v>
    <v>       0.00000000       0.50000000       0.59169983 </v>
    <v>       0.08333333       0.83333333       0.40830017 </v>
    <v>       0.91666667       0.91666667       0.50000000 </v>
    <v>       0.41666667       0.16666667       0.50000000 </v>
    <v>       0.00000000       0.75000000       0.59169983 </v>
    <v>       0.66666667       0.41666667       0.50000000 </v>
    <v>       0.58333333       0.58333333       0.40830017 </v>
    <v>       0.75000000       0.00000000       0.59169983 </v>
    <v>       0.58333333       0.33333333       0.40830017 </v>
    <v>       0.33333333       0.58333333       0.40830017 </v>
    <v>       0.16666667       0.66666667       0.50000000 </v>
    <v>       0.25000000       0.50000000       0.59169983 </v>
    <v>       0.33333333       0.83333333       0.40830017 </v>
    <v>       0.83333333       0.08333333       0.40830017 </v>
    <v>       0.50000000       0.00000000       0.59169983 </v>
    <v>       0.41666667       0.91666667       0.50000000 </v>
    <v>       0.25000000       0.25000000       0.59169983 </v>
    <v>       0.16666667       0.41666667       0.50000000 </v>
    <v>       0.33333333       0.33333333       0.40830017 </v>
    <v>       0.25000000       0.00000000       0.59169983 </v>
    <v>       0.91666667       0.16666667       0.50000000 </v>
    <v>       0.33333333       0.08333333       0.40830017 </v>
    <v>       0.91666667       0.66666667       0.50000000 </v>
    <v>       0.00000000       0.00000000       0.59169983 </v>
    <v>       0.16666667       0.91666667       0.50000000 </v>
    <v>       0.16666667       0.16666667       0.50000000 </v>
    <v>       0.66666667       0.91666667       0.50000000 </v>
    <v>       0.50000000       0.75000000       0.59169983 </v>
    <v>       0.41666667       0.41666667       0.50000000 </v>
    <v>       0.25000000       0.75000000       0.59169983 </v>
    <v>       0.50000000       0.50000000       0.59169983 </v>
    <v>       0.83333333       0.83333333       0.40830017 </v>
    <v>       0.75000000       0.25000000       0.59169983 </v>
    <v>       0.66666667       0.16666667       0.50000000 </v>
    <v>       0.83333333       0.33333333       0.40830017 </v>
    <v>       0.08333333       0.08333333       0.40830017 </v>
    <v>       0.58333333       0.83333333       0.40830017 </v>
    <v>       0.41666667       0.66666667       0.50000000 </v>
    <v>       0.58333333       0.08333333       0.40830017 </v>
    <v>       0.75000000       0.75000000       0.59169983 </v>
   </varray>
  </structure>
  <varray name="forces" >
   <v>       0.02833423       0.34109443      -1.59865541 </v>
   <v>       0.23085578       0.28387908       1.35839035 </v>
   <v>      -0.37371924       0.22460234       1.77956957 </v>
   <v>       0.10009050      -0.49052837      -1.30235806 </v>
   <v>       0.25007165      -0.40318381      -0.25209344 </v>
   <v>       0.04177137      -0.59966023       1.34342446 </v>
   <v>      -0.14123676      -0.10546270      -1.37190540 </v>
   <v>       0.14722509       0.69417220       0.27227772 </v>
   <v>       0.13084034       0.05370519       1.38251169 </v>
   <v>      -0.00148685       0.33526265      -1.59435609 </v>
   <v>      -0.17841790       0.28657468       0.02069841 </v>
   <v>      -0.04587896       0.32549719      -0.56914719 </v>
   <v>      -0.01975509       0.12181498       1.57870737 </v>
   <v>      -0.46078902      -0.44373367       0.30066048 </v>
   <v>       0.11060222       0.10103464      -1.62359804 </v>
   <v>       0.11859067       0.06132768       1.37644935 </v>
   <v>      -0.22168506      -0.29290256      -1.35383694 </v>
   <v>       0.01581188      -0.31010578      -1.41491662 </v>
   <v>       0.38142928      -0.15045166       0.31134906 </v>
   <v>       0.24901266      -0.13705000       1.35620533 </v>
   <v>       0.12617785       0.38152476      -1.33872080 </v>
   <v>      -0.01087479       0.14147865      -1.34656030 </v>
   <v>      -0.25057647      -0.29420538       1.57573622 </v>
   <v>      -0.29533812       0.03549310       0.00004555 </v>
   <v>      -0.17179596      -0.11130652       0.73219995 </v>
   <v>       0.14460223      -0.28591367      -0.04642977 </v>
   <v>       0.05732728      -0.24003172      -0.64830752 </v>
   <v>      -0.21708548      -0.10502940       0.64614400 </v>
   <v>       0.15182941      -0.21344490       0.02631545 </v>
   <v>       0.08013934       0.06604624      -0.74056105 </v>
   <v>      -0.13699121       0.25501810      -0.03718652 </v>
   <v>       0.24335233       0.10205912       0.67061761 </v>
   <v>       0.17145037       0.32160429       0.38243349 </v>
   <v>      -0.11052231      -0.22458160      -0.03833590 </v>
   <v>       0.18146689      -0.13078601      -0.38652354 </v>
   <v>      -0.24618106      -0.03136845       0.81096915 </v>
   <v>      -0.00574440      -0.04544364       0.03862350 </v>
   <v>       0.36046305       0.21233379       0.63831427 </v>
   <v>      -0.02528479       0.12910372       0.68097862 </v>
   <v>      -0.29498178       0.11770073      -0.71744927 </v>
   <v>      -0.04483644      -0.10607931       0.67452278 </v>
   <v>       0.00440601       0.04401804      -0.02918318 </v>
   <v>       0.07533253      -0.25745602      -0.86913796 </v>
   <v>       0.10554245       0.11846969      -0.55832661 </v>
   <v>       0.23954034       0.23195420      -0.86370424 </v>
   <v>      -0.20457689       0.04996257       0.57693980 </v>
   <v>      -0.19251516      -0.13279700      -0.59168859 </v>
   <v>      -0.09599202       0.07579034       0.75889829 </v>
  </varray>
  <energy>
   <i name="e_fr_energy">   -189.01819342 </i>
   <i name="e_wo_entrp">   -188.88298543 </i>
   <i name="e_0_energy">     -0.27041597 </i>
  </energy>
  <time name="totalsc">  217.31  218.39</time>
 </calculation>
 <calculation>
  <scstep>
   <time name="dav">    7.29    7.31</time>
   <time name="total">    7.56    7.58</time>
   <dipole>
    <v name="dipole">      0.00000000       0.00000000       0.00636682 </v>
    <i name="Tr[quadrupol]"> -10314.21049393 </i>
    <i name="Echarged">      0.00000000 </i>
    <i name="Edipol_quadrupol">      0.00000000 </i>
    <i name="Eion">      0.00000000 </i>
   </dipole>
   <energy>
    <i name="alphaZ">    805.86747380 </i>
    <i name="ewald"> 198611.27931994 </i>
    <i name="hartreedc">-240810.25869628 </i>
    <i name="XCdc">   -344.65159899 </i>
    <i name="pawpsdc">  49323.70854876 </i>
    <i name="pawaedc"> -47401.99101482 </i>
    <i name="eentropy">     -0.26778178 </i>
    <i name="bandstr">  -2033.04536328 </i>
    <i name="atom">  41659.78587232 </i>
    <i name="e_fr_energy">   -189.57324033 </i>
    <i name="e_wo_entrp">   -189.30545856 </i>
    <i name="e_0_energy">   -189.43934944 </i>
   </energy>
  </scstep>
  <scstep>
   <time name="diag">    1.27    1.27</time>
   <time name="diis">    3.45    3.46</time>
   <time name="orth">    0.35    0.35</time>
   <time name="total">    5.36    5.37</time>
   <dipole>
    <v name="dipole">      0.00000000       0.00000000       0.04904446 </v>
    <i name="Tr[quadrupol]"> -10314.07614659 </i>
    <i name="Echarged">      0.00000000 </i>
    <i name="Edipol_quadrupol">      0.00000000 </i>
    <i name="Eion">      0.00000000 </i>
   </dipole>
   <energy>
    <i name="e_fr_energy">   -189.78173689 </i>
    <i name="e_wo_entrp">   -189.52119342 </i>
    <i name="e_0_energy">   -189.65146515 </i>
   </energy>
  </scstep>
  <scstep>
   <time name="diag">    1.27    1.27</time>
   <time name="diis">    3.49    3.50</time>
   <time name="orth">    0.34    0.34</time>
   <time name="total">    5.37    5.39</time>
   <dipole>
    <v name="dipole">      0.00000000       0.00000000      -0.07944971 </v>
    <i name="Tr[quadrupol]"> -10314.25629161 </i>
    <i name="Echarged">      0.00000000 </i>
    <i name="Edipol_quadrupol">      0.00000000 </i>
    <i name="Eion">      0.00000000 </i>
   </dipole>
   <energy>
    <i name="e_fr_energy">   -189.90491801 </i>
    <i name="e_wo_entrp">   -189.64227463 </i>
    <i name="e_0_energy">   -189.77359632 </i>
   </energy>
  </scstep>
  <scstep>
   <time name="diag">    1.27    1.27</time>
   <time name="diis">    3.40    3.49</time>
   <time name="orth">    0.34    0.34</time>
   <time name="total">    5.28    5.38</time>
   <dipole>
    <v name="dipole">      0.00000000       0.00000000       0.02494680 </v>
    <i name="Tr[quadrupol]"> -10314.30273275 </i>
    <i name="Echarged">      0.00000000 </i>
    <i name="Edipol_quadrupol">      0.00000000 </i>
    <i name="Eion">      0.00000000 </i>
   </dipole>
   <energy>
    <i name="e_fr_energy">   -189.78521704 </i>
    <i name="e_wo_entrp">   -189.51705969 </i>
    <i name="e_0_energy">   -189.65113837 </i>
   </energy>
  </scstep>
  <scstep>
   <time name="diag">    1.26    1.27</time>
   <time name="diis">    3.43    3.44</time>
   <time name="orth">    0.34    0.34</time>
   <time name="total">    5.30    5.32</time>
   <dipole>
    <v name="dipole">      0.00000000       0.00000000      -0.00143249 </v>
    <i name="Tr[quadrupol]"> -10314.22916431 </i>
    <i name="Echarged">      0.00000000 </i>
    <i name="Edipol_quadrupol">      0.00000000 </i>
    <i name="Eion">      0.00000000 </i>
   </dipole>
   <energy>
    <i name="e_fr_energy">   -189.76258790 </i>
    <i name="e_wo_entrp">   -189.49791817 </i>
    <i name="e_0_energy">   -189.63025303 </i>
   </energy>
  </scstep>
  <scstep>
   <time name="diag">    1.27    1.27</time>
   <time name="diis">    3.41    3.42</time>
   <time name="orth">    0.34    0.34</time>
   <time name="total">    5.30    5.32</time>
   <dipole>
    <v name="dipole">      0.00000000       0.00000000       0.01916166 </v>
    <i name="Tr[quadrupol]"> -10314.23859304 </i>
    <i name="Echarged">      0.00000000 </i>
    <i name="Edipol_quadrupol">      0.00000000 </i>
    <i name="Eion">      0.00000000 </i>
   </dipole>
   <energy>
    <i name="e_fr_energy">   -189.76391564 </i>
    <i name="e_wo_entrp">   -189.49313181 </i>
    <i name="e_0_energy">   -189.62852373 </i>
   </energy>
  </scstep>
  <scstep>
   <time name="diag">    1.27    1.28</time>
   <time name="diis">    3.44    3.45</time>
   <time name="orth">    0.34    0.34</time>
   <time name="total">    5.32    5.34</time>
   <dipole>
    <v name="dipole">      0.00000000       0.00000000       0.02457355 </v>
    <i name="Tr[quadrupol]"> -10314.24287537 </i>
    <i name="Echarged">      0.00000000 </i>
    <i name="Edipol_quadrupol">      0.00000000 </i>
    <i name="Eion">      0.00000000 </i>
   </dipole>
   <energy>
    <i name="e_fr_energy">   -189.75719215 </i>
    <i name="e_wo_entrp">   -189.49155208 </i>
    <i name="e_0_energy">   -189.62437211 </i>
   </energy>
  </scstep>
  <scstep>
   <time name="diag">    1.27    1.27</time>
   <time name="diis">    3.43    3.44</time>
   <time name="orth">    0.34    0.34</time>
   <time name="total">    5.31    5.32</time>
   <dipole>
    <v name="dipole">      0.00000000       0.00000000       0.01476852 </v>
    <i name="Tr[quadrupol]"> -10314.22946116 </i>
    <i name="Echarged">      0.00000000 </i>
    <i name="Edipol_quadrupol">      0.00000000 </i>
    <i name="Eion">      0.00000000 </i>
   </dipole>
   <energy>
    <i name="e_fr_energy">   -189.75541312 </i>
    <i name="e_wo_entrp">   -189.48704639 </i>
    <i name="e_0_energy">   -189.62122975 </i>
   </energy>
  </scstep>
  <scstep>
   <time name="diag">    1.27    1.27</time>
   <time name="diis">    3.44    3.46</time>
   <time name="orth">    0.34    0.35</time>
   <time name="total">    5.32    5.35</time>
   <dipole>
    <v name="dipole">      0.00000000       0.00000000       0.01228398 </v>
    <i name="Tr[quadrupol]"> -10314.22382590 </i>
    <i name="Echarged">      0.00000000 </i>
    <i name="Edipol_quadrupol">      0.00000000 </i>
    <i name="Eion">      0.00000000 </i>
   </dipole>
   <energy>
    <i name="e_fr_energy">   -189.75502025 </i>
    <i name="e_wo_entrp">   -189.48681937 </i>
    <i name="e_0_energy">   -189.62091981 </i>
   </energy>
  </scstep>
  <scstep>
   <time name="diag">    1.28    1.28</time>
   <time name="diis">    3.40    3.41</time>
   <time name="orth">    0.34    0.34</time>
   <time name="total">    5.30    5.31</time>
   <dipole>
    <v name="dipole">      0.00000000       0.00000000       0.01364806 </v>
    <i name="Tr[quadrupol]"> -10314.22279747 </i>
    <i name="Echarged">      0.00000000 </i>
    <i name="Edipol_quadrupol">      0.00000000 </i>
    <i name="Eion">      0.00000000 </i>
   </dipole>
   <energy>
    <i name="e_fr_energy">   -189.75485963 </i>
    <i name="e_wo_entrp">   -189.48651463 </i>
    <i name="e_0_energy">   -189.62068713 </i>
   </energy>
  </scstep>
  <scstep>
   <time name="diag">    1.28    1.29</time>
   <time name="diis">    3.45    3.46</time>
   <time name="orth">    0.34    0.37</time>
   <time name="total">    5.34    5.41</time>
   <dipole>
    <v name="dipole">      0.00000000       0.00000000       0.01395251 </v>
    <i name="Tr[quadrupol]"> -10314.22180153 </i>
    <i name="Echarged">      0.00000000 </i>
    <i name="Edipol_quadrupol">      0.00000000 </i>
    <i name="Eion">      0.00000000 </i>
   </dipole>
   <energy>
    <i name="e_fr_energy">   -189.75480385 </i>
    <i name="e_wo_entrp">   -189.48641343 </i>
    <i name="e_0_energy">   -189.62060864 </i>
   </energy>
  </scstep>
  <scstep>
   <time name="diag">    1.26    1.28</time>
   <time name="diis">    3.48    3.48</time>
   <time name="orth">    0.34    0.35</time>
   <time name="total">    5.35    5.39</time>
   <dipole>
    <v name="dipole">      0.00000000       0.00000000       0.01367005 </v>
    <i name="Tr[quadrupol]"> -10314.22368916 </i>
    <i name="Echarged">      0.00000000 </i>
    <i name="Edipol_quadrupol">      0.00000000 </i>
    <i name="Eion">      0.00000000 </i>
   </dipole>
   <energy>
    <i name="e_fr_energy">   -189.75480806 </i>
    <i name="e_wo_entrp">   -189.48667673 </i>
    <i name="e_0_energy">   -189.62074240 </i>
   </energy>
  </scstep>
  <scstep>
   <time name="diag">    1.27    1.27</time>
   <time name="diis">    3.46    3.47</time>
   <time name="orth">    0.34    0.34</time>
   <time name="total">    5.34    5.36</time>
   <dipole>
    <v name="dipole">      0.00000000       0.00000000       0.01389546 </v>
    <i name="Tr[quadrupol]"> -10314.22556994 </i>
    <i name="Echarged">      0.00000000 </i>
    <i name="Edipol_quadrupol">      0.00000000 </i>
    <i name="Eion">      0.00000000 </i>
   </dipole>
   <energy>
    <i name="e_fr_energy">   -189.75479467 </i>
    <i name="e_wo_entrp">   -189.48656047 </i>
    <i name="e_0_energy">   -189.62067757 </i>
   </energy>
  </scstep>
  <scstep>
   <time name="diag">    1.28    1.28</time>
   <time name="diis">    2.66    2.67</time>
   <time name="orth">    0.34    0.34</time>
   <time name="total">    4.33    4.35</time>
   <dipole>
    <v name="dipole">      0.00000000       0.00000000       0.01372855 </v>
    <i name="Tr[quadrupol]"> -10314.22718258 </i>
    <i name="Echarged">      0.00000000 </i>
    <i name="Edipol_quadrupol">      0.00000000 </i>
    <i name="Eion">      0.00000000 </i>
   </dipole>
   <energy>
    <i name="alphaZ">    805.86528433 </i>
    <i name="ewald"> 198611.27931994 </i>
    <i name="hartreedc">-240811.04456849 </i>
    <i name="XCdc">   -344.62390961 </i>
    <i name="pawpsdc">  49101.57100721 </i>
    <i name="pawaedc"> -47178.36678942 </i>
    <i name="eentropy">     -0.26820373 </i>
    <i name="bandstr">  -2033.95280791 </i>
    <i name="atom">  41659.78587232 </i>
    <i name="e_fr_energy">   -189.75479536 </i>
    <i name="e_wo_entrp">   -189.48659163 </i>
    <i name="e_0_energy">   -189.62069349 </i>
   </energy>
  </scstep>
  <structure>
   <crystal>
    <varray name="basis" >
     <v>      11.00258152       0.00000000       0.00000000 </v>
     <v>       5.50129076       9.52851510       0.00000000 </v>
     <v>       0.00000000       0.00000000      24.49178509 </v>
    </varray>
    <i name="volume">   2567.67623402 </i>
    <varray name="rec_basis" >
     <v>       0.09088776      -0.05247407       0.00000000 </v>
     <v>       0.00000000       0.10494815       0.00000000 </v>
     <v>       0.00000000       0.00000000       0.04083002 </v>
    </varray>
   </crystal>
   <varray name="positions" >
    <v>       0.83333333       0.58333333       0.40830017 </v>
    <v>       0.50020551       0.25100609       0.59357281 </v>
    <v>       0.74845495       0.50079601       0.59415354 </v>
    <v>       0.08333333       0.33333333       0.40830017 </v>
    <v>       0.91814866       0.41523775       0.49965241 </v>
    <v>       0.00119083       0.24787475       0.59355218 </v>
    <v>       0.08333333       0.58333333       0.40830017 </v>
    <v>       0.66588844       0.66912687       0.50037542 </v>
    <v>       0.00030642       0.50019034       0.59360607 </v>
    <v>       0.08333333       0.83333333       0.40830017 </v>
    <v>       0.91561123       0.91768231       0.50002854 </v>
    <v>       0.41594906       0.16782026       0.49921525 </v>
    <v>      -0.00027649       0.75043172       0.59387659 </v>
    <v>       0.66603870       0.41509404       0.50041456 </v>
    <v>       0.58333333       0.58333333       0.40830017 </v>
    <v>       0.75025531       0.00021735       0.59359771 </v>
    <v>       0.58333333       0.33333333       0.40830017 </v>
    <v>       0.33333333       0.58333333       0.40830017 </v>
    <v>       0.16810398       0.66613345       0.50042930 </v>
    <v>       0.25100714       0.49951428       0.59356980 </v>
    <v>       0.33333333       0.83333333       0.40830017 </v>
    <v>       0.83333333       0.08333333       0.40830017 </v>
    <v>       0.49975226      -0.00104269       0.59387249 </v>
    <v>       0.41569730       0.91679246       0.50000006 </v>
    <v>       0.24966995       0.24960552       0.59270941 </v>
    <v>       0.16761714       0.41565336       0.49993598 </v>
    <v>       0.33333333       0.33333333       0.40830017 </v>
    <v>       0.24951982      -0.00037223       0.59259075 </v>
    <v>       0.91751090       0.16591020       0.50003628 </v>
    <v>       0.33333333       0.08333333       0.40830017 </v>
    <v>       0.91579430       0.66757047       0.49994873 </v>
    <v>       0.00056606       0.00036171       0.59262449 </v>
    <v>       0.16662300       0.91780646       0.50052731 </v>
    <v>       0.16672541       0.16587073       0.49994714 </v>
    <v>       0.66745540       0.91620315       0.49946705 </v>
    <v>       0.49929999       0.74988883       0.59281801 </v>
    <v>       0.41672956       0.41650561       0.50005326 </v>
    <v>       0.25073009       0.75075253       0.59257995 </v>
    <v>       0.49969362       0.50045755       0.59263878 </v>
    <v>       0.83333333       0.83333333       0.40830017 </v>
    <v>       0.75005036       0.24962405       0.59262988 </v>
    <v>       0.66660219       0.16682267       0.49995976 </v>
    <v>       0.83333333       0.33333333       0.40830017 </v>
    <v>       0.08333333       0.08333333       0.40830017 </v>
    <v>       0.58333333       0.83333333       0.40830017 </v>
    <v>       0.41595023       0.66684374       0.50079550 </v>
    <v>       0.58333333       0.08333333       0.40830017 </v>
    <v>       0.74957107       0.75026861       0.59274622 </v>
   </varray>
  </structure>
  <varray name="forces" >
   <v>      -0.01438589       0.34318145      -1.53606280 </v>
   <v>       0.07702466       0.06481430       0.97913240 </v>
   <v>      -0.15175772       0.06637109       1.19503199 </v>
   <v>       0.12853077      -0.50580721      -1.35424650 </v>
   <v>       0.01241047      -0.15446277       0.36218921 </v>
   <v>      -0.00091349      -0.23016433       1.00220250 </v>
   <v>      -0.11752391      -0.08438608      -1.28598644 </v>
   <v>       0.02766603       0.16976399       0.43339897 </v>
   <v>      -0.01061685      -0.01352515       0.94835878 </v>
   <v>       0.01278638       0.32051730      -1.47207242 </v>
   <v>      -0.08233367       0.07381138       0.33402394 </v>
   <v>       0.04575632       0.05730038       0.06197522 </v>
   <v>       0.04969465       0.08515461       1.13647003 </v>
   <v>      -0.06474128      -0.12701433       0.44169364 </v>
   <v>       0.11977423       0.09572902      -1.42691748 </v>
   <v>       0.01691822       0.05335433       1.02374957 </v>
   <v>      -0.21908843      -0.27998085      -1.37385032 </v>
   <v>       0.03808972      -0.28956601      -1.36925911 </v>
   <v>       0.09921810      -0.03765127       0.52176843 </v>
   <v>       0.13408531      -0.04746784       1.04274465 </v>
   <v>       0.09415594       0.34295713      -1.28827017 </v>
   <v>      -0.00339259       0.15398377      -1.36464659 </v>
   <v>      -0.12966647      -0.09560171       1.03558494 </v>
   <v>      -0.08268297       0.12909856       0.25175769 </v>
   <v>      -0.05528501      -0.12443604       0.53055743 </v>
   <v>       0.08161378      -0.09158803       0.25524753 </v>
   <v>       0.06422741      -0.19062482      -0.73497978 </v>
   <v>      -0.08473318      -0.09187047       0.58249456 </v>
   <v>       0.13005479      -0.10111550       0.18385728 </v>
   <v>       0.06115397       0.04564530      -0.78537435 </v>
   <v>       0.04352408       0.10026030       0.26743516 </v>
   <v>       0.09400766       0.00882705       0.56468717 </v>
   <v>       0.02386415       0.17956279       0.32864844 </v>
   <v>      -0.08268114      -0.14652815       0.14129139 </v>
   <v>       0.06251515       0.11708779       0.03440364 </v>
   <v>      -0.16240050      -0.00071322       0.69051516 </v>
   <v>      -0.06031468      -0.04899693       0.24535262 </v>
   <v>       0.18167243       0.15188687       0.59618683 </v>
   <v>      -0.01071379       0.09382538       0.60613544 </v>
   <v>      -0.26440905       0.10680144      -0.76662800 </v>
   <v>       0.02060728      -0.06957411       0.56744638 </v>
   <v>      -0.10329023      -0.04282451       0.23777786 </v>
   <v>       0.03731451      -0.24305053      -0.83248515 </v>
   <v>       0.10270956       0.10179078      -0.57172047 </v>
   <v>       0.21408759       0.22991610      -0.88583112 </v>
   <v>      -0.04972291       0.00143703       0.46071452 </v>
   <v>      -0.17296611      -0.13585757      -0.63920865 </v>
   <v>      -0.04984332       0.05972927       0.62470598 </v>
  </varray>
  <energy>
   <i name="e_fr_energy">   -189.75479536 </i>
   <i name="e_wo_entrp">   -189.62069349 </i>
   <i name="e_0_energy">     -0.26820373 </i>
  </energy>
  <time name="totalsc">   78.29   78.72</time>
 </calculation>
 <calculation>
  <scstep>
   <time name="dav">    7.24    7.26</time>
   <time name="total">    7.52    7.55</time>
   <dipole>
    <v name="dipole">      0.00000000       0.00000000       0.01381055 </v>
    <i name="Tr[quadrupol]"> -10277.05632315 </i>
    <i name="Echarged">      0.00000000 </i>
    <i name="Edipol_quadrupol">      0.00000000 </i>
    <i name="Eion">      0.00000000 </i>
   </dipole>
   <energy>
    <i name="alphaZ">    805.84708926 </i>
    <i name="ewald"> 194849.52191788 </i>
    <i name="hartreedc">-237069.10635623 </i>
    <i name="XCdc">   -347.21308771 </i>
    <i name="pawpsdc">  49101.45405999 </i>
    <i name="pawaedc"> -47178.24994643 </i>
    <i name="eentropy">     -0.25930717 </i>
    <i name="bandstr">  -2010.74822473 </i>
    <i name="atom">  41659.78587232 </i>
    <i name="e_fr_energy">   -188.96798282 </i>
    <i name="e_wo_entrp">   -188.70867565 </i>
    <i name="e_0_energy">   -188.83832924 </i>
   </energy>
  </scstep>
  <scstep>
   <time name="diag">    1.27    1.27</time>
   <time name="diis">    3.45    3.46</time>
   <time name="orth">    0.34    0.34</time>
   <time name="total">    5.33    5.35</time>
   <dipole>
    <v name="dipole">      0.00000000       0.00000000       0.10777782 </v>
    <i name="Tr[quadrupol]"> -10276.60134105 </i>
    <i name="Echarged">      0.00000000 </i>
    <i name="Edipol_quadrupol">      0.00000000 </i>
    <i name="Eion">      0.00000000 </i>
   </dipole>
   <energy>
    <i name="e_fr_energy">   -190.70165401 </i>
    <i name="e_wo_entrp">   -190.46354282 </i>
    <i name="e_0_energy">   -190.58259842 </i>
   </energy>
  </scstep>
  <scstep>
   <time name="diag">    1.27    1.27</time>
   <time name="diis">    3.54    3.55</time>
   <time name="orth">    0.34    0.34</time>
   <time name="total">    5.42    5.44</time>
   <dipole>
    <v name="dipole">      0.00000000       0.00000000      -0.14946860 </v>
    <i name="Tr[quadrupol]"> -10277.18630932 </i>
    <i name="Echarged">      0.00000000 </i>
    <i name="Edipol_quadrupol">      0.00000000 </i>
    <i name="Eion">      0.00000000 </i>
   </dipole>
   <energy>
    <i name="e_fr_energy">   -191.21770014 </i>
    <i name="e_wo_entrp">   -190.97885677 </i>
    <i name="e_0_energy">   -191.09827845 </i>
   </energy>
  </scstep>
  <scstep>
   <time name="diag">    1.27    1.27</time>
   <time name="diis">    3.44    3.53</time>
   <time name="orth">    0.34    0.34</time>
   <time name="total">    5.31    5.41</time>
   <dipole>
    <v name="dipole">      0.00000000       0.00000000       0.08218518 </v>
    <i name="Tr[quadrupol]"> -10277.14352569 </i>
    <i name="Echarged">      0.00000000 </i>
    <i name="Edipol_quadrupol">      0.00000000 </i>
    <i name="Eion">      0.00000000 </i>
   </dipole>
   <energy>
    <i name="e_fr_energy">   -190.66869384 </i>
    <i name="e_wo_entrp">   -190.41599154 </i>
    <i name="e_0_energy">   -190.54234269 </i>
   </energy>
  </scstep>
  <scstep>
   <time name="diag">    1.28    1.28</time>
   <time name="diis">    3.48    3.48</time>
   <time name="orth">    0.34    0.34</time>
   <time name="total">    5.37    5.39</time>
   <dipole>
    <v name="dipole">      0.00000000       0.00000000      -0.01202778 </v>
    <i name="Tr[quadrupol]"> -10277.04992213 </i>
    <i name="Echarged">      0.00000000 </i>
    <i name="Edipol_quadrupol">      0.00000000 </i>
    <i name="Eion">      0.00000000 </i>
   </dipole>
   <energy>
    <i name="e_fr_energy">   -190.57145996 </i>
    <i name="e_wo_entrp">   -190.31385532 </i>
    <i name="e_0_energy">   -190.44265764 </i>
   </energy>
  </scstep>
  <scstep>
   <time name="diag">    1.27    1.28</time>
   <time name="diis">    3.41    3.43</time>
   <time name="orth">    0.34    0.34</time>
   <time name="total">    5.29    5.32</time>
   <dipole>
    <v name="dipole">      0.00000000       0.00000000       0.07307844 </v>
    <i name="Tr[quadrupol]"> -10277.11961230 </i>
    <i name="Echarged">      0.00000000 </i>
    <i name="Edipol_quadrupol">      0.00000000 </i>
    <i name="Eion">      0.00000000 </i>
   </dipole>
   <energy>
    <i name="e_fr_energy">   -190.57967561 </i>
    <i name="e_wo_entrp">   -190.31859783 </i>
    <i name="e_0_energy">   -190.44913672 </i>
   </energy>
  </scstep>
  <scstep>
   <time name="diag">    1.27    1.28</time>
   <time name="diis">    3.49    3.50</time>
   <time name="orth">    0.34    0.34</time>
   <time name="total">    5.37    5.39</time>
   <dipole>
    <v name="dipole">      0.00000000       0.00000000       0.06143715 </v>
    <i name="Tr[quadrupol]"> -10277.10746986 </i>
    <i name="Echarged">      0.00000000 </i>
    <i name="Edipol_quadrupol">      0.00000000 </i>
    <i name="Eion">      0.00000000 </i>
   </dipole>
   <energy>
    <i name="e_fr_energy">   -190.53514785 </i>
    <i name="e_wo_entrp">   -190.28225018 </i>
    <i name="e_0_energy">   -190.40869902 </i>
   </energy>
  </scstep>
  <scstep>
   <time name="diag">    1.27    1.27</time>
   <time name="diis">    3.43    3.44</time>
   <time name="orth">    0.34    0.34</time>
   <time name="total">    5.30    5.32</time>
   <dipole>
    <v name="dipole">      0.00000000       0.00000000       0.02994259 </v>
    <i name="Tr[quadrupol]"> -10277.04900355 </i>
    <i name="Echarged">      0.00000000 </i>
    <i name="Edipol_quadrupol">      0.00000000 </i>
    <i name="Eion">      0.00000000 </i>
   </dipole>
   <energy>
[...]
       <r>    -9.2251     0.0000     0.0000 </r>
       <r>    -9.1715     0.0000     0.0000 </r>
       <r>    -9.1180     0.0000     0.0000 </r>
       <r>    -9.0645     0.0000     0.0000 </r>
       <r>    -9.0109     0.0001     0.0000 </r>
       <r>    -8.9574     0.0025     0.0001 </r>
       <r>    -8.9038     0.0342     0.0020 </r>
       <r>    -8.8503     0.2738     0.0166 </r>
       <r>    -8.7968     1.2705     0.0846 </r>
       <r>    -8.7432     3.4230     0.2679 </r>
       <r>    -8.6897     5.4051     0.5573 </r>
       <r>    -8.6361     5.2787     0.8399 </r>
       <r>    -8.5826     4.2152     1.0656 </r>
       <r>    -8.5291     4.5813     1.3109 </r>
       <r>    -8.4755     5.3777     1.5988 </r>
       <r>    -8.4220     4.4076     1.8348 </r>
       <r>    -8.3684     2.3002     1.9580 </r>
       <r>    -8.3149     1.0064     2.0119 </r>
       <r>    -8.2613     1.1161     2.0716 </r>
       <r>    -8.2078     2.0029     2.1789 </r>
       <r>    -8.1543     2.9890     2.3389 </r>
       <r>    -8.1007     4.1786     2.5626 </r>
       <r>    -8.0472     5.5936     2.8621 </r>
       <r>    -7.9936     6.7411     3.2230 </r>
       <r>    -7.9401     7.8899     3.6454 </r>
       <r>    -7.8866     9.3524     4.1462 </r>
       <r>    -7.8330    10.4698     4.7067 </r>
       <r>    -7.7795    10.3433     5.2605 </r>
       <r>    -7.7259     8.2912     5.7044 </r>
       <r>    -7.6724     5.7729     6.0135 </r>
       <r>    -7.6189     5.9045     6.3297 </r>
       <r>    -7.5653     8.3869     6.7787 </r>
       <r>    -7.5118     9.5016     7.2874 </r>
       <r>    -7.4582     7.9712     7.7142 </r>
       <r>    -7.4047     6.4574     8.0599 </r>
       <r>    -7.3512     7.3063     8.4511 </r>
       <r>    -7.2976    10.0754     8.9906 </r>
       <r>    -7.2441    13.1376     9.6940 </r>
       <r>    -7.1905    15.7002    10.5346 </r>
       <r>    -7.1370    18.0005    11.4983 </r>
       <r>    -7.0835    19.9366    12.5657 </r>
       <r>    -7.0299    20.4874    13.6626 </r>
       <r>    -6.9764    21.0081    14.7874 </r>
       <r>    -6.9228    24.2415    16.0853 </r>
       <r>    -6.8693    30.0521    17.6943 </r>
       <r>    -6.8158    35.7541    19.6086 </r>
       <r>    -6.7622    39.1662    21.7056 </r>
       <r>    -6.7087    41.7980    23.9435 </r>
       <r>    -6.6551    46.1371    26.4137 </r>
       <r>    -6.6016    50.7190    29.1292 </r>
       <r>    -6.5480    53.1803    31.9765 </r>
       <r>    -6.4945    53.6502    34.8490 </r>
       <r>    -6.4410    53.6307    37.7204 </r>
       <r>    -6.3874    56.2102    40.7299 </r>
       <r>    -6.3339    62.5588    44.0794 </r>
       <r>    -6.2803    69.9779    47.8260 </r>
       <r>    -6.2268    75.6045    51.8739 </r>
       <r>    -6.1733    77.3650    56.0161 </r>
       <r>    -6.1197    75.7660    60.0726 </r>
       <r>    -6.0662    74.4329    64.0578 </r>
       <r>    -6.0126    75.2514    68.0868 </r>
       <r>    -5.9591    76.6078    72.1884 </r>
       <r>    -5.9056    76.8383    76.3024 </r>
       <r>    -5.8520    76.6545    80.4065 </r>
       <r>    -5.7985    77.1235    84.5358 </r>
       <r>    -5.7449    76.9265    88.6545 </r>
       <r>    -5.6914    74.8127    92.6600 </r>
       <r>    -5.6379    71.8334    96.5060 </r>
       <r>    -5.5843    69.9456   100.2509 </r>
       <r>    -5.5308    70.3236   104.0161 </r>
       <r>    -5.4772    72.1285   107.8779 </r>
       <r>    -5.4237    73.6870   111.8231 </r>
       <r>    -5.3702    74.6449   115.8197 </r>
       <r>    -5.3166    75.5045   119.8622 </r>
       <r>    -5.2631    75.9878   123.9306 </r>
       <r>    -5.2095    76.4304   128.0228 </r>
       <r>    -5.1560    78.2367   132.2116 </r>
       <r>    -5.1025    80.9573   136.5461 </r>
       <r>    -5.0489    82.1818   140.9462 </r>
       <r>    -4.9954    81.1079   145.2887 </r>
       <r>    -4.9418    80.5399   149.6009 </r>
       <r>    -4.8883    83.1511   154.0528 </r>
       <r>    -4.8348    86.2145   158.6688 </r>
       <r>    -4.7812    86.7280   163.3123 </r>
       <r>    -4.7277    87.0262   167.9717 </r>
       <r>    -4.6741    89.2907   172.7524 </r>
       <r>    -4.6206    91.8902   177.6722 </r>
       <r>    -4.5670    92.8232   182.6420 </r>
       <r>    -4.5135    92.2050   187.5788 </r>
       <r>    -4.4600    90.9925   192.4505 </r>
       <r>    -4.4064    89.4461   197.2395 </r>
       <r>    -4.3529    88.0670   201.9547 </r>
       <r>    -4.2993    87.4327   206.6359 </r>
       <r>    -4.2458    87.3744   211.3140 </r>
       <r>    -4.1923    87.8917   216.0197 </r>
       <r>    -4.1387    88.8583   220.7773 </r>
       <r>    -4.0852    89.5755   225.5732 </r>
       <r>    -4.0316    89.8420   230.3834 </r>
       <r>    -3.9781    90.8404   235.2470 </r>
       <r>    -3.9246    93.0015   240.2264 </r>
       <r>    -3.8710    94.5056   245.2863 </r>
       <r>    -3.8175    94.3863   250.3398 </r>
       <r>    -3.7639    93.4252   255.3418 </r>
       <r>    -3.7104    92.3871   260.2883 </r>
       <r>    -3.6569    91.8772   265.2074 </r>
       <r>    -3.6033    91.9839   270.1323 </r>
       <r>    -3.5498    92.5082   275.0852 </r>
       <r>    -3.4962    93.7573   280.1050 </r>
       <r>    -3.4427    95.3209   285.2086 </r>
       <r>    -3.3892    95.7644   290.3359 </r>
       <r>    -3.3356    95.1553   295.4305 </r>
       <r>    -3.2821    95.1645   300.5257 </r>
       <r>    -3.2285    95.6239   305.6454 </r>
       <r>    -3.1750    94.8033   310.7213 </r>
       <r>    -3.1215    93.1329   315.7077 </r>
       <r>    -3.0679    92.6414   320.6677 </r>
       <r>    -3.0144    92.8598   325.6395 </r>
       <r>    -2.9608    92.5750   330.5960 </r>
       <r>    -2.9073    93.3676   335.5950 </r>
       <r>    -2.8538    95.4082   340.7032 </r>
       <r>    -2.8002    95.7581   345.8301 </r>
       <r>    -2.7467    94.3003   350.8790 </r>
       <r>    -2.6931    93.7810   355.9001 </r>
       <r>    -2.6396    94.4361   360.9563 </r>
       <r>    -2.5860    94.3244   366.0064 </r>
       <r>    -2.5325    92.4472   370.9561 </r>
       <r>    -2.4790    89.5116   375.7486 </r>
       <r>    -2.4254    87.4991   380.4334 </r>
       <r>    -2.3719    88.3833   385.1655 </r>
       <r>    -2.3183    91.5995   390.0698 </r>
       <r>    -2.2648    93.8015   395.0919 </r>
       <r>    -2.2113    93.7626   400.1120 </r>
       <r>    -2.1577    93.8830   405.1386 </r>
       <r>    -2.1042    95.5370   410.2537 </r>
       <r>    -2.0506    97.6059   415.4796 </r>
       <r>    -1.9971    98.8966   420.7745 </r>
       <r>    -1.9436    99.0289   426.0766 </r>
       <r>    -1.8900    98.5523   431.3532 </r>
       <r>    -1.8365    98.1960   436.6106 </r>
       <r>    -1.7829    97.0672   441.8077 </r>
       <r>    -1.7294    95.3579   446.9132 </r>
       <r>    -1.6759    95.1216   452.0060 </r>
       <r>    -1.6223    96.6406   457.1802 </r>
       <r>    -1.5688    97.9410   462.4241 </r>
       <r>    -1.5152    98.0594   467.6742 </r>
       <r>    -1.4617    98.3282   472.9388 </r>
       <r>    -1.4082    99.1265   478.2460 </r>
       <r>    -1.3546    99.0525   483.5494 </r>
       <r>    -1.3011    96.8897   488.7369 </r>
       <r>    -1.2475    91.3804   493.6295 </r>
       <r>    -1.1940    81.2444   497.9793 </r>
       <r>    -1.1405    67.1361   501.5738 </r>
       <r>    -1.0869    52.4894   504.3841 </r>
       <r>    -1.0334    39.6870   506.5090 </r>
       <r>    -0.9798    28.6407   508.0424 </r>
       <r>    -0.9263    20.3815   509.1337 </r>
       <r>    -0.8727    15.1454   509.9446 </r>
       <r>    -0.8192    11.3652   510.5531 </r>
       <r>    -0.7657     8.7437   511.0212 </r>
       <r>    -0.7121     7.4587   511.4206 </r>
       <r>    -0.6586     6.9750   511.7940 </r>
       <r>    -0.6050     7.8399   512.2138 </r>
       <r>    -0.5515    11.2820   512.8178 </r>
       <r>    -0.4980    16.7185   513.7129 </r>
       <r>    -0.4444    21.9688   514.8891 </r>
       <r>    -0.3909    24.2112   516.1854 </r>
       <r>    -0.3373    22.0695   517.3670 </r>
       <r>    -0.2838    18.4860   518.3568 </r>
       <r>    -0.2303    17.7702   519.3082 </r>
       <r>    -0.1767    19.6183   520.3586 </r>
       <r>    -0.1232    19.6876   521.4127 </r>
       <r>    -0.0696    16.1718   522.2785 </r>
       <r>    -0.0161    12.5353   522.9497 </r>
       <r>     0.0374    12.1042   523.5977 </r>
       <r>     0.0910    14.0561   524.3503 </r>
       <r>     0.1445    16.6215   525.2402 </r>
       <r>     0.1981    19.1918   526.2678 </r>
       <r>     0.2516    20.5872   527.3700 </r>
       <r>     0.3051    19.9422   528.4378 </r>
       <r>     0.3587    18.2400   529.4143 </r>
       <r>     0.4122    17.0393   530.3266 </r>
       <r>     0.4658    17.2995   531.2529 </r>
       <r>     0.5193    18.6037   532.2489 </r>
       <r>     0.5728    19.2977   533.2821 </r>
       <r>     0.6264    19.3102   534.3160 </r>
       <r>     0.6799    19.5336   535.3618 </r>
       <r>     0.7335    19.5059   536.4062 </r>
       <r>     0.7870    18.6605   537.4053 </r>
       <r>     0.8405    16.4267   538.2848 </r>
       <r>     0.8941    13.3220   538.9981 </r>
       <r>     0.9476    11.6594   539.6223 </r>
       <r>     1.0012    11.8976   540.2593 </r>
       <r>     1.0547    12.5341   540.9304 </r>
       <r>     1.1083    12.2025   541.5837 </r>
       <r>     1.1618    10.0639   542.1225 </r>
       <r>     1.2153     6.9551   542.4949 </r>
       <r>     1.2689     5.1411   542.7702 </r>
       <r>     1.3224     5.9277   543.0876 </r>
       <r>     1.3760     7.9818   543.5149 </r>
       <r>     1.4295     9.8659   544.0431 </r>
       <r>     1.4830    12.4684   544.7107 </r>
       <r>     1.5366    15.6575   545.5490 </r>
       <r>     1.5901    17.1770   546.4687 </r>
       <r>     1.6437    16.5311   547.3538 </r>
       <r>     1.6972    15.3337   548.1747 </r>
       <r>     1.7507    15.5253   549.0060 </r>
       <r>     1.8043    17.4885   549.9423 </r>
       <r>     1.8578    17.7485   550.8926 </r>
       <r>     1.9114    13.4298   551.6116 </r>
       <r>     1.9649     8.2535   552.0535 </r>
       <r>     2.0184     6.8070   552.4180 </r>
       <r>     2.0720     8.1967   552.8568 </r>
       <r>     2.1255    10.4976   553.4189 </r>
       <r>     2.1791    13.5165   554.1425 </r>
       <r>     2.2326    16.5515   555.0287 </r>
       <r>     2.2861    19.4967   556.0726 </r>
       <r>     2.3397    22.5566   557.2803 </r>
       <r>     2.3932    24.9397   558.6156 </r>
       <r>     2.4468    25.6936   559.9912 </r>
       <r>     2.5003    23.9118   561.2715 </r>
       <r>     2.5538    20.9659   562.3940 </r>
       <r>     2.6074    20.6588   563.5001 </r>
       <r>     2.6609    23.9135   564.7804 </r>
       <r>     2.7145    26.6728   566.2085 </r>
       <r>     2.7680    24.2133   567.5049 </r>
       <r>     2.8215    16.9721   568.4136 </r>
       <r>     2.8751    10.0563   568.9520 </r>
       <r>     2.9286     6.9819   569.3258 </r>
       <r>     2.9822     6.2495   569.6604 </r>
       <r>     3.0357     5.4923   569.9545 </r>
       <r>     3.0893     5.6980   570.2596 </r>
       <r>     3.1428     7.7862   570.6764 </r>
       <r>     3.1963    10.3592   571.2311 </r>
       <r>     3.2499    12.0732   571.8775 </r>
       <r>     3.3034    11.8345   572.5111 </r>
       <r>     3.3570     9.9771   573.0453 </r>
       <r>     3.4105     8.6477   573.5083 </r>
       <r>     3.4640     8.4861   573.9626 </r>
       <r>     3.5176     9.0763   574.4486 </r>
       <r>     3.5711    11.0701   575.0413 </r>
       <r>     3.6247    14.8685   575.8374 </r>
       <r>     3.6782    18.6016   576.8333 </r>
       <r>     3.7317    19.8842   577.8979 </r>
       <r>     3.7853    18.7825   578.9035 </r>
       <r>     3.8388    16.4182   579.7826 </r>
       <r>     3.8924    13.5504   580.5081 </r>
       <r>     3.9459    11.8950   581.1449 </r>
       <r>     3.9994    13.1419   581.8486 </r>
       <r>     4.0530    14.9453   582.6487 </r>
       <r>     4.1065    13.8487   583.3902 </r>
       <r>     4.1601    11.7000   584.0166 </r>
       <r>     4.2136    11.5202   584.6334 </r>
       <r>     4.2671    11.6789   585.2587 </r>
       <r>     4.3207    10.0813   585.7985 </r>
       <r>     4.3742     8.8912   586.2745 </r>
       <r>     4.4278    10.5171   586.8376 </r>
       <r>     4.4813    14.1247   587.5939 </r>
       <r>     4.5348    18.5206   588.5855 </r>
       <r>     4.5884    23.1986   589.8275 </r>
       <r>     4.6419    26.6033   591.2519 </r>
       <r>     4.6955    26.6756   592.6801 </r>
       <r>     4.7490    23.7860   593.9536 </r>
       <r>     4.8026    21.1894   595.0881 </r>
       <r>     4.8561    21.9917   596.2656 </r>
       <r>     4.9096    26.3479   597.6762 </r>
       <r>     4.9632    32.0866   599.3942 </r>
       <r>     5.0167    36.4011   601.3431 </r>
       <r>     5.0703    36.5605   603.3006 </r>
       <r>     5.1238    32.6168   605.0469 </r>
       <r>     5.1773    29.0026   606.5997 </r>
       <r>     5.2309    28.4212   608.1214 </r>
       <r>     5.2844    27.5155   609.5946 </r>
       <r>     5.3380    22.4716   610.7977 </r>
       <r>     5.3915    14.0392   611.5494 </r>
       <r>     5.4450     6.2153   611.8822 </r>
       <r>     5.4986     1.8231   611.9798 </r>
       <r>     5.5521     0.3369   611.9978 </r>
       <r>     5.6057     0.0380   611.9999 </r>
       <r>     5.6592     0.0026   612.0000 </r>
       <r>     5.7127     0.0001   612.0000 </r>
       <r>     5.7663     0.0000   612.0000 </r>
       <r>     5.8198     0.0000   612.0000 </r>
       <r>     5.8734     0.0000   612.0000 </r>
       <r>     5.9269     0.0000   612.0000 </r>
       <r>     5.9804     0.0000   612.0000 </r>
       <r>     6.0340     0.0000   612.0000 </r>
       <r>     6.0875     0.0000   612.0000 </r>
       <r>     6.1411     0.0000   612.0000 </r>
       <r>     6.1946     0.0000   612.0000 </r>
       <r>     6.2481     0.0000   612.0000 </r>
       <r>     6.3017     0.0000   612.0000 </r>
       <r>     6.3552     0.0000   612.0000 </r>
      </set>
     </set>
    </array>
   </total>
  </dos>
 </calculation>
 <structure name="finalpos" >
  <crystal>
   <varray name="basis" >
    <v>      11.00258152       0.00000000       0.00000000 </v>
    <v>       5.50129076       9.52851510       0.00000000 </v>
    <v>       0.00000000       0.00000000      24.49178509 </v>
   </varray>
   <i name="volume">   2567.67623402 </i>
   <varray name="rec_basis" >
    <v>       0.09088776      -0.05247407       0.00000000 </v>
    <v>       0.00000000       0.10494815       0.00000000 </v>
    <v>       0.00000000       0.00000000       0.04083002 </v>
   </varray>
  </crystal>
  <varray name="positions" >
   <v>       0.83333333       0.58333333       0.40830017 </v>
   <v>       0.50031455       0.25048064       0.60992345 </v>
   <v>       0.74675481       0.50074246       0.61516311 </v>
   <v>       0.08333333       0.33333333       0.40830017 </v>
   <v>       0.91853025       0.41514439       0.50948462 </v>
   <v>       0.00204049       0.24538725       0.61056775 </v>
   <v>       0.08333333       0.58333333       0.40830017 </v>
   <v>       0.66634914       0.66917785       0.50962180 </v>
   <v>       0.00005978       0.49940702       0.61058088 </v>
   <v>       0.08333333       0.83333333       0.40830017 </v>
   <v>       0.91433582       0.91769053       0.50899341 </v>
   <v>       0.41623807       0.16857885       0.50535786 </v>
   <v>       0.00000159       0.75106197       0.61432098 </v>
   <v>       0.66669098       0.41455621       0.50941389 </v>
   <v>       0.58333333       0.58333333       0.40830017 </v>
   <v>       0.74984338      -0.00007038       0.61120227 </v>
   <v>       0.58333333       0.33333333       0.40830017 </v>
   <v>       0.33333333       0.58333333       0.40830017 </v>
   <v>       0.16797512       0.66582771       0.51151797 </v>
   <v>       0.25200766       0.49900528       0.61191532 </v>
   <v>       0.33333333       0.83333333       0.40830017 </v>
   <v>       0.83333333       0.08333333       0.40830017 </v>
   <v>       0.49838605      -0.00264139       0.61144202 </v>
   <v>       0.41506376       0.91844773       0.50734067 </v>
   <v>       0.25029564       0.24745134       0.60339583 </v>
   <v>       0.16730111       0.41638017       0.50832420 </v>
   <v>       0.33333333       0.33333333       0.40830017 </v>
   <v>       0.24938576      -0.00212896       0.60396195 </v>
   <v>       0.91876253       0.16538649       0.50735442 </v>
   <v>       0.33333333       0.08333333       0.40830017 </v>
   <v>       0.91666734       0.66805157       0.50894415 </v>
   <v>       0.00111648      -0.00081432       0.60450022 </v>
   <v>       0.16545410       0.91869208       0.50750468 </v>
   <v>       0.16487237       0.16608221       0.50646319 </v>
   <v>       0.66686148       0.91795276       0.50686847 </v>
   <v>       0.49812114       0.74928103       0.60589713 </v>
   <v>       0.41601141       0.41654277       0.50879581 </v>
   <v>       0.25144702       0.75203072       0.60594011 </v>
   <v>       0.49930583       0.50099547       0.60540251 </v>
   <v>       0.83333333       0.83333333       0.40830017 </v>
   <v>       0.75085883       0.24856165       0.60495554 </v>
   <v>       0.66584138       0.16645418       0.50852089 </v>
   <v>       0.83333333       0.33333333       0.40830017 </v>
   <v>       0.08333333       0.08333333       0.40830017 </v>
   <v>       0.58333333       0.83333333       0.40830017 </v>
   <v>       0.41548900       0.66719834       0.50923055 </v>
   <v>       0.58333333       0.08333333       0.40830017 </v>
   <v>       0.74895898       0.75019908       0.60574343 </v>
  </varray>
  <varray name="selective"  type="logical" >
   <v type="logical" >  F  F  F </v>
   <v type="logical" >  T  T  T </v>
   <v type="logical" >  T  T  T </v>
   <v type="logical" >  F  F  F </v>
   <v type="logical" >  T  T  T </v>
   <v type="logical" >  T  T  T </v>
   <v type="logical" >  F  F  F </v>
   <v type="logical" >  T  T  T </v>
   <v type="logical" >  T  T  T </v>
   <v type="logical" >  F  F  F </v>
   <v type="logical" >  T  T  T </v>
   <v type="logical" >  T  T  T </v>
   <v type="logical" >  T  T  T </v>
   <v type="logical" >  T  T  T </v>
   <v type="logical" >  F  F  F </v>
   <v type="logical" >  T  T  T </v>
   <v type="logical" >  F  F  F </v>
   <v type="logical" >  F  F  F </v>
   <v type="logical" >  T  T  T </v>
   <v type="logical" >  T  T  T </v>
   <v type="logical" >  F  F  F </v>
   <v type="logical" >  F  F  F </v>
   <v type="logical" >  T  T  T </v>
   <v type="logical" >  T  T  T </v>
   <v type="logical" >  T  T  T </v>
   <v type="logical" >  T  T  T </v>
   <v type="logical" >  F  F  F </v>
   <v type="logical" >  T  T  T </v>
   <v type="logical" >  T  T  T </v>
   <v type="logical" >  F  F  F </v>
   <v type="logical" >  T  T  T </v>
   <v type="logical" >  T  T  T </v>
   <v type="logical" >  T  T  T </v>
   <v type="logical" >  T  T  T </v>
   <v type="logical" >  T  T  T </v>
   <v type="logical" >  T  T  T </v>
   <v type="logical" >  T  T  T </v>
   <v type="logical" >  T  T  T </v>
   <v type="logical" >  T  T  T </v>
   <v type="logical" >  F  F  F </v>
   <v type="logical" >  T  T  T </v>
   <v type="logical" >  T  T  T </v>
   <v type="logical" >  F  F  F </v>
   <v type="logical" >  F  F  F </v>
   <v type="logical" >  F  F  F </v>
   <v type="logical" >  T  T  T </v>
   <v type="logical" >  F  F  F </v>
   <v type="logical" >  T  T  T </v>
  </varray>
  <nose>
   <v>      -3.00000000       0.00000000       0.00010000       0.00010000 </v>
  </nose>
 </structure>
</modeling>
