  48  48   0   0
  0.5349325E+02  0.1100258E-08  0.1100258E-08  0.2449179E-08  0.3500000E-15
  1.000000000000000E-004
  CAR 
 unknown system                          
      6.34460965    -10.03189680  301     -1.08124987      1.00000000
    -10.032  0.0000E+00  0.0000E+00
     -9.977  0.0000E+00  0.0000E+00
     -9.923  0.0000E+00  0.0000E+00
     -9.868  0.0000E+00  0.0000E+00
     -9.814  0.0000E+00  0.0000E+00
     -9.759  0.0000E+00  0.0000E+00
     -9.704  0.0000E+00  0.0000E+00
     -9.650  0.0000E+00  0.0000E+00
     -9.595  0.1898E-16  0.1036E-17
     -9.541  0.7408E-14  0.4055E-15
     -9.486  0.1641E-11  0.9000E-13
     -9.431  0.2029E-09  0.1117E-10
     -9.377  0.1402E-07  0.7767E-09
     -9.322  0.5431E-06  0.3042E-07
     -9.268  0.1181E-04  0.6753E-06
     -9.213  0.1447E-03  0.8574E-05
     -9.158  0.1001E-02  0.6321E-04
     -9.104  0.3919E-02  0.2771E-03
     -9.049  0.8713E-02  0.7528E-03
     -8.995  0.1112E-01  0.1360E-02
     -8.940  0.8869E-02  0.1844E-02
     -8.886  0.7068E-02  0.2230E-02
     -8.831  0.9261E-02  0.2735E-02
     -8.776  0.1092E-01  0.3331E-02
     -8.722  0.7943E-02  0.3765E-02
     -8.667  0.3373E-02  0.3949E-02
     -8.613  0.9561E-03  0.4001E-02
     -8.558  0.9534E-03  0.4053E-02
     -8.503  0.3115E-02  0.4223E-02
     -8.449  0.7043E-02  0.4608E-02
     -8.394  0.9943E-02  0.5151E-02
     -8.340  0.8856E-02  0.5634E-02
     -8.285  0.5429E-02  0.5930E-02
     -8.230  0.4407E-02  0.6171E-02
     -8.176  0.8149E-02  0.6616E-02
     -8.121  0.1424E-01  0.7393E-02
     -8.067  0.1769E-01  0.8359E-02
     -8.012  0.1563E-01  0.9212E-02
     -7.958  0.9811E-02  0.9747E-02
     -7.903  0.5280E-02  0.1004E-01
     -7.848  0.5600E-02  0.1034E-01
     -7.794  0.9803E-02  0.1088E-01
     -7.739  0.1427E-01  0.1166E-01
     -7.685  0.1634E-01  0.1255E-01
     -7.630  0.1535E-01  0.1339E-01
     -7.575  0.1388E-01  0.1414E-01
     -7.521  0.1726E-01  0.1509E-01
     -7.466  0.2592E-01  0.1650E-01
     -7.412  0.3558E-01  0.1844E-01
     -7.357  0.4513E-01  0.2091E-01
     -7.302  0.5333E-01  0.2382E-01
     -7.248  0.5428E-01  0.2678E-01
     -7.193  0.4700E-01  0.2935E-01
     -7.139  0.4069E-01  0.3157E-01
     -7.084  0.4184E-01  0.3385E-01
     -7.030  0.4827E-01  0.3649E-01
     -6.975  0.5585E-01  0.3953E-01
     -6.920  0.6079E-01  0.4285E-01
     -6.866  0.6359E-01  0.4632E-01
     -6.811  0.6771E-01  0.5002E-01
     -6.757  0.7232E-01  0.5397E-01
     -6.702  0.7425E-01  0.5802E-01
     -6.647  0.7529E-01  0.6213E-01
     -6.593  0.8174E-01  0.6659E-01
     -6.538  0.9575E-01  0.7182E-01
     -6.484  0.1122E+00  0.7795E-01
     -6.429  0.1278E+00  0.8493E-01
     -6.374  0.1434E+00  0.9275E-01
     -6.320  0.1558E+00  0.1013E+00
     -6.265  0.1592E+00  0.1100E+00
     -6.211  0.1548E+00  0.1184E+00
     -6.156  0.1469E+00  0.1264E+00
     -6.102  0.1398E+00  0.1341E+00
     -6.047  0.1389E+00  0.1416E+00
     -5.992  0.1440E+00  0.1495E+00
     -5.938  0.1484E+00  0.1576E+00
     -5.883  0.1479E+00  0.1657E+00
     -5.829  0.1440E+00  0.1735E+00
     -5.774  0.1391E+00  0.1811E+00
     -5.719  0.1356E+00  0.1885E+00
     -5.665  0.1342E+00  0.1959E+00
     -5.610  0.1351E+00  0.2032E+00
     -5.556  0.1360E+00  0.2107E+00
     -5.501  0.1332E+00  0.2179E+00
     -5.446  0.1303E+00  0.2250E+00
     -5.392  0.1340E+00  0.2324E+00
     -5.337  0.1432E+00  0.2402E+00
     -5.283  0.1525E+00  0.2485E+00
     -5.228  0.1569E+00  0.2571E+00
     -5.174  0.1557E+00  0.2656E+00
     -5.119  0.1540E+00  0.2740E+00
     -5.064  0.1557E+00  0.2825E+00
     -5.010  0.1603E+00  0.2912E+00
     -4.955  0.1653E+00  0.3002E+00
     -4.901  0.1679E+00  0.3094E+00
     -4.846  0.1682E+00  0.3186E+00
     -4.791  0.1678E+00  0.3277E+00
     -4.737  0.1667E+00  0.3368E+00
     -4.682  0.1659E+00  0.3459E+00
     -4.628  0.1665E+00  0.3550E+00
     -4.573  0.1685E+00  0.3642E+00
     -4.518  0.1716E+00  0.3736E+00
     -4.464  0.1735E+00  0.3830E+00
     -4.409  0.1729E+00  0.3925E+00
     -4.355  0.1727E+00  0.4019E+00
     -4.300  0.1760E+00  0.4115E+00
     -4.246  0.1801E+00  0.4213E+00
     -4.191  0.1806E+00  0.4312E+00
     -4.136  0.1774E+00  0.4409E+00
     -4.082  0.1739E+00  0.4504E+00
     -4.027  0.1742E+00  0.4599E+00
     -3.973  0.1781E+00  0.4696E+00
     -3.918  0.1815E+00  0.4795E+00
     -3.863  0.1835E+00  0.4895E+00
     -3.809  0.1854E+00  0.4996E+00
     -3.754  0.1868E+00  0.5098E+00
     -3.700  0.1858E+00  0.5200E+00
     -3.645  0.1824E+00  0.5299E+00
     -3.590  0.1810E+00  0.5398E+00
     -3.536  0.1825E+00  0.5498E+00
     -3.481  0.1816E+00  0.5597E+00
     -3.427  0.1777E+00  0.5694E+00
     -3.372  0.1756E+00  0.5790E+00
     -3.318  0.1760E+00  0.5886E+00
     -3.263  0.1761E+00  0.5982E+00
     -3.208  0.1756E+00  0.6078E+00
     -3.154  0.1768E+00  0.6174E+00
     -3.099  0.1794E+00  0.6272E+00
     -3.045  0.1824E+00  0.6372E+00
     -2.990  0.1847E+00  0.6473E+00
     -2.935  0.1862E+00  0.6574E+00
     -2.881  0.1873E+00  0.6677E+00
     -2.826  0.1898E+00  0.6780E+00
     -2.772  0.1953E+00  0.6887E+00
     -2.717  0.2009E+00  0.6997E+00
     -2.662  0.2016E+00  0.7107E+00
     -2.608  0.1981E+00  0.7215E+00
     -2.553  0.1965E+00  0.7322E+00
     -2.499  0.1982E+00  0.7430E+00
     -2.444  0.1969E+00  0.7538E+00
     -2.390  0.1880E+00  0.7640E+00
     -2.335  0.1764E+00  0.7737E+00
     -2.280  0.1713E+00  0.7830E+00
     -2.226  0.1752E+00  0.7926E+00
     -2.171  0.1827E+00  0.8025E+00
     -2.117  0.1882E+00  0.8128E+00
     -2.062  0.1910E+00  0.8232E+00
     -2.007  0.1943E+00  0.8339E+00
     -1.953  0.1995E+00  0.8447E+00
     -1.898  0.2045E+00  0.8559E+00
     -1.844  0.2085E+00  0.8673E+00
     -1.789  0.2142E+00  0.8790E+00
     -1.734  0.2202E+00  0.8910E+00
     -1.680  0.2224E+00  0.9031E+00
     -1.625  0.2214E+00  0.9152E+00
     -1.571  0.2211E+00  0.9273E+00
     -1.516  0.2205E+00  0.9393E+00
     -1.462  0.2135E+00  0.9510E+00
     -1.407  0.2005E+00  0.9619E+00
     -1.352  0.1875E+00  0.9722E+00
     -1.298  0.1745E+00  0.9817E+00
     -1.243  0.1576E+00  0.9903E+00
     -1.189  0.1347E+00  0.9977E+00
     -1.134  0.1079E+00  0.1004E+01
     -1.079  0.8399E-01  0.1008E+01
     -1.025  0.6626E-01  0.1012E+01
     -0.970  0.5213E-01  0.1015E+01
     -0.916  0.4011E-01  0.1017E+01
     -0.861  0.2917E-01  0.1018E+01
     -0.806  0.1960E-01  0.1019E+01
     -0.752  0.1479E-01  0.1020E+01
     -0.697  0.1773E-01  0.1021E+01
     -0.643  0.2631E-01  0.1023E+01
     -0.588  0.3601E-01  0.1025E+01
     -0.534  0.4384E-01  0.1027E+01
     -0.479  0.4784E-01  0.1030E+01
     -0.424  0.4727E-01  0.1032E+01
     -0.370  0.4376E-01  0.1035E+01
     -0.315  0.4220E-01  0.1037E+01
     -0.261  0.4440E-01  0.1039E+01
     -0.206  0.4247E-01  0.1042E+01
     -0.151  0.3161E-01  0.1043E+01
     -0.097  0.2028E-01  0.1044E+01
     -0.042  0.1563E-01  0.1045E+01
      0.012  0.1535E-01  0.1046E+01
      0.067  0.1695E-01  0.1047E+01
      0.122  0.2115E-01  0.1048E+01
      0.176  0.2749E-01  0.1050E+01
      0.231  0.3171E-01  0.1051E+01
      0.285  0.3168E-01  0.1053E+01
      0.340  0.3214E-01  0.1055E+01
      0.394  0.3506E-01  0.1057E+01
      0.449  0.3713E-01  0.1059E+01
      0.504  0.4090E-01  0.1061E+01
      0.558  0.5044E-01  0.1064E+01
      0.613  0.5968E-01  0.1067E+01
      0.667  0.5915E-01  0.1070E+01
      0.722  0.4879E-01  0.1073E+01
      0.777  0.3812E-01  0.1075E+01
      0.831  0.3356E-01  0.1077E+01
      0.886  0.3234E-01  0.1079E+01
      0.940  0.3019E-01  0.1080E+01
      0.995  0.2647E-01  0.1082E+01
      1.050  0.2138E-01  0.1083E+01
      1.104  0.1584E-01  0.1084E+01
      1.159  0.1357E-01  0.1085E+01
      1.213  0.1493E-01  0.1085E+01
      1.268  0.1481E-01  0.1086E+01
      1.322  0.1227E-01  0.1087E+01
      1.377  0.1148E-01  0.1088E+01
      1.432  0.1482E-01  0.1088E+01
      1.486  0.2217E-01  0.1090E+01
      1.541  0.2989E-01  0.1091E+01
      1.595  0.3228E-01  0.1093E+01
      1.650  0.2956E-01  0.1095E+01
      1.705  0.2799E-01  0.1096E+01
      1.759  0.2937E-01  0.1098E+01
      1.814  0.2918E-01  0.1099E+01
      1.868  0.2678E-01  0.1101E+01
      1.923  0.2570E-01  0.1102E+01
      1.978  0.2691E-01  0.1104E+01
      2.032  0.3068E-01  0.1105E+01
      2.087  0.3599E-01  0.1107E+01
      2.141  0.3908E-01  0.1109E+01
      2.196  0.4078E-01  0.1112E+01
      2.250  0.4568E-01  0.1114E+01
      2.305  0.5005E-01  0.1117E+01
      2.360  0.4706E-01  0.1119E+01
      2.414  0.4060E-01  0.1122E+01
      2.469  0.3662E-01  0.1124E+01
      2.523  0.3598E-01  0.1126E+01
      2.578  0.3892E-01  0.1128E+01
      2.633  0.4385E-01  0.1130E+01
      2.687  0.4621E-01  0.1133E+01
      2.742  0.4181E-01  0.1135E+01
      2.796  0.3087E-01  0.1137E+01
      2.851  0.1876E-01  0.1138E+01
      2.906  0.1206E-01  0.1138E+01
      2.960  0.1161E-01  0.1139E+01
      3.015  0.1115E-01  0.1139E+01
      3.069  0.8195E-02  0.1140E+01
      3.124  0.8303E-02  0.1140E+01
      3.178  0.1470E-01  0.1141E+01
      3.233  0.2215E-01  0.1142E+01
      3.288  0.2296E-01  0.1144E+01
      3.342  0.1799E-01  0.1145E+01
      3.397  0.1506E-01  0.1145E+01
      3.451  0.1616E-01  0.1146E+01
      3.506  0.2015E-01  0.1147E+01
      3.561  0.2997E-01  0.1149E+01
      3.615  0.4334E-01  0.1151E+01
      3.670  0.4923E-01  0.1154E+01
      3.724  0.4385E-01  0.1157E+01
      3.779  0.3547E-01  0.1158E+01
      3.834  0.3049E-01  0.1160E+01
      3.888  0.2840E-01  0.1162E+01
      3.943  0.2725E-01  0.1163E+01
      3.997  0.2756E-01  0.1165E+01
      4.052  0.2761E-01  0.1166E+01
      4.106  0.2310E-01  0.1167E+01
      4.161  0.1820E-01  0.1168E+01
      4.216  0.1908E-01  0.1169E+01
      4.270  0.2081E-01  0.1171E+01
      4.325  0.1800E-01  0.1172E+01
      4.379  0.1575E-01  0.1172E+01
      4.434  0.1963E-01  0.1174E+01
      4.489  0.2698E-01  0.1175E+01
      4.543  0.3605E-01  0.1177E+01
      4.598  0.4904E-01  0.1180E+01
      4.652  0.6074E-01  0.1183E+01
      4.707  0.6177E-01  0.1186E+01
      4.762  0.5400E-01  0.1189E+01
      4.816  0.4746E-01  0.1192E+01
      4.871  0.4759E-01  0.1194E+01
      4.925  0.5172E-01  0.1197E+01
      4.980  0.5551E-01  0.1200E+01
      5.034  0.6100E-01  0.1204E+01
      5.089  0.6931E-01  0.1207E+01
      5.144  0.7207E-01  0.1211E+01
      5.198  0.6673E-01  0.1215E+01
      5.253  0.5955E-01  0.1218E+01
      5.307  0.4955E-01  0.1221E+01
      5.362  0.3326E-01  0.1223E+01
      5.417  0.1598E-01  0.1224E+01
      5.471  0.5105E-02  0.1224E+01
      5.526  0.1029E-02  0.1224E+01
      5.580  0.1262E-03  0.1224E+01
      5.635  0.9186E-05  0.1224E+01
      5.690  0.3899E-06  0.1224E+01
      5.744  0.9533E-08  0.1224E+01
      5.799  0.1330E-09  0.1224E+01
      5.853  0.1052E-11  0.1224E+01
      5.908  0.4695E-14  0.1224E+01
      5.962  0.1085E-16  0.1224E+01
      6.017  0.0000E+00  0.1224E+01
      6.072  0.0000E+00  0.1224E+01
      6.126  0.0000E+00  0.1224E+01
      6.181  0.0000E+00  0.1224E+01
      6.235  0.0000E+00  0.1224E+01
      6.290  0.0000E+00  0.1224E+01
      6.345  0.0000E+00  0.1224E+01
